  68  68   1   0
  0.2761390E+02  0.1010031E-08  0.1010031E-08  0.2125380E-08  0.5000000E-15
  1.000000000000000E-004
  CAR 
 SQS-NiFe                                
      7.00983921    -21.16630745  301     -0.02112250      1.00000000
    -21.166  0.0000E+00  0.0000E+00  0.0000E+00  0.0000E+00
    -21.072  0.0000E+00  0.0000E+00  0.0000E+00  0.0000E+00
    -20.978  0.0000E+00  0.0000E+00  0.0000E+00  0.0000E+00
    -20.885  0.0000E+00  0.0000E+00  0.0000E+00  0.0000E+00
    -20.791 -0.5498E-29  0.0000E+00 -0.5164E-30  0.0000E+00
    -20.697 -0.8538E-26  0.0000E+00 -0.8024E-27  0.0000E+00
    -20.603 -0.8500E-23 -0.1898E-30 -0.7991E-24 -0.1783E-31
    -20.509 -0.5420E-20 -0.3584E-27 -0.5099E-21 -0.3368E-28
    -20.415 -0.2212E-17 -0.4339E-24 -0.2083E-18 -0.4078E-25
    -20.321 -0.5593E-15 -0.3365E-21 -0.5274E-16 -0.3164E-22
    -20.227 -0.9286E-13 -0.1671E-18 -0.8774E-14 -0.1573E-19
    -20.133 -0.9798E-11 -0.5311E-16 -0.9290E-12 -0.5004E-17
    -20.039 -0.6564E-09 -0.1044E-13 -0.6258E-10 -0.9855E-15
    -19.945 -0.2781E-07 -0.1346E-11 -0.2674E-08 -0.1274E-12
    -19.851 -0.7405E-06 -0.1104E-09 -0.7222E-07 -0.1050E-10
    -19.758 -0.1228E-04 -0.5751E-08 -0.1226E-05 -0.5506E-09
    -19.664 -0.1250E-03 -0.1894E-06 -0.1296E-04 -0.1834E-07
    -19.570 -0.7576E-03 -0.3921E-05 -0.8412E-04 -0.3866E-06
    -19.476 -0.2540E-02 -0.5057E-04 -0.3227E-03 -0.5136E-05
    -19.382 -0.3379E-02 -0.3994E-03 -0.6401E-03 -0.4264E-04
    -19.288  0.6158E-02 -0.1853E-02 -0.6177E-04 -0.2167E-03
    -19.194  0.3743E-01 -0.4399E-02  0.3454E-02 -0.6299E-03
    -19.100  0.8692E-01 -0.9568E-03  0.1162E-01 -0.7197E-03
    -19.006  0.1254E+00  0.2544E-01  0.2340E-01  0.1670E-02
    -18.912  0.1155E+00  0.8056E-01  0.3424E-01  0.9236E-02
    -18.818  0.6181E-01  0.1304E+00  0.4005E-01  0.2149E-01
    -18.724  0.1313E-01  0.1258E+00  0.4128E-01  0.3330E-01
    -18.630 -0.4286E-02  0.6956E-01  0.4088E-01  0.3983E-01
    -18.537 -0.3732E-02  0.1601E-01  0.4053E-01  0.4133E-01
    -18.443 -0.1131E-02 -0.4206E-02  0.4042E-01  0.4094E-01
    -18.349 -0.1887E-03 -0.4131E-02  0.4041E-01  0.4055E-01
    -18.255 -0.1894E-04 -0.1306E-02  0.4040E-01  0.4043E-01
    -18.161 -0.1178E-05 -0.2254E-03  0.4040E-01  0.4041E-01
    -18.067 -0.4602E-07 -0.2335E-04  0.4040E-01  0.4040E-01
    -17.973 -0.1138E-08 -0.1499E-05  0.4040E-01  0.4040E-01
    -17.879 -0.1786E-10 -0.6049E-07  0.4040E-01  0.4040E-01
    -17.785 -0.1785E-12 -0.1545E-08  0.4040E-01  0.4040E-01
    -17.691 -0.1130E-14 -0.2506E-10  0.4040E-01  0.4040E-01
    -17.597  0.0000E+00 -0.2589E-12  0.4040E-01  0.4040E-01
    -17.503  0.0000E+00 -0.1706E-14  0.4040E-01  0.4040E-01
    -17.409  0.0000E+00  0.0000E+00  0.4040E-01  0.4040E-01
    -17.316  0.0000E+00  0.0000E+00  0.4040E-01  0.4040E-01
    -17.222  0.0000E+00  0.0000E+00  0.4040E-01  0.4040E-01
    -17.128  0.0000E+00  0.0000E+00  0.4040E-01  0.4040E-01
    -17.034  0.0000E+00  0.0000E+00  0.4040E-01  0.4040E-01
    -16.940  0.0000E+00  0.0000E+00  0.4040E-01  0.4040E-01
    -16.846  0.0000E+00  0.0000E+00  0.4040E-01  0.4040E-01
    -16.752  0.0000E+00  0.0000E+00  0.4040E-01  0.4040E-01
    -16.658  0.0000E+00  0.0000E+00  0.4040E-01  0.4040E-01
    -16.564  0.0000E+00  0.0000E+00  0.4040E-01  0.4040E-01
    -16.470  0.0000E+00  0.0000E+00  0.4040E-01  0.4040E-01
    -16.376  0.0000E+00  0.0000E+00  0.4040E-01  0.4040E-01
    -16.282  0.0000E+00  0.0000E+00  0.4040E-01  0.4040E-01
    -16.189  0.0000E+00  0.0000E+00  0.4040E-01  0.4040E-01
    -16.095  0.0000E+00  0.0000E+00  0.4040E-01  0.4040E-01
    -16.001  0.0000E+00  0.0000E+00  0.4040E-01  0.4040E-01
    -15.907  0.0000E+00  0.0000E+00  0.4040E-01  0.4040E-01
    -15.813  0.0000E+00  0.0000E+00  0.4040E-01  0.4040E-01
    -15.719  0.0000E+00  0.0000E+00  0.4040E-01  0.4040E-01
    -15.625  0.0000E+00  0.0000E+00  0.4040E-01  0.4040E-01
    -15.531  0.0000E+00  0.0000E+00  0.4040E-01  0.4040E-01
    -15.437  0.0000E+00  0.0000E+00  0.4040E-01  0.4040E-01
    -15.343  0.0000E+00  0.0000E+00  0.4040E-01  0.4040E-01
    -15.249  0.0000E+00  0.0000E+00  0.4040E-01  0.4040E-01
    -15.155  0.0000E+00  0.0000E+00  0.4040E-01  0.4040E-01
    -15.061  0.0000E+00  0.0000E+00  0.4040E-01  0.4040E-01
    -14.968  0.0000E+00  0.0000E+00  0.4040E-01  0.4040E-01
    -14.874  0.0000E+00  0.0000E+00  0.4040E-01  0.4040E-01
    -14.780  0.0000E+00  0.0000E+00  0.4040E-01  0.4040E-01
    -14.686  0.0000E+00  0.0000E+00  0.4040E-01  0.4040E-01
    -14.592  0.0000E+00  0.0000E+00  0.4040E-01  0.4040E-01
    -14.498  0.0000E+00  0.0000E+00  0.4040E-01  0.4040E-01
    -14.404  0.0000E+00  0.0000E+00  0.4040E-01  0.4040E-01
    -14.310  0.0000E+00  0.0000E+00  0.4040E-01  0.4040E-01
    -14.216  0.0000E+00  0.0000E+00  0.4040E-01  0.4040E-01
    -14.122  0.0000E+00  0.0000E+00  0.4040E-01  0.4040E-01
    -14.028  0.0000E+00  0.0000E+00  0.4040E-01  0.4040E-01
    -13.934  0.0000E+00  0.0000E+00  0.4040E-01  0.4040E-01
    -13.841  0.0000E+00  0.0000E+00  0.4040E-01  0.4040E-01
    -13.747  0.0000E+00  0.0000E+00  0.4040E-01  0.4040E-01
    -13.653  0.0000E+00  0.0000E+00  0.4040E-01  0.4040E-01
    -13.559  0.0000E+00  0.0000E+00  0.4040E-01  0.4040E-01
    -13.465  0.0000E+00  0.0000E+00  0.4040E-01  0.4040E-01
    -13.371  0.0000E+00  0.0000E+00  0.4040E-01  0.4040E-01
    -13.277  0.0000E+00  0.0000E+00  0.4040E-01  0.4040E-01
    -13.183  0.0000E+00  0.0000E+00  0.4040E-01  0.4040E-01
    -13.089  0.0000E+00  0.0000E+00  0.4040E-01  0.4040E-01
    -12.995  0.0000E+00  0.0000E+00  0.4040E-01  0.4040E-01
    -12.901  0.0000E+00  0.0000E+00  0.4040E-01  0.4040E-01
    -12.807  0.0000E+00  0.0000E+00  0.4040E-01  0.4040E-01
    -12.713  0.0000E+00  0.0000E+00  0.4040E-01  0.4040E-01
    -12.620  0.0000E+00  0.0000E+00  0.4040E-01  0.4040E-01
    -12.526  0.0000E+00  0.0000E+00  0.4040E-01  0.4040E-01
    -12.432  0.0000E+00  0.0000E+00  0.4040E-01  0.4040E-01
    -12.338  0.0000E+00  0.0000E+00  0.4040E-01  0.4040E-01
    -12.244  0.0000E+00  0.0000E+00  0.4040E-01  0.4040E-01
    -12.150  0.0000E+00  0.0000E+00  0.4040E-01  0.4040E-01
    -12.056  0.0000E+00  0.0000E+00  0.4040E-01  0.4040E-01
    -11.962  0.0000E+00  0.0000E+00  0.4040E-01  0.4040E-01
    -11.868  0.0000E+00  0.0000E+00  0.4040E-01  0.4040E-01
    -11.774  0.0000E+00  0.0000E+00  0.4040E-01  0.4040E-01
    -11.680  0.0000E+00  0.0000E+00  0.4040E-01  0.4040E-01
    -11.586  0.0000E+00  0.0000E+00  0.4040E-01  0.4040E-01
    -11.492  0.0000E+00  0.0000E+00  0.4040E-01  0.4040E-01
    -11.399  0.0000E+00  0.0000E+00  0.4040E-01  0.4040E-01
    -11.305  0.0000E+00  0.0000E+00  0.4040E-01  0.4040E-01
    -11.211  0.0000E+00  0.0000E+00  0.4040E-01  0.4040E-01
    -11.117  0.0000E+00  0.0000E+00  0.4040E-01  0.4040E-01
    -11.023  0.0000E+00  0.0000E+00  0.4040E-01  0.4040E-01
    -10.929  0.0000E+00  0.0000E+00  0.4040E-01  0.4040E-01
    -10.835  0.0000E+00  0.0000E+00  0.4040E-01  0.4040E-01
    -10.741  0.0000E+00  0.0000E+00  0.4040E-01  0.4040E-01
    -10.647  0.0000E+00  0.0000E+00  0.4040E-01  0.4040E-01
    -10.553  0.0000E+00  0.0000E+00  0.4040E-01  0.4040E-01
    -10.459  0.0000E+00  0.0000E+00  0.4040E-01  0.4040E-01
    -10.365  0.0000E+00  0.0000E+00  0.4040E-01  0.4040E-01
    -10.272  0.0000E+00  0.0000E+00  0.4040E-01  0.4040E-01
    -10.178  0.0000E+00  0.0000E+00  0.4040E-01  0.4040E-01
    -10.084  0.0000E+00  0.0000E+00  0.4040E-01  0.4040E-01
     -9.990 -0.2531E-29  0.0000E+00  0.4040E-01  0.4040E-01
     -9.896 -0.3613E-26 -0.1546E-29  0.4040E-01  0.4040E-01
     -9.802 -0.3307E-23 -0.2272E-26  0.4040E-01  0.4040E-01
     -9.708 -0.1938E-20 -0.2142E-23  0.4040E-01  0.4040E-01
     -9.614 -0.7270E-18 -0.1293E-20  0.4040E-01  0.4040E-01
     -9.520 -0.1690E-15 -0.4993E-18  0.4040E-01  0.4040E-01
     -9.426 -0.2572E-13 -0.1193E-15  0.4040E-01  0.4040E-01
     -9.332 -0.2490E-11 -0.1874E-13  0.4040E-01  0.4040E-01
     -9.238 -0.1528E-09 -0.1869E-11  0.4040E-01  0.4040E-01
     -9.144 -0.5917E-08 -0.1182E-09  0.4040E-01  0.4040E-01
     -9.051 -0.1434E-06 -0.4720E-08  0.4040E-01  0.4040E-01
     -8.957 -0.2150E-05 -0.1180E-06  0.4040E-01  0.4040E-01
     -8.863 -0.1950E-04 -0.1827E-05  0.4040E-01  0.4040E-01
     -8.769 -0.1028E-03 -0.1714E-04  0.4039E-01  0.4040E-01
     -8.675 -0.2855E-03 -0.9382E-04  0.4037E-01  0.4039E-01
     -8.581 -0.2760E-03 -0.2736E-03  0.4034E-01  0.4037E-01
     -8.487  0.5799E-03 -0.2965E-03  0.4039E-01  0.4034E-01
     -8.393  0.3065E-02  0.4843E-03  0.4068E-01  0.4039E-01
     -8.299  0.9755E-02  0.2818E-02  0.4160E-01  0.4065E-01
     -8.205  0.2150E-01  0.9135E-02  0.4362E-01  0.4151E-01
     -8.111  0.2728E-01  0.2073E-01  0.4618E-01  0.4346E-01
     -8.017  0.1780E-01  0.2736E-01  0.4785E-01  0.4602E-01
     -7.924  0.6297E-02  0.1899E-01  0.4844E-01  0.4781E-01
     -7.830  0.8271E-02  0.7540E-02  0.4922E-01  0.4852E-01
     -7.736  0.1951E-01  0.7960E-02  0.5105E-01  0.4926E-01
     -7.642  0.2976E-01  0.1620E-01  0.5385E-01  0.5079E-01
     -7.548  0.3544E-01  0.2484E-01  0.5717E-01  0.5312E-01
     -7.454  0.3134E-01  0.3340E-01  0.6012E-01  0.5626E-01
     -7.360  0.1583E-01  0.3442E-01  0.6161E-01  0.5949E-01
     -7.266  0.5957E-03  0.2089E-01  0.6166E-01  0.6145E-01
     -7.172 -0.3235E-02  0.3836E-02  0.6136E-01  0.6181E-01
     -7.078  0.1152E-01 -0.3956E-02  0.6244E-01  0.6144E-01
     -6.984  0.4758E-01  0.1798E-02  0.6691E-01  0.6161E-01
     -6.890  0.7859E-01  0.2743E-01  0.7429E-01  0.6419E-01
     -6.796  0.7022E-01  0.6491E-01  0.8089E-01  0.7028E-01
     -6.703  0.4174E-01  0.7827E-01  0.8481E-01  0.7763E-01
     -6.609  0.3656E-01  0.5456E-01  0.8824E-01  0.8276E-01
     -6.515  0.5232E-01  0.3064E-01  0.9315E-01  0.8563E-01
     -6.421  0.5816E-01  0.3391E-01  0.9862E-01  0.8882E-01
     -6.327  0.5054E-01  0.5025E-01  0.1034E+00  0.9354E-01
     -6.233  0.5159E-01  0.5336E-01  0.1082E+00  0.9855E-01
     -6.139  0.6304E-01  0.3747E-01  0.1141E+00  0.1021E+00
     -6.045  0.7593E-01  0.2771E-01  0.1213E+00  0.1047E+00
     -5.951  0.1046E+00  0.4546E-01  0.1311E+00  0.1089E+00
     -5.857  0.1505E+00  0.7152E-01  0.1452E+00  0.1157E+00
     -5.763  0.1880E+00  0.7913E-01  0.1629E+00  0.1231E+00
     -5.669  0.2100E+00  0.7364E-01  0.1826E+00  0.1300E+00
     -5.576  0.2221E+00  0.6805E-01  0.2035E+00  0.1364E+00
     -5.482  0.2110E+00  0.7603E-01  0.2233E+00  0.1435E+00
     -5.388  0.1691E+00  0.1241E+00  0.2392E+00  0.1552E+00
     -5.294  0.1213E+00  0.2096E+00  0.2506E+00  0.1749E+00
     -5.200  0.1033E+00  0.2702E+00  0.2603E+00  0.2003E+00
     -5.106  0.1230E+00  0.2462E+00  0.2718E+00  0.2234E+00
     -5.012  0.1713E+00  0.1648E+00  0.2879E+00  0.2389E+00
     -4.918  0.2418E+00  0.9996E-01  0.3106E+00  0.2482E+00
     -4.824  0.3094E+00  0.8040E-01  0.3397E+00  0.2558E+00
     -4.730  0.3350E+00  0.8872E-01  0.3711E+00  0.2641E+00
     -4.636  0.3124E+00  0.1094E+00  0.4005E+00  0.2744E+00
     -4.542  0.2915E+00  0.1336E+00  0.4278E+00  0.2869E+00
     -4.448  0.3131E+00  0.1478E+00  0.4572E+00  0.3008E+00
     -4.355  0.3644E+00  0.1540E+00  0.4915E+00  0.3153E+00
     -4.261  0.4453E+00  0.1516E+00  0.5333E+00  0.3295E+00
     -4.167  0.5534E+00  0.1256E+00  0.5853E+00  0.3413E+00
     -4.073  0.6273E+00  0.9626E-01  0.6442E+00  0.3504E+00
     -3.979  0.6192E+00  0.1182E+00  0.7023E+00  0.3615E+00
     -3.885  0.5688E+00  0.2062E+00  0.7558E+00  0.3808E+00
     -3.791  0.5451E+00  0.2950E+00  0.8070E+00  0.4085E+00
     -3.697  0.5476E+00  0.3117E+00  0.8584E+00  0.4378E+00
     -3.603  0.5422E+00  0.2644E+00  0.9093E+00  0.4626E+00
     -3.509  0.5353E+00  0.2172E+00  0.9596E+00  0.4830E+00
     -3.415  0.5457E+00  0.2157E+00  0.1011E+01  0.5033E+00
     -3.321  0.5756E+00  0.2686E+00  0.1065E+01  0.5285E+00
     -3.227  0.6074E+00  0.3680E+00  0.1122E+01  0.5631E+00
     -3.134  0.6136E+00  0.4719E+00  0.1180E+01  0.6074E+00
     -3.040  0.6009E+00  0.5138E+00  0.1236E+01  0.6557E+00
     -2.946  0.6148E+00  0.4894E+00  0.1294E+01  0.7016E+00
     -2.852  0.6781E+00  0.4625E+00  0.1357E+01  0.7451E+00
     -2.758  0.7782E+00  0.4725E+00  0.1431E+01  0.7894E+00
     -2.664  0.8889E+00  0.4978E+00  0.1514E+01  0.8362E+00
     -2.570  0.9733E+00  0.5055E+00  0.1605E+01  0.8837E+00
     -2.476  0.1011E+01  0.4999E+00  0.1700E+01  0.9306E+00
     -2.382  0.1014E+01  0.4985E+00  0.1796E+01  0.9774E+00
     -2.288  0.9964E+00  0.5058E+00  0.1889E+01  0.1025E+01
     -2.194  0.9491E+00  0.5195E+00  0.1978E+01  0.1074E+01
     -2.100  0.8672E+00  0.5274E+00  0.2060E+01  0.1123E+01
     -2.007  0.7939E+00  0.5282E+00  0.2134E+01  0.1173E+01
     -1.913  0.7718E+00  0.5460E+00  0.2207E+01  0.1224E+01
     -1.819  0.7869E+00  0.5903E+00  0.2281E+01  0.1280E+01
     -1.725  0.8115E+00  0.6426E+00  0.2357E+01  0.1340E+01
     -1.631  0.8402E+00  0.6929E+00  0.2436E+01  0.1405E+01
     -1.537  0.8669E+00  0.7427E+00  0.2517E+01  0.1475E+01
     -1.443  0.8878E+00  0.7794E+00  0.2601E+01  0.1548E+01
     -1.349  0.9096E+00  0.7968E+00  0.2686E+01  0.1623E+01
     -1.255  0.9274E+00  0.8105E+00  0.2773E+01  0.1699E+01
     -1.161  0.9348E+00  0.8191E+00  0.2861E+01  0.1776E+01
     -1.067  0.9478E+00  0.8011E+00  0.2950E+01  0.1851E+01
     -0.973  0.9783E+00  0.7603E+00  0.3042E+01  0.1923E+01
     -0.879  0.1011E+01  0.7224E+00  0.3137E+01  0.1990E+01
     -0.786  0.1005E+01  0.6978E+00  0.3231E+01  0.2056E+01
     -0.692  0.9045E+00  0.6764E+00  0.3316E+01  0.2119E+01
     -0.598  0.7064E+00  0.6512E+00  0.3383E+01  0.2181E+01
     -0.504  0.4884E+00  0.6298E+00  0.3428E+01  0.2240E+01
     -0.410  0.3380E+00  0.6168E+00  0.3460E+01  0.2298E+01
     -0.316  0.2821E+00  0.6025E+00  0.3487E+01  0.2354E+01
     -0.222  0.2698E+00  0.5884E+00  0.3512E+01  0.2410E+01
     -0.128  0.2340E+00  0.5870E+00  0.3534E+01  0.2465E+01
     -0.034  0.1833E+00  0.5871E+00  0.3551E+01  0.2520E+01
      0.060  0.1702E+00  0.5770E+00  0.3567E+01  0.2574E+01
      0.154  0.1832E+00  0.5689E+00  0.3584E+01  0.2627E+01
      0.248  0.1661E+00  0.5616E+00  0.3600E+01  0.2680E+01
      0.341  0.1126E+00  0.5445E+00  0.3611E+01  0.2731E+01
      0.435  0.7379E-01  0.5290E+00  0.3618E+01  0.2781E+01
      0.529  0.8760E-01  0.5332E+00  0.3626E+01  0.2831E+01
      0.623  0.1172E+00  0.5513E+00  0.3637E+01  0.2883E+01
      0.717  0.1053E+00  0.5597E+00  0.3647E+01  0.2935E+01
      0.811  0.7879E-01  0.5569E+00  0.3654E+01  0.2988E+01
      0.905  0.9427E-01  0.5649E+00  0.3663E+01  0.3041E+01
      0.999  0.1410E+00  0.5893E+00  0.3676E+01  0.3096E+01
      1.093  0.1737E+00  0.6131E+00  0.3692E+01  0.3154E+01
      1.187  0.1635E+00  0.6228E+00  0.3708E+01  0.3212E+01
      1.281  0.1156E+00  0.6211E+00  0.3719E+01  0.3271E+01
      1.375  0.6664E-01  0.6203E+00  0.3725E+01  0.3329E+01
      1.469  0.4244E-01  0.6249E+00  0.3729E+01  0.3387E+01
      1.562  0.4917E-01  0.6233E+00  0.3734E+01  0.3446E+01
      1.656  0.9227E-01  0.5901E+00  0.3742E+01  0.3501E+01
      1.750  0.1461E+00  0.5101E+00  0.3756E+01  0.3549E+01
      1.844  0.1509E+00  0.4081E+00  0.3770E+01  0.3588E+01
      1.938  0.1007E+00  0.3187E+00  0.3780E+01  0.3618E+01
      2.032  0.7572E-01  0.2502E+00  0.3787E+01  0.3641E+01
      2.126  0.1178E+00  0.2043E+00  0.3798E+01  0.3660E+01
      2.220  0.1538E+00  0.1798E+00  0.3812E+01  0.3677E+01
      2.314  0.1163E+00  0.1584E+00  0.3823E+01  0.3692E+01
      2.408  0.5637E-01  0.1314E+00  0.3828E+01  0.3704E+01
      2.502  0.5307E-01  0.1130E+00  0.3833E+01  0.3715E+01
      2.596  0.9244E-01  0.1150E+00  0.3842E+01  0.3726E+01
      2.689  0.1146E+00  0.1353E+00  0.3853E+01  0.3739E+01
      2.783  0.1044E+00  0.1590E+00  0.3863E+01  0.3753E+01
      2.877  0.8103E-01  0.1629E+00  0.3870E+01  0.3769E+01
      2.971  0.6875E-01  0.1481E+00  0.3877E+01  0.3783E+01
      3.065  0.8499E-01  0.1440E+00  0.3885E+01  0.3796E+01
      3.159  0.1107E+00  0.1539E+00  0.3895E+01  0.3811E+01
      3.253  0.1144E+00  0.1464E+00  0.3906E+01  0.3824E+01
      3.347  0.1020E+00  0.1180E+00  0.3915E+01  0.3835E+01
      3.441  0.9389E-01  0.9397E-01  0.3924E+01  0.3844E+01
      3.535  0.8430E-01  0.7660E-01  0.3932E+01  0.3851E+01
      3.629  0.7719E-01  0.6033E-01  0.3939E+01  0.3857E+01
      3.723  0.9361E-01  0.6072E-01  0.3948E+01  0.3863E+01
      3.817  0.1193E+00  0.8620E-01  0.3959E+01  0.3871E+01
      3.910  0.1175E+00  0.1222E+00  0.3970E+01  0.3882E+01
      4.004  0.8276E-01  0.1480E+00  0.3978E+01  0.3896E+01
      4.098  0.4955E-01  0.1483E+00  0.3983E+01  0.3910E+01
      4.192  0.4376E-01  0.1256E+00  0.3987E+01  0.3922E+01
      4.286  0.5275E-01  0.9746E-01  0.3992E+01  0.3931E+01
      4.380  0.5131E-01  0.8581E-01  0.3997E+01  0.3939E+01
      4.474  0.3121E-01  0.9652E-01  0.4000E+01  0.3948E+01
      4.568  0.8372E-02  0.1076E+00  0.4000E+01  0.3958E+01
      4.662 -0.1645E-02  0.1054E+00  0.4000E+01  0.3968E+01
      4.756 -0.1957E-02  0.9546E-01  0.4000E+01  0.3977E+01
      4.850 -0.6325E-03  0.8447E-01  0.4000E+01  0.3985E+01
      4.944 -0.1077E-03  0.7360E-01  0.4000E+01  0.3992E+01
      5.038 -0.1081E-04  0.5555E-01  0.4000E+01  0.3997E+01
      5.131 -0.6647E-06  0.2789E-01  0.4000E+01  0.4000E+01
      5.225 -0.2556E-07  0.5195E-02  0.4000E+01  0.4000E+01
      5.319 -0.6209E-09 -0.2564E-02  0.4000E+01  0.4000E+01
      5.413 -0.9589E-11 -0.1902E-02  0.4000E+01  0.4000E+01
      5.507 -0.9452E-13 -0.5350E-03  0.4000E+01  0.4000E+01
      5.601 -0.5997E-15 -0.8242E-04  0.4000E+01  0.4000E+01
      5.695  0.0000E+00 -0.7557E-05  0.4000E+01  0.4000E+01
      5.789  0.0000E+00 -0.4262E-06  0.4000E+01  0.4000E+01
      5.883  0.0000E+00 -0.1503E-07  0.4000E+01  0.4000E+01
      5.977  0.0000E+00 -0.3343E-09  0.4000E+01  0.4000E+01
      6.071  0.0000E+00 -0.4721E-11  0.4000E+01  0.4000E+01
      6.165  0.0000E+00 -0.4245E-13  0.4000E+01  0.4000E+01
      6.258  0.0000E+00 -0.2441E-15  0.4000E+01  0.4000E+01
      6.352  0.0000E+00  0.0000E+00  0.4000E+01  0.4000E+01
      6.446  0.0000E+00  0.0000E+00  0.4000E+01  0.4000E+01
      6.540  0.0000E+00  0.0000E+00  0.4000E+01  0.4000E+01
      6.634  0.0000E+00  0.0000E+00  0.4000E+01  0.4000E+01
      6.728  0.0000E+00  0.0000E+00  0.4000E+01  0.4000E+01
      6.822  0.0000E+00  0.0000E+00  0.4000E+01  0.4000E+01
      6.916  0.0000E+00  0.0000E+00  0.4000E+01  0.4000E+01
      7.010  0.0000E+00  0.0000E+00  0.4000E+01  0.4000E+01
      7.00983921    -21.16630745  301     -0.02112250      1.00000000
    -21.166  0.0000E+00  0.0000E+00  0.0000E+00  0.0000E+00  0.0000E+00  0.0000E+00
    -21.072  0.0000E+00  0.0000E+00  0.0000E+00  0.0000E+00  0.0000E+00  0.0000E+00
    -20.978  0.0000E+00  0.0000E+00  0.0000E+00  0.0000E+00  0.0000E+00  0.0000E+00
    -20.885  0.0000E+00  0.0000E+00  0.0000E+00  0.0000E+00  0.0000E+00  0.0000E+00
    -20.791 -0.1553E-34  0.0000E+00 -0.9901E-35  0.0000E+00 -0.1924E-35  0.0000E+00
    -20.697 -0.2411E-31  0.0000E+00 -0.1537E-31  0.0000E+00 -0.2988E-32  0.0000E+00
    -20.603 -0.2400E-28 -0.6210E-36 -0.1531E-28 -0.3980E-36 -0.2975E-29 -0.8131E-37
    -20.509 -0.1530E-25 -0.1172E-32 -0.9759E-26 -0.7512E-33 -0.1897E-26 -0.1535E-33
    -20.415 -0.6245E-23 -0.1419E-29 -0.3982E-23 -0.9093E-30 -0.7740E-24 -0.1858E-30
    -20.321 -0.1579E-20 -0.1100E-26 -0.1007E-20 -0.7051E-27 -0.1957E-21 -0.1440E-27
    -20.227 -0.2620E-18 -0.5461E-24 -0.1671E-18 -0.3500E-24 -0.3248E-19 -0.7150E-25
    -20.133 -0.2763E-16 -0.1734E-21 -0.1762E-16 -0.1112E-21 -0.3425E-17 -0.2271E-22
    -20.039 -0.1849E-14 -0.3404E-19 -0.1179E-14 -0.2182E-19 -0.2291E-15 -0.4457E-20
    -19.945 -0.7810E-13 -0.4380E-17 -0.4981E-13 -0.2807E-17 -0.9681E-14 -0.5735E-18
    -19.851 -0.2068E-11 -0.3580E-15 -0.1319E-11 -0.2295E-15 -0.2564E-12 -0.4688E-16
    -19.758 -0.3391E-10 -0.1852E-13 -0.2163E-10 -0.1187E-13 -0.4204E-11 -0.2425E-14
    -19.664 -0.3364E-09 -0.6028E-12 -0.2146E-09 -0.3863E-12 -0.4172E-10 -0.7894E-13
    -19.570 -0.1922E-08 -0.1222E-10 -0.1226E-08 -0.7834E-11 -0.2385E-09 -0.1601E-11
    -19.476 -0.5450E-08 -0.1518E-09 -0.3478E-08 -0.9730E-10 -0.6776E-09 -0.1989E-10
    -19.382 -0.1850E-08 -0.1115E-08 -0.1188E-08 -0.7150E-09 -0.2382E-09 -0.1462E-09
    -19.288  0.3261E-07 -0.4446E-08  0.2078E-07 -0.2851E-08  0.4025E-08 -0.5838E-09
    -19.194  0.9341E-07 -0.6602E-08  0.5959E-07 -0.4240E-08  0.1159E-07 -0.8725E-09
    -19.100  0.1159E-06  0.1444E-07  0.7407E-07  0.9236E-08  0.1452E-07  0.1873E-08
    -19.006  0.6997E-07  0.7741E-07  0.4493E-07  0.4963E-07  0.8997E-08  0.1014E-07
    -18.912  0.1496E-07  0.1334E-06  0.9853E-08  0.8567E-07  0.2199E-08  0.1761E-07
    -18.818 -0.4829E-08  0.1111E-06 -0.2914E-08  0.7156E-07 -0.4057E-09  0.1487E-07
    -18.724 -0.3789E-08  0.4107E-07 -0.2386E-08  0.2669E-07 -0.4287E-09  0.5745E-08
    -18.630 -0.1059E-08 -0.7619E-09 -0.6886E-09 -0.2785E-09 -0.1443E-09  0.1199E-09
    -18.537 -0.1826E-09 -0.6201E-08 -0.1260E-09 -0.3930E-08 -0.3377E-10 -0.7591E-09
    -18.443 -0.2444E-10 -0.2361E-08 -0.1828E-10 -0.1527E-08 -0.6342E-11 -0.3215E-09
    -18.349 -0.2750E-11 -0.4597E-09 -0.2182E-11 -0.3066E-09 -0.8858E-12 -0.7275E-10
    -18.255 -0.2371E-12 -0.5740E-10 -0.1928E-12 -0.4031E-10 -0.8351E-13 -0.1145E-10
    -18.161 -0.1403E-13 -0.5268E-11 -0.1147E-13 -0.3953E-11 -0.5082E-14 -0.1361E-11
    -18.067 -0.5399E-15 -0.3781E-12 -0.4414E-15 -0.2998E-12 -0.1970E-15 -0.1184E-12
    -17.973 -0.1329E-16 -0.2041E-13 -0.1085E-16 -0.1666E-13 -0.4852E-17 -0.7061E-14
    -17.879 -0.2086E-18 -0.7674E-15 -0.1700E-18 -0.6334E-15 -0.7606E-19 -0.2767E-15
    -17.785 -0.2085E-20 -0.1910E-16 -0.1698E-20 -0.1580E-16 -0.7596E-21 -0.6984E-17
    -17.691 -0.1321E-22 -0.3072E-18 -0.1075E-22 -0.2542E-18 -0.4808E-23 -0.1128E-18
    -17.597  0.0000E+00 -0.3159E-20  0.0000E+00 -0.2612E-20  0.0000E+00 -0.1162E-20
    -17.503  0.0000E+00 -0.2085E-22  0.0000E+00 -0.1719E-22  0.0000E+00 -0.7644E-23
    -17.409  0.0000E+00  0.0000E+00  0.0000E+00  0.0000E+00  0.0000E+00  0.0000E+00
    -17.316  0.0000E+00  0.0000E+00  0.0000E+00  0.0000E+00  0.0000E+00  0.0000E+00
    -17.222  0.0000E+00  0.0000E+00  0.0000E+00  0.0000E+00  0.0000E+00  0.0000E+00
    -17.128  0.0000E+00  0.0000E+00  0.0000E+00  0.0000E+00  0.0000E+00  0.0000E+00
    -17.034  0.0000E+00  0.0000E+00  0.0000E+00  0.0000E+00  0.0000E+00  0.0000E+00
    -16.940  0.0000E+00  0.0000E+00  0.0000E+00  0.0000E+00  0.0000E+00  0.0000E+00
    -16.846  0.0000E+00  0.0000E+00  0.0000E+00  0.0000E+00  0.0000E+00  0.0000E+00
    -16.752  0.0000E+00  0.0000E+00  0.0000E+00  0.0000E+00  0.0000E+00  0.0000E+00
    -16.658  0.0000E+00  0.0000E+00  0.0000E+00  0.0000E+00  0.0000E+00  0.0000E+00
    -16.564  0.0000E+00  0.0000E+00  0.0000E+00  0.0000E+00  0.0000E+00  0.0000E+00
    -16.470  0.0000E+00  0.0000E+00  0.0000E+00  0.0000E+00  0.0000E+00  0.0000E+00
    -16.376  0.0000E+00  0.0000E+00  0.0000E+00  0.0000E+00  0.0000E+00  0.0000E+00
    -16.282  0.0000E+00  0.0000E+00  0.0000E+00  0.0000E+00  0.0000E+00  0.0000E+00
    -16.189  0.0000E+00  0.0000E+00  0.0000E+00  0.0000E+00  0.0000E+00  0.0000E+00
    -16.095  0.0000E+00  0.0000E+00  0.0000E+00  0.0000E+00  0.0000E+00  0.0000E+00
    -16.001  0.0000E+00  0.0000E+00  0.0000E+00  0.0000E+00  0.0000E+00  0.0000E+00
    -15.907  0.0000E+00  0.0000E+00  0.0000E+00  0.0000E+00  0.0000E+00  0.0000E+00
    -15.813  0.0000E+00  0.0000E+00  0.0000E+00  0.0000E+00  0.0000E+00  0.0000E+00
    -15.719  0.0000E+00  0.0000E+00  0.0000E+00  0.0000E+00  0.0000E+00  0.0000E+00
    -15.625  0.0000E+00  0.0000E+00  0.0000E+00  0.0000E+00  0.0000E+00  0.0000E+00
    -15.531  0.0000E+00  0.0000E+00  0.0000E+00  0.0000E+00  0.0000E+00  0.0000E+00
    -15.437  0.0000E+00  0.0000E+00  0.0000E+00  0.0000E+00  0.0000E+00  0.0000E+00
    -15.343  0.0000E+00  0.0000E+00  0.0000E+00  0.0000E+00  0.0000E+00  0.0000E+00
    -15.249  0.0000E+00  0.0000E+00  0.0000E+00  0.0000E+00  0.0000E+00  0.0000E+00
    -15.155  0.0000E+00  0.0000E+00  0.0000E+00  0.0000E+00  0.0000E+00  0.0000E+00
    -15.061  0.0000E+00  0.0000E+00  0.0000E+00  0.0000E+00  0.0000E+00  0.0000E+00
    -14.968  0.0000E+00  0.0000E+00  0.0000E+00  0.0000E+00  0.0000E+00  0.0000E+00
    -14.874  0.0000E+00  0.0000E+00  0.0000E+00  0.0000E+00  0.0000E+00  0.0000E+00
    -14.780  0.0000E+00  0.0000E+00  0.0000E+00  0.0000E+00  0.0000E+00  0.0000E+00
    -14.686  0.0000E+00  0.0000E+00  0.0000E+00  0.0000E+00  0.0000E+00  0.0000E+00
    -14.592  0.0000E+00  0.0000E+00  0.0000E+00  0.0000E+00  0.0000E+00  0.0000E+00
    -14.498  0.0000E+00  0.0000E+00  0.0000E+00  0.0000E+00  0.0000E+00  0.0000E+00
    -14.404  0.0000E+00  0.0000E+00  0.0000E+00  0.0000E+00  0.0000E+00  0.0000E+00
    -14.310  0.0000E+00  0.0000E+00  0.0000E+00  0.0000E+00  0.0000E+00  0.0000E+00
    -14.216  0.0000E+00  0.0000E+00  0.0000E+00  0.0000E+00  0.0000E+00  0.0000E+00
    -14.122  0.0000E+00  0.0000E+00  0.0000E+00  0.0000E+00  0.0000E+00  0.0000E+00
    -14.028  0.0000E+00  0.0000E+00  0.0000E+00  0.0000E+00  0.0000E+00  0.0000E+00
    -13.934  0.0000E+00  0.0000E+00  0.0000E+00  0.0000E+00  0.0000E+00  0.0000E+00
    -13.841  0.0000E+00  0.0000E+00  0.0000E+00  0.0000E+00  0.0000E+00  0.0000E+00
    -13.747  0.0000E+00  0.0000E+00  0.0000E+00  0.0000E+00  0.0000E+00  0.0000E+00
    -13.653  0.0000E+00  0.0000E+00  0.0000E+00  0.0000E+00  0.0000E+00  0.0000E+00
    -13.559  0.0000E+00  0.0000E+00  0.0000E+00  0.0000E+00  0.0000E+00  0.0000E+00
    -13.465  0.0000E+00  0.0000E+00  0.0000E+00  0.0000E+00  0.0000E+00  0.0000E+00
    -13.371  0.0000E+00  0.0000E+00  0.0000E+00  0.0000E+00  0.0000E+00  0.0000E+00
    -13.277  0.0000E+00  0.0000E+00  0.0000E+00  0.0000E+00  0.0000E+00  0.0000E+00
    -13.183  0.0000E+00  0.0000E+00  0.0000E+00  0.0000E+00  0.0000E+00  0.0000E+00
    -13.089  0.0000E+00  0.0000E+00  0.0000E+00  0.0000E+00  0.0000E+00  0.0000E+00
    -12.995  0.0000E+00  0.0000E+00  0.0000E+00  0.0000E+00  0.0000E+00  0.0000E+00
    -12.901  0.0000E+00  0.0000E+00  0.0000E+00  0.0000E+00  0.0000E+00  0.0000E+00
    -12.807  0.0000E+00  0.0000E+00  0.0000E+00  0.0000E+00  0.0000E+00  0.0000E+00
    -12.713  0.0000E+00  0.0000E+00  0.0000E+00  0.0000E+00  0.0000E+00  0.0000E+00
    -12.620  0.0000E+00  0.0000E+00  0.0000E+00  0.0000E+00  0.0000E+00  0.0000E+00
    -12.526  0.0000E+00  0.0000E+00  0.0000E+00  0.0000E+00  0.0000E+00  0.0000E+00
    -12.432  0.0000E+00  0.0000E+00  0.0000E+00  0.0000E+00  0.0000E+00  0.0000E+00
    -12.338  0.0000E+00  0.0000E+00  0.0000E+00  0.0000E+00  0.0000E+00  0.0000E+00
    -12.244  0.0000E+00  0.0000E+00  0.0000E+00  0.0000E+00  0.0000E+00  0.0000E+00
    -12.150  0.0000E+00  0.0000E+00  0.0000E+00  0.0000E+00  0.0000E+00  0.0000E+00
    -12.056  0.0000E+00  0.0000E+00  0.0000E+00  0.0000E+00  0.0000E+00  0.0000E+00
    -11.962  0.0000E+00  0.0000E+00  0.0000E+00  0.0000E+00  0.0000E+00  0.0000E+00
    -11.868  0.0000E+00  0.0000E+00  0.0000E+00  0.0000E+00  0.0000E+00  0.0000E+00
    -11.774  0.0000E+00  0.0000E+00  0.0000E+00  0.0000E+00  0.0000E+00  0.0000E+00
    -11.680  0.0000E+00  0.0000E+00  0.0000E+00  0.0000E+00  0.0000E+00  0.0000E+00
    -11.586  0.0000E+00  0.0000E+00  0.0000E+00  0.0000E+00  0.0000E+00  0.0000E+00
    -11.492  0.0000E+00  0.0000E+00  0.0000E+00  0.0000E+00  0.0000E+00  0.0000E+00
    -11.399  0.0000E+00  0.0000E+00  0.0000E+00  0.0000E+00  0.0000E+00  0.0000E+00
    -11.305  0.0000E+00  0.0000E+00  0.0000E+00  0.0000E+00  0.0000E+00  0.0000E+00
    -11.211  0.0000E+00  0.0000E+00  0.0000E+00  0.0000E+00  0.0000E+00  0.0000E+00
    -11.117  0.0000E+00  0.0000E+00  0.0000E+00  0.0000E+00  0.0000E+00  0.0000E+00
    -11.023  0.0000E+00  0.0000E+00  0.0000E+00  0.0000E+00  0.0000E+00  0.0000E+00
    -10.929  0.0000E+00  0.0000E+00  0.0000E+00  0.0000E+00  0.0000E+00  0.0000E+00
    -10.835  0.0000E+00  0.0000E+00  0.0000E+00  0.0000E+00  0.0000E+00  0.0000E+00
    -10.741  0.0000E+00  0.0000E+00  0.0000E+00  0.0000E+00  0.0000E+00  0.0000E+00
    -10.647  0.0000E+00  0.0000E+00  0.0000E+00  0.0000E+00  0.0000E+00  0.0000E+00
    -10.553  0.0000E+00  0.0000E+00  0.0000E+00  0.0000E+00  0.0000E+00  0.0000E+00
    -10.459  0.0000E+00  0.0000E+00  0.0000E+00  0.0000E+00  0.0000E+00  0.0000E+00
    -10.365  0.0000E+00  0.0000E+00  0.0000E+00  0.0000E+00  0.0000E+00  0.0000E+00
    -10.272  0.0000E+00  0.0000E+00  0.0000E+00  0.0000E+00  0.0000E+00  0.0000E+00
    -10.178  0.0000E+00  0.0000E+00  0.0000E+00  0.0000E+00  0.0000E+00  0.0000E+00
    -10.084  0.0000E+00  0.0000E+00  0.0000E+00  0.0000E+00  0.0000E+00  0.0000E+00
     -9.990 -0.4307E-29  0.0000E+00 -0.2785E-31  0.0000E+00 -0.1097E-31  0.0000E+00
     -9.896 -0.6149E-26 -0.2827E-29 -0.3975E-28 -0.1368E-31 -0.1567E-28 -0.8566E-32
     -9.802 -0.5628E-23 -0.4157E-26 -0.3639E-25 -0.2011E-28 -0.1434E-25 -0.1259E-28
     -9.708 -0.3299E-20 -0.3917E-23 -0.2133E-22 -0.1895E-25 -0.8406E-23 -0.1187E-25
     -9.614 -0.1237E-17 -0.2364E-20 -0.7999E-20 -0.1144E-22 -0.3153E-20 -0.7163E-23
     -9.520 -0.2876E-15 -0.9132E-18 -0.1860E-17 -0.4418E-20 -0.7329E-18 -0.2767E-20
     -9.426 -0.4377E-13 -0.2182E-15 -0.2830E-15 -0.1056E-17 -0.1115E-15 -0.6611E-18
     -9.332 -0.4237E-11 -0.3428E-13 -0.2740E-13 -0.1659E-15 -0.1080E-13 -0.1039E-15
     -9.238 -0.2601E-09 -0.3419E-11 -0.1682E-11 -0.1655E-13 -0.6626E-12 -0.1036E-13
     -9.144 -0.1007E-07 -0.2163E-09 -0.6520E-10 -0.1047E-11 -0.2566E-10 -0.6552E-12
     -9.051 -0.2441E-06 -0.8633E-08 -0.1586E-08 -0.4185E-10 -0.6219E-09 -0.2615E-10
     -8.957 -0.3658E-05 -0.2159E-06 -0.2400E-07 -0.1051E-08 -0.9319E-08 -0.6539E-09
     -8.863 -0.3317E-04 -0.3341E-05 -0.2248E-06 -0.1647E-07 -0.8448E-07 -0.1012E-07
     -8.769 -0.1745E-03 -0.3134E-04 -0.1314E-05 -0.1607E-06 -0.4441E-06 -0.9488E-07
     -8.675 -0.4820E-03 -0.1713E-03 -0.5152E-05 -0.9974E-06 -0.1222E-05 -0.5176E-06
     -8.581 -0.4447E-03 -0.4965E-03 -0.1588E-04 -0.4310E-05 -0.1092E-05 -0.1490E-05
     -8.487  0.1070E-02 -0.5161E-03 -0.3623E-04 -0.1513E-04  0.2860E-05 -0.1473E-05
     -8.393  0.5290E-02  0.9768E-03 -0.3223E-05 -0.3926E-04  0.1358E-04  0.3276E-05
     -8.299  0.1623E-01  0.5249E-02  0.3087E-03 -0.1995E-04  0.4051E-04  0.1621E-04