       N       E                     dE             d eps       ncg     rms          rms(c)
DAV:   1    -0.429029554925E+03   -0.42903E+03   -0.27494E+00 10904   0.669E+00    0.308E+01
RMM:   2    -0.622797263214E+03   -0.19377E+03   -0.16325E+02  9258   0.223E+01    0.157E+02
RMM:   3    -0.481307372579E+03    0.14149E+03   -0.80752E+01  7953   0.224E+01    0.972E+01
RMM:   4    -0.433067459575E+03    0.48240E+02   -0.36151E+01  7975   0.153E+01    0.469E+01
RMM:   5    -0.434295985680E+03   -0.12285E+01   -0.13293E+01  7972   0.942E+00    0.509E+01
RMM:   6    -0.432605026799E+03    0.16910E+01   -0.98633E+00  7940   0.814E+00    0.355E+01
RMM:   7    -0.430153925092E+03    0.24511E+01   -0.23268E+00  7958   0.405E+00    0.243E+01
RMM:   8    -0.429957377401E+03    0.19655E+00   -0.35190E-01  7960   0.148E+00    0.221E+01
RMM:   9    -0.433677574336E+03   -0.37202E+01   -0.20866E+00  7952   0.347E+00    0.317E+01
RMM:  10    -0.432745294906E+03    0.93228E+00   -0.18283E+00  7950   0.339E+00    0.212E+01
RMM:  11    -0.433481514378E+03   -0.73622E+00   -0.16214E+00  7945   0.306E+00    0.204E+01
RMM:  12    -0.435163650676E+03   -0.16821E+01   -0.25188E+00  7948   0.344E+00    0.234E+01
RMM:  13    -0.434044455538E+03    0.11192E+01   -0.15537E+00  7943   0.309E+00    0.169E+01
RMM:  14    -0.434378763294E+03   -0.33431E+00   -0.11536E+00  7962   0.236E+00    0.182E+01
RMM:  15    -0.433918768392E+03    0.45999E+00   -0.13296E+00  7939   0.248E+00    0.152E+01
RMM:  16    -0.433752612053E+03    0.16616E+00   -0.69046E-01  7956   0.198E+00    0.129E+01
RMM:  17    -0.435163664124E+03   -0.14111E+01   -0.96136E-01  7944   0.240E+00    0.163E+01
RMM:  18    -0.434416480789E+03    0.74718E+00   -0.60983E-01  7956   0.210E+00    0.116E+01
RMM:  19    -0.435464429908E+03   -0.10479E+01   -0.40078E-01  7953   0.159E+00    0.126E+01
RMM:  20    -0.435697400114E+03   -0.23297E+00   -0.35707E-01  7945   0.147E+00    0.110E+01
RMM:  21    -0.436001650562E+03   -0.30425E+00   -0.25276E-01  7960   0.127E+00    0.102E+01
RMM:  22    -0.436740534518E+03   -0.73888E+00   -0.42724E-01  7965   0.147E+00    0.108E+01
RMM:  23    -0.437009675846E+03   -0.26914E+00   -0.41372E-01  7966   0.160E+00    0.896E+00
RMM:  24    -0.437336558458E+03   -0.32688E+00   -0.20386E-01  7967   0.107E+00    0.804E+00
RMM:  25    -0.437797389804E+03   -0.46083E+00   -0.26641E-01  7962   0.117E+00    0.667E+00
RMM:  26    -0.438426785428E+03   -0.62940E+00   -0.28096E-01  7965   0.110E+00    0.742E+00
RMM:  27    -0.439243100176E+03   -0.81631E+00   -0.46765E-01  7970   0.119E+00    0.556E+00
RMM:  28    -0.439541420419E+03   -0.29832E+00   -0.18747E-01  7960   0.895E-01    0.548E+00
RMM:  29    -0.440045793127E+03   -0.50437E+00   -0.24925E-01  7958   0.807E-01    0.517E+00
RMM:  30    -0.440174547493E+03   -0.12875E+00   -0.92318E-02  7952   0.664E-01    0.488E+00
RMM:  31    -0.440499082147E+03   -0.32453E+00   -0.95238E-02  7968   0.621E-01    0.451E+00
RMM:  32    -0.440666137477E+03   -0.16706E+00   -0.78994E-02  7957   0.661E-01    0.434E+00
RMM:  33    -0.440933443941E+03   -0.26731E+00   -0.72803E-02  7962   0.590E-01    0.395E+00
RMM:  34    -0.441046926203E+03   -0.11348E+00   -0.38413E-02  7971   0.480E-01    0.337E+00
RMM:  35    -0.441214371137E+03   -0.16744E+00   -0.25776E-02  7963   0.349E-01    0.311E+00
RMM:  36    -0.441259622517E+03   -0.45251E-01   -0.93665E-03  7957   0.229E-01    0.299E+00
RMM:  37    -0.441279981664E+03   -0.20359E-01   -0.16001E-03  7975   0.750E-02    0.304E+00
RMM:  38    -0.441279783341E+03    0.19832E-03   -0.15926E-04  8309   0.191E-02    0.303E+00
RMM:  39    -0.441282422391E+03   -0.26391E-02   -0.49307E-04  7901   0.533E-02    0.301E+00
RMM:  40    -0.441280621740E+03    0.18007E-02   -0.17340E-03  7936   0.102E-01    0.297E+00
RMM:  41    -0.441272884278E+03    0.77375E-02   -0.32229E-02  7948   0.408E-01    0.290E+00
RMM:  42    -0.441303153118E+03   -0.30269E-01   -0.35778E-02  7960   0.436E-01    0.272E+00
RMM:  43    -0.441380336324E+03   -0.77183E-01   -0.31284E-02  7953   0.384E-01    0.208E+00
RMM:  44    -0.441411610270E+03   -0.31274E-01   -0.12369E-02  7944   0.264E-01    0.174E+00
RMM:  45    -0.441513960489E+03   -0.10235E+00   -0.11318E-02  7938   0.219E-01    0.128E+00
RMM:  46    -0.441562423756E+03   -0.48463E-01   -0.96724E-03  7959   0.238E-01    0.123E+00
RMM:  47    -0.441650870345E+03   -0.88447E-01   -0.10014E-02  7947   0.213E-01    0.828E-01
RMM:  48    -0.441671380425E+03   -0.20510E-01   -0.46865E-03  7945   0.168E-01    0.682E-01
RMM:  49    -0.441725933419E+03   -0.54553E-01   -0.57676E-03  7938   0.148E-01    0.472E-01
RMM:  50    -0.441734689729E+03   -0.87563E-02   -0.15734E-03  7936   0.918E-02    0.349E-01
RMM:  51    -0.441741953092E+03   -0.72634E-02   -0.60660E-04  7912   0.561E-02    0.281E-01
RMM:  52    -0.441756802707E+03   -0.14850E-01   -0.80079E-04  7929   0.629E-02    0.239E-01
RMM:  53    -0.441761703199E+03   -0.49005E-02   -0.31728E-04  7905   0.453E-02    0.158E-01
RMM:  54    -0.441767375026E+03   -0.56718E-02   -0.36480E-04  7895   0.449E-02    0.176E-01
RMM:  55    -0.441777505671E+03   -0.10131E-01   -0.46085E-04  7915   0.371E-02    0.134E-01
RMM:  56    -0.441780224531E+03   -0.27189E-02   -0.16474E-04  7864   0.271E-02    0.123E-01
RMM:  57    -0.441783195481E+03   -0.29709E-02   -0.15079E-04  7851   0.259E-02    0.884E-02
RMM:  58    -0.441784419675E+03   -0.12242E-02   -0.71282E-05  7167   0.196E-02    0.527E-02
RMM:  59    -0.441786913908E+03   -0.24942E-02   -0.75334E-05  6898   0.148E-02    0.591E-02
RMM:  60    -0.441788194820E+03   -0.12809E-02   -0.44817E-05  6090   0.131E-02    0.471E-02
RMM:  61    -0.441789464640E+03   -0.12698E-02   -0.49540E-05  6303   0.117E-02    0.370E-02
RMM:  62    -0.441789647218E+03   -0.18258E-03   -0.20159E-05  4755   0.118E-02    0.482E-02
RMM:  63    -0.441791235560E+03   -0.15883E-02   -0.53100E-05  6315   0.130E-02    0.505E-02
RMM:  64    -0.441792227475E+03   -0.99192E-03   -0.40070E-05  5752   0.105E-02    0.456E-02
RMM:  65    -0.441793159735E+03   -0.93226E-03   -0.41970E-05  6011   0.103E-02    0.388E-02
RMM:  66    -0.441793892087E+03   -0.73235E-03   -0.52070E-05  6511   0.116E-02    0.141E-01
RMM:  67    -0.441793962245E+03   -0.70158E-04   -0.12537E-05  4578   0.758E-03    0.191E-01
RMM:  68    -0.441794231971E+03   -0.26973E-03   -0.87672E-06  4595   0.700E-03    0.192E-01
RMM:  69    -0.441794261992E+03   -0.30022E-04   -0.19588E-06  4241   0.291E-03    0.198E-01
RMM:  70    -0.441794283600E+03   -0.21608E-04   -0.70960E-07  3892   0.192E-03    0.209E-01
RMM:  71    -0.441794398752E+03   -0.11515E-03   -0.22362E-06  4222   0.313E-03    0.207E-01
RMM:  72    -0.441794466598E+03   -0.67846E-04   -0.33074E-06  4270   0.440E-03    0.197E-01
RMM:  73    -0.441794664473E+03   -0.19787E-03   -0.44471E-06  4383   0.477E-03    0.201E-01
RMM:  74    -0.441794737353E+03   -0.72880E-04   -0.33948E-06  4314   0.362E-03    0.183E-01
RMM:  75    -0.441794815365E+03   -0.78012E-04   -0.37413E-06  4379   0.355E-03    0.162E-01
RMM:  76    -0.441794925435E+03   -0.11007E-03   -0.96039E-06  4780   0.426E-03    0.113E-01
RMM:  77    -0.441794951606E+03   -0.26171E-04   -0.11952E-05  4692   0.562E-03    0.444E-02
RMM:  78    -0.441795002006E+03   -0.50400E-04   -0.65334E-06  4518   0.585E-03    0.277E-02
RMM:  79    -0.441795021318E+03   -0.19312E-04   -0.39727E-06  4330   0.368E-03    0.331E-02
RMM:  80    -0.441795038383E+03   -0.17066E-04   -0.21882E-06  4221   0.303E-03    0.499E-02
RMM:  81    -0.441795046459E+03   -0.80756E-05   -0.10097E-06  4101   0.229E-03
   1 F= -.45771595E+03 E0= -.45771689E+03  d E =-.457716E+03  mag=    97.9727
       N       E                     dE             d eps       ncg     rms          rms(c)
DAV:   1    -0.440768564784E+03    0.10265E+01   -0.36871E+02  7920   0.307E+01    0.145E+01
RMM:   2    -0.460007166769E+03   -0.19239E+02   -0.31767E+01  7974   0.161E+01    0.616E+01
RMM:   3    -0.456156095001E+03    0.38511E+01   -0.11131E+01  7978   0.883E+00    0.512E+01
RMM:   4    -0.445341945066E+03    0.10814E+02   -0.53818E+00  7949   0.580E+00    0.218E+01
RMM:   5    -0.443779443137E+03    0.15625E+01   -0.27712E+00  7961   0.431E+00    0.145E+01
RMM:   6    -0.443210271366E+03    0.56917E+00   -0.10525E+00  7944   0.283E+00    0.673E+00
RMM:   7    -0.443157750916E+03    0.52520E-01   -0.17297E-01  7976   0.110E+00    0.509E+00
RMM:   8    -0.443202842460E+03   -0.45092E-01   -0.12601E-01  7970   0.958E-01    0.645E+00
RMM:   9    -0.443124737642E+03    0.78105E-01   -0.69654E-02  7975   0.684E-01    0.392E+00
RMM:  10    -0.443047235894E+03    0.77502E-01   -0.13056E-01  7958   0.847E-01    0.448E+00
RMM:  11    -0.442957221665E+03    0.90014E-01   -0.63788E-02  7960   0.642E-01    0.313E+00
RMM:  12    -0.442852008157E+03    0.10521E+00   -0.27804E-02  7979   0.381E-01    0.316E+00
RMM:  13    -0.442786059786E+03    0.65948E-01   -0.13758E-02  7970   0.297E-01    0.297E+00
RMM:  14    -0.442763694795E+03    0.22365E-01   -0.69021E-03  7965   0.198E-01    0.341E+00
RMM:  15    -0.442755943909E+03    0.77509E-02   -0.27936E-03  7959   0.134E-01    0.358E+00
RMM:  16    -0.442756821818E+03   -0.87791E-03   -0.10714E-03  7931   0.801E-02    0.347E+00
RMM:  17    -0.442747177453E+03    0.96444E-02   -0.42069E-03  7967   0.155E-01    0.306E+00
RMM:  18    -0.442716066587E+03    0.31111E-01   -0.19241E-02  7960   0.326E-01    0.277E+00
RMM:  19    -0.442629815061E+03    0.86252E-01   -0.48690E-02  7973   0.497E-01    0.152E+00
RMM:  20    -0.442603362303E+03    0.26453E-01   -0.17250E-02  7961   0.293E-01    0.128E+00
RMM:  21    -0.442602899458E+03    0.46285E-03   -0.46772E-03  7972   0.170E-01    0.911E-01
RMM:  22    -0.442609053232E+03   -0.61538E-02   -0.31919E-03  7946   0.144E-01    0.917E-01
RMM:  23    -0.442646810081E+03   -0.37757E-01   -0.55430E-03  7952   0.176E-01    0.846E-01
RMM:  24    -0.442677060427E+03   -0.30250E-01   -0.69854E-03  7955   0.208E-01    0.785E-01
RMM:  25    -0.442740677804E+03   -0.63617E-01   -0.64101E-03  7951   0.169E-01    0.538E-01
RMM:  26    -0.442763530032E+03   -0.22852E-01   -0.28001E-03  7951   0.128E-01    0.506E-01
RMM:  27    -0.442836834164E+03   -0.73304E-01   -0.36281E-03  7942   0.117E-01    0.487E-01
RMM:  28    -0.442879024812E+03   -0.42191E-01   -0.22834E-03  7944   0.103E-01    0.431E-01
RMM:  29    -0.443010243309E+03   -0.13122E+00   -0.83919E-03  7946   0.118E-01    0.375E-01
RMM:  30    -0.443049839082E+03   -0.39596E-01   -0.28852E-03  7945   0.934E-02    0.261E-01
RMM:  31    -0.443093902984E+03   -0.44064E-01   -0.41094E-03  7943   0.856E-02    0.290E-01
RMM:  32    -0.443103178543E+03   -0.92756E-02   -0.12719E-03  7936   0.624E-02    0.135E-01
RMM:  33    -0.443110065899E+03   -0.68874E-02   -0.80530E-04  7924   0.420E-02    0.153E-01
RMM:  34    -0.443112027535E+03   -0.19616E-02   -0.24478E-04  7886   0.285E-02    0.559E-02
RMM:  35    -0.443113796875E+03   -0.17693E-02   -0.16257E-04  7595   0.187E-02    0.729E-02
RMM:  36    -0.443114587302E+03   -0.79043E-03   -0.92178E-05  6944   0.151E-02    0.628E-02
RMM:  37    -0.443114940354E+03   -0.35305E-03   -0.46563E-05  5787   0.104E-02    0.539E-02
RMM:  38    -0.443115016269E+03   -0.75915E-04   -0.51866E-05  5906   0.108E-02    0.175E-02
RMM:  39    -0.443115009892E+03    0.63768E-05   -0.12778E-05  4720   0.734E-03
   2 F= -.45899024E+03 E0= -.45900013E+03  d E =-.127429E+01  mag=    99.6920
       N       E                     dE             d eps       ncg     rms          rms(c)
DAV:   1    -0.442597940756E+03    0.51708E+00   -0.11368E+02  7920   0.168E+01    0.774E+00
RMM:   2    -0.445773288735E+03   -0.31753E+01   -0.56037E+00  7994   0.693E+00    0.243E+01
RMM:   3    -0.446963010270E+03   -0.11897E+01   -0.26250E+00  7978   0.426E+00    0.277E+01
RMM:   4    -0.444366054284E+03    0.25970E+01   -0.16516E+00  7957   0.325E+00    0.144E+01
RMM:   5    -0.443412771371E+03    0.95328E+00   -0.65580E-01  7947   0.228E+00    0.474E+00
RMM:   6    -0.443362534319E+03    0.50237E-01   -0.16308E-01  7943   0.107E+00    0.280E+00
RMM:   7    -0.443392983332E+03   -0.30449E-01   -0.59239E-02  7967   0.633E-01    0.458E+00
RMM:   8    -0.443329641784E+03    0.63342E-01   -0.20381E-02  7964   0.393E-01    0.142E+00
RMM:   9    -0.443339920041E+03   -0.10278E-01   -0.31365E-02  7982   0.456E-01    0.255E+00
RMM:  10    -0.443313602437E+03    0.26318E-01   -0.19817E-02  7966   0.347E-01    0.200E+00
RMM:  11    -0.443304321591E+03    0.92808E-02   -0.10620E-02  7958   0.269E-01    0.178E+00
RMM:  12    -0.443300191449E+03    0.41301E-02   -0.52776E-03  7968   0.176E-01    0.218E+00
RMM:  13    -0.443297040508E+03    0.31509E-02   -0.20490E-03  7942   0.118E-01    0.226E+00
RMM:  14    -0.443296236426E+03    0.80408E-03   -0.64467E-04  7947   0.602E-02    0.215E+00
RMM:  15    -0.443292421703E+03    0.38147E-02   -0.19425E-03  7947   0.109E-01    0.182E+00
RMM:  16    -0.443287900194E+03    0.45215E-02   -0.71770E-03  7936   0.202E-01    0.157E+00
RMM:  17    -0.443275393855E+03    0.12506E-01   -0.11623E-02  7993   0.250E-01    0.641E-01
RMM:  18    -0.443275674302E+03   -0.28045E-03   -0.48831E-03  7958   0.160E-01    0.638E-01
RMM:  19    -0.443277662359E+03   -0.19881E-02   -0.21105E-03  7972   0.113E-01    0.370E-01
RMM:  20    -0.443280822008E+03   -0.31596E-02   -0.89807E-04  7911   0.747E-02    0.335E-01
RMM:  21    -0.443288973488E+03   -0.81515E-02   -0.59607E-04  7940   0.574E-02    0.206E-01
RMM:  22    -0.443293633980E+03   -0.46605E-02   -0.47657E-04  7906   0.537E-02    0.203E-01
RMM:  23    -0.443305978655E+03   -0.12345E-01   -0.71599E-04  7923   0.509E-02    0.226E-01
RMM:  24    -0.443309098394E+03   -0.31197E-02   -0.28885E-04  7893   0.400E-02    0.171E-01
RMM:  25    -0.443317410943E+03   -0.83125E-02   -0.40296E-04  7920   0.325E-02    0.138E-01
RMM:  26    -0.443320892456E+03   -0.34815E-02   -0.22493E-04  7871   0.307E-02    0.913E-02
RMM:  27    -0.443327629265E+03   -0.67368E-02   -0.46603E-04  7920   0.318E-02    0.121E-01
RMM:  28    -0.443330501464E+03   -0.28722E-02   -0.23033E-04  7869   0.264E-02    0.595E-02
RMM:  29    -0.443334248324E+03   -0.37469E-02   -0.32156E-04  7888   0.244E-02    0.842E-02
RMM:  30    -0.443335647399E+03   -0.13991E-02   -0.12909E-04  7461   0.177E-02    0.303E-02
RMM:  31    -0.443336628014E+03   -0.98062E-03   -0.80600E-05  6704   0.126E-02    0.466E-02
RMM:  32    -0.443337088575E+03   -0.46056E-03   -0.44257E-05  5730   0.104E-02    0.129E-02
RMM:  33    -0.443337229732E+03   -0.14116E-03   -0.14270E-05  4905   0.653E-03    0.185E-02
RMM:  34    -0.443337330690E+03   -0.10096E-03   -0.12047E-05  4877   0.641E-03    0.615E-03
RMM:  35    -0.443337361373E+03   -0.30683E-04   -0.52854E-06  4524   0.407E-03    0.944E-03
RMM:  36    -0.443337374138E+03   -0.12765E-04   -0.36416E-06  4473   0.377E-03    0.436E-03
RMM:  37    -0.443337377067E+03   -0.29286E-05   -0.17317E-06  4108   0.246E-03
   3 F= -.45919011E+03 E0= -.45920269E+03  d E =-.147416E+01  mag=   100.1859
       N       E                     dE             d eps       ncg     rms          rms(c)
DAV:   1    -0.442992430228E+03    0.34494E+00   -0.12587E+02  7920   0.181E+01    0.701E+00
RMM:   2    -0.445478253191E+03   -0.24858E+01   -0.45648E+00  8025   0.593E+00    0.217E+01
RMM:   3    -0.446138512524E+03   -0.66026E+00   -0.19332E+00  7985   0.363E+00    0.239E+01
RMM:   4    -0.444979851579E+03    0.11587E+01   -0.14903E+00  7951   0.310E+00    0.156E+01
RMM:   5    -0.443958245808E+03    0.10216E+01   -0.60998E-01  7970   0.216E+00    0.867E+00
RMM:   6    -0.443763047551E+03    0.19520E+00   -0.14074E-01  7975   0.967E-01    0.410E+00
RMM:   7    -0.443771458749E+03   -0.84112E-02   -0.11943E-01  7976   0.870E-01    0.481E+00
RMM:   8    -0.443698352145E+03    0.73107E-01   -0.47206E-02  7975   0.604E-01    0.166E+00
RMM:   9    -0.443711345619E+03   -0.12993E-01   -0.38453E-02  7977   0.499E-01    0.227E+00
RMM:  10    -0.443695147945E+03    0.16198E-01   -0.26793E-02  7971   0.427E-01    0.141E+00
RMM:  11    -0.443693494266E+03    0.16537E-02   -0.15198E-02  7962   0.317E-01    0.124E+00
RMM:  12    -0.443696494234E+03   -0.30000E-02   -0.61971E-03  7974   0.201E-01    0.165E+00
RMM:  13    -0.443695901534E+03    0.59270E-03   -0.15509E-03  7928   0.105E-01    0.165E+00
RMM:  14    -0.443694468442E+03    0.14331E-02   -0.36286E-04  7924   0.439E-02    0.152E+00
RMM:  15    -0.443693115339E+03    0.13531E-02   -0.10968E-03  7915   0.836E-02    0.139E+00
RMM:  16    -0.443689797905E+03    0.33174E-02   -0.43442E-03  7956   0.154E-01    0.102E+00
RMM:  17    -0.443687444733E+03    0.23532E-02   -0.37091E-03  7949   0.147E-01    0.684E-01
RMM:  18    -0.443688775199E+03   -0.13305E-02   -0.40460E-03  7949   0.144E-01    0.606E-01
RMM:  19    -0.443688460951E+03    0.31425E-03   -0.21829E-03  7938   0.118E-01    0.233E-01
RMM:  20    -0.443690182435E+03   -0.17215E-02   -0.79669E-04  7939   0.691E-02    0.272E-01
RMM:  21    -0.443691355087E+03   -0.11727E-02   -0.31853E-04  7940   0.483E-02    0.949E-02
RMM:  22    -0.443692267485E+03   -0.91240E-03   -0.12477E-04  7865   0.280E-02    0.992E-02
RMM:  23    -0.443693959063E+03   -0.16916E-02   -0.69021E-05  7285   0.194E-02    0.596E-02
RMM:  24    -0.443694696147E+03   -0.73708E-03   -0.46947E-05  6502   0.173E-02    0.590E-02
RMM:  25    -0.443696405706E+03   -0.17096E-02   -0.44615E-05  5836   0.136E-02    0.420E-02
RMM:  26    -0.443697050795E+03   -0.64509E-03   -0.24955E-05  4760   0.124E-02    0.431E-02
RMM:  27    -0.443698625874E+03   -0.15751E-02   -0.51963E-05  6314   0.118E-02    0.342E-02
RMM:  28    -0.443699084275E+03   -0.45840E-03   -0.16783E-05  4606   0.919E-03    0.241E-02
RMM:  29    -0.443700272323E+03   -0.11880E-02   -0.48075E-05  6138   0.941E-03    0.261E-02
RMM:  30    -0.443700687873E+03   -0.41555E-03   -0.16730E-05  4786   0.804E-03    0.191E-02
RMM:  31    -0.443701387479E+03   -0.69961E-03   -0.35185E-05  5673   0.747E-03    0.198E-02
RMM:  32    -0.443701569000E+03   -0.18152E-03   -0.10075E-05  4649   0.615E-03    0.151E-02
RMM:  33    -0.443701803010E+03   -0.23401E-03   -0.16315E-05  5021   0.508E-03    0.950E-03
RMM:  34    -0.443701860013E+03   -0.57003E-04   -0.51061E-06  4504   0.441E-03    0.736E-03
RMM:  35    -0.443701921473E+03   -0.61461E-04   -0.78184E-06  4691   0.353E-03    0.487E-03
RMM:  36    -0.443701934167E+03   -0.12693E-04   -0.20581E-06  4213   0.295E-03    0.397E-03
RMM:  37    -0.443701950480E+03   -0.16313E-04   -0.21146E-06  3956   0.201E-03    0.279E-03
RMM:  38    -0.443701956851E+03   -0.63718E-05   -0.75978E-07  3455   0.181E-03
   4 F= -.45950134E+03 E0= -.45951356E+03  d E =-.311226E+00  mag=   100.3179
       N       E                     dE             d eps       ncg     rms          rms(c)
DAV:   1    -0.443655234261E+03    0.46716E-01   -0.16738E+01  7936   0.654E+00    0.251E+00
RMM:   2    -0.443927224106E+03   -0.27199E+00   -0.48708E-01  8031   0.188E+00    0.768E+00
RMM:   3    -0.444031956598E+03   -0.10473E+00   -0.24390E-01  7981   0.128E+00    0.990E+00
RMM:   4    -0.443912849249E+03    0.11911E+00   -0.21065E-01  7955   0.119E+00    0.597E+00
RMM:   5    -0.443799294108E+03    0.11356E+00   -0.79416E-02  7965   0.781E-01    0.360E+00
RMM:   6    -0.443749166449E+03    0.50128E-01   -0.21230E-02  7975   0.381E-01    0.123E+00
RMM:   7    -0.443749528512E+03   -0.36206E-03   -0.12669E-02  7959   0.279E-01    0.128E+00
RMM:   8    -0.443743550638E+03    0.59779E-02   -0.58004E-03  7981   0.209E-01    0.554E-01
RMM:   9    -0.443745589080E+03   -0.20384E-02   -0.57066E-03  7950   0.191E-01    0.840E-01
RMM:  10    -0.443743462167E+03    0.21269E-02   -0.33073E-03  7981   0.152E-01    0.432E-01
RMM:  11    -0.443743169211E+03    0.29296E-03   -0.17099E-03  7913   0.108E-01    0.282E-01
RMM:  12    -0.443743639159E+03   -0.46995E-03   -0.53295E-04  7914   0.592E-02    0.332E-01
RMM:  13    -0.443743597628E+03    0.41532E-04   -0.22780E-04  7859   0.416E-02    0.275E-01
RMM:  14    -0.443743829281E+03   -0.23165E-03   -0.35998E-05  5782   0.149E-02    0.308E-01
RMM:  15    -0.443743897298E+03   -0.68017E-04   -0.11103E-05  4254   0.102E-02    0.317E-01
RMM:  16    -0.443743842212E+03    0.55085E-04   -0.42972E-06  4095   0.551E-03    0.308E-01
RMM:  17    -0.443743654493E+03    0.18772E-03   -0.19089E-05  4411   0.118E-02    0.270E-01
RMM:  18    -0.443743484763E+03    0.16973E-03   -0.10514E-04  7696   0.239E-02    0.228E-01
RMM:  19    -0.443743123895E+03    0.36087E-03   -0.18280E-04  7854   0.306E-02    0.110E-01
RMM:  20    -0.443743148001E+03   -0.24106E-04   -0.83557E-05  7597   0.207E-02    0.904E-02
RMM:  21    -0.443743278558E+03   -0.13056E-03   -0.42782E-05  6102   0.161E-02    0.341E-02
RMM:  22    -0.443743438400E+03   -0.15984E-03   -0.15956E-05  4417   0.111E-02    0.341E-02
RMM:  23    -0.443743793992E+03   -0.35559E-03   -0.97083E-06  4306   0.895E-03    0.207E-02
RMM:  24    -0.443743918072E+03   -0.12408E-03   -0.47456E-06  4188   0.589E-03    0.165E-02
RMM:  25    -0.443744211420E+03   -0.29335E-03   -0.39657E-06  4274   0.442E-03    0.118E-02
RMM:  26    -0.443744323679E+03   -0.11226E-03   -0.21684E-06  4152   0.367E-03    0.109E-02
RMM:  27    -0.443744581465E+03   -0.25779E-03   -0.28970E-06  4272   0.306E-03    0.791E-03
RMM:  28    -0.443744709843E+03   -0.12838E-03   -0.18520E-06  4208   0.287E-03    0.819E-03
RMM:  29    -0.443745018181E+03   -0.30834E-03   -0.45934E-06  4373   0.302E-03    0.608E-03
RMM:  30    -0.443745152606E+03   -0.13443E-03   -0.24657E-06  4289   0.272E-03    0.731E-03
RMM:  31    -0.443745360480E+03   -0.20787E-03   -0.48683E-06  4451   0.292E-03    0.423E-03
RMM:  32    -0.443745421242E+03   -0.60761E-04   -0.18935E-06  4103   0.227E-03    0.486E-03
RMM:  33    -0.443745485586E+03   -0.64344E-04   -0.23028E-06  4178   0.215E-03    0.264E-03
RMM:  34    -0.443745501828E+03   -0.16242E-04   -0.83697E-07  3386   0.163E-03    0.274E-03
RMM:  35    -0.443745515910E+03   -0.14082E-04   -0.11329E-06  3150   0.146E-03    0.159E-03
RMM:  36    -0.443745518451E+03   -0.25403E-05   -0.43381E-07  2731   0.137E-03
   5 F= -.45952589E+03 E0= -.45953792E+03  d E =-.335778E+00  mag=   100.3537
       N       E                     dE             d eps       ncg     rms          rms(c)
DAV:   1    -0.443246407856E+03    0.49911E+00   -0.14346E+02  7920   0.196E+01    0.681E+00
RMM:   2    -0.445190158922E+03   -0.19438E+01   -0.54855E+00  8168   0.572E+00    0.173E+01
RMM:   3    -0.445839020044E+03   -0.64886E+00   -0.21982E+00  7965   0.391E+00    0.204E+01
RMM:   4    -0.445426112324E+03    0.41291E+00   -0.14098E+00  7962   0.305E+00    0.163E+01
RMM:   5    -0.444348542925E+03    0.10776E+01   -0.54419E-01  7955   0.201E+00    0.100E+01
RMM:   6    -0.444018572943E+03    0.32997E+00   -0.10925E-01  7962   0.836E-01    0.248E+00
RMM:   7    -0.444022627439E+03   -0.40545E-02   -0.73883E-02  7965   0.688E-01    0.309E+00
RMM:   8    -0.443989701008E+03    0.32926E-01   -0.22536E-02  7979   0.426E-01    0.153E+00
RMM:   9    -0.443993025977E+03   -0.33250E-02   -0.34851E-02  7973   0.471E-01    0.237E+00
RMM:  10    -0.443947472786E+03    0.45553E-01   -0.26135E-02  7994   0.421E-01    0.125E+00
RMM:  11    -0.443940093332E+03    0.73795E-02   -0.12072E-02  7966   0.280E-01    0.117E+00
RMM:  12    -0.443935081673E+03    0.50117E-02   -0.41805E-03  7953   0.165E-01    0.111E+00
RMM:  13    -0.443934784511E+03    0.29716E-03   -0.15765E-03  7934   0.106E-01    0.102E+00
RMM:  14    -0.443937262145E+03   -0.24776E-02   -0.23266E-04  7891   0.333E-02    0.112E+00
RMM:  15    -0.443936793518E+03    0.46863E-03   -0.27840E-05  5291   0.103E-02    0.111E+00
RMM:  16    -0.443927017964E+03    0.97756E-02   -0.92723E-04  7940   0.713E-02    0.919E-01
RMM:  17    -0.443917113629E+03    0.99043E-02   -0.13694E-03  7945   0.892E-02    0.694E-01
RMM:  18    -0.443910555053E+03    0.65586E-02   -0.17819E-03  7920   0.976E-02    0.568E-01
RMM:  19    -0.443909569096E+03    0.98596E-03   -0.12183E-03  7930   0.849E-02    0.311E-01
RMM:  20    -0.443919377649E+03   -0.98086E-02   -0.99448E-04  7929   0.716E-02    0.333E-01
RMM:  21    -0.443934146822E+03   -0.14769E-01   -0.78523E-04  7931   0.607E-02    0.162E-01
RMM:  22    -0.443946523591E+03   -0.12377E-01   -0.51688E-04  7924   0.473E-02    0.201E-01
RMM:  23    -0.443967787955E+03   -0.21264E-01   -0.73141E-04  7920   0.414E-02    0.120E-01
RMM:  24    -0.443977523354E+03   -0.97354E-02   -0.33932E-04  7894   0.330E-02    0.143E-01
RMM:  25    -0.443998890040E+03   -0.21367E-01   -0.11911E-03  7920   0.391E-02    0.941E-02
RMM:  26    -0.444003979232E+03   -0.50892E-02   -0.32701E-04  7880   0.292E-02    0.977E-02
RMM:  27    -0.444011706077E+03   -0.77268E-02   -0.64470E-04  7910   0.290E-02    0.675E-02
RMM:  28    -0.444013243298E+03   -0.15372E-02   -0.12733E-04  7360   0.177E-02    0.479E-02
RMM:  29    -0.444016044202E+03   -0.28009E-02   -0.22993E-04  7602   0.171E-02    0.466E-02
RMM:  30    -0.444016576420E+03   -0.53222E-03   -0.46519E-05  5872   0.104E-02    0.177E-02
RMM:  31    -0.444017129401E+03   -0.55298E-03   -0.47164E-05  5981   0.882E-03    0.255E-02
RMM:  32    -0.444017258632E+03   -0.12923E-03   -0.16121E-05  4946   0.742E-03    0.114E-02
RMM:  33    -0.444017352063E+03   -0.93431E-04   -0.11834E-05  4805   0.505E-03    0.138E-02
RMM:  34    -0.444017377752E+03   -0.25690E-04   -0.55123E-06  4545   0.503E-03    0.665E-03
RMM:  35    -0.444017408559E+03   -0.30807E-04   -0.32704E-06  4347   0.298E-03    0.689E-03
RMM:  36    -0.444017428199E+03   -0.19640E-04   -0.14794E-06  4122   0.273E-03    0.386E-03
RMM:  37    -0.444017475141E+03   -0.46943E-04   -0.15312E-06  3411   0.173E-03    0.378E-03
RMM:  38    -0.444017491292E+03   -0.16151E-04   -0.62859E-07  3176   0.169E-03    0.232E-03
RMM:  39    -0.444017533358E+03   -0.42066E-04   -0.11775E-06  2827   0.140E-03    0.250E-03
RMM:  40    -0.444017550617E+03   -0.17258E-04   -0.50463E-07  2402   0.133E-03    0.316E-03
RMM:  41    -0.444017583461E+03   -0.32844E-04   -0.97254E-07  2604   0.133E-03    0.179E-03
RMM:  42    -0.444017593745E+03   -0.10284E-04   -0.32010E-07  1923   0.123E-03    0.153E-03
RMM:  43    -0.444017618971E+03   -0.25226E-04   -0.17993E-06  3491   0.145E-03    0.130E-02
RMM:  44    -0.444017619427E+03   -0.45586E-06   -0.26007E-07  2032   0.129E-03
   6 F= -.45974319E+03 E0= -.45975474E+03  d E =-.217303E+00  mag=   100.8358
       N       E                     dE             d eps       ncg     rms          rms(c)
DAV:   1    -0.443835099059E+03    0.18252E+00   -0.46383E+01  7920   0.111E+01    0.383E+00
RMM:   2    -0.444463175729E+03   -0.62808E+00   -0.16638E+00  8208   0.305E+00    0.970E+00
RMM:   3    -0.444696503771E+03   -0.23333E+00   -0.67261E-01  7974   0.214E+00    0.119E+01
RMM:   4    -0.444505909194E+03    0.19059E+00   -0.43741E-01  7962   0.169E+00    0.900E+00
RMM:   5    -0.444187787496E+03    0.31812E+00   -0.17309E-01  7955   0.114E+00    0.619E+00
RMM:   6    -0.444077739440E+03    0.11005E+00   -0.38646E-02  7971   0.502E-01    0.134E+00
RMM:   7    -0.444075289122E+03    0.24503E-02   -0.17835E-02  7965   0.333E-01    0.137E+00
RMM:   8    -0.444066336452E+03    0.89527E-02   -0.64631E-03  7986   0.219E-01    0.810E-01
RMM:   9    -0.444065866230E+03    0.47022E-03   -0.88858E-03  7979   0.240E-01    0.112E+00
RMM:  10    -0.444056022237E+03    0.98440E-02   -0.68185E-03  7995   0.210E-01    0.684E-01
RMM:  11    -0.444053847791E+03    0.21744E-02   -0.32428E-03  7970   0.149E-01    0.358E-01
RMM:  12    -0.444055421359E+03   -0.15736E-02   -0.10543E-03  7929   0.802E-02    0.420E-01
RMM:  13    -0.444055969571E+03   -0.54821E-03   -0.45680E-04  7880   0.582E-02    0.297E-01
RMM:  14    -0.444057799241E+03   -0.18297E-02   -0.12335E-04  7829   0.250E-02    0.349E-01
RMM:  15    -0.444059166908E+03   -0.13677E-02   -0.47951E-05  6244   0.164E-02    0.373E-01
RMM:  16    -0.444059133554E+03    0.33355E-04   -0.35671E-06  4202   0.388E-03    0.373E-01
RMM:  17    -0.444059081296E+03    0.52258E-04   -0.70686E-07  4114   0.230E-03    0.372E-01
RMM:  18    -0.444059654754E+03   -0.57346E-03   -0.15339E-05  4355   0.975E-03    0.367E-01
RMM:  19    -0.444060498145E+03   -0.84339E-03   -0.25188E-05  4682   0.137E-02    0.360E-01
RMM:  20    -0.444061760792E+03   -0.12626E-02   -0.25435E-05  4834   0.109E-02    0.374E-01
RMM:  21    -0.444061417209E+03    0.34358E-03   -0.43671E-06  4144   0.612E-03    0.368E-01
RMM:  22    -0.444059265321E+03    0.21519E-02   -0.14411E-04  7894   0.282E-02    0.291E-01
RMM:  23    -0.444058328276E+03    0.93705E-03   -0.16188E-04  7891   0.307E-02    0.227E-01
RMM:  24    -0.444057630949E+03    0.69733E-03   -0.23432E-04  7906   0.330E-02    0.131E-01
RMM:  25    -0.444058212282E+03   -0.58133E-03   -0.86259E-05  7620   0.205E-02    0.108E-01
RMM:  26    -0.444061370422E+03   -0.31581E-02   -0.88125E-05  7438   0.173E-02    0.988E-02
RMM:  27    -0.444063367716E+03   -0.19973E-02   -0.63192E-05  7002   0.174E-02    0.971E-02
RMM:  28    -0.444071339161E+03   -0.79714E-02   -0.44223E-04  7924   0.289E-02    0.952E-02
RMM:  29    -0.444074073012E+03   -0.27339E-02   -0.18857E-04  7826   0.224E-02    0.509E-02
RMM:  30    -0.444076623717E+03   -0.25507E-02   -0.16977E-04  7573   0.176E-02    0.635E-02
RMM:  31    -0.444077529545E+03   -0.90583E-03   -0.53433E-05  6215   0.119E-02    0.388E-02
RMM:  32    -0.444078362097E+03   -0.83255E-03   -0.53274E-05  6251   0.122E-02    0.360E-02
RMM:  33    -0.444078855443E+03   -0.49335E-03   -0.31081E-05  5270   0.105E-02    0.176E-02
RMM:  34    -0.444079589409E+03   -0.73397E-03   -0.69551E-05  6630   0.975E-03    0.250E-02
RMM:  35    -0.444079713384E+03   -0.12397E-03   -0.19572E-05  5056   0.689E-03    0.112E-02
RMM:  36    -0.444079759483E+03   -0.46099E-04   -0.64891E-06  4602   0.464E-03    0.814E-03
RMM:  37    -0.444079775901E+03   -0.16418E-04   -0.30096E-06  4416   0.372E-03    0.717E-03
RMM:  38    -0.444079794883E+03   -0.18982E-04   -0.32679E-06  4474   0.268E-03    0.501E-03
RMM:  39    -0.444079804716E+03   -0.98335E-05   -0.11632E-06  3950   0.232E-03
   7 F= -.45977480E+03 E0= -.45978568E+03  d E =-.248909E+00  mag=   101.0948
       N       E                     dE             d eps       ncg     rms          rms(c)
DAV:   1    -0.443953673022E+03    0.12612E+00   -0.60695E+01  7920   0.127E+01    0.401E+00
RMM:   2    -0.444431807626E+03   -0.47813E+00   -0.16670E+00  8174   0.321E+00    0.788E+00
RMM:   3    -0.444909612880E+03   -0.47781E+00   -0.74188E-01  7980   0.225E+00    0.152E+01
RMM:   4    -0.444732827781E+03    0.17679E+00   -0.55776E-01  7965   0.192E+00    0.113E+01
RMM:   5    -0.444310559158E+03    0.42227E+00   -0.18940E-01  7961   0.123E+00    0.459E+00
RMM:   6    -0.444240864382E+03    0.69695E-01   -0.36240E-02  7968   0.472E-01    0.260E+00
RMM:   7    -0.444233506292E+03    0.73581E-02   -0.30533E-02  7969   0.433E-01    0.247E+00
RMM:   8    -0.444215845227E+03    0.17661E-01   -0.11123E-02  7966   0.294E-01    0.120E+00
RMM:   9    -0.444217129564E+03   -0.12843E-02   -0.81983E-03  7979   0.231E-01    0.139E+00
RMM:  10    -0.444214770744E+03    0.23588E-02   -0.68318E-03  7985   0.204E-01    0.143E+00
RMM:  11    -0.444214411022E+03    0.35972E-03   -0.35885E-03  7974   0.152E-01    0.147E+00
RMM:  12    -0.444216459176E+03   -0.20482E-02   -0.53464E-04  7920   0.514E-02    0.166E+00
RMM:  13    -0.444215803457E+03    0.65572E-03   -0.62098E-04  7892   0.596E-02    0.159E+00
RMM:  14    -0.444209434961E+03    0.63685E-02   -0.39170E-03  7955   0.149E-01    0.103E+00
RMM:  15    -0.444207111815E+03    0.23231E-02   -0.26219E-03  7933   0.125E-01    0.751E-01
RMM:  16    -0.444206320926E+03    0.79089E-03   -0.27220E-03  7970   0.119E-01    0.555E-01
RMM:  17    -0.444205977317E+03    0.34361E-03   -0.14425E-03  7928   0.925E-02    0.268E-01
RMM:  18    -0.444208319213E+03   -0.23419E-02   -0.87723E-04  7931   0.686E-02    0.315E-01
RMM:  19    -0.444210424627E+03   -0.21054E-02   -0.52095E-04  7954   0.577E-02    0.144E-01
RMM:  20    -0.444212501147E+03   -0.20765E-02   -0.26976E-04  7896   0.398E-02    0.168E-01
RMM:  21    -0.444214216599E+03   -0.17155E-02   -0.12778E-04  7876   0.290E-02    0.593E-02
RMM:  22    -0.444215623423E+03   -0.14068E-02   -0.66405E-05  7287   0.193E-02    0.767E-02
RMM:  23    -0.444218203787E+03   -0.25804E-02   -0.67033E-05  6483   0.159E-02    0.415E-02
RMM:  24    -0.444219542320E+03   -0.13385E-02   -0.41688E-05  5909   0.138E-02    0.556E-02
RMM:  25    -0.444222155830E+03   -0.26135E-02   -0.83550E-05  6906   0.144E-02    0.301E-02
RMM:  26    -0.444223011884E+03   -0.85605E-03   -0.24261E-05  4959   0.936E-03    0.359E-02
RMM:  27    -0.444224671180E+03   -0.16593E-02   -0.55969E-05  6341   0.109E-02    0.253E-02
RMM:  28    -0.444225325467E+03   -0.65429E-03   -0.19713E-05  4851   0.805E-03    0.272E-02
RMM:  29    -0.444226786939E+03   -0.14615E-02   -0.69645E-05  6599   0.100E-02    0.182E-02
RMM:  30    -0.444227146773E+03   -0.35983E-03   -0.15319E-05  4809   0.632E-03    0.143E-02
RMM:  31    -0.444227627541E+03   -0.48077E-03   -0.31202E-05  5523   0.627E-03    0.116E-02
RMM:  32    -0.444227693427E+03   -0.65885E-04   -0.61942E-06  4526   0.466E-03    0.998E-03
RMM:  33    -0.444227748942E+03   -0.55515E-04   -0.70615E-06  4621   0.353E-03    0.541E-03
RMM:  34    -0.444227757246E+03   -0.83045E-05   -0.27806E-06  4303   0.300E-03
   8 F= -.45987931E+03 E0= -.45989019E+03  d E =-.104514E+00  mag=   101.1977
       N       E                     dE             d eps       ncg     rms          rms(c)
DAV:   1    -0.443899432105E+03    0.32832E+00   -0.93795E+01  7920   0.158E+01    0.501E+00
RMM:   2    -0.444634297278E+03   -0.73487E+00   -0.26169E+00  8187   0.404E+00    0.978E+00
RMM:   3    -0.445495970734E+03   -0.86167E+00   -0.11135E+00  7980   0.275E+00    0.190E+01
RMM:   4    -0.445110782840E+03    0.38519E+00   -0.85093E-01  7965   0.238E+00    0.136E+01
RMM:   5    -0.444450387808E+03    0.66040E+00   -0.28874E-01  7960   0.150E+00    0.590E+00
RMM:   6    -0.444350552737E+03    0.99835E-01   -0.55241E-02  7961   0.586E-01    0.327E+00
RMM:   7    -0.444346617445E+03    0.39353E-02   -0.52997E-02  7974   0.570E-01    0.351E+00
RMM:   8    -0.444313819526E+03    0.32798E-01   -0.19866E-02  7967   0.394E-01    0.182E+00
RMM:   9    -0.444315688329E+03   -0.18688E-02   -0.13048E-02  7979   0.290E-01    0.201E+00
RMM:  10    -0.444311770060E+03    0.39183E-02   -0.10198E-02  7981   0.248E-01    0.207E+00
RMM:  11    -0.444311769532E+03    0.52705E-06   -0.40236E-03  7974   0.158E-01    0.214E+00
RMM:  12    -0.444312969655E+03   -0.12001E-02   -0.33283E-04  7983   0.324E-02    0.223E+00
RMM:  13    -0.444311182305E+03    0.17874E-02   -0.33653E-03  7936   0.143E-01    0.207E+00
RMM:  14    -0.444300060946E+03    0.11121E-01   -0.91568E-03  7966   0.229E-01    0.122E+00
RMM:  15    -0.444297052702E+03    0.30082E-02   -0.61752E-03  7952   0.193E-01    0.915E-01
RMM:  16    -0.444295834829E+03    0.12179E-02   -0.50136E-03  7980   0.166E-01    0.643E-01
RMM:  17    -0.444295503590E+03    0.33124E-03   -0.21008E-03  7937   0.112E-01    0.387E-01
RMM:  18    -0.444298931775E+03   -0.34282E-02   -0.15097E-03  7943   0.889E-02    0.442E-01
RMM:  19    -0.444301103913E+03   -0.21721E-02   -0.93825E-04  7942   0.765E-02    0.212E-01
RMM:  20    -0.444304994748E+03   -0.38908E-02   -0.59327E-04  7939   0.575E-02    0.252E-01
RMM:  21    -0.444307755379E+03   -0.27606E-02   -0.31268E-04  7928   0.456E-02    0.881E-02
RMM:  22    -0.444310552917E+03   -0.27975E-02   -0.17662E-04  7883   0.311E-02    0.124E-01
RMM:  23    -0.444314202449E+03   -0.36495E-02   -0.13263E-04  7841   0.247E-02    0.532E-02
RMM:  24    -0.444316425719E+03   -0.22233E-02   -0.79611E-05  7242   0.187E-02    0.791E-02
RMM:  25    -0.444319430347E+03   -0.30046E-02   -0.86911E-05  6996   0.167E-02    0.367E-02
RMM:  26    -0.444320697855E+03   -0.12675E-02   -0.32613E-05  5478   0.111E-02    0.476E-02
RMM:  27    -0.444322822402E+03   -0.21245E-02   -0.60787E-05  6508   0.122E-02    0.350E-02
RMM:  28    -0.444323897413E+03   -0.10750E-02   -0.30036E-05  5303   0.973E-03    0.396E-02
RMM:  29    -0.444326591806E+03   -0.26944E-02   -0.13889E-04  7244   0.138E-02    0.232E-02
RMM:  30    -0.444327250835E+03   -0.65903E-03   -0.29198E-05  5320   0.796E-03    0.229E-02
RMM:  31    -0.444328137938E+03   -0.88710E-03   -0.56607E-05  6297   0.838E-03    0.128E-02
RMM:  32    -0.444328233910E+03   -0.95972E-04   -0.79081E-06  4606   0.495E-03    0.935E-03
RMM:  33    -0.444328327806E+03   -0.93896E-04   -0.10837E-05  4770   0.407E-03    0.109E-02
RMM:  34    -0.444328331081E+03   -0.32756E-05   -0.40310E-06  4466   0.367E-03
   9 F= -.45992684E+03 E0= -.45993773E+03  d E =-.152043E+00  mag=   101.3017
       N       E                     dE             d eps       ncg     rms          rms(c)
DAV:   1    -0.444108899469E+03    0.21943E+00   -0.64438E+01  7920   0.131E+01    0.375E+00
RMM:   2    -0.444661404152E+03   -0.55250E+00   -0.24853E+00  8384   0.332E+00    0.766E+00
RMM:   3    -0.444960118503E+03   -0.29871E+00   -0.72270E-01  7976   0.221E+00    0.107E+01
RMM:   4    -0.444939341138E+03    0.20777E-01   -0.35755E-01  7976   0.151E+00    0.990E+00
RMM:   5    -0.444489907961E+03    0.44943E+00   -0.16668E-01  7972   0.109E+00    0.564E+00
RMM:   6    -0.444405719267E+03    0.84189E-01   -0.39109E-02  7970   0.500E-01    0.151E+00
RMM:   7    -0.444406179331E+03   -0.46006E-03   -0.24423E-02  7974   0.390E-01    0.170E+00
RMM:   8    -0.444394641807E+03    0.11538E-01   -0.11100E-02  7989   0.287E-01    0.977E-01
RMM:   9    -0.444399759005E+03   -0.51172E-02   -0.20409E-02  7981   0.365E-01    0.163E+00
RMM:  10    -0.444388573547E+03    0.11185E-01   -0.12395E-02  7989   0.295E-01    0.910E-01
RMM:  11    -0.444386605713E+03    0.19678E-02   -0.42892E-03  7959   0.170E-01    0.607E-01
RMM:  12    -0.444388707059E+03   -0.21013E-02   -0.10949E-03  7929   0.811E-02    0.743E-01
RMM:  13    -0.444389203036E+03   -0.49598E-03   -0.39163E-04  7896   0.540E-02    0.734E-01
RMM:  14    -0.444388982612E+03    0.22042E-03   -0.18588E-05  4846   0.826E-03    0.724E-01
RMM:  15    -0.444387572882E+03    0.14097E-02   -0.99093E-05  7757   0.248E-02    0.636E-01
RMM:  16    -0.444385922611E+03    0.16503E-02   -0.31449E-04  7893   0.420E-02    0.569E-01
RMM:  17    -0.444382998965E+03    0.29236E-02   -0.62548E-04  7940   0.563E-02    0.385E-01
RMM:  18    -0.444382797418E+03    0.20155E-03   -0.55410E-04  7904   0.540E-02    0.324E-01
RMM:  19    -0.444383690662E+03   -0.89324E-03   -0.43292E-04  7926   0.484E-02    0.168E-01
RMM:  20    -0.444385608026E+03   -0.19174E-02   -0.26338E-04  7898   0.386E-02    0.160E-01
RMM:  21    -0.444389899300E+03   -0.42913E-02   -0.21619E-04  7914   0.297E-02    0.951E-02
RMM:  22    -0.444391305421E+03   -0.14061E-02   -0.87164E-05  7616   0.219E-02    0.817E-02
RMM:  23    -0.444394977543E+03   -0.36721E-02   -0.12095E-04  7450   0.181E-02    0.764E-02
RMM:  24    -0.444396253608E+03   -0.12761E-02   -0.47169E-05  6264   0.146E-02    0.586E-02
RMM:  25    -0.444400324055E+03   -0.40704E-02   -0.19541E-04  7661   0.183E-02    0.688E-02
RMM:  26    -0.444402202688E+03   -0.18786E-02   -0.10035E-04  7172   0.154E-02    0.320E-02
RMM:  27    -0.444404151534E+03   -0.19488E-02   -0.11390E-04  7277   0.142E-02    0.476E-02
RMM:  28    -0.444405232198E+03   -0.10807E-02   -0.65214E-05  6427   0.115E-02    0.200E-02
RMM:  29    -0.444405992333E+03   -0.76014E-03   -0.51715E-05  6039   0.910E-03    0.274E-02
RMM:  30    -0.444406296420E+03   -0.30409E-03   -0.25691E-05  5152   0.824E-03    0.953E-03
RMM:  31    -0.444406417211E+03   -0.12079E-03   -0.12241E-05  4727   0.531E-03    0.135E-02
RMM:  32    -0.444406467095E+03   -0.49885E-04   -0.66485E-06  4525   0.511E-03    0.697E-03
RMM:  33    -0.444406496281E+03   -0.29186E-04   -0.40450E-06  4353   0.318E-03    0.638E-03
RMM:  34    -0.444406506922E+03   -0.10641E-04   -0.19075E-06  4169   0.284E-03    0.396E-03
RMM:  35    -0.444406523686E+03   -0.16764E-04   -0.16836E-06  3754   0.196E-03    0.338E-03
RMM:  36    -0.444406530047E+03   -0.63614E-05   -0.56750E-07  3270   0.174E-03
  10 F= -.45997052E+03 E0= -.45998166E+03  d E =-.436839E-01  mag=   101.5159
       N       E                     dE             d eps       ncg     rms          rms(c)
DAV:   1    -0.444401997180E+03    0.45265E-02   -0.44780E-01  7968   0.109E+00    0.310E-01
RMM:   2    -0.444406506113E+03   -0.45089E-02   -0.17206E-02  8517   0.273E-01    0.705E-01
RMM:   3    -0.444409637990E+03   -0.31319E-02   -0.44745E-03  8026   0.170E-01    0.102E+00
RMM:   4    -0.444407329307E+03    0.23087E-02   -0.25209E-03  7966   0.123E-01    0.909E-01
RMM:   5    -0.444405011560E+03    0.23177E-02   -0.15853E-03  7943   0.106E-01    0.619E-01
RMM:   6    -0.444404001315E+03    0.10102E-02   -0.44217E-04  7893   0.555E-02    0.129E-01
RMM:   7    -0.444403972339E+03    0.28976E-04   -0.16463E-04  7871   0.317E-02    0.131E-01
RMM:   8    -0.444403799830E+03    0.17251E-03   -0.86311E-05  7777   0.236E-02    0.872E-02
RMM:   9    -0.444403764394E+03    0.35436E-04   -0.11504E-04  7810   0.278E-02    0.105E-01
RMM:  10    -0.444403715367E+03    0.49027E-04   -0.75773E-05  7429   0.223E-02    0.947E-02
RMM:  11    -0.444403684297E+03    0.31070E-04   -0.33895E-05  5355   0.167E-02    0.462E-02
RMM:  12    -0.444403711127E+03   -0.26830E-04   -0.54812E-06  4127   0.595E-03    0.522E-02
RMM:  13    -0.444403732284E+03   -0.21158E-04   -0.23600E-06  4095   0.467E-03    0.542E-02
RMM:  14    -0.444403722935E+03    0.93496E-05   -0.44044E-07  3895   0.158E-03
  11 F= -.45997057E+03 E0= -.45998170E+03  d E =-.437258E-01  mag=   101.5041
       N       E                     dE             d eps       ncg     rms          rms(c)
DAV:   1    -0.444348942518E+03    0.54790E-01   -0.26658E+01  7936   0.836E+00    0.242E+00
RMM:   2    -0.444575573140E+03   -0.22663E+00   -0.70380E-01  8117   0.214E+00    0.636E+00
RMM:   3    -0.444698419295E+03   -0.12285E+00   -0.27292E-01  7982   0.134E+00    0.992E+00
RMM:   4    -0.444615635130E+03    0.82784E-01   -0.19294E-01  7963   0.113E+00    0.627E+00
RMM:   5    -0.444525973126E+03    0.89662E-01   -0.71179E-02  7965   0.727E-01    0.384E+00
RMM:   6    -0.444455572697E+03    0.70400E-01   -0.22373E-02  7968   0.389E-01    0.131E+00
RMM:   7    -0.444454933883E+03    0.63881E-03   -0.12289E-02  7973   0.275E-01    0.124E+00
RMM:   8    -0.444449456921E+03    0.54770E-02   -0.49990E-03  7975   0.195E-01    0.439E-01
RMM:   9    -0.444450924264E+03   -0.14673E-02   -0.48696E-03  7980   0.177E-01    0.746E-01
RMM:  10    -0.444449369096E+03    0.15552E-02   -0.36559E-03  7986   0.155E-01    0.519E-01
RMM:  11    -0.444448632060E+03    0.73704E-03   -0.23402E-03  7943   0.125E-01    0.306E-01
RMM:  12    -0.444448743400E+03   -0.11134E-03   -0.60487E-04  7950   0.637E-02    0.320E-01
RMM:  13    -0.444448662854E+03    0.80546E-04   -0.24057E-04  7883   0.421E-02    0.287E-01
RMM:  14    -0.444448785613E+03   -0.12276E-03   -0.60879E-05  7235   0.193E-02    0.322E-01
RMM:  15    -0.444448816867E+03   -0.31254E-04   -0.18471E-05  4378   0.123E-02    0.329E-01
RMM:  16    -0.444448798974E+03    0.17894E-04   -0.32070E-06  4123   0.457E-03    0.324E-01
RMM:  17    -0.444448719584E+03    0.79389E-04   -0.12223E-05  4277   0.967E-03    0.299E-01
RMM:  18    -0.444448617294E+03    0.10229E-03   -0.78440E-05  7621   0.210E-02    0.253E-01
RMM:  19    -0.444448365097E+03    0.25220E-03   -0.15560E-04  7881   0.291E-02    0.146E-01
RMM:  20    -0.444448294717E+03    0.70380E-04   -0.13340E-04  7849   0.247E-02    0.112E-01
RMM:  21    -0.444448259534E+03    0.35183E-04   -0.67256E-05  7431   0.196E-02    0.504E-02
RMM:  22    -0.444448415465E+03   -0.15593E-03   -0.28744E-05  5064   0.139E-02    0.587E-02
RMM:  23    -0.444448547308E+03   -0.13184E-03   -0.17752E-05  4338   0.132E-02    0.196E-02
RMM:  24    -0.444448703801E+03   -0.15649E-03   -0.94551E-06  4238   0.788E-03    0.305E-02
RMM:  25    -0.444448924752E+03   -0.22095E-03   -0.86703E-06  4314   0.808E-03    0.131E-02
RMM:  26    -0.444449008196E+03   -0.83444E-04   -0.32715E-06  4182   0.438E-03    0.149E-02
RMM:  27    -0.444449124017E+03   -0.11582E-03   -0.25368E-06  4201   0.402E-03    0.777E-03
RMM:  28    -0.444449223246E+03   -0.99229E-04   -0.20086E-06  4187   0.295E-03    0.106E-02
RMM:  29    -0.444449326961E+03   -0.10371E-03   -0.17700E-06  4191   0.296E-03    0.536E-03
RMM:  30    -0.444449452146E+03   -0.12519E-03   -0.21458E-06  4208   0.227E-03    0.833E-03
RMM:  31    -0.444449564135E+03   -0.11199E-03   -0.21427E-06  4241   0.268E-03    0.420E-03
RMM:  32    -0.444449668621E+03   -0.10449E-03   -0.25104E-06  4191   0.219E-03    0.592E-03
RMM:  33    -0.444449726252E+03   -0.57630E-04   -0.15535E-06  4098   0.223E-03    0.309E-03
RMM:  34    -0.444449780844E+03   -0.54593E-04   -0.17773E-06  3826   0.181E-03    0.378E-03
RMM:  35    -0.444449801613E+03   -0.20769E-04   -0.80539E-07  3535   0.164E-03    0.240E-03
RMM:  36    -0.444449824661E+03   -0.23048E-04   -0.12505E-06  3248   0.143E-03    0.220E-03
RMM:  37    -0.444449829729E+03   -0.50683E-05   -0.40488E-07  2505   0.129E-03
  12 F= -.45999493E+03 E0= -.46000634E+03  d E =-.243616E-01  mag=   101.5385
       N       E                     dE             d eps       ncg     rms          rms(c)
DAV:   1    -0.444451295449E+03   -0.14708E-02   -0.64141E-01  7936   0.129E+00    0.373E-01
RMM:   2    -0.444456058328E+03   -0.47629E-02   -0.16048E-02  8138   0.316E-01    0.842E-01
RMM:   3    -0.444458961069E+03   -0.29027E-02   -0.73495E-03  7980   0.223E-01    0.141E+00
RMM:   4    -0.444457025581E+03    0.19355E-02   -0.42992E-03  7924   0.166E-01    0.990E-01
RMM:   5    -0.444454975646E+03    0.20499E-02   -0.16529E-03  7955   0.115E-01    0.505E-01
RMM:   6    -0.444453662423E+03    0.13132E-02   -0.35956E-04  7880   0.473E-02    0.150E-01
RMM:   7    -0.444453639330E+03    0.23094E-04   -0.21281E-04  7869   0.362E-02    0.132E-01
RMM:   8    -0.444453549987E+03    0.89342E-04   -0.10334E-04  7873   0.264E-02    0.900E-02
RMM:   9    -0.444453538303E+03    0.11684E-04   -0.11219E-04  7828   0.276E-02    0.847E-02
RMM:  10    -0.444453561457E+03   -0.23154E-04   -0.75472E-05  7543   0.217E-02    0.968E-02
RMM:  11    -0.444453532423E+03    0.29034E-04   -0.39032E-05  5821   0.176E-02    0.356E-02
RMM:  12    -0.444453551521E+03   -0.19098E-04   -0.73390E-06  4141   0.710E-03    0.405E-02
RMM:  13    -0.444453561517E+03   -0.99958E-05   -0.37377E-06  4098   0.615E-03
  13 F= -.45999532E+03 E0= -.46000676E+03  d E =-.247547E-01  mag=   101.5441
       N       E                     dE             d eps       ncg     rms          rms(c)
DAV:   1    -0.444444642072E+03    0.89094E-02   -0.50947E+00  7920   0.366E+00    0.107E+00
RMM:   2    -0.444481808941E+03   -0.37167E-01   -0.13225E-01  8200   0.902E-01    0.202E+00
RMM:   3    -0.444524530590E+03   -0.42722E-01   -0.54559E-02  7975   0.606E-01    0.370E+00
RMM:   4    -0.444492548318E+03    0.31982E-01   -0.31685E-02  7961   0.456E-01    0.233E+00
RMM:   5    -0.444473598670E+03    0.18950E-01   -0.12863E-02  7958   0.309E-01    0.166E+00
RMM:   6    -0.444465690893E+03    0.79078E-02   -0.27716E-03  7943   0.132E-01    0.322E-01
RMM:   7    -0.444465935615E+03   -0.24472E-03   -0.15948E-03  7950   0.987E-02    0.453E-01
RMM:   8    -0.444465108476E+03    0.82714E-03   -0.93739E-04  7976   0.816E-02    0.269E-01
RMM:   9    -0.444465106192E+03    0.22840E-05   -0.11381E-03  7937   0.865E-02    0.341E-01
RMM:  10    -0.444464637100E+03    0.46909E-03   -0.63078E-04  7971   0.652E-02    0.310E-01
RMM:  11    -0.444464431090E+03    0.20601E-03   -0.21063E-04  7870   0.389E-02    0.254E-01
RMM:  12    -0.444464433882E+03   -0.27915E-05   -0.41631E-05  6203   0.159E-02
  14 F= -.46000080E+03 E0= -.46001211E+03  d E =-.547974E-02  mag=   101.5773
       N       E                     dE             d eps       ncg     rms          rms(c)
DAV:   1    -0.444464828858E+03   -0.39777E-03   -0.21082E-01  7960   0.746E-01    0.349E-01
RMM:   2    -0.444501809757E+03   -0.36981E-01   -0.19519E-02  7996   0.336E-01    0.371E+00
RMM:   3    -0.444467370909E+03    0.34439E-01   -0.12147E-02  7970   0.292E-01    0.779E-01
RMM:   4    -0.444468985641E+03   -0.16147E-02   -0.27352E-03  7931   0.118E-01    0.922E-01
RMM:   5    -0.444466432883E+03    0.25528E-02   -0.10148E-03  7907   0.807E-02    0.551E-01
RMM:   6    -0.444465911319E+03    0.52156E-03   -0.48978E-04  7889   0.617E-02    0.516E-01
RMM:   7    -0.444465905043E+03    0.62759E-05   -0.25536E-05  5128   0.101E-02
  15 F= -.46000118E+03 E0= -.46001237E+03  d E =-.586276E-02  mag=   101.5924
       N       E                     dE             d eps       ncg     rms          rms(c)
DAV:   1    -0.444461631610E+03    0.42797E-02   -0.17172E+00  7944   0.212E+00    0.856E-01
RMM:   2    -0.444615324702E+03   -0.15369E+00   -0.93513E-02  8005   0.755E-01    0.754E+00
RMM:   3    -0.444479438538E+03    0.13589E+00   -0.57141E-02  7979   0.629E-01    0.189E+00
RMM:   4    -0.444507452347E+03   -0.28014E-01   -0.18369E-02  7970   0.312E-01    0.277E+00
RMM:   5    -0.444473638369E+03    0.33814E-01   -0.84805E-03  7971   0.239E-01    0.116E+00
RMM:   6    -0.444470483704E+03    0.31547E-02   -0.33965E-03  7943   0.159E-01    0.943E-01
RMM:   7    -0.444470577736E+03   -0.94032E-04   -0.53582E-04  7926   0.549E-02    0.979E-01
RMM:   8    -0.444470572793E+03    0.49421E-05   -0.16550E-04  7889   0.325E-02    0.102E+00
RMM:   9    -0.444470537786E+03    0.35007E-04   -0.12285E-05  4502   0.688E-03    0.101E+00
RMM:  10    -0.444470220652E+03    0.31713E-03   -0.14123E-04  7764   0.302E-02    0.895E-01
RMM:  11    -0.444470218947E+03    0.17047E-05   -0.41211E-04  7888   0.493E-02    0.823E-01
RMM:  12    -0.444469900118E+03    0.31883E-03   -0.13439E-03  7942   0.847E-02    0.508E-01
RMM:  13    -0.444469895105E+03    0.50136E-05   -0.12621E-03  7911   0.846E-02    0.382E-01
RMM:  14    -0.444469664019E+03    0.23109E-03   -0.86715E-04  7942   0.670E-02    0.194E-01
RMM:  15    -0.444469567009E+03    0.97011E-04   -0.30847E-04  7909   0.431E-02    0.108E-01
RMM:  16    -0.444469643445E+03   -0.76437E-04   -0.10717E-04  7834   0.255E-02    0.114E-01
RMM:  17    -0.444469630364E+03    0.13081E-04   -0.67924E-05  7256   0.221E-02    0.674E-02
RMM:  18    -0.444469688332E+03   -0.57968E-04   -0.59564E-05  7196   0.191E-02    0.936E-02
RMM:  19    -0.444469667776E+03    0.20556E-04   -0.38775E-05  6040   0.171E-02    0.479E-02
RMM:  20    -0.444469684247E+03   -0.16471E-04   -0.16123E-05  4433   0.104E-02    0.497E-02
RMM:  21    -0.444469692569E+03   -0.83220E-05   -0.12459E-05  4263   0.105E-02
  16 F= -.46000318E+03 E0= -.46001469E+03  d E =-.199983E-02  mag=   101.5650
