 vasp.5.4.4.18Apr17-6-g9f103f2a35 (build Dec 15 2018 21:27:11) complex          
  
 executed on             LinuxIFC date 2022.02.11  21:28:16
 running on   48 total cores
 distrk:  each k-point on   48 cores,    1 groups
 distr:  one band on NCORES_PER_BAND=  24 cores,    2 groups


--------------------------------------------------------------------------------------------------------


 INCAR:
 POTCAR:    PAW_PBE Ni 02Aug2007                  
 POTCAR:    PAW_PBE Fe 06Sep2000                  
 POTCAR:    PAW_PBE O 08Apr2002                   

 ----------------------------------------------------------------------------- 
|                                                                             |
|           W    W    AA    RRRRR   N    N  II  N    N   GGGG   !!!           |
|           W    W   A  A   R    R  NN   N  II  NN   N  G    G  !!!           |
|           W    W  A    A  R    R  N N  N  II  N N  N  G       !!!           |
|           W WW W  AAAAAA  RRRRR   N  N N  II  N  N N  G  GGG   !            |
|           WW  WW  A    A  R   R   N   NN  II  N   NN  G    G                |
|           W    W  A    A  R    R  N    N  II  N    N   GGGG   !!!           |
|                                                                             |
|      For optimal performance we recommend to set                            |
|        NCORE= 4 - approx SQRT( number of cores)                             |
|      NCORE specifies how many cores store one orbital (NPAR=cpu/NCORE).     |
|      This setting can  greatly improve the performance of VASP for DFT.     |
|      The default,   NCORE=1            might be grossly inefficient         |
|      on modern multi-core architectures or massively parallel machines.     |
|      Do your own testing !!!!                                               |
|      Unfortunately you need to use the default for GW and RPA calculations. |
|      (for HF NCORE is supported but not extensively tested yet)             |
|                                                                             |
 ----------------------------------------------------------------------------- 

 POTCAR:    PAW_PBE Ni 02Aug2007                  
   VRHFIN =Ni:                                                                  
   LEXCH  = PE                                                                  
   EATOM  =  1077.6739 eV,   79.2068 Ry                                         
                                                                                
   TITEL  = PAW_PBE Ni 02Aug2007                                                
   LULTRA =        F    use ultrasoft PP ?                                      
   IUNSCR =        1    unscreen: 0-lin 1-nonlin 2-no                           
   RPACOR =    2.000    partial core radius                                     
   POMASS =   58.690; ZVAL   =   10.000    mass and valenz                      
   RCORE  =    2.300    outmost cutoff radius                                   
   RWIGS  =    2.430; RWIGS  =    1.286    wigner-seitz radius (au A)           
   ENMAX  =  269.532; ENMIN  =  202.149 eV                                      
   RCLOC  =    1.201    cutoff for local pot                                    
   LCOR   =        T    correct aug charges                                     
   LPAW   =        T    paw PP                                                  
   EAUG   =  544.565                                                            
   DEXC   =    0.000                                                            
   RMAX   =    2.357    core radius for proj-oper                               
   RAUG   =    1.300    factor for augmentation sphere                          
   RDEP   =    2.390    radius for radial grids                                 
   RDEPT  =    1.838    core radius for aug-charge                              
                                                                                
   Atomic configuration                                                         
    9 entries                                                                   
     n  l   j            E        occ.                                          
     1  0  0.50     -8206.4253   2.0000                                         
     2  0  0.50      -976.1748   2.0000                                         
     2  1  1.50      -839.0571   6.0000                                         
     3  0  0.50      -105.9991   2.0000                                         
     3  1  1.50       -66.4603   6.0000                                         
     3  2  2.50        -4.6458   9.0000                                         
     4  0  0.50        -4.4926   1.0000                                         
     4  1  1.50        -4.0817   0.0000                                         
     4  3  2.50        -1.3606   0.0000                                         
   Description                                                                  
     l       E           TYP  RCUT    TYP  RCUT                                 
     2     -4.6457903     23  2.300                                             
     2     -6.0063729     23  2.300                                             
     0     -4.4925590     23  2.300                                             
     0      5.0102601     23  2.300                                             
     1     -2.7211652     23  2.300                                             
     1     16.5183231     23  2.300                                             
  local pseudopotential read in
  partial core-charges read in
  partial kinetic energy density read in
  atomic valenz-charges read in
  non local Contribution for L=           2  read in
    real space projection operators read in
  non local Contribution for L=           2  read in
    real space projection operators read in
  non local Contribution for L=           0  read in
    real space projection operators read in
  non local Contribution for L=           0  read in
    real space projection operators read in
  non local Contribution for L=           1  read in
    real space projection operators read in
  non local Contribution for L=           1  read in
    real space projection operators read in
    PAW grid and wavefunctions read in
 
   number of l-projection  operators is LMAX  =           6
   number of lm-projection operators is LMMAX =          18
 
 POTCAR:    PAW_PBE Fe 06Sep2000                  
   VRHFIN =Fe:  d7 s1                                                           
   LEXCH  = PE                                                                  
   EATOM  =   594.3153 eV,   43.6809 Ry                                         
                                                                                
   TITEL  = PAW_PBE Fe 06Sep2000                                                
   LULTRA =        F    use ultrasoft PP ?                                      
   IUNSCR =        1    unscreen: 0-lin 1-nonlin 2-no                           
   RPACOR =    2.000    partial core radius                                     
   POMASS =   55.847; ZVAL   =    8.000    mass and valenz                      
   RCORE  =    2.300    outmost cutoff radius                                   
   RWIGS  =    2.460; RWIGS  =    1.302    wigner-seitz radius (au A)           
   ENMAX  =  267.882; ENMIN  =  200.911 eV                                      
   RCLOC  =    1.701    cutoff for local pot                                    
   LCOR   =        T    correct aug charges                                     
   LPAW   =        T    paw PP                                                  
   EAUG   =  511.368                                                            
   DEXC   =    0.000                                                            
   RMAX   =    2.356    core radius for proj-oper                               
   RAUG   =    1.300    factor for augmentation sphere                          
   RDEP   =    2.442    radius for radial grids                                 
   RDEPT  =    1.890    core radius for aug-charge                              
                                                                                
   Atomic configuration                                                         
    9 entries                                                                   
     n  l   j            E        occ.                                          
     1  0  0.50     -6993.8440   2.0000                                         
     2  0  0.50      -814.6047   2.0000                                         
     2  1  1.50      -693.3689   6.0000                                         
     3  0  0.50       -89.4732   2.0000                                         
     3  1  1.50       -55.6373   6.0000                                         
     3  2  2.50        -3.8151   7.0000                                         
     4  0  0.50        -4.2551   1.0000                                         
     4  1  1.50        -3.4015   0.0000                                         
     4  3  2.50        -1.3606   0.0000                                         
   Description                                                                  
     l       E           TYP  RCUT    TYP  RCUT                                 
     2     -3.8151135     23  2.300                                             
     2     -5.1756961     23  2.300                                             
     0     -4.2550963     23  2.300                                             
     0      7.2035603     23  2.300                                             
     1     -2.7211652     23  2.300                                             
     1     18.4316424     23  2.300                                             
  local pseudopotential read in
  partial core-charges read in
  partial kinetic energy density read in
  atomic valenz-charges read in
  non local Contribution for L=           2  read in
    real space projection operators read in
  non local Contribution for L=           2  read in
    real space projection operators read in
  non local Contribution for L=           0  read in
    real space projection operators read in
  non local Contribution for L=           0  read in
    real space projection operators read in
  non local Contribution for L=           1  read in
    real space projection operators read in
  non local Contribution for L=           1  read in
    real space projection operators read in
    PAW grid and wavefunctions read in
 
   number of l-projection  operators is LMAX  =           6
   number of lm-projection operators is LMMAX =          18
 
 POTCAR:    PAW_PBE O 08Apr2002                   
   VRHFIN =O: s2p4                                                              
   LEXCH  = PE                                                                  
   EATOM  =   432.3788 eV,   31.7789 Ry                                         
                                                                                
   TITEL  = PAW_PBE O 08Apr2002                                                 
   LULTRA =        F    use ultrasoft PP ?                                      
   IUNSCR =        1    unscreen: 0-lin 1-nonlin 2-no                           
   RPACOR =    1.200    partial core radius                                     
   POMASS =   16.000; ZVAL   =    6.000    mass and valenz                      
   RCORE  =    1.520    outmost cutoff radius                                   
   RWIGS  =    1.550; RWIGS  =    0.820    wigner-seitz radius (au A)           
   ENMAX  =  400.000; ENMIN  =  300.000 eV                                      
   ICORE  =        2    local potential                                         
   LCOR   =        T    correct aug charges                                     
   LPAW   =        T    paw PP                                                  
   EAUG   =  605.392                                                            
   DEXC   =    0.000                                                            
   RMAX   =    1.553    core radius for proj-oper                               
   RAUG   =    1.300    factor for augmentation sphere                          
   RDEP   =    1.550    radius for radial grids                                 
   RDEPT  =    1.329    core radius for aug-charge                              
                                                                                
   Atomic configuration                                                         
    4 entries                                                                   
     n  l   j            E        occ.                                          
     1  0  0.50      -514.6923   2.0000                                         
     2  0  0.50       -23.9615   2.0000                                         
     2  1  0.50        -9.0305   4.0000                                         
     3  2  1.50        -9.5241   0.0000                                         
   Description                                                                  
     l       E           TYP  RCUT    TYP  RCUT                                 
     0    -23.9615318     23  1.200                                             
     0     -9.5240782     23  1.200                                             
     1     -9.0304911     23  1.520                                             
     1      8.1634956     23  1.520                                             
     2     -9.5240782      7  1.500                                             
  local pseudopotential read in
  partial core-charges read in
  partial kinetic energy density read in
  kinetic energy density of atom read in
  atomic valenz-charges read in
  non local Contribution for L=           0  read in
    real space projection operators read in
  non local Contribution for L=           0  read in
    real space projection operators read in
  non local Contribution for L=           1  read in
    real space projection operators read in
  non local Contribution for L=           1  read in
    real space projection operators read in
    PAW grid and wavefunctions read in
 
   number of l-projection  operators is LMAX  =           4
   number of lm-projection operators is LMMAX =           8
 
 Optimization of the real space projectors (new method)

 maximal supplied QI-value         = 16.25
 optimisation between [QCUT,QGAM] = [ 11.54, 23.24] = [ 37.28,151.24] Ry 
 Optimized for a Real-space Cutoff    1.45 Angstroem

   l    n(q)    QCUT    max X(q) W(low)/X(q) W(high)/X(q)  e(spline) 
   2      9    11.539    60.317    0.19E-03    0.47E-04    0.16E-06
   2      9    11.539    55.921    0.19E-03    0.48E-04    0.16E-06
   0     10    11.539    51.690    0.80E-04    0.50E-04    0.24E-06
   0     10    11.539    30.015    0.73E-04    0.45E-04    0.22E-06
   1     10    11.539    18.849    0.87E-04    0.16E-03    0.71E-07
   1     10    11.539    14.624    0.73E-04    0.13E-03    0.64E-07
 Optimization of the real space projectors (new method)

 maximal supplied QI-value         = 16.25
 optimisation between [QCUT,QGAM] = [ 11.54, 23.24] = [ 37.28,151.24] Ry 
 Optimized for a Real-space Cutoff    1.53 Angstroem

   l    n(q)    QCUT    max X(q) W(low)/X(q) W(high)/X(q)  e(spline) 
   2     10    11.539    80.901    0.11E-03    0.14E-03    0.21E-06
   2     10    11.539    75.754    0.11E-03    0.14E-03    0.22E-06
   0     11    11.539    58.752    0.52E-04    0.18E-04    0.33E-06
   0     11    11.539    30.679    0.44E-04    0.16E-04    0.30E-06
   1     10    11.539    17.977    0.53E-04    0.29E-04    0.13E-06
   1     10    11.539    13.559    0.44E-04    0.25E-04    0.11E-06
 Optimization of the real space projectors (new method)

 maximal supplied QI-value         = 24.76
 optimisation between [QCUT,QGAM] = [ 11.64, 23.27] = [ 37.91,151.63] Ry 
 Optimized for a Real-space Cutoff    1.14 Angstroem

   l    n(q)    QCUT    max X(q) W(low)/X(q) W(high)/X(q)  e(spline) 
   0      8    11.635    20.381    0.10E-03    0.33E-03    0.24E-06
   0      8    11.635    15.268    0.11E-03    0.35E-03    0.26E-06
   1      7    11.635     5.964    0.24E-03    0.31E-03    0.30E-06
   1      7    11.635     5.382    0.22E-03    0.25E-03    0.26E-06
  PAW_PBE Ni 02Aug2007                  :
 energy of atom  1       EATOM=-1077.6739
 kinetic energy error for atom=    0.0030 (will be added to EATOM!!)
  PAW_PBE Fe 06Sep2000                  :
 energy of atom  2       EATOM= -594.3153
 kinetic energy error for atom=    0.0026 (will be added to EATOM!!)
  PAW_PBE O 08Apr2002                   :
 energy of atom  3       EATOM= -432.3788
 kinetic energy error for atom=    0.0208 (will be added to EATOM!!)
 
 
 POSCAR: POSCAR                                  
  positions in direct lattice
  velocities in cartesian coordinates
 exchange correlation table for  LEXCH =        8
   RHO(1)=    0.500       N(1)  =     2000
   RHO(2)=  100.500       N(2)  =     4000

 VTST: version 3.2, (02/03/18)

 CHAIN: initializing optimizer
 
 OPT: Using VASP Conjugate-Gradient optimizer
 CHAIN: Read ICHAIN            0
 
 POSCAR: POSCAR                                  
  positions in direct lattice
  velocities in cartesian coordinates
 


--------------------------------------------------------------------------------------------------------


 ion  position               nearest neighbor table
   1  0.999  0.001  0.191-  59 2.42  62 2.45  35 2.45  23 2.50  32 2.50   5 2.52  40 2.52  37 2.52
                             2 2.53   4 2.53  21 2.54  34 2.54
   2  0.248  0.999  0.192-  60 2.43   6 2.45  50 2.47  59 2.48  36 2.48  37 2.50   3 2.51  28 2.52
                             5 2.52  21 2.53   1 2.53   8 2.56
   3  0.499  0.002  0.192-  60 2.39  61 2.42  39 2.43  36 2.49  30 2.50  34 2.51   2 2.51   8 2.52
                            11 2.52   7 2.53  50 2.54  51 2.54
   4  0.998  0.251  0.192-  43 2.44  35 2.45  10 2.48  42 2.49  19 2.50  34 2.50  13 2.50   7 2.53
                             1 2.53  40 2.53   5 2.55  46 2.55
   5  0.249  0.249  0.191-   6 2.46  45 2.47  36 2.48  35 2.48  37 2.50  46 2.50   1 2.52  42 2.52
                             2 2.52  16 2.54   4 2.55  44 2.55
   6  0.327  0.164  0.285-  17 2.43  38 2.44   2 2.45  39 2.45   5 2.46   9 2.46  36 2.46  59 2.51
                            35 2.51  60 2.56  15 2.57  45 2.62
   7  0.749  0.253  0.193-  18 2.43  10 2.44  39 2.46  14 2.49  48 2.49  13 2.51  34 2.51   4 2.53
                             3 2.53  11 2.54  36 2.55  19 2.55
   8  0.418  0.084  0.094-  37 2.49  36 2.51  16 2.51   3 2.52  11 2.52  30 2.53  28 2.53  48 2.56
                             2 2.56
   9  0.410  0.081  0.379-  68 1.84   6 2.46  17 2.47  29 2.49  39 2.49  49 2.49  60 2.52  31 2.60
                            12 2.60  38 2.60
  10  0.830  0.168  0.286-  34 2.43  12 2.44  41 2.44   7 2.44  20 2.45   4 2.48  62 2.50  35 2.53
                            18 2.54  61 2.58  39 2.60  43 2.62
  11  0.668  0.085  0.096-  34 2.51  40 2.51  48 2.51   8 2.52   3 2.52  19 2.53  30 2.54  63 2.54
                             7 2.54
  12  0.667  0.080  0.379-  68 1.84  10 2.44  20 2.50  49 2.50  64 2.51  41 2.54  61 2.57  39 2.59
                            31 2.60   9 2.60
  13  0.999  0.499  0.193-  22 2.42  18 2.42  43 2.46  53 2.50   4 2.50  42 2.51   7 2.51  19 2.52
                            50 2.52  21 2.53  14 2.53  26 2.55
  14  0.748  0.499  0.192-  15 2.42  18 2.43  44 2.48   7 2.49  48 2.49  57 2.52  26 2.52  21 2.52
                            23 2.53  13 2.53  56 2.53  36 2.57
  15  0.580  0.419  0.282-  49 2.38  44 2.38  14 2.42  36 2.46  58 2.47  39 2.49  55 2.50  45 2.54
                            17 2.54  18 2.55   6 2.57  56 2.60
  16  0.420  0.333  0.094-  36 2.51   8 2.51  37 2.52  57 2.52  44 2.52  46 2.53  24 2.54  48 2.54
                             5 2.54
  17  0.408  0.325  0.379-  66 1.86   6 2.43   9 2.47  47 2.51  38 2.51  15 2.54  49 2.55  45 2.58
                            25 2.59  58 2.64
  18  0.834  0.421  0.284-  49 2.34  13 2.42  14 2.43   7 2.43  27 2.46  22 2.50  20 2.54  10 2.54
                            15 2.55  39 2.59  56 2.60  43 2.65
  19  0.919  0.335  0.096-  48 2.49   4 2.50  40 2.51  53 2.51  13 2.52  11 2.53  26 2.54  46 2.54
                             7 2.55
  20  0.914  0.328  0.380-  67 1.89  10 2.45  54 2.48  12 2.50  47 2.52  41 2.53  18 2.54  49 2.56
                            43 2.60  27 2.63
  21  0.998  0.749  0.193-  22 2.42  56 2.44  59 2.45  50 2.48  23 2.48  32 2.50  26 2.52  14 2.52
                             2 2.53  13 2.53   1 2.54  28 2.55
  22  0.083  0.667  0.283-  50 2.38  29 2.39  13 2.42  21 2.42  54 2.49  18 2.50  52 2.51  60 2.53
                            43 2.56  27 2.57  56 2.58  59 2.58
  23  0.753  0.752  0.192-  56 2.41  55 2.42  62 2.45  21 2.48  63 2.49   1 2.50  32 2.51  57 2.52
                            14 2.53  44 2.54  51 2.57  34 2.58
  24  0.417  0.584  0.096-  46 2.49  44 2.50  51 2.51  57 2.52  30 2.52  63 2.53  16 2.54  42 2.56
                            53 2.57
  25  0.410  0.582  0.377-  66 1.89  54 2.43  31 2.45  45 2.45  52 2.50  47 2.53  58 2.53  55 2.54
                            64 2.57  17 2.59
  26  0.916  0.585  0.095-  48 2.48  32 2.48  57 2.50  53 2.51  21 2.52  14 2.52  28 2.53  19 2.54
                            13 2.55
  27  0.903  0.582  0.379-  67 1.87  58 2.44  18 2.46  56 2.46  33 2.49  49 2.56  22 2.57  29 2.60
                            20 2.63  54 2.71
  28  0.167  0.835  0.095-  32 2.48  37 2.49  53 2.50   2 2.52  50 2.53   8 2.53  26 2.53  30 2.54
                            21 2.55
  29  0.164  0.835  0.372-  22 2.39  59 2.40  60 2.43   9 2.49  31 2.54  38 2.56  33 2.58  27 2.60
                            54 2.69
  30  0.417  0.833  0.097-  51 2.49   3 2.50  53 2.52  24 2.52   8 2.53  11 2.54  28 2.54  63 2.54
                            50 2.55
  31  0.410  0.824  0.378-  68 1.85  25 2.45  52 2.46  60 2.50  54 2.53  29 2.54  61 2.54  64 2.56
                            12 2.60   9 2.60
  32  0.920  0.833  0.095-  28 2.48  26 2.48   1 2.50  21 2.50  23 2.51  57 2.53  37 2.54  63 2.54
                            40 2.57
  33  0.908  0.831  0.379-  65 1.91  56 2.40  58 2.45  64 2.45  41 2.46  27 2.49  59 2.49  62 2.51
                            38 2.52  29 2.58
  34  0.749  0.005  0.193-  61 2.39  62 2.40  10 2.43   4 2.50  11 2.51   7 2.51   3 2.51  63 2.54
                             1 2.54  51 2.55  40 2.57  23 2.58
  35  0.078  0.164  0.284-  47 2.30  38 2.36  41 2.38   4 2.45   1 2.45  59 2.46  62 2.47   5 2.48
                            43 2.50   6 2.51  10 2.53  45 2.61
  36  0.493  0.245  0.192-  39 2.37  15 2.46   6 2.46   5 2.48   2 2.48   3 2.49  16 2.51   8 2.51
                            44 2.52   7 2.55  14 2.57  48 2.57
  37  0.171  0.083  0.095-  28 2.49   8 2.49   2 2.50   5 2.50  16 2.52   1 2.52  32 2.54  46 2.57
                            40 2.58
  38  0.154  0.083  0.375-  65 1.81  35 2.36  41 2.36  59 2.40   6 2.44  47 2.45  17 2.51  33 2.52
                            29 2.56   9 2.60
  39  0.572  0.169  0.283-  49 2.25  36 2.37   3 2.43   6 2.45   7 2.46  60 2.47   9 2.49  15 2.49
                            12 2.59  18 2.59  10 2.60  61 2.66
  40  0.917  0.086  0.094-  19 2.51  11 2.51   1 2.52  63 2.53   4 2.53  46 2.55  34 2.57  32 2.57
                            37 2.58
  41  0.918  0.079  0.375-  65 1.83  38 2.36  35 2.38  62 2.39  10 2.44  33 2.46  47 2.51  64 2.51
                            20 2.53  12 2.54
  42  0.246  0.497  0.194-  43 2.31  45 2.32  52 2.40   4 2.49  13 2.51  46 2.51   5 2.52  53 2.54
                            51 2.55  24 2.56  44 2.58  50 2.59
  43  0.095  0.420  0.283-  47 2.28  42 2.31  54 2.34  45 2.36   4 2.44  13 2.46  52 2.47  35 2.50
                            22 2.56  20 2.60  10 2.62  18 2.65
  44  0.503  0.500  0.191-  15 2.38  55 2.40  45 2.44  14 2.48  57 2.49  24 2.50  36 2.52  16 2.52
                            23 2.54   5 2.55  51 2.55  42 2.58
  45  0.332  0.426  0.281-  42 2.32  43 2.36  47 2.37  44 2.44  25 2.45   5 2.47  52 2.47  55 2.47
                            15 2.54  17 2.58  35 2.61   6 2.62
  46  0.171  0.337  0.096-  24 2.49   5 2.50  42 2.51  16 2.53  19 2.54   4 2.55  53 2.55  40 2.55
                            37 2.57
  47  0.163  0.330  0.368-  43 2.28  35 2.30  45 2.37  54 2.42  38 2.45  41 2.51  17 2.51  20 2.52
                            25 2.53
  48  0.673  0.336  0.096-  26 2.48  19 2.49  14 2.49   7 2.49  11 2.51  57 2.53  16 2.54   8 2.56
                            36 2.57
  49  0.659  0.323  0.368-  39 2.25  18 2.34  15 2.38   9 2.49  12 2.50  17 2.55  27 2.56  20 2.56
                            58 2.67
  50  0.245  0.753  0.193-  60 2.37  22 2.38  52 2.39   2 2.47  21 2.48  53 2.51  13 2.52  28 2.53
                             3 2.54  30 2.55  51 2.57  42 2.59
  51  0.498  0.750  0.193-  61 2.33  55 2.35  52 2.37  30 2.49  24 2.51  63 2.52   3 2.54  44 2.55
                            34 2.55  42 2.55  23 2.57  50 2.57
  52  0.334  0.671  0.281-  51 2.37  50 2.39  42 2.40  61 2.44  60 2.46  31 2.46  45 2.47  43 2.47
                            54 2.48  25 2.50  55 2.51  22 2.51
  53  0.165  0.586  0.097-  13 2.50  28 2.50  50 2.51  26 2.51  19 2.51  30 2.52  42 2.54  46 2.55
                            24 2.57
  54  0.164  0.569  0.375-  67 1.77  43 2.34  47 2.42  25 2.43  52 2.48  20 2.48  22 2.49  31 2.53
                            29 2.69  27 2.71
  55  0.580  0.667  0.280-  51 2.35  64 2.36  44 2.40  23 2.42  61 2.45  45 2.47  58 2.47  15 2.50
                            52 2.51  56 2.51  25 2.54  62 2.56
  56  0.834  0.679  0.285-  33 2.40  23 2.41  58 2.42  59 2.43  21 2.44  27 2.46  62 2.47  55 2.51
                            14 2.53  22 2.58  15 2.60  18 2.60
  57  0.668  0.584  0.095-  44 2.49  26 2.50  63 2.51  23 2.52  14 2.52  16 2.52  24 2.52  32 2.53
                            48 2.53
  58  0.665  0.589  0.375-  66 1.77  56 2.42  27 2.44  33 2.45  64 2.46  55 2.47  15 2.47  25 2.53
                            17 2.64  49 2.67
  59  0.075  0.919  0.284-  29 2.40  38 2.40   1 2.42  56 2.43  21 2.45  35 2.46  62 2.47   2 2.48
                            33 2.49   6 2.51  22 2.58  60 2.66
  60  0.337  0.915  0.282-  50 2.37   3 2.39  29 2.43   2 2.43  52 2.46  61 2.47  39 2.47  31 2.50
                             9 2.52  22 2.53   6 2.56  59 2.66
  61  0.578  0.908  0.281-  51 2.33  64 2.34  34 2.39   3 2.42  52 2.44  55 2.45  60 2.47  62 2.50
                            31 2.54  12 2.57  10 2.58  39 2.66
  62  0.832  0.922  0.283-  64 2.31  41 2.39  34 2.40  23 2.45   1 2.45  56 2.47  35 2.47  59 2.47
                            10 2.50  61 2.50  33 2.51  55 2.56
  63  0.668  0.834  0.097-  23 2.49  57 2.51  51 2.52  40 2.53  24 2.53  30 2.54  34 2.54  11 2.54
                            32 2.54
  64  0.667  0.833  0.368-  62 2.31  61 2.34  55 2.36  33 2.45  58 2.46  12 2.51  41 2.51  31 2.56
                            25 2.57
  65  1.000  0.007  0.432-  38 1.81  41 1.83  33 1.91
  66  0.507  0.501  0.428-  58 1.77  17 1.86  25 1.89
  67  0.009  0.511  0.427-  54 1.77  27 1.87  20 1.89
  68  0.496  0.995  0.429-  12 1.84   9 1.84  31 1.85
 

IMPORTANT INFORMATION: All symmetrisations will be switched off!
NOSYMM: (Re-)initialisation of all symmetry stuff for point group C_1.

 
 

Automatic generation of k-mesh.
 generate k-points for:    3    3    1
Space group operators:
 irot       det(A)        alpha          n_x          n_y          n_z        tau_x        tau_y        tau_z
    1     1.000000     0.000000     1.000000     0.000000     0.000000     0.000000     0.000000     0.000000
 
 Subroutine IBZKPT returns following result:
 ===========================================
 
 Found      5 irreducible k-points:
 
 Following reciprocal coordinates:
            Coordinates               Weight
  0.000000  0.000000  0.000000      1.000000
  0.333333  0.000000  0.000000      2.000000
  0.000000  0.333333  0.000000      2.000000
  0.333333  0.333333  0.000000      2.000000
 -0.333333  0.333333  0.000000      2.000000
 
 Following cartesian coordinates:
            Coordinates               Weight
  0.000000  0.000000  0.000000      1.000000
  0.033002  0.019054  0.000000      2.000000
  0.000000  0.038108  0.000000      2.000000
  0.033002  0.057162  0.000000      2.000000
 -0.033002  0.019054  0.000000      2.000000
 


--------------------------------------------------------------------------------------------------------




 Dimension of arrays:
   k-points           NKPTS =      5   k-points in BZ     NKDIM =      5   number of bands    NBANDS=    396
   number of dos      NEDOS =    301   number of ions     NIONS =     68
   non local maximal  LDIM  =      6   non local SUM 2l+1 LMDIM =     18
   total plane-waves  NPLWV = ******
   max r-space proj   IRMAX =   8292   max aug-charges    IRDMAX=  19623
   dimension x,y,z NGX =    80 NGY =   80 NGZ =  160
   dimension x,y,z NGXF=   160 NGYF=  160 NGZF=  320
   support grid    NGXF=   160 NGYF=  160 NGZF=  320
   ions per type =              33  31   4
   NGX,Y,Z   is equivalent  to a cutoff of  13.17, 13.17, 12.52 a.u.
   NGXF,Y,Z  is equivalent  to a cutoff of  26.34, 26.34, 25.03 a.u.

 SYSTEM =  SQS-NiFe                                
 POSCAR =  POSCAR                                  

 Startparameter for this run:
   NWRITE =      2    write-flag & timer
   PREC   = accura    normal or accurate (medium, high low for compatibility)
   ISTART =      1    job   : 0-new  1-cont  2-samecut
   ICHARG =      1    charge: 1-file 2-atom 10-const
   ISPIN  =      2    spin polarized calculation?
   LNONCOLLINEAR =      F non collinear calculations
   LSORBIT =      F    spin-orbit coupling
   INIWAV =      1    electr: 0-lowe 1-rand  2-diag
   LASPH  =      F    aspherical Exc in radial PAW
   METAGGA=      F    non-selfconsistent MetaGGA calc.

 Electronic Relaxation 1
   ENCUT  =  520.0 eV  38.22 Ry    6.18 a.u.  18.78 18.78 39.52*2*pi/ulx,y,z
   ENINI  =  520.0     initial cutoff
   ENAUG  =  605.4 eV  augmentation charge cutoff
   NELM   =    200;   NELMIN=  2; NELMDL=  0     # of ELM steps 
   EDIFF  = 0.1E-04   stopping-criterion for ELM
   LREAL  =      T    real-space projection
   NLSPLINE    = F    spline interpolate recip. space projectors
   LCOMPAT=      F    compatible to vasp.4.4
   GGA_COMPAT  = T    GGA compatible to vasp.4.4-vasp.4.6
   LMAXPAW     = -100 max onsite density
   LMAXMIX     =    2 max onsite mixed and CHGCAR
   VOSKOWN=      0    Vosko Wilk Nusair interpolation
   ROPT   =   -0.00025  -0.00025  -0.00025
 Ionic relaxation
   EDIFFG = -.5E-01   stopping-criterion for IOM
   NSW    =     99    number of steps for IOM
   NBLOCK =      1;   KBLOCK =     99    inner block; outer block 
   IBRION =      2    ionic relax: 0-MD 1-quasi-New 2-CG
   NFREE  =      1    steps in history (QN), initial steepest desc. (CG)
   ISIF   =      2    stress and relaxation
   IWAVPR =     11    prediction:  0-non 1-charg 2-wave 3-comb
   ISYM   =      0    0-nonsym 1-usesym 2-fastsym
   LCORR  =      T    Harris-Foulkes like correction to forces

   POTIM  = 0.5000    time-step for ionic-motion
   TEIN   =    0.0    initial temperature
   TEBEG  =    0.0;   TEEND  =   0.0 temperature during run
   SMASS  =  -3.00    Nose mass-parameter (am)
   estimated Nose-frequenzy (Omega)   =  0.10E-29 period in steps =****** mass=  -0.233E-26a.u.
   SCALEE = 1.0000    scale energy and forces
   NPACO  =    256;   APACO  = 16.0  distance and # of slots for P.C.
   PSTRESS=    0.0 pullay stress

  Mass of Ions in am
   POMASS =  58.69 55.85 16.00
  Ionic Valenz
   ZVAL   =  10.00  8.00  6.00
  Atomic Wigner-Seitz radii
   RWIGS  =  -1.00 -1.00 -1.00
  virtual crystal weights 
   VCA    =   1.00  1.00  1.00
   NELECT =     602.0000    total number of electrons
   NUPDOWN=      -1.0000    fix difference up-down

 DOS related values:
   EMIN   =  10.00;   EMAX   =-10.00  energy-range for DOS
   EFERMI =   0.00
   ISMEAR =     1;   SIGMA  =   0.20  broadening in eV -4-tet -1-fermi 0-gaus

 Electronic relaxation 2 (details)
   IALGO  =     68    algorithm
   LDIAG  =      T    sub-space diagonalisation (order eigenvalues)
   LSUBROT=      F    optimize rotation matrix (better conditioning)
   TURBO    =      0    0=normal 1=particle mesh
   IRESTART =      0    0=no restart 2=restart with 2 vectors
   NREBOOT  =      0    no. of reboots
   NMIN     =      0    reboot dimension
   EREF     =   0.00    reference energy to select bands
   IMIX   =      4    mixing-type and parameters
     AMIX     =   0.40;   BMIX     =  1.00
     AMIX_MAG =   1.60;   BMIX_MAG =  1.00
     AMIN     =   0.10
     WC   =   100.;   INIMIX=   1;  MIXPRE=   1;  MAXMIX= -45

 Intra band minimization:
   WEIMIN = 0.0010     energy-eigenvalue tresh-hold
   EBREAK =  0.63E-08  absolut break condition
   DEPER  =   0.30     relativ break condition  

   TIME   =   0.40     timestep for ELM

  volume/ion in A,a.u.               =      27.61       186.35
  Fermi-wavevector in a.u.,A,eV,Ry     =   1.120456  2.117355 17.081047  1.255422
  Thomas-Fermi vector in A             =   2.257103
 
 Write flags
   LWAVE        =      T    write WAVECAR
   LDOWNSAMPLE  =      F    k-point downsampling of WAVECAR
   LCHARG       =      T    write CHGCAR
   LVTOT        =      F    write LOCPOT, total local potential
   LVHAR        =      F    write LOCPOT, Hartree potential only
   LELF         =      F    write electronic localiz. function (ELF)
   LORBIT       =     10    0 simple, 1 ext, 2 COOP (PROOUT), +10 PAW based schemes


 Dipole corrections
   LMONO  =      F    monopole corrections only (constant potential shift)
   LDIPOL =      T    correct potential (dipole corrections)
   IDIPOL =      3    1-x, 2-y, 3-z, 4-all directions 
   EPSILON=  1.0000000 bulk dielectric constant

 Exchange correlation treatment:
   GGA     =    --    GGA type
   LEXCH   =     8    internal setting for exchange type
   VOSKOWN=      0    Vosko Wilk Nusair interpolation
   LHFCALC =     F    Hartree Fock is set to
   LHFONE  =     F    Hartree Fock one center treatment
   AEXX    =    0.0000 exact exchange contribution

 Linear response parameters
   LEPSILON=     F    determine dielectric tensor
   LRPA    =     F    only Hartree local field effects (RPA)
   LNABLA  =     F    use nabla operator in PAW spheres
   LVEL    =     F    velocity operator in full k-point grid
   LINTERFAST=   F  fast interpolation
   KINTER  =     0    interpolate to denser k-point grid
   CSHIFT  =0.1000    complex shift for real part using Kramers Kronig
   OMEGAMAX=  -1.0    maximum frequency
   DEG_THRESHOLD= 0.2000000E-02 threshold for treating states as degnerate
   RTIME   =   -0.100 relaxation time in fs
  (WPLASMAI=    0.000 imaginary part of plasma frequency in eV, 0.658/RTIME)
   DFIELD  = 0.0000000 0.0000000 0.0000000 field for delta impulse in time
 
 Orbital magnetization related:
   ORBITALMAG=     F  switch on orbital magnetization
   LCHIMAG   =     F  perturbation theory with respect to B field
   DQ        =  0.001000  dq finite difference perturbation B field
   LLRAUG    =     F  two centre corrections for induced B field



--------------------------------------------------------------------------------------------------------


 conjugate gradient relaxation of ions
   using selective dynamics as specified on POSCAR
 charge density and potential will be updated during run
 spin polarized calculation
 RMM-DIIS sequential band-by-band and
  variant of blocked Davidson during initial phase
 perform sub-space diagonalisation
    before iterative eigenvector-optimisation
 modified Broyden-mixing scheme, WC =      100.0
 initial mixing is a Kerker type mixing with AMIX =  0.4000 and BMIX =      1.0000
 Hartree-type preconditioning will be used
 using additional bands           95
 real space projection scheme for non local part
 use partial core corrections
 calculate Harris-corrections to forces 
   (improved forces if not selfconsistent)
 use gradient corrections 
 use of overlap-Matrix (Vanderbilt PP)
 Methfessel and Paxton  Order N= 1 SIGMA  =   0.20


--------------------------------------------------------------------------------------------------------


  energy-cutoff  :      520.00
  volume of cell :     1877.75
      direct lattice vectors                 reciprocal lattice vectors
    10.100310000  0.000000000  0.000000000     0.099006862  0.057161638  0.000000000
    -5.050155000  8.747125050  0.000000000     0.000000000  0.114323277  0.000000000
     0.000000000  0.000000000 21.253800000     0.000000000  0.000000000  0.047050410

  length of vectors
    10.100310000 10.100310003 21.253800000     0.114323277  0.114323277  0.047050410


 
 old parameters found on file WAVECAR:
  energy-cutoff  :      520.00
  volume of cell :     1877.75
      direct lattice vectors                 reciprocal lattice vectors
    10.100310000  0.000000000  0.000000000     0.099006862  0.057161638  0.000000000
    -5.050155000  8.747125050  0.000000000     0.000000000  0.114323277  0.000000000
     0.000000000  0.000000000 21.253800000     0.000000000  0.000000000  0.047050410

  length of vectors

 
 k-points in units of 2pi/SCALE and weight: read from INCAR                         
   0.00000000  0.00000000  0.00000000       0.111
   0.03300229  0.01905388  0.00000000       0.222
   0.00000000  0.03810776  0.00000000       0.222
   0.03300229  0.05716164  0.00000000       0.222
  -0.03300229  0.01905388  0.00000000       0.222
 
 k-points in reciprocal lattice and weights: read from INCAR                         
   0.00000000  0.00000000  0.00000000       0.111
   0.33333333  0.00000000  0.00000000       0.222
   0.00000000  0.33333333  0.00000000       0.222
   0.33333333  0.33333333  0.00000000       0.222
  -0.33333333  0.33333333  0.00000000       0.222
 
 position of ions in fractional coordinates (direct lattice) 
   0.99904300  0.00064200  0.19052300
   0.24849100  0.99862800  0.19205500
   0.49902500  0.00192700  0.19180600
   0.99813900  0.25067400  0.19194200
   0.24921500  0.24886200  0.19118600
   0.32697694  0.16371954  0.28523331
   0.74893500  0.25278100  0.19317500
   0.41837500  0.08394000  0.09411800
   0.40993309  0.08123392  0.37901201
   0.82957789  0.16761751  0.28560082
   0.66797000  0.08472300  0.09569300
   0.66700607  0.08049811  0.37881040
   0.99908600  0.49910800  0.19304000
   0.74816900  0.49871100  0.19204600
   0.57986275  0.41931311  0.28239664
   0.41961000  0.33337100  0.09414000
   0.40840016  0.32468308  0.37850113
   0.83353120  0.42102475  0.28433100
   0.91855900  0.33501600  0.09568700
   0.91411321  0.32780105  0.37987439
   0.99765800  0.74896900  0.19256000
   0.08324500  0.66707399  0.28343729
   0.75346500  0.75172800  0.19162900
   0.41737300  0.58352400  0.09623400
   0.41036126  0.58164719  0.37714874
   0.91550800  0.58461900  0.09542900
   0.90330720  0.58236128  0.37906799
   0.16682900  0.83490800  0.09456700
   0.16445854  0.83538345  0.37192392
   0.41715300  0.83338800  0.09679300
   0.40971053  0.82375616  0.37825731
   0.91985100  0.83263700  0.09539800
   0.90772227  0.83088235  0.37921597
   0.74918200  0.00453800  0.19311300
   0.07829883  0.16384012  0.28448670
   0.49319000  0.24544000  0.19167800
   0.17139600  0.08339300  0.09535900
   0.15351952  0.08306173  0.37487825
   0.57243218  0.16870832  0.28297071
   0.91693100  0.08581500  0.09410100
   0.91761763  0.07949025  0.37460898
   0.24596400  0.49669300  0.19369900
   0.09528707  0.41977247  0.28308176
   0.50297300  0.49962100  0.19096300
   0.33211675  0.42569053  0.28146221
   0.17081400  0.33724200  0.09550500
   0.16331660  0.32956903  0.36845098
   0.67264700  0.33598100  0.09600300
   0.65906428  0.32292310  0.36765383
   0.24490500  0.75270000  0.19343600
   0.49840300  0.74988300  0.19260700
   0.33361267  0.67054939  0.28129334
   0.16470600  0.58627100  0.09733100
   0.16408549  0.56911113  0.37460440
   0.58015897  0.66717986  0.28023167
   0.83425645  0.67870765  0.28544182
   0.66762500  0.58426200  0.09519900
   0.66505968  0.58944209  0.37542943
   0.07523492  0.91885477  0.28426163
   0.33668119  0.91544085  0.28226582
   0.57784179  0.90836657  0.28072319
   0.83202232  0.92169959  0.28297725
   0.66841400  0.83351100  0.09659800
   0.66705820  0.83298796  0.36768282
   0.99985350  0.00697871  0.43218182
   0.50716869  0.50059000  0.42763494
   0.00888324  0.51061039  0.42718382
   0.49579034  0.99501311  0.42911600
 
 position of ions in cartesian coordinates  (Angst):
  10.08740180  0.00561565  4.04933774
  -2.53339006  8.73512399  4.08189856
   5.03057555  0.01685571  4.07660636
   8.81557077  2.19267682  4.07949688
   1.26035708  2.17682703  4.06342901
   2.47575944  1.43207525  6.06229164
   6.28789244  2.21110702  4.10570281
   3.80180719  0.73423368  2.00036515
   3.73020742  0.71056328  8.05544541
   7.53249948  1.46617135  6.07010272
   6.31883979  0.74108268  2.03383988
   6.33044010  0.70412706  8.05116046
   7.57050555  4.36576009  4.10283355
   5.03817098  4.36228748  4.08170727
   3.73919737  3.66778419  6.00200180
   2.55461586  2.91603783  2.00083273
   2.48526838  2.84004347  8.04458736
   6.29268321  3.68275616  6.04311430
   7.58584793  2.93042685  2.03371236
   7.57738072  2.86731675  8.07377433
   6.29424553  6.55132550  4.09263173
  -2.52802670  5.83497957  6.02411946
   3.81388716  6.57545882  4.07284444
   1.26871004  5.10415740  2.04533819
   1.20736746  5.08774073  8.01584386
   6.29449804  5.11373550  2.02822888
   6.18266802  5.09398690  8.05663523
  -2.53139019  7.30304468  2.00990810
  -2.55773364  7.30720353  7.90479663
   0.00463604  7.28974905  2.05721906
  -0.02189293  7.20549817  8.03940512
   5.08583435  7.28317996  2.02757001
   4.97219165  7.26783183  8.05978031
   7.54405284  0.03969445  4.10438508
  -0.03657557  1.43312999  6.04642335
   3.74186185  2.14689437  4.07388588
   1.31000516  0.72944900  2.02674111
   1.13112016  0.72655135  7.96758736
   4.92973936  1.47571274  6.01420298
   8.82790830  0.75063454  2.00000383
   8.86678441  0.69531114  7.96186427
  -0.02406399  4.34463578  4.11683981
  -1.15748715  3.67180230  6.01656320
   2.55701973  4.37024736  4.05868941
   1.20467894  3.72356832  5.98214148
   0.02214998  2.94989795  2.02984417
  -0.01482637  2.88278155  7.83098346
   5.09718709  2.93886782  2.04042856
   5.02594181  2.82464875  7.81404095
  -1.32763525  6.58396103  4.11125006
   1.24699942  6.55932037  4.09363066
  -0.01678700  5.86537938  5.97855243
  -1.29717776  5.12818575  2.06865361
  -1.21678506  4.97808618  7.96176692
   2.49042376  5.83590565  5.95598787
   4.99866998  5.93674064  6.06672337
   3.79260580  5.11061278  2.02334051
   3.74053496  5.15592371  7.97930211
  -3.88046294  8.03733756  6.04163991
  -1.22253377  8.00747558  5.99922132
   1.24898926  7.94559599  5.96643455
   3.74895763  8.06222154  6.01434178
   2.54182886  7.29082495  2.05307457
   2.53077631  7.28624989  7.81465710
  10.06358670  0.06104369  9.18550601
   2.59450396  4.37872330  9.08886751
  -2.48893817  4.46637297  9.07927948
  -0.01733435  8.70350413  9.12034555
 


--------------------------------------------------------------------------------------------------------


 k-point  1 :   0.0000 0.0000 0.0000  plane waves:   50641
 k-point  2 :   0.3333 0.0000 0.0000  plane waves:   50572
 k-point  3 :   0.0000 0.3333 0.0000  plane waves:   50572
 k-point  4 :   0.3333 0.3333 0.0000  plane waves:   50583
 k-point  5 :  -0.3333 0.3333 0.0000  plane waves:   50572

 maximum and minimum number of plane-waves per node :      2130     2087

 maximum number of plane-waves:     50641
 maximum index in each direction: 
   IXMAX=   19   IYMAX=   18   IZMAX=   39
   IXMIN=  -19   IYMIN=  -19   IZMIN=  -39


 real space projection operators:
  total allocation   :      66785.94 KBytes
  max/ min on nodes  :       3362.00       2428.34


 parallel 3D FFT for wavefunctions:
    minimum data exchange during FFTs selected (reduces bandwidth)
 parallel 3D FFT for charge:
    minimum data exchange during FFTs selected (reduces bandwidth)


 total amount of memory used by VASP MPI-rank0   143281. kBytes
=======================================================================

   base      :      30000. kBytes
   nonlr-proj:      13657. kBytes
   fftplans  :       8122. kBytes
   grid      :      22220. kBytes
   one-center:         93. kBytes
   wavefun   :      69189. kBytes
 
     INWAV:  cpu time    6.4281: real time    6.6137
 Broyden mixing: mesh for mixing (old mesh)
   NGX = 37   NGY = 37   NGZ = 79
  (NGX  =160   NGY  =160   NGZ  =320)
  gives a total of 108151 points

 initial charge density was supplied:
 number of electron     602.0000066 magnetization      68.0000000
 keeping initial charge density in first step


--------------------------------------------------------------------------------------------------------


 Maximum index for non-local projection operator          764
 Maximum index for augmentation-charges         1123 (set IRDMAX)


--------------------------------------------------------------------------------------------------------


 First call to EWALD:  gamma=   0.144
 Maximum number of real-space cells 4x 4x 2
 Maximum number of reciprocal cells 2x 2x 4

    FEWALD:  cpu time    0.0035: real time    0.0035


--------------------------------------- Iteration      1(   1)  ---------------------------------------


    POTLOK:  cpu time    0.5028: real time    0.5287
    SETDIJ:  cpu time    0.0335: real time    0.0624
     EDDAV:  cpu time   67.3505: real time   67.3804
       DOS:  cpu time    0.0136: real time    0.0136
    CHARGE:  cpu time    1.7968: real time    1.7972
    MIXING:  cpu time    0.0099: real time    0.0099
    --------------------------------------------
      LOOP:  cpu time   69.7073: real time   69.7924

 eigenvalue-minimisations  : 10904
 total energy-change (2. order) :-0.4290296E+03  (-0.2749377E+00)
 number of electron     602.0000065 magnetization      66.9708789
 augmentation part      334.8241115 magnetization      52.9339021

 DIPCOR: dipole corrections for dipol
 direction  3 min pos   243,
 dipolmoment           0.000000      0.000000      0.370932 electrons x Angstroem
 Tr[quadrupol]    -10344.998710

 energy correction for charged system         0.000000 eV
 dipol+quadrupol energy correction           -0.006630 eV
 added-field ion interaction          5.814246 eV  (added to PSCEN)


 Broyden mixing:
  rms(total) = 0.30754E+01    rms(broyden)= 0.30751E+01
  rms(prec ) = 0.32693E+01
  weight for this iteration     100.00

 Free energy of the ion-electron system (eV)
  ---------------------------------------------------
  alpha Z        PSCENC =      1433.67597884
  Ewald energy   TEWEN  =    203857.65888979
  -Hartree energ DENC   =   -258518.31004244
  -exchange      EXHF   =         0.00000000
  -V(xc)+E(xc)   XCENC  =      1220.62252878
  PAW double counting   =     60539.91430079   -63065.12657297
  entropy T*S    EENTRO =        -0.03385867
  eigenvalues    EBANDS =     -1613.69616722
  atomic energy  EATOM  =     55716.26538818
  Solvation  Ediel_sol  =         0.00000000
  ---------------------------------------------------
  free energy    TOTEN  =      -429.02955493 eV

  energy without entropy =     -428.99569625  energy(sigma->0) =     -429.01826870


--------------------------------------------------------------------------------------------------------




--------------------------------------- Iteration      1(   2)  ---------------------------------------


    POTLOK:  cpu time    0.5005: real time    0.5122
    SETDIJ:  cpu time    0.0329: real time    0.0330
    EDDIAG:  cpu time    7.1367: real time    7.1391
  RMM-DIIS:  cpu time   33.5456: real time   33.5620
    ORTHCH:  cpu time    1.7467: real time    1.7471
       DOS:  cpu time    0.0114: real time    0.0113
    CHARGE:  cpu time    1.9256: real time    1.9259
    MIXING:  cpu time    0.0100: real time    0.0100
    --------------------------------------------
      LOOP:  cpu time   44.9094: real time   44.9407

 eigenvalue-minimisations  :  9258
 total energy-change (2. order) :-0.1937677E+03  (-0.1632517E+02)
 number of electron     602.0000080 magnetization      66.4680615
 augmentation part      340.7548608 magnetization      61.5891659

 DIPCOR: dipole corrections for dipol
 direction  3 min pos   242,
 dipolmoment           0.000000      0.000000     -2.005004 electrons x Angstroem
 Tr[quadrupol]    -10344.612573

 energy correction for charged system         0.000000 eV
 dipol+quadrupol energy correction           -0.193708 eV
 added-field ion interaction        -23.702005 eV  (added to PSCEN)


 Broyden mixing:
  rms(total) = 0.15672E+02    rms(broyden)= 0.15671E+02
  rms(prec ) = 0.21378E+02
  weight for this iteration     100.00

 eigenvalues of (default mixing * dielectric matrix)
  average eigenvalue GAMMA=   0.1908
  0.1908

 Free energy of the ion-electron system (eV)
  ---------------------------------------------------
  alpha Z        PSCENC =      1403.97264961
  Ewald energy   TEWEN  =    203857.65888979
  -Hartree energ DENC   =   -258488.53323010
  -exchange      EXHF   =         0.00000000
  -V(xc)+E(xc)   XCENC  =      1228.74241670
  PAW double counting   =     60561.33552464   -63078.76092165
  entropy T*S    EENTRO =         0.04754623
  eigenvalues    EBANDS =     -1823.52552661
  atomic energy  EATOM  =     55716.26538818
  Solvation  Ediel_sol  =         0.00000000
  ---------------------------------------------------
  free energy    TOTEN  =      -622.79726321 eV

  energy without entropy =     -622.84480945  energy(sigma->0) =     -622.81311196


--------------------------------------------------------------------------------------------------------




--------------------------------------- Iteration      1(   3)  ---------------------------------------


    POTLOK:  cpu time    0.5013: real time    0.5107
    SETDIJ:  cpu time    0.0331: real time    0.0331
    EDDIAG:  cpu time    7.1996: real time    7.2023
  RMM-DIIS:  cpu time   28.9810: real time   28.9940
    ORTHCH:  cpu time    1.7372: real time    1.7376
       DOS:  cpu time    0.0123: real time    0.0123
    CHARGE:  cpu time    1.9255: real time    1.9258
    MIXING:  cpu time    0.0096: real time    0.0096
    --------------------------------------------
      LOOP:  cpu time   40.3996: real time   40.4253

 eigenvalue-minimisations  :  7953
 total energy-change (2. order) : 0.1414899E+03  (-0.8075174E+01)
 number of electron     602.0000062 magnetization      65.6339351
 augmentation part      335.7646289 magnetization      58.1303576

 DIPCOR: dipole corrections for dipol
 direction  3 min pos   239,
 dipolmoment           0.000000      0.000000      1.089293 electrons x Angstroem
 Tr[quadrupol]    -10347.541295

 energy correction for charged system         0.000000 eV
 dipol+quadrupol energy correction           -0.057175 eV
 added-field ion interaction          0.284934 eV  (added to PSCEN)


 Broyden mixing:
  rms(total) = 0.97183E+01    rms(broyden)= 0.97180E+01
  rms(prec ) = 0.12648E+02
  weight for this iteration     100.00

 eigenvalues of (default mixing * dielectric matrix)
  average eigenvalue GAMMA=   0.1890
  0.3220  0.0559

 Free energy of the ion-electron system (eV)
  ---------------------------------------------------
  alpha Z        PSCENC =      1428.09612115
  Ewald energy   TEWEN  =    203857.65888979
  -Hartree energ DENC   =   -258596.59083806
  -exchange      EXHF   =         0.00000000
  -V(xc)+E(xc)   XCENC  =      1228.76323966
  PAW double counting   =     60698.53227665   -63227.12101874
  entropy T*S    EENTRO =         0.03576098
  eigenvalues    EBANDS =     -1586.94719220
  atomic energy  EATOM  =     55716.26538818
  Solvation  Ediel_sol  =         0.00000000
  ---------------------------------------------------
  free energy    TOTEN  =      -481.30737258 eV

  energy without entropy =     -481.34313356  energy(sigma->0) =     -481.31929291


--------------------------------------------------------------------------------------------------------




--------------------------------------- Iteration      1(   4)  ---------------------------------------


    POTLOK:  cpu time    0.5004: real time    0.5145
    SETDIJ:  cpu time    0.0337: real time    0.0336
    EDDIAG:  cpu time    7.1954: real time    7.1983
  RMM-DIIS:  cpu time   29.0402: real time   29.0533
    ORTHCH:  cpu time    1.7426: real time    1.7430
       DOS:  cpu time    0.0129: real time    0.0129
    CHARGE:  cpu time    1.9334: real time    1.9337
    MIXING:  cpu time    0.0100: real time    0.0100
    --------------------------------------------
      LOOP:  cpu time   40.4686: real time   40.4994

 eigenvalue-minimisations  :  7975
 total energy-change (2. order) : 0.4823991E+02  (-0.3615120E+01)
 number of electron     602.0000063 magnetization      65.3422163
 augmentation part      333.1384533 magnetization      50.1217383

 DIPCOR: dipole corrections for dipol
 direction  3 min pos   240,
 dipolmoment           0.000000      0.000000      0.256563 electrons x Angstroem
 Tr[quadrupol]    -10345.151553

 energy correction for charged system         0.000000 eV
 dipol+quadrupol energy correction           -0.003172 eV
 added-field ion interaction          1.055720 eV  (added to PSCEN)


 Broyden mixing:
  rms(total) = 0.46863E+01    rms(broyden)= 0.46860E+01
  rms(prec ) = 0.52546E+01
  weight for this iteration     100.00

 eigenvalues of (default mixing * dielectric matrix)
  average eigenvalue GAMMA=   0.2507
  0.5759  0.1172  0.0590

 Free energy of the ion-electron system (eV)
  ---------------------------------------------------
  alpha Z        PSCENC =      1428.92091051
  Ewald energy   TEWEN  =    203857.65888979
  -Hartree energ DENC   =   -258579.88755184
  -exchange      EXHF   =         0.00000000
  -V(xc)+E(xc)   XCENC  =      1230.77521274
  PAW double counting   =     60854.38019125   -63401.90149626
  entropy T*S    EENTRO =        -0.00278885
  eigenvalues    EBANDS =     -1539.27621510
  atomic energy  EATOM  =     55716.26538818
  Solvation  Ediel_sol  =         0.00000000
  ---------------------------------------------------
  free energy    TOTEN  =      -433.06745957 eV

  energy without entropy =     -433.06467072  energy(sigma->0) =     -433.06652996


--------------------------------------------------------------------------------------------------------




--------------------------------------- Iteration      1(   5)  ---------------------------------------


    POTLOK:  cpu time    0.5005: real time    0.5135
    SETDIJ:  cpu time    0.0329: real time    0.0329
    EDDIAG:  cpu time    7.2108: real time    7.2138
  RMM-DIIS:  cpu time   29.1305: real time   29.1427
    ORTHCH:  cpu time    1.7399: real time    1.7401
       DOS:  cpu time    0.0128: real time    0.0129
    CHARGE:  cpu time    1.9214: real time    1.9217
    MIXING:  cpu time    0.0109: real time    0.0109
    --------------------------------------------
      LOOP:  cpu time   40.5598: real time   40.5886

 eigenvalue-minimisations  :  7972
 total energy-change (2. order) :-0.1228526E+01  (-0.1329321E+01)
 number of electron     602.0000071 magnetization      64.8921264
 augmentation part      333.7623908 magnetization      51.0216347

 DIPCOR: dipole corrections for dipol
 direction  3 min pos   237,
 dipolmoment           0.000000      0.000000      0.502085 electrons x Angstroem
 Tr[quadrupol]    -10344.436751

 energy correction for charged system         0.000000 eV
 dipol+quadrupol energy correction           -0.012147 eV
 added-field ion interaction         -3.738019 eV  (added to PSCEN)


 Broyden mixing:
  rms(total) = 0.50852E+01    rms(broyden)= 0.50850E+01
  rms(prec ) = 0.60602E+01
  weight for this iteration     100.00

 eigenvalues of (default mixing * dielectric matrix)
  average eigenvalue GAMMA=   0.2653
  0.7708  0.0557  0.1173  0.1173

 Free energy of the ion-electron system (eV)
  ---------------------------------------------------
  alpha Z        PSCENC =      1424.11819665
  Ewald energy   TEWEN  =    203857.65888979
  -Hartree energ DENC   =   -258549.31876092
  -exchange      EXHF   =         0.00000000
  -V(xc)+E(xc)   XCENC  =      1231.70805143
  PAW double counting   =     60899.24596484   -63444.58439403
  entropy T*S    EENTRO =         0.01395717
  eigenvalues    EBANDS =     -1569.40327879
  atomic energy  EATOM  =     55716.26538818
  Solvation  Ediel_sol  =         0.00000000
  ---------------------------------------------------
  free energy    TOTEN  =      -434.29598568 eV

  energy without entropy =     -434.30994285  energy(sigma->0) =     -434.30063807


--------------------------------------------------------------------------------------------------------




--------------------------------------- Iteration      1(   6)  ---------------------------------------


    POTLOK:  cpu time    0.4989: real time    0.5079
    SETDIJ:  cpu time    0.0331: real time    0.0331
    EDDIAG:  cpu time    7.2076: real time    7.2100
  RMM-DIIS:  cpu time   28.9883: real time   29.0028
    ORTHCH:  cpu time    1.7412: real time    1.7415
       DOS:  cpu time    0.0127: real time    0.0127
    CHARGE:  cpu time    1.9190: real time    1.9194
    MIXING:  cpu time    0.0105: real time    0.0105
    --------------------------------------------
      LOOP:  cpu time   40.4114: real time   40.4380

 eigenvalue-minimisations  :  7940
 total energy-change (2. order) : 0.1690959E+01  (-0.9863264E+00)
 number of electron     602.0000070 magnetization      64.8141782
 augmentation part      334.1753461 magnetization      50.2588696

 DIPCOR: dipole corrections for dipol
 direction  3 min pos   240,
 dipolmoment           0.000000      0.000000     -0.032617 electrons x Angstroem
 Tr[quadrupol]    -10345.689143

 energy correction for charged system         0.000000 eV
 dipol+quadrupol energy correction           -0.000051 eV
 added-field ion interaction         -0.134214 eV  (added to PSCEN)


 Broyden mixing:
  rms(total) = 0.35473E+01    rms(broyden)= 0.35471E+01
  rms(prec ) = 0.42242E+01
  weight for this iteration     100.00

 eigenvalues of (default mixing * dielectric matrix)
  average eigenvalue GAMMA=   0.2375
  0.8146  0.1265  0.1265  0.0555  0.0645

 Free energy of the ion-electron system (eV)
  ---------------------------------------------------
  alpha Z        PSCENC =      1427.73409757
  Ewald energy   TEWEN  =    203857.65888979
  -Hartree energ DENC   =   -258574.81548630
  -exchange      EXHF   =         0.00000000
  -V(xc)+E(xc)   XCENC  =      1232.60891581
  PAW double counting   =     60971.92546613   -63517.07863721
  entropy T*S    EENTRO =        -0.01557282
  eigenvalues    EBANDS =     -1546.88808795
  atomic energy  EATOM  =     55716.26538818
  Solvation  Ediel_sol  =         0.00000000
  ---------------------------------------------------
  free energy    TOTEN  =      -432.60502680 eV

  energy without entropy =     -432.58945398  energy(sigma->0) =     -432.59983586


--------------------------------------------------------------------------------------------------------




--------------------------------------- Iteration      1(   7)  ---------------------------------------


    POTLOK:  cpu time    0.5003: real time    0.5115
    SETDIJ:  cpu time    0.0331: real time    0.0331
    EDDIAG:  cpu time    7.2215: real time    7.2242
  RMM-DIIS:  cpu time   29.0492: real time   29.0635
    ORTHCH:  cpu time    1.7439: real time    1.7442
       DOS:  cpu time    0.0129: real time    0.0129
    CHARGE:  cpu time    1.9342: real time    1.9345
    MIXING:  cpu time    0.0109: real time    0.0109
    --------------------------------------------
      LOOP:  cpu time   40.5059: real time   40.5347

 eigenvalue-minimisations  :  7958
 total energy-change (2. order) : 0.2451102E+01  (-0.2326766E+00)
 number of electron     602.0000065 magnetization      64.8112996
 augmentation part      335.0472312 magnetization      49.9728960

 DIPCOR: dipole corrections for dipol
 direction  3 min pos   240,
 dipolmoment           0.000000      0.000000      0.122217 electrons x Angstroem
 Tr[quadrupol]    -10345.363167

 energy correction for charged system         0.000000 eV
 dipol+quadrupol energy correction           -0.000720 eV
 added-field ion interaction          0.502908 eV  (added to PSCEN)


 Broyden mixing:
  rms(total) = 0.24326E+01    rms(broyden)= 0.24325E+01
  rms(prec ) = 0.25902E+01
  weight for this iteration     100.00

 eigenvalues of (default mixing * dielectric matrix)
  average eigenvalue GAMMA=   0.2108
  0.8004  0.1276  0.1276  0.0554  0.0797  0.0739

 Free energy of the ion-electron system (eV)
  ---------------------------------------------------
  alpha Z        PSCENC =      1428.37055042
  Ewald energy   TEWEN  =    203857.65888979
  -Hartree energ DENC   =   -258561.08071402
  -exchange      EXHF   =         0.00000000
  -V(xc)+E(xc)   XCENC  =      1233.74019495
  PAW double counting   =     60995.62798187   -63540.12899697
  entropy T*S    EENTRO =        -0.01513721
  eigenvalues    EBANDS =     -1560.59208210
  atomic energy  EATOM  =     55716.26538818
  Solvation  Ediel_sol  =         0.00000000
  ---------------------------------------------------
  free energy    TOTEN  =      -430.15392509 eV

  energy without entropy =     -430.13878789  energy(sigma->0) =     -430.14887936


--------------------------------------------------------------------------------------------------------




--------------------------------------- Iteration      1(   8)  ---------------------------------------


    POTLOK:  cpu time    0.4981: real time    0.5069
    SETDIJ:  cpu time    0.0335: real time    0.0335
    EDDIAG:  cpu time    7.2208: real time    7.2227
  RMM-DIIS:  cpu time   29.0920: real time   29.1042
    ORTHCH:  cpu time    1.7339: real time    1.7343
       DOS:  cpu time    0.0127: real time    0.0127
    CHARGE:  cpu time    1.9382: real time    1.9393
    MIXING:  cpu time    0.0110: real time    0.0110
    --------------------------------------------
      LOOP:  cpu time   40.5403: real time   40.5646

 eigenvalue-minimisations  :  7960
 total energy-change (2. order) : 0.1965477E+00  (-0.3519030E-01)
 number of electron     602.0000066 magnetization      64.9426469
 augmentation part      334.8255974 magnetization      50.2406868

 DIPCOR: dipole corrections for dipol
 direction  3 min pos   238,
 dipolmoment           0.000000      0.000000      0.106045 electrons x Angstroem
 Tr[quadrupol]    -10345.390669

 energy correction for charged system         0.000000 eV
 dipol+quadrupol energy correction           -0.000542 eV
 added-field ion interaction         -0.380881 eV  (added to PSCEN)


 Broyden mixing:
  rms(total) = 0.22069E+01    rms(broyden)= 0.22069E+01
  rms(prec ) = 0.23718E+01
  weight for this iteration     100.00

 eigenvalues of (default mixing * dielectric matrix)
  average eigenvalue GAMMA=   0.2977
  0.8797  0.4188  0.4188  0.1142  0.1142  0.0553  0.0830

 Free energy of the ion-electron system (eV)
  ---------------------------------------------------
  alpha Z        PSCENC =      1427.48693934
  Ewald energy   TEWEN  =    203857.65888979
  -Hartree energ DENC   =   -258568.35190902
  -exchange      EXHF   =         0.00000000
  -V(xc)+E(xc)   XCENC  =      1234.44955961
  PAW double counting   =     61013.15419107   -63558.94630139
  entropy T*S    EENTRO =        -0.01902206
  eigenvalues    EBANDS =     -1551.65511292
  atomic energy  EATOM  =     55716.26538818
  Solvation  Ediel_sol  =         0.00000000
  ---------------------------------------------------
  free energy    TOTEN  =      -429.95737740 eV

  energy without entropy =     -429.93835534  energy(sigma->0) =     -429.95103672


--------------------------------------------------------------------------------------------------------




--------------------------------------- Iteration      1(   9)  ---------------------------------------


    POTLOK:  cpu time    0.4988: real time    0.5087
    SETDIJ:  cpu time    0.0332: real time    0.0333
    EDDIAG:  cpu time    7.2189: real time    7.2208
  RMM-DIIS:  cpu time   29.0292: real time   29.0407
    ORTHCH:  cpu time    1.7333: real time    1.7336
       DOS:  cpu time    0.0122: real time    0.0122
    CHARGE:  cpu time    1.9278: real time    1.9289
    MIXING:  cpu time    0.0115: real time    0.0114
    --------------------------------------------
      LOOP:  cpu time   40.4649: real time   40.4896

 eigenvalue-minimisations  :  7952
 total energy-change (2. order) :-0.3720197E+01  (-0.2086577E+00)
 number of electron     602.0000065 magnetization      65.1865879
 augmentation part      334.5846890 magnetization      50.4599658

 DIPCOR: dipole corrections for dipol
 direction  3 min pos   239,
 dipolmoment           0.000000      0.000000      0.105195 electrons x Angstroem
 Tr[quadrupol]    -10345.471183

 energy correction for charged system         0.000000 eV
 dipol+quadrupol energy correction           -0.000533 eV
 added-field ion interaction          0.027517 eV  (added to PSCEN)


 Broyden mixing:
  rms(total) = 0.31687E+01    rms(broyden)= 0.31686E+01
  rms(prec ) = 0.35420E+01
  weight for this iteration     100.00

 eigenvalues of (default mixing * dielectric matrix)
  average eigenvalue GAMMA=   0.3067
  0.9174  0.5356  0.5356  0.1202  0.1202  0.0553  0.0848  0.0848

 Free energy of the ion-electron system (eV)
  ---------------------------------------------------
  alpha Z        PSCENC =      1427.89534597
  Ewald energy   TEWEN  =    203857.65888979
  -Hartree energ DENC   =   -258579.16763369
  -exchange      EXHF   =         0.00000000
  -V(xc)+E(xc)   XCENC  =      1236.19213407
  PAW double counting   =     61078.48975687   -63626.60509742
  entropy T*S    EENTRO =        -0.01876467
  eigenvalues    EBANDS =     -1544.38759343
  atomic energy  EATOM  =     55716.26538818
  Solvation  Ediel_sol  =         0.00000000
  ---------------------------------------------------
  free energy    TOTEN  =      -433.67757434 eV

  energy without entropy =     -433.65880966  energy(sigma->0) =     -433.67131945


--------------------------------------------------------------------------------------------------------




--------------------------------------- Iteration      1(  10)  ---------------------------------------


    POTLOK:  cpu time    0.4993: real time    0.5108
    SETDIJ:  cpu time    0.0328: real time    0.0328
    EDDIAG:  cpu time    7.2070: real time    7.2091
  RMM-DIIS:  cpu time   29.0512: real time   29.0635
    ORTHCH:  cpu time    1.7357: real time    1.7361
       DOS:  cpu time    0.0129: real time    0.0129
    CHARGE:  cpu time    1.9313: real time    1.9324
    MIXING:  cpu time    0.0117: real time    0.0117
    --------------------------------------------
      LOOP:  cpu time   40.4818: real time   40.5093

 eigenvalue-minimisations  :  7950
 total energy-change (2. order) : 0.9322794E+00  (-0.1828334E+00)
 number of electron     602.0000067 magnetization      65.4696979
 augmentation part      334.4587275 magnetization      51.5355086

 DIPCOR: dipole corrections for dipol
 direction  3 min pos   235,
 dipolmoment           0.000000      0.000000      0.193469 electrons x Angstroem
 Tr[quadrupol]    -10345.500585

 energy correction for charged system         0.000000 eV
 dipol+quadrupol energy correction           -0.001804 eV
 added-field ion interaction         -2.931355 eV  (added to PSCEN)


 Broyden mixing:
  rms(total) = 0.21215E+01    rms(broyden)= 0.21215E+01
  rms(prec ) = 0.22579E+01
  weight for this iteration     100.00

 eigenvalues of (default mixing * dielectric matrix)
  average eigenvalue GAMMA=   0.3324
  0.8352  0.7460  0.7460  0.2017  0.0553  0.1282  0.0999  0.0999  0.0797

 Free energy of the ion-electron system (eV)
  ---------------------------------------------------
  alpha Z        PSCENC =      1424.93520432
  Ewald energy   TEWEN  =    203857.65888979
  -Hartree energ DENC   =   -258592.21091791
  -exchange      EXHF   =         0.00000000
  -V(xc)+E(xc)   XCENC  =      1238.15838628
  PAW double counting   =     61154.49208963   -63704.23146228
  entropy T*S    EENTRO =        -0.00330395
  eigenvalues    EBANDS =     -1527.80956898
  atomic energy  EATOM  =     55716.26538818
  Solvation  Ediel_sol  =         0.00000000
  ---------------------------------------------------
  free energy    TOTEN  =      -432.74529491 eV

  energy without entropy =     -432.74199096  energy(sigma->0) =     -432.74419359


--------------------------------------------------------------------------------------------------------




--------------------------------------- Iteration      1(  11)  ---------------------------------------


    POTLOK:  cpu time    0.4979: real time    0.5097
    SETDIJ:  cpu time    0.0331: real time    0.0331
    EDDIAG:  cpu time    7.2179: real time    7.2199
  RMM-DIIS:  cpu time   29.0225: real time   29.0341
    ORTHCH:  cpu time    1.7391: real time    1.7396
       DOS:  cpu time    0.0129: real time    0.0129
    CHARGE:  cpu time    1.9317: real time    1.9328
    MIXING:  cpu time    0.0124: real time    0.0123
    --------------------------------------------
      LOOP:  cpu time   40.4676: real time   40.4945

 eigenvalue-minimisations  :  7945
 total energy-change (2. order) :-0.7362195E+00  (-0.1621364E+00)
 number of electron     602.0000066 magnetization      66.4342859
 augmentation part      334.1666577 magnetization      53.0502041

 DIPCOR: dipole corrections for dipol
 direction  3 min pos   233,
 dipolmoment           0.000000      0.000000      0.185051 electrons x Angstroem
 Tr[quadrupol]    -10345.554957

 energy correction for charged system         0.000000 eV
 dipol+quadrupol energy correction           -0.001650 eV
 added-field ion interaction         -4.229923 eV  (added to PSCEN)


 Broyden mixing:
  rms(total) = 0.20369E+01    rms(broyden)= 0.20369E+01
  rms(prec ) = 0.22048E+01
  weight for this iteration     100.00

 eigenvalues of (default mixing * dielectric matrix)
  average eigenvalue GAMMA=   0.4007
  1.2380  1.2380  0.6489  0.3116  0.0553  0.1328  0.1091  0.1091  0.0849  0.0790

 Free energy of the ion-electron system (eV)
  ---------------------------------------------------
  alpha Z        PSCENC =      1423.63678913
  Ewald energy   TEWEN  =    203857.65888979
  -Hartree energ DENC   =   -258598.26244877
  -exchange      EXHF   =         0.00000000
  -V(xc)+E(xc)   XCENC  =      1239.18296864
  PAW double counting   =     61202.69466878   -63753.56927292
  entropy T*S    EENTRO =        -0.00031781
  eigenvalues    EBANDS =     -1521.08817941
  atomic energy  EATOM  =     55716.26538818
  Solvation  Ediel_sol  =         0.00000000
  ---------------------------------------------------
  free energy    TOTEN  =      -433.48151438 eV

  energy without entropy =     -433.48119657  energy(sigma->0) =     -433.48140844


--------------------------------------------------------------------------------------------------------




--------------------------------------- Iteration      1(  12)  ---------------------------------------


    POTLOK:  cpu time    0.4994: real time    0.5128
    SETDIJ:  cpu time    0.0331: real time    0.0331
    EDDIAG:  cpu time    7.2363: real time    7.2383
  RMM-DIIS:  cpu time   29.0955: real time   29.1087
    ORTHCH:  cpu time    1.7364: real time    1.7376
       DOS:  cpu time    0.0126: real time    0.0126
    CHARGE:  cpu time    1.9265: real time    1.9268
    MIXING:  cpu time    0.0121: real time    0.0121
    --------------------------------------------
      LOOP:  cpu time   40.5517: real time   40.5820

 eigenvalue-minimisations  :  7948
 total energy-change (2. order) :-0.1682136E+01  (-0.2518837E+00)
 number of electron     602.0000068 magnetization      67.0541585
 augmentation part      334.6432677 magnetization      53.9529493

 DIPCOR: dipole corrections for dipol
 direction  3 min pos   234,
 dipolmoment           0.000000      0.000000      0.199404 electrons x Angstroem
 Tr[quadrupol]    -10345.169719

 energy correction for charged system         0.000000 eV
 dipol+quadrupol energy correction           -0.001916 eV
 added-field ion interaction         -3.789636 eV  (added to PSCEN)


 Broyden mixing:
  rms(total) = 0.23363E+01    rms(broyden)= 0.23363E+01
  rms(prec ) = 0.25569E+01
  weight for this iteration     100.00

 eigenvalues of (default mixing * dielectric matrix)
  average eigenvalue GAMMA=   0.3955
  1.3457  1.3457  0.6524  0.2824  0.1812  0.0553  0.1142  0.1142  0.0914  0.0914
  0.0772

 Free energy of the ion-electron system (eV)
  ---------------------------------------------------
  alpha Z        PSCENC =      1424.07681054
  Ewald energy   TEWEN  =    203857.65888979
  -Hartree energ DENC   =   -258583.93319031
  -exchange      EXHF   =         0.00000000
  -V(xc)+E(xc)   XCENC  =      1241.90823223
  PAW double counting   =     61294.50712243   -63844.38898254
  entropy T*S    EENTRO =        -0.00448012
  eigenvalues    EBANDS =     -1541.25344089
  atomic energy  EATOM  =     55716.26538818
  Solvation  Ediel_sol  =         0.00000000
  ---------------------------------------------------
  free energy    TOTEN  =      -435.16365068 eV

  energy without entropy =     -435.15917055  energy(sigma->0) =     -435.16215730


--------------------------------------------------------------------------------------------------------




--------------------------------------- Iteration      1(  13)  ---------------------------------------


    POTLOK:  cpu time    0.4995: real time    0.5128
    SETDIJ:  cpu time    0.0330: real time    0.0331
    EDDIAG:  cpu time    7.2286: real time    7.2310
  RMM-DIIS:  cpu time   29.2047: real time   29.2176
    ORTHCH:  cpu time    1.7481: real time    1.7494
       DOS:  cpu time    0.0125: real time    0.0126
    CHARGE:  cpu time    1.9245: real time    1.9248
    MIXING:  cpu time    0.0128: real time    0.0128
    --------------------------------------------
      LOOP:  cpu time   40.6645: real time   40.6940

 eigenvalue-minimisations  :  7943
 total energy-change (2. order) : 0.1119195E+01  (-0.1553734E+00)
 number of electron     602.0000068 magnetization      67.9067538
 augmentation part      334.8694311 magnetization      54.9578334

 DIPCOR: dipole corrections for dipol
 direction  3 min pos   235,
 dipolmoment           0.000000      0.000000      0.177395 electrons x Angstroem
 Tr[quadrupol]    -10345.234396

 energy correction for charged system         0.000000 eV
 dipol+quadrupol energy correction           -0.001516 eV
 added-field ion interaction         -2.687808 eV  (added to PSCEN)


 Broyden mixing:
  rms(total) = 0.16916E+01    rms(broyden)= 0.16916E+01
  rms(prec ) = 0.18589E+01
  weight for this iteration     100.00

 eigenvalues of (default mixing * dielectric matrix)
  average eigenvalue GAMMA=   0.4517
  1.6411  1.6411  0.6957  0.3853  0.3853  0.0553  0.1239  0.1145  0.1145  0.1013
  0.0850  0.0778

 Free energy of the ion-electron system (eV)
  ---------------------------------------------------
  alpha Z        PSCENC =      1425.17903796
  Ewald energy   TEWEN  =    203857.65888979
  -Hartree energ DENC   =   -258581.84545848
  -exchange      EXHF   =         0.00000000
  -V(xc)+E(xc)   XCENC  =      1243.60517642
  PAW double counting   =     61341.98159149   -63891.22483912
  entropy T*S    EENTRO =         0.00272527
  eigenvalues    EBANDS =     -1545.66696704
  atomic energy  EATOM  =     55716.26538818
  Solvation  Ediel_sol  =         0.00000000
  ---------------------------------------------------
  free energy    TOTEN  =      -434.04445554 eV

  energy without entropy =     -434.04718081  energy(sigma->0) =     -434.04536396


--------------------------------------------------------------------------------------------------------




--------------------------------------- Iteration      1(  14)  ---------------------------------------


    POTLOK:  cpu time    0.4995: real time    0.5132
    SETDIJ:  cpu time    0.0330: real time    0.0331
    EDDIAG:  cpu time    7.2551: real time    7.2575
  RMM-DIIS:  cpu time   29.1969: real time   29.2117
    ORTHCH:  cpu time    1.7439: real time    1.7442
       DOS:  cpu time    0.0128: real time    0.0128
    CHARGE:  cpu time    1.9167: real time    1.9170
    MIXING:  cpu time    0.0130: real time    0.0130
    --------------------------------------------
      LOOP:  cpu time   40.6701: real time   40.7025

 eigenvalue-minimisations  :  7962
 total energy-change (2. order) :-0.3343078E+00  (-0.1153605E+00)
 number of electron     602.0000068 magnetization      69.3099664
 augmentation part      334.8121419 magnetization      56.8868493

 DIPCOR: dipole corrections for dipol
 direction  3 min pos   235,
 dipolmoment           0.000000      0.000000      0.254790 electrons x Angstroem
 Tr[quadrupol]    -10345.324760

 energy correction for charged system         0.000000 eV
 dipol+quadrupol energy correction           -0.003128 eV
 added-field ion interaction         -3.860467 eV  (added to PSCEN)


 Broyden mixing:
  rms(total) = 0.18179E+01    rms(broyden)= 0.18179E+01
  rms(prec ) = 0.19779E+01
  weight for this iteration     100.00

 eigenvalues of (default mixing * dielectric matrix)
  average eigenvalue GAMMA=   0.4770
  1.9065  1.9065  0.7368  0.4336  0.4336  0.0553  0.1301  0.1301  0.1089  0.1089
  0.0900  0.0839  0.0772

 Free energy of the ion-electron system (eV)
  ---------------------------------------------------
  alpha Z        PSCENC =      1424.00476707
  Ewald energy   TEWEN  =    203857.65888979
  -Hartree energ DENC   =   -258588.02607227
  -exchange      EXHF   =         0.00000000
  -V(xc)+E(xc)   XCENC  =      1245.46890559
  PAW double counting   =     61397.72979203   -63947.65592764
  entropy T*S    EENTRO =         0.00892360
  eigenvalues    EBANDS =     -1539.83342964
  atomic energy  EATOM  =     55716.26538818
  Solvation  Ediel_sol  =         0.00000000
  ---------------------------------------------------
  free energy    TOTEN  =      -434.37876329 eV

  energy without entropy =     -434.38768689  energy(sigma->0) =     -434.38173783


--------------------------------------------------------------------------------------------------------




--------------------------------------- Iteration      1(  15)  ---------------------------------------


    POTLOK:  cpu time    0.5002: real time    0.5132
    SETDIJ:  cpu time    0.0332: real time    0.0332
    EDDIAG:  cpu time    7.2463: real time    7.2488
  RMM-DIIS:  cpu time   29.1928: real time   29.2063
    ORTHCH:  cpu time    1.7418: real time    1.7422
       DOS:  cpu time    0.0125: real time    0.0125
    CHARGE:  cpu time    1.9306: real time    1.9309
    MIXING:  cpu time    0.0137: real time    0.0137
    --------------------------------------------
      LOOP:  cpu time   40.6712: real time   40.7008

 eigenvalue-minimisations  :  7939
 total energy-change (2. order) : 0.4599949E+00  (-0.1329593E+00)
 number of electron     602.0000068 magnetization      70.0101679
 augmentation part      334.7221746 magnetization      57.6227303

 DIPCOR: dipole corrections for dipol
 direction  3 min pos   237,
 dipolmoment           0.000000      0.000000      0.297524 electrons x Angstroem
 Tr[quadrupol]    -10345.333974

 energy correction for charged system         0.000000 eV
 dipol+quadrupol energy correction           -0.004265 eV
[...]
   -.118E+02 0.809E+02 0.774E+03   0.119E+02 -.814E+02 -.774E+03   -.459E-01 0.514E+00 -.353E+00   -.301E-02 -.892E-02 0.783E-03
   0.796E+01 -.764E+01 -.637E+03   -.796E+01 0.758E+01 0.637E+03   0.171E-01 0.700E-01 -.515E-01   -.534E-02 -.595E-03 -.627E-02
   0.129E+02 -.356E+02 0.819E+03   -.129E+02 0.357E+02 -.819E+03   -.573E-01 -.129E+00 -.391E+00   0.405E-02 0.145E-02 -.478E-02
   0.639E+02 -.473E+02 0.226E+04   -.643E+02 0.477E+02 -.226E+04   0.393E+00 -.358E+00 -.241E+01   -.241E-02 0.527E-02 -.189E-02
   0.515E+01 -.653E+02 -.199E+04   -.441E+01 0.658E+02 0.199E+04   -.705E+00 -.514E+00 0.172E+01   -.267E-02 -.137E-01 -.364E-02
   0.192E+02 0.520E+02 -.595E+03   -.192E+02 -.521E+02 0.594E+03   -.100E-01 0.172E+00 0.540E+00   0.680E-02 -.533E-02 -.361E-02
   -.179E+02 0.135E+02 0.225E+04   0.181E+02 -.135E+02 -.225E+04   -.206E+00 -.883E-01 -.289E+01   -.201E-02 -.160E-02 -.139E-03
   0.238E+02 -.224E+02 -.200E+04   -.246E+02 0.231E+02 0.200E+04   0.764E+00 -.621E+00 0.195E+01   -.472E-02 -.296E-02 -.530E-02
   -.578E+02 -.547E+02 0.758E+03   0.578E+02 0.550E+02 -.758E+03   0.450E-01 -.253E+00 -.453E+00   0.265E-02 0.163E-01 0.129E-01
   -.137E+03 -.309E+01 -.632E+03   0.137E+03 0.322E+01 0.632E+03   -.817E+00 -.168E+00 0.344E+00   0.452E-02 0.222E-01 -.163E-02
   0.718E+02 -.477E+02 0.802E+03   -.722E+02 0.478E+02 -.802E+03   0.267E+00 -.142E+00 -.766E+00   -.645E-02 0.103E-01 -.519E-02
   0.643E+02 -.469E+02 -.570E+03   -.648E+02 0.471E+02 0.569E+03   0.546E+00 -.247E+00 0.902E+00   -.178E-01 0.229E-01 -.137E-01
   0.203E+01 -.542E+01 0.223E+04   -.196E+01 0.514E+01 -.223E+04   -.526E-01 0.135E+00 -.281E+01   0.267E-02 0.322E-02 0.151E-02
   -.374E+01 0.178E+02 -.198E+04   0.388E+01 -.177E+02 0.198E+04   -.114E+00 -.522E-01 0.435E+01   -.131E-01 0.872E-02 -.826E-02
   0.436E+02 -.593E+01 0.225E+04   -.438E+02 0.589E+01 -.225E+04   0.160E+00 -.214E+00 -.249E+01   -.508E-02 -.467E-03 0.199E-02
   0.272E+02 -.235E+01 -.207E+04   -.271E+02 0.265E+01 0.207E+04   -.114E+00 -.302E+00 0.417E+01   0.171E-01 -.391E-03 -.434E-02
   -.116E+03 0.435E+02 0.763E+03   0.116E+03 -.439E+02 -.763E+03   -.337E+00 0.286E+00 -.349E+00   0.169E-01 -.892E-02 0.207E-01
   -.108E+02 0.358E+02 0.748E+03   0.109E+02 -.358E+02 -.747E+03   -.172E+00 -.538E-01 -.654E+00   -.653E-02 -.633E-02 0.146E-01
   -.510E+02 0.262E+02 -.585E+03   0.511E+02 -.262E+02 0.586E+03   -.731E-01 -.118E-01 -.507E+00   -.393E-02 0.443E-02 -.736E-02
   -.758E+02 0.210E+02 0.220E+04   0.762E+02 -.211E+02 -.220E+04   -.326E+00 0.162E+00 -.286E+01   0.111E-01 -.232E-02 0.507E-02
   -.136E+03 -.771E+01 -.199E+04   0.137E+03 0.824E+01 0.199E+04   -.105E+01 -.514E+00 0.139E+01   -.169E-02 0.990E-02 -.207E-01
   0.248E+02 -.348E+02 -.595E+03   -.247E+02 0.351E+02 0.594E+03   -.173E-01 -.299E+00 0.474E+00   -.254E-01 0.120E-01 -.126E-01
   0.937E+02 -.709E+02 -.648E+03   -.940E+02 0.713E+02 0.649E+03   0.261E+00 -.433E+00 -.664E+00   0.650E-02 0.281E-02 -.205E-02
   0.561E+02 -.414E+01 0.224E+04   -.562E+02 0.403E+01 -.224E+04   0.211E+00 0.146E+00 -.290E+01   -.906E-02 0.100E-02 0.281E-02
   -.533E+02 -.855E+02 -.202E+04   0.542E+02 0.861E+02 0.202E+04   -.893E+00 -.666E+00 0.154E+01   0.976E-02 0.109E-01 -.398E-02
   0.611E+02 -.397E+02 -.616E+03   -.616E+02 0.399E+02 0.616E+03   0.467E+00 -.279E+00 0.418E+00   0.151E-02 -.696E-02 0.221E-02
   -.470E+02 0.201E+02 -.588E+03   0.473E+02 -.202E+02 0.588E+03   -.361E+00 0.955E-01 0.671E+00   0.145E-01 -.251E-01 0.152E-03
   -.451E+02 0.676E+02 -.589E+03   0.454E+02 -.681E+02 0.588E+03   -.290E+00 0.465E+00 0.852E+00   -.893E-02 -.200E-01 -.500E-02
   0.333E+02 0.123E+02 -.633E+03   -.335E+02 -.122E+02 0.633E+03   0.215E+00 -.406E-01 0.240E+00   -.610E-02 -.307E-02 -.414E-02
   0.249E+01 0.496E+01 0.219E+04   -.244E+01 -.487E+01 -.219E+04   -.209E+00 0.350E-01 -.270E+01   -.169E-02 -.478E-02 0.484E-02
   -.293E+02 0.289E+01 -.201E+04   0.298E+02 -.295E+01 0.200E+04   -.551E+00 0.805E-01 0.456E+01   -.630E-02 0.324E-02 -.119E-01
   0.868E+01 -.409E+02 -.197E+04   -.793E+01 0.399E+02 0.200E+04   -.747E+00 0.104E+01 -.259E+02   0.812E-03 -.818E-02 0.444E-04
   -.659E+01 -.965E+01 -.202E+04   0.476E+01 0.791E+01 0.204E+04   0.182E+01 0.175E+01 -.272E+02   -.716E-03 0.612E-02 0.922E-02
   -.464E+02 -.761E+01 -.203E+04   0.454E+02 0.763E+01 0.205E+04   0.973E+00 -.213E-01 -.266E+02   -.163E-02 0.441E-02 -.861E-02
   -.680E+01 0.315E+01 -.206E+04   0.613E+01 -.314E+01 0.208E+04   0.667E+00 0.703E-02 -.277E+02   0.160E-02 -.316E-02 -.567E-02
 -----------------------------------------------------------------------------------------------
   -.382E+01 -.465E+01 0.110E+03   0.471E-13 0.141E-12 0.909E-12   0.381E+01 0.465E+01 -.109E+03   0.123E-01 -.592E-02 -.137E+00
 
 
 POSITION                                       TOTAL-FORCE (eV/Angst)
 -----------------------------------------------------------------------------------
     10.08740      0.00562      4.04934        -0.000898     -0.010350     -0.270092
     -2.53339      8.73512      4.08190        -0.015821      0.072044     -0.105268
      5.03058      0.01686      4.07661        -0.026982     -0.080734     -0.177303
      8.81557      2.19268      4.07950         0.024701     -0.014344     -0.172995
      1.26036      2.17683      4.06343        -0.087030     -0.103546     -0.159951
      2.54307      1.43124      6.11194         0.006449      0.006717     -0.006054
      6.28789      2.21111      4.10570         0.072172      0.002405     -0.288173
      3.80181      0.73423      2.00037         0.097686      0.031584      0.444790
      3.77489      0.73793      8.14491         0.017213     -0.000460     -0.001148
      7.57542      1.47022      6.16924         0.009149     -0.009014     -0.006993
      6.31884      0.74108      2.03384        -0.009745     -0.092149      0.460417
      6.30085      0.75085      8.18409        -0.018259     -0.007620      0.019414
      7.57051      4.36576      4.10283        -0.020321      0.048534     -0.386571
      5.03817      4.36229      4.08171        -0.039366     -0.033958     -0.196341
      3.79202      3.62673      6.09183        -0.025632      0.000710     -0.013384
      2.55462      2.91604      2.00083         0.071460      0.092483      0.411747
      2.49834      2.88940      8.12507         0.012168      0.007044     -0.015851
      6.28239      3.62212      6.12029         0.019530     -0.001290     -0.003696
      7.58585      2.93043      2.03371         0.125491      0.045776      0.468711
      7.53080      2.89326      8.18769        -0.000432     -0.002340     -0.011766
      6.29425      6.55133      4.09263         0.033109     -0.029794     -0.210603
     -2.53998      5.80243      6.10311        -0.015292      0.026817     -0.000543
      3.81389      6.57546      4.07284        -0.081738     -0.015315     -0.076963
      1.26871      5.10416      2.04534        -0.054732      0.106102      0.294899
      1.20777      5.06933      8.18380         0.008937      0.007341      0.017422
      6.29450      5.11374      2.02823        -0.008954      0.080898      0.398072
      6.23323      5.13023      8.18929        -0.037108      0.023769     -0.012322
     -2.53139      7.30304      2.00991         0.018171     -0.120456      0.306780
     -2.56226      7.31089      8.03447        -0.001014     -0.003751     -0.005051
      0.00464      7.28975      2.05722         0.060862      0.062975      0.334688
     -0.02040      7.27838      8.19996         0.003803      0.025274      0.015612
      5.08583      7.28318      2.02757        -0.143660      0.088157      0.386805
      5.03718      7.25268      8.17786         0.016576     -0.007412      0.003889
      7.54405      0.03969      4.10439         0.018856      0.013157     -0.384261
     -0.00382      1.43925      6.04526         0.009941      0.005859     -0.012337
      3.74186      2.14689      4.07389        -0.094614     -0.032570     -0.461518
      1.31001      0.72945      2.02674         0.015539     -0.003305      0.229363
      1.32076      0.75319      8.15155         0.033550      0.000037     -0.003161
      5.09135      1.45296      6.08563        -0.008120      0.006452     -0.021661
      8.82791      0.75063      2.00000         0.007375     -0.068250      0.163897
      8.74866      0.73103      8.19274        -0.018535      0.023314      0.009090
     -0.02406      4.34464      4.11684         0.030519      0.083757     -0.301363
     -1.33759      3.66125      6.10687         0.004207     -0.014930     -0.009062
      2.55702      4.37025      4.05869        -0.082784      0.022722     -0.308925
      1.29224      3.63461      6.08906         0.001422     -0.024185     -0.018259
      0.02215      2.94990      2.02984         0.020335     -0.149647      0.023068
     -0.05299      2.89431      8.04716         0.014525      0.022205     -0.030429
      5.09719      2.93887      2.04043        -0.040896     -0.234312     -0.002252
      5.01809      2.95153      8.08544         0.007920     -0.000647     -0.013677
     -1.32764      6.58396      4.11125         0.004645     -0.137497     -0.281738
      1.24700      6.55932      4.09363        -0.029278     -0.072529     -0.282400
      0.01700      5.82927      6.17294         0.006649     -0.000970      0.008158
     -1.29718      5.12819      2.06865         0.094191      0.100598      0.192467
     -1.26891      5.16333      8.15894         0.011968      0.026522      0.017611
      2.48332      5.81441      6.12823         0.029829      0.017839     -0.000842
      5.04527      5.75843      6.12201        -0.000527      0.008445      0.013029
      3.79261      5.11061      2.02334         0.062565      0.030978     -0.020427
      3.76876      5.13902      8.23476         0.019109     -0.006762     -0.004149
     -3.78584      7.98318      6.06282         0.013050      0.000236      0.003594
     -1.23618      7.97152      6.12854        -0.028408      0.015714      0.009782
      1.25004      8.00896      6.13720         0.025873      0.004471      0.003037
      3.79031      7.99479      6.10792        -0.001412     -0.002738     -0.001550
      2.54183      7.29082      2.05307        -0.149722      0.121384     -0.002109
      2.49917      7.26299      8.12337         0.009844      0.013356      0.000691
     -0.00003      0.07547      9.26324         0.006368      0.004381      0.017556
      2.53527      4.34579      9.32047        -0.005463      0.009346      0.012022
     -2.51395      4.39873      9.27570         0.001073      0.003256      0.047194
      5.03113      0.02185      9.31619        -0.000086      0.018216     -0.032619
 -----------------------------------------------------------------------------------
    total drift:                               -0.002008     -0.004791      0.005937


--------------------------------------------------------------------------------------------------------



  FREE ENERGIE OF THE ION-ELECTRON SYSTEM (eV)
  ---------------------------------------------------
  free  energy   TOTEN  =      -460.00318402 eV

  energy  without entropy=     -460.03770096  energy(sigma->0) =     -460.01468967
 
 d Force = 0.1684189E-02[-0.119E-03, 0.349E-02]  d Energy = 0.1999833E-02-0.316E-03
 d Force = 0.5142621E+02[ 0.514E+02, 0.514E+02]  d Ewald  = 0.5142620E+02 0.598E-05


--------------------------------------------------------------------------------------------------------


    POTLOK:  cpu time    0.5257: real time    0.5258


--------------------------------------------------------------------------------------------------------


 stress matrix after NEB project (eV)
    -31.60599     -1.51813      0.09982
     -1.51813    -34.02220      0.57369
      0.09982      0.57369     -8.79524
  FORCES: max atom, RMS     0.047318    0.018715
  FORCE total and by dimension    0.154329    0.047194
  Stress total and by dimension   47.319049   34.022198
 Conjugate gradient step on ions:
 trial-energy change:   -0.002000  1 .order   -0.001684   -0.003487    0.000119
  (g-gl).g = 0.216E-02      g.g   = 0.210E-02  gl.gl    = 0.678E-02
 g(Force)  = 0.210E-02   g(Stress)= 0.000E+00 ortho     =-0.112E-04
 gamma     =   0.31833
 trial     =   1.66208
 opt step  =   1.62581  (harmonic =   1.60719) maximal distance =0.00585228
 next E    =  -460.003185   (d E  =  -0.00200)


--------------------------------------------------------------------------------------------------------


  
 reached required accuracy - stopping structural energy minimisation
 writing wavefunctions
     LOOP+:  cpu time  877.4273: real time  909.1304
    4ORBIT:  cpu time    0.0000: real time    0.0000
 


 total charge     
 
# of ion       s       p       d       tot
------------------------------------------
    1        0.507   0.510   8.316   9.333
    2        0.503   0.507   8.332   9.342
    3        0.507   0.512   8.321   9.339
    4        0.505   0.510   8.318   9.333
    5        0.510   0.518   8.326   9.354
    6        0.514   0.523   8.320   9.358
    7        0.501   0.500   8.323   9.324
    8        0.489   0.369   8.312   9.170
    9        0.501   0.507   8.327   9.334
   10        0.517   0.521   8.335   9.373
   11        0.493   0.377   8.310   9.179
   12        0.509   0.512   8.334   9.355
   13        0.503   0.504   8.318   9.325
   14        0.506   0.511   8.318   9.334
   15        0.517   0.534   8.322   9.373
   16        0.499   0.394   8.310   9.203
   17        0.498   0.504   8.335   9.337
   18        0.509   0.514   8.339   9.362
   19        0.493   0.382   8.318   9.193
   20        0.499   0.500   8.341   9.340
   21        0.497   0.497   8.318   9.311
   22        0.517   0.525   8.335   9.377
   23        0.507   0.516   8.313   9.336
   24        0.505   0.399   8.307   9.211
   25        0.503   0.506   8.326   9.334
   26        0.493   0.378   8.317   9.188
   27        0.493   0.491   8.330   9.314
   28        0.497   0.368   8.317   9.182
   29        0.493   0.388   8.364   9.245
   30        0.489   0.376   8.312   9.177
   31        0.505   0.508   8.324   9.337
   32        0.496   0.390   8.300   9.186
   33        0.492   0.486   8.335   9.313
   34        0.467   0.498   6.191   7.155
   35        0.473   0.510   6.202   7.186
   36        0.470   0.501   6.176   7.147
   37        0.465   0.388   6.112   6.965
   38        0.473   0.504   6.176   7.154
   39        0.476   0.512   6.195   7.183
   40        0.461   0.381   6.131   6.973
   41        0.475   0.503   6.210   7.188
   42        0.476   0.514   6.217   7.207
   43        0.484   0.519   6.204   7.206
   44        0.474   0.506   6.205   7.184
   45        0.482   0.511   6.218   7.211
   46        0.469   0.385   6.142   6.996
   47        0.463   0.393   6.195   7.050
   48        0.468   0.390   6.109   6.966
   49        0.456   0.387   6.152   6.994
   50        0.472   0.505   6.193   7.170
   51        0.474   0.507   6.197   7.179
   52        0.488   0.534   6.286   7.308
   53        0.465   0.388   6.131   6.984
   54        0.480   0.521   6.177   7.178
   55        0.484   0.521   6.244   7.249
   56        0.477   0.508   6.178   7.162
   57        0.469   0.390   6.141   7.000
   58        0.480   0.514   6.220   7.214
   59        0.475   0.507   6.195   7.177
   60        0.481   0.512   6.199   7.192
   61        0.486   0.522   6.234   7.242
   62        0.475   0.512   6.208   7.195
   63        0.472   0.385   6.145   7.002
   64        0.462   0.393   6.190   7.045
   65        1.579   3.368   0.000   4.948
   66        1.581   3.346   0.000   4.927
   67        1.580   3.353   0.000   4.933
   68        1.581   3.331   0.000   4.912
--------------------------------------------------
tot         37.558  43.556 466.441 547.555
 


 magnetization (x)
 
# of ion       s       p       d       tot
------------------------------------------
    1       -0.020  -0.051   0.790   0.720
    2       -0.020  -0.042   0.680   0.618
    3       -0.025  -0.045   0.776   0.706
    4       -0.021  -0.046   0.736   0.669
    5       -0.026  -0.054   0.712   0.632
    6       -0.019  -0.047   0.677   0.610
    7       -0.017  -0.039   0.717   0.660
    8       -0.021  -0.032   0.695   0.641
    9       -0.016  -0.024   0.619   0.579
   10       -0.020  -0.044   0.610   0.546
   11       -0.021  -0.032   0.718   0.665
   12       -0.018  -0.019   0.576   0.539
   13       -0.018  -0.037   0.781   0.725
   14       -0.020  -0.046   0.745   0.680
   15       -0.029  -0.060   0.759   0.671
   16       -0.030  -0.048   0.729   0.651
   17       -0.015  -0.025   0.601   0.560
   18       -0.018  -0.037   0.694   0.638
   19       -0.021  -0.035   0.681   0.625
   20       -0.014  -0.019   0.553   0.520
   21       -0.014  -0.034   0.715   0.668
   22       -0.019  -0.043   0.646   0.584
   23       -0.026  -0.057   0.750   0.667
   24       -0.030  -0.045   0.750   0.674
   25       -0.013  -0.017   0.549   0.519
   26       -0.020  -0.030   0.679   0.629
   27       -0.014  -0.025   0.551   0.511
   28       -0.015  -0.028   0.695   0.652
   29       -0.026  -0.016   0.796   0.755
   30       -0.022  -0.033   0.702   0.647
   31       -0.011  -0.012   0.574   0.550
   32       -0.024  -0.041   0.743   0.678
   33       -0.019  -0.030   0.576   0.527
   34       -0.002  -0.028   2.672   2.642
   35       -0.009  -0.039   2.679   2.631
   36        0.004  -0.019   2.742   2.727
   37        0.009  -0.009   2.897   2.896
   38        0.010   0.001   2.703   2.714
   39       -0.001  -0.022   2.699   2.676
   40        0.004  -0.014   2.852   2.843
   41        0.010   0.003   2.588   2.600
   42       -0.006  -0.035   2.538   2.496
   43       -0.002  -0.027   2.617   2.588
   44       -0.005  -0.025   2.700   2.670
   45       -0.001  -0.024   2.554   2.529
   46        0.010  -0.018   2.831   2.822
   47       -0.007  -0.006   2.879   2.865
   48        0.016  -0.011   2.916   2.921
   49        0.011   0.001   2.976   2.987
   50        0.002  -0.018   2.641   2.625
   51       -0.003  -0.027   2.611   2.581
   52       -0.031  -0.057  -0.576  -0.664
   53        0.007  -0.009   2.850   2.848
   54        0.015   0.015   2.626   2.656
   55       -0.009  -0.038   2.401   2.353
   56        0.005  -0.019   2.674   2.660
   57        0.007  -0.010   2.838   2.836
   58        0.006   0.001   2.512   2.519
   59       -0.004  -0.022   2.703   2.677
   60        0.005  -0.014   2.624   2.615
   61       -0.006  -0.032   2.485   2.448
   62       -0.011  -0.038   2.636   2.587
   63        0.007  -0.014   2.828   2.821
   64       -0.002  -0.004   2.887   2.881
   65        0.004   0.106   0.000   0.110
   66        0.003   0.095   0.000   0.098
   67        0.003   0.102   0.000   0.105
   68        0.002   0.105   0.000   0.108
--------------------------------------------------
tot         -0.622  -1.347 103.157 101.188
 

 total amount of memory used by VASP MPI-rank0   143281. kBytes
=======================================================================

   base      :      30000. kBytes
   nonlr-proj:      13657. kBytes
   fftplans  :       8122. kBytes
   grid      :      22220. kBytes
   one-center:         93. kBytes
   wavefun   :      69189. kBytes
 
  
  
 General timing and accounting informations for this job:
 ========================================================
  
                  Total CPU time used (sec):    20540.178
                            User time (sec):    20241.143
                          System time (sec):      299.035
                         Elapsed time (sec):    20593.693
  
                   Maximum memory used (kb):      383644.
                   Average memory used (kb):           0.
  
                          Minor page faults:     77077173
                          Major page faults:           31
                 Voluntary context switches:         5348
