SQS-NiFe                                
           1
    10.100310    0.000000    0.000000
    -5.050155    8.747125    0.000000
     0.000000    0.000000   21.253800
   Ni   Fe   O 
  33  31   4
Direct configuration=     1
   0.99904300  0.00064200  0.19052300
   0.24849100  0.99862800  0.19205500
   0.49902500  0.00192700  0.19180600
   0.99813900  0.25067400  0.19194200
   0.24921500  0.24886200  0.19118600
   0.32697694  0.16371954  0.28523331
   0.74893500  0.25278100  0.19317500
   0.41837500  0.08394000  0.09411800
   0.40993309  0.08123392  0.37901201
   0.82957789  0.16761751  0.28560082
   0.66797000  0.08472300  0.09569300
   0.66700607  0.08049811  0.37881040
   0.99908600  0.49910800  0.19304000
   0.74816900  0.49871100  0.19204600
   0.57986275  0.41931311  0.28239664
   0.41961000  0.33337100  0.09414000
   0.40840016  0.32468308  0.37850113
   0.83353120  0.42102475  0.28433100
   0.91855900  0.33501600  0.09568700
   0.91411321  0.32780105  0.37987439
   0.99765800  0.74896900  0.19256000
   0.08324500  0.66707399  0.28343729
   0.75346500  0.75172800  0.19162900
   0.41737300  0.58352400  0.09623400
   0.41036126  0.58164719  0.37714874
   0.91550800  0.58461900  0.09542900
   0.90330720  0.58236128  0.37906799
   0.16682900  0.83490800  0.09456700
   0.16445854  0.83538345  0.37192392
   0.41715300  0.83338800  0.09679300
   0.40971053  0.82375616  0.37825731
   0.91985100  0.83263700  0.09539800
   0.90772227  0.83088235  0.37921597
   0.74918200  0.00453800  0.19311300
   0.07829883  0.16384012  0.28448670
   0.49319000  0.24544000  0.19167800
   0.17139600  0.08339300  0.09535900
   0.15351952  0.08306173  0.37487825
   0.57243218  0.16870832  0.28297071
   0.91693100  0.08581500  0.09410100
   0.91761763  0.07949025  0.37460898
   0.24596400  0.49669300  0.19369900
   0.09528707  0.41977247  0.28308176
   0.50297300  0.49962100  0.19096300
   0.33211675  0.42569053  0.28146221
   0.17081400  0.33724200  0.09550500
   0.16331660  0.32956903  0.36845098
   0.67264700  0.33598100  0.09600300
   0.65906428  0.32292310  0.36765383
   0.24490500  0.75270000  0.19343600
   0.49840300  0.74988300  0.19260700
   0.33361267  0.67054939  0.28129334
   0.16470600  0.58627100  0.09733100
   0.16408549  0.56911113  0.37460440
   0.58015897  0.66717986  0.28023167
   0.83425645  0.67870765  0.28544182
   0.66762500  0.58426200  0.09519900
   0.66505968  0.58944209  0.37542943
   0.07523492  0.91885477  0.28426163
   0.33668119  0.91544085  0.28226582
   0.57784179  0.90836657  0.28072319
   0.83202232  0.92169959  0.28297725
   0.66841400  0.83351100  0.09659800
   0.66705820  0.83298796  0.36768282
   0.99985350  0.00697871  0.43218182
   0.50716869  0.50059000  0.42763494
   0.00888324  0.51061039  0.42718382
   0.49579034  0.99501311  0.42911600
Direct configuration=     2
   0.99904300  0.00064200  0.19052300
   0.24849100  0.99862800  0.19205500
   0.49902500  0.00192700  0.19180600
   0.99813900  0.25067400  0.19194200
   0.24921500  0.24886200  0.19118600
   0.32759055  0.16480445  0.28537947
   0.74893500  0.25278100  0.19317500
   0.41837500  0.08394000  0.09411800
   0.40890924  0.08070925  0.37917283
   0.82946936  0.16919041  0.28601490
   0.66797000  0.08472300  0.09569300
   0.66680980  0.08037648  0.37867356
   0.99908600  0.49910800  0.19304000
   0.74816900  0.49871100  0.19204600
   0.58035003  0.41909167  0.28275434
   0.41961000  0.33337100  0.09414000
   0.40867177  0.32535577  0.37812678
   0.83328397  0.42030045  0.28430398
   0.91855900  0.33501600  0.09568700
   0.91294990  0.32750604  0.38002371
   0.99765800  0.74896900  0.19256000
   0.08188522  0.66634434  0.28396514
   0.75346500  0.75172800  0.19162900
   0.41737300  0.58352400  0.09623400
   0.41073741  0.58150083  0.37762842
   0.91550800  0.58461900  0.09542900
   0.90383337  0.58277198  0.37924204
   0.16682900  0.83490800  0.09456700
   0.16348630  0.83473378  0.37249607
   0.41715300  0.83338800  0.09679300
   0.40959203  0.82433653  0.37855657
   0.91985100  0.83263700  0.09539800
   0.90883517  0.82960828  0.38030162
   0.74918200  0.00453800  0.19311300
   0.07873769  0.16467326  0.28108101
   0.49319000  0.24544000  0.19167800
   0.17139600  0.08339300  0.09535900
   0.16434711  0.08347007  0.37702084
   0.57709324  0.16720349  0.28209953
   0.91693100  0.08581500  0.09410100
   0.91033721  0.08221407  0.37719628
   0.24596400  0.49669300  0.19369900
   0.08501182  0.41993837  0.28248868
   0.50297300  0.49962100  0.19096300
   0.33701076  0.42223856  0.28199987
   0.17081400  0.33724200  0.09550500
   0.16464182  0.32981735  0.37185927
   0.67264700  0.33598100  0.09600300
   0.66142271  0.32657539  0.37057680
   0.24490500  0.75270000  0.19343600
   0.49840300  0.74988300  0.19260700
   0.33469255  0.67056273  0.28287966
   0.16470600  0.58627100  0.09733100
   0.16876732  0.57708077  0.37495968
   0.57969720  0.66632071  0.28136130
   0.83344587  0.67258853  0.28481521
   0.66762500  0.58426200  0.09519900
   0.66671865  0.58815583  0.37624326
   0.07946464  0.91670786  0.28336584
   0.33323065  0.91454148  0.28387092
   0.57847486  0.91366941  0.28233349
   0.83159963  0.92057501  0.28190868
   0.66841400  0.83351100  0.09659800
   0.66442870  0.83154048  0.36991949
   0.99926358  0.00636766  0.43275810
   0.50468439  0.49986255  0.42908762
   0.00575536  0.50842834  0.42829290
   0.49549929  0.99464191  0.42971047
Direct configuration=     3
   0.99904300  0.00064200  0.19052300
   0.24849100  0.99862800  0.19205500
   0.49902500  0.00192700  0.19180600
   0.99813900  0.25067400  0.19194200
   0.24921500  0.24886200  0.19118600
   0.32793481  0.16541314  0.28546147
   0.74893500  0.25278100  0.19317500
   0.41837500  0.08394000  0.09411800
   0.40833481  0.08041488  0.37926306
   0.82940847  0.17007288  0.28624723
   0.66797000  0.08472300  0.09569300
   0.66669969  0.08030824  0.37859679
   0.99908600  0.49910800  0.19304000
   0.74816900  0.49871100  0.19204600
   0.58062341  0.41896744  0.28295502
   0.41961000  0.33337100  0.09414000
   0.40882416  0.32573319  0.37791675
   0.83314526  0.41989409  0.28428881
   0.91855900  0.33501600  0.09568700
   0.91229723  0.32734052  0.38010749
   0.99765800  0.74896900  0.19256000
   0.08112231  0.66593498  0.28426129
   0.75346500  0.75172800  0.19162900
   0.41737300  0.58352400  0.09623400
   0.41094845  0.58141871  0.37789755
   0.91550800  0.58461900  0.09542900
   0.90412857  0.58300240  0.37933968
   0.16682900  0.83490800  0.09456700
   0.16294083  0.83436929  0.37281708
   0.41715300  0.83338800  0.09679300
   0.40952555  0.82466214  0.37872447
   0.91985100  0.83263700  0.09539800
   0.90945956  0.82889346  0.38091073
   0.74918200  0.00453800  0.19311300
   0.07898391  0.16514070  0.27917026
   0.49319000  0.24544000  0.19167800
   0.17139600  0.08339300  0.09535900
   0.17042189  0.08369916  0.37822293
   0.57970831  0.16635921  0.28161075
   0.91693100  0.08581500  0.09410100
   0.90625256  0.08374225  0.37864788
   0.24596400  0.49669300  0.19369900
   0.07924694  0.42003144  0.28215594
   0.50297300  0.49962100  0.19096300
   0.33975653  0.42030185  0.28230152
   0.17081400  0.33724200  0.09550500
   0.16538533  0.32995667  0.37377148
   0.67264700  0.33598100  0.09600300
   0.66274590  0.32862449  0.37221673
   0.24490500  0.75270000  0.19343600
   0.49840300  0.74988300  0.19260700
   0.33529841  0.67057021  0.28376966
   0.16470600  0.58627100  0.09733100
   0.17139403  0.58155211  0.37515901
   0.57943813  0.66583868  0.28199507
   0.83299110  0.66915543  0.28446366
   0.66762500  0.58426200  0.09519900
   0.66764941  0.58743418  0.37669985
   0.08183770  0.91550334  0.28286327
   0.33129474  0.91403689  0.28477145
   0.57883004  0.91664455  0.28323695
   0.83136248  0.91994407  0.28130916
   0.66841400  0.83351100  0.09659800
   0.66295342  0.83072837  0.37117436
   0.99893261  0.00602482  0.43308142
   0.50329058  0.49945441  0.42990264
   0.00400048  0.50720410  0.42891515
   0.49533600  0.99443365  0.43004400
Direct configuration=     4
   0.99904300  0.00064200  0.19052300
   0.24849100  0.99862800  0.19205500
   0.49902500  0.00192700  0.19180600
   0.99813900  0.25067400  0.19194200
   0.24921500  0.24886200  0.19118600
   0.32954881  0.16590680  0.28535259
   0.74893500  0.25278100  0.19317500
   0.41837500  0.08394000  0.09411800
   0.41037487  0.08059089  0.37950892
   0.83032972  0.17083574  0.28658705
   0.66797000  0.08472300  0.09569300
   0.66424594  0.08066490  0.37921568
   0.99908600  0.49910800  0.19304000
   0.74816900  0.49871100  0.19204600
   0.58211377  0.41724969  0.28352617
   0.41961000  0.33337100  0.09414000
   0.41101343  0.32787889  0.37833005
   0.83102498  0.41859705  0.28472875
   0.91855900  0.33501600  0.09568700
   0.91265229  0.32969793  0.38063644
   0.99765800  0.74896900  0.19256000
   0.08018263  0.66520811  0.28445682
   0.75346500  0.75172800  0.19162900
   0.41737300  0.58352400  0.09623400
   0.41150256  0.58072895  0.37866417
   0.91550800  0.58461900  0.09542900
   0.90580904  0.58354843  0.37994881
   0.16682900  0.83490800  0.09456700
   0.16169259  0.83337823  0.37402118
   0.41715300  0.83338800  0.09679300
   0.41016036  0.82615530  0.37961666
   0.91985100  0.83263700  0.09539800
   0.91091499  0.82969188  0.38128834
   0.74918200  0.00453800  0.19311300
   0.08018668  0.16666621  0.28035592
   0.49319000  0.24544000  0.19167800
   0.17139600  0.08339300  0.09535900
   0.16982761  0.08232885  0.38048381
   0.58284201  0.16739201  0.28226521
   0.91693100  0.08581500  0.09410100
   0.90746554  0.08353197  0.38075046
   0.24596400  0.49669300  0.19369900
   0.07547841  0.41873918  0.28337224
   0.50297300  0.49962100  0.19096300
   0.33858427  0.41774989  0.28301979
   0.17081400  0.33724200  0.09550500
   0.16395183  0.32907011  0.37474726
   0.67264700  0.33598100  0.09600300
   0.66343931  0.33018822  0.37393212
   0.24490500  0.75270000  0.19343600
   0.49840300  0.74988300  0.19260700
   0.33619989  0.67002295  0.28464724
   0.16470600  0.58627100  0.09733100
   0.16966563  0.58410412  0.37689247
   0.57943648  0.66695238  0.28302487
   0.83240487  0.66524166  0.28427853
   0.66762500  0.58426200  0.09519900
   0.66605268  0.58553601  0.37872263
   0.08237765  0.91472080  0.28296483
   0.33042910  0.91375857  0.28556847
   0.57878065  0.91816362  0.28421084
   0.83187447  0.91826183  0.28254271
   0.66841400  0.83351100  0.09659800
   0.66198126  0.82956211  0.37298995
   0.99993185  0.00780111  0.43136063
   0.50314344  0.49946737  0.43052068
   0.00420364  0.50592847  0.42876011
   0.49583417  0.99534595  0.43062930
Direct configuration=     5
   0.99904300  0.00064200  0.19052300
   0.24849100  0.99862800  0.19205500
   0.49902500  0.00192700  0.19180600
   0.99813900  0.25067400  0.19194200
   0.24921500  0.24886200  0.19118600
   0.33013827  0.16608710  0.28531282
   0.74893500  0.25278100  0.19317500
   0.41837500  0.08394000  0.09411800
   0.41111995  0.08065518  0.37959871
   0.83066618  0.17111436  0.28671117
   0.66797000  0.08472300  0.09569300
   0.66334977  0.08079515  0.37944171
   0.99908600  0.49910800  0.19304000
   0.74816900  0.49871100  0.19204600
   0.58265808  0.41662233  0.28373477
   0.41961000  0.33337100  0.09414000
   0.41181300  0.32866255  0.37848100
   0.83025060  0.41812334  0.28488943
   0.91855900  0.33501600  0.09568700
   0.91278197  0.33055891  0.38082962
   0.99765800  0.74896900  0.19256000
   0.07983944  0.66494263  0.28452823
   0.75346500  0.75172800  0.19162900
   0.41737300  0.58352400  0.09623400
   0.41170493  0.58047703  0.37894416
   0.91550800  0.58461900  0.09542900
   0.90642279  0.58374786  0.38017128
   0.16682900  0.83490800  0.09456700
   0.16123670  0.83301627  0.37446094
   0.41715300  0.83338800  0.09679300
   0.41039220  0.82670063  0.37994250
   0.91985100  0.83263700  0.09539800
   0.91144655  0.82998347  0.38142625
   0.74918200  0.00453800  0.19311300
   0.08062595  0.16722337  0.28078895
   0.49319000  0.24544000  0.19167800
   0.17139600  0.08339300  0.09535900
   0.16961057  0.08182838  0.38130954
   0.58398651  0.16776922  0.28250424
   0.91693100  0.08581500  0.09410100
   0.90790854  0.08345517  0.38151836
   0.24596400  0.49669300  0.19369900
   0.07410206  0.41826722  0.28381646
   0.50297300  0.49962100  0.19096300
   0.33815613  0.41681786  0.28328212
   0.17081400  0.33724200  0.09550500
   0.16342829  0.32874632  0.37510364
   0.67264700  0.33598100  0.09600300
   0.66369255  0.33075933  0.37455862
   0.24490500  0.75270000  0.19343600
   0.49840300  0.74988300  0.19260700
   0.33652913  0.66982308  0.28496775
   0.16470600  0.58627100  0.09733100
   0.16903437  0.58503618  0.37752556
   0.57943588  0.66735913  0.28340098
   0.83219077  0.66381227  0.28421092
   0.66762500  0.58426200  0.09519900
   0.66546952  0.58484276  0.37946140
   0.08257485  0.91443500  0.28300192
   0.33011295  0.91365693  0.28585956
   0.57876261  0.91871842  0.28456653
   0.83206146  0.91764743  0.28299322
   0.66841400  0.83351100  0.09659800
   0.66162620  0.82913616  0.37365305
   0.00029680  0.00844985  0.43073216
   0.50308970  0.49947210  0.43074640
   0.00427784  0.50546258  0.42870349
   0.49601611  0.99567914  0.43084307
Direct configuration=     6
   0.99904300  0.00064200  0.19052300
   0.24849100  0.99862800  0.19205500
   0.49902500  0.00192700  0.19180600
   0.99813900  0.25067400  0.19194200
   0.24921500  0.24886200  0.19118600
   0.33180840  0.16576540  0.28571509
   0.74893500  0.25278100  0.19317500
   0.41837500  0.08394000  0.09411800
   0.41299160  0.08183238  0.37972090
   0.83197622  0.17067139  0.28762542
   0.66797000  0.08472300  0.09569300
   0.66325154  0.08263079  0.38015251
   0.99908600  0.49910800  0.19304000
   0.74816900  0.49871100  0.19204600
   0.58400540  0.41511655  0.28440423
   0.41961000  0.33337100  0.09414000
   0.41317000  0.32899598  0.37891626
   0.82777708  0.41640838  0.28556464
   0.91855900  0.33501600  0.09568700
   0.91156425  0.33046011  0.38119668
   0.99765800  0.74896900  0.19256000
   0.07935966  0.66423393  0.28485230
   0.75346500  0.75172800  0.19162900
   0.41737300  0.58352400  0.09623400
   0.41057637  0.57992797  0.37978376
   0.91550800  0.58461900  0.09542900
   0.90749262  0.58514243  0.38075816
   0.16682900  0.83490800  0.09456700
   0.16026932  0.83219952  0.37596739
   0.41715300  0.83338800  0.09679300
   0.41037473  0.82713576  0.38102666
   0.91985100  0.83263700  0.09539800
   0.91156437  0.82854645  0.38118890
   0.74918200  0.00453800  0.19311300
   0.08167873  0.16794371  0.28298142
   0.49319000  0.24544000  0.19167800
   0.17139600  0.08339300  0.09535900
   0.17278910  0.08298631  0.38214858
   0.58651191  0.16913869  0.28362198
   0.91693100  0.08581500  0.09410100
   0.90697487  0.08524738  0.38205999
   0.24596400  0.49669300  0.19369900
   0.07283360  0.41737822  0.28550094
   0.50297300  0.49962100  0.19096300
   0.33598588  0.41505663  0.28419539
   0.17081400  0.33724200  0.09550500
   0.16148557  0.32801986  0.37585286
   0.67264700  0.33598100  0.09600300
   0.66412698  0.33231472  0.37654417
   0.24490500  0.75270000  0.19343600
   0.49840300  0.74988300  0.19260700
   0.33692771  0.66868063  0.28611326
   0.16470600  0.58627100  0.09733100
   0.17000547  0.58850294  0.37874334
   0.57950784  0.66794433  0.28464370
   0.83098650  0.66029469  0.28475063
   0.66762500  0.58426200  0.09519900
   0.66684176  0.58490043  0.38113074
   0.08244202  0.91437112  0.28365220
   0.32986941  0.91328467  0.28656738
   0.57899592  0.91914701  0.28555067
   0.83293441  0.91625025  0.28495791
   0.66841400  0.83351100  0.09659800
   0.66131434  0.82842283  0.37584898
   0.00103323  0.00840306  0.43186191
   0.50188684  0.49882543  0.43304233
   0.00385037  0.50424505  0.43050379
   0.49637931  0.99692659  0.43282119
Direct configuration=     7
   0.99904300  0.00064200  0.19052300
   0.24849100  0.99862800  0.19205500
   0.49902500  0.00192700  0.19180600
   0.99813900  0.25067400  0.19194200
   0.24921500  0.24886200  0.19118600
   0.33275902  0.16558229  0.28594405
   0.74893500  0.25278100  0.19317500
   0.41837500  0.08394000  0.09411800
   0.41405692  0.08250243  0.37979044
   0.83272187  0.17041927  0.28814580
   0.66797000  0.08472300  0.09569300
   0.66319563  0.08367561  0.38055709
   0.99908600  0.49910800  0.19304000
   0.74816900  0.49871100  0.19204600
   0.58477228  0.41425949  0.28478527
   0.41961000  0.33337100  0.09414000
   0.41394239  0.32918577  0.37916401
   0.82636919  0.41543225  0.28594897
   0.91855900  0.33501600  0.09568700
   0.91087114  0.33040388  0.38140561
   0.99765800  0.74896900  0.19256000
   0.07908658  0.66383054  0.28503675
   0.75346500  0.75172800  0.19162900
   0.41737300  0.58352400  0.09623400
   0.40993400  0.57961545  0.38026165
   0.91550800  0.58461900  0.09542900
   0.90810155  0.58593620  0.38109220
   0.16682900  0.83490800  0.09456700
   0.15971870  0.83173463  0.37682485
   0.41715300  0.83338800  0.09679300
   0.41036479  0.82738342  0.38164375
   0.91985100  0.83263700  0.09539800
   0.91163144  0.82772851  0.38105380
   0.74918200  0.00453800  0.19311300
   0.08227796  0.16835373  0.28422934
   0.49319000  0.24544000  0.19167800
   0.17139600  0.08339300  0.09535900
   0.17459827  0.08364539  0.38262615
   0.58794934  0.16991818  0.28425818
   0.91693100  0.08581500  0.09410100
   0.90644343  0.08626748  0.38236828
   0.24596400  0.49669300  0.19369900
   0.07211162  0.41687221  0.28645973
   0.50297300  0.49962100  0.19096300
   0.33475061  0.41405417  0.28471521
   0.17081400  0.33724200  0.09550500
   0.16037980  0.32760636  0.37627932
   0.67264700  0.33598100  0.09600300
   0.66437424  0.33320003  0.37767432
   0.24490500  0.75270000  0.19343600
   0.49840300  0.74988300  0.19260700
   0.33715457  0.66803036  0.28676527
   0.16470600  0.58627100  0.09733100
   0.17055820  0.59047618  0.37943649
   0.57954879  0.66827741  0.28535104
   0.83030104  0.65829253  0.28505782
   0.66762500  0.58426200  0.09519900
   0.66762282  0.58493326  0.38208091
   0.08236641  0.91433475  0.28402234
   0.32973079  0.91307278  0.28697026
   0.57912872  0.91939096  0.28611083
   0.83343128  0.91545498  0.28607619
   0.66841400  0.83351100  0.09659800
   0.66113683  0.82801681  0.37709887
   0.00145240  0.00837643  0.43250495
   0.50120219  0.49845736  0.43434914
   0.00360705  0.50355204  0.43152850
   0.49658604  0.99763662  0.43394710
Direct configuration=     8
   0.99904300  0.00064200  0.19052300
   0.24849100  0.99862800  0.19205500
   0.49902500  0.00192700  0.19180600
   0.99813900  0.25067400  0.19194200
   0.24921500  0.24886200  0.19118600
   0.33344467  0.16473854  0.28627088
   0.74893500  0.25278100  0.19317500
   0.41837500  0.08394000  0.09411800
   0.41507443  0.08259098  0.38043661
   0.83293156  0.16885996  0.28847601
   0.66797000  0.08472300  0.09569300
   0.66380258  0.08453194  0.38169952
   0.99908600  0.49910800  0.19304000
   0.74816900  0.49871100  0.19204600
   0.58357363  0.41455604  0.28514693
   0.41961000  0.33337100  0.09414000
   0.41453453  0.32981447  0.37989931
   0.82707306  0.41460747  0.28643256
   0.91855900  0.33501600  0.09568700
   0.90972733  0.33048761  0.38226510
   0.99765800  0.74896900  0.19256000
   0.07960164  0.66384758  0.28546248
   0.75346500  0.75172800  0.19162900
   0.41737300  0.58352400  0.09623400
   0.40937806  0.57846807  0.38142908
   0.91550800  0.58461900  0.09542900
   0.90921624  0.58591563  0.38200098
   0.16682900  0.83490800  0.09456700
   0.16041050  0.83231613  0.37744984
   0.41715300  0.83338800  0.09679300
   0.41126382  0.82916349  0.38278200
   0.91985100  0.83263700  0.09539800
   0.91224963  0.82831645  0.38157095
   0.74918200  0.00453800  0.19311300
   0.08225793  0.16683932  0.28456489
   0.49319000  0.24544000  0.19167800
   0.17139600  0.08339300  0.09535900
   0.17515365  0.08438563  0.38292660
   0.58745275  0.16931871  0.28483635
   0.91693100  0.08581500  0.09410100
   0.90660019  0.08543072  0.38318686
   0.24596400  0.49669300  0.19369900
   0.07397114  0.41771505  0.28683572
   0.50297300  0.49962100  0.19096300
   0.33458090  0.41474761  0.28521114
   0.17081400  0.33724200  0.09550500
   0.16008026  0.32842478  0.37710244
   0.67264700  0.33598100  0.09600300
   0.66455404  0.33415128  0.37917949
   0.24490500  0.75270000  0.19343600
   0.49840300  0.74988300  0.19260700
   0.33646611  0.66714751  0.28744670
   0.16470600  0.58627100  0.09733100
   0.17037859  0.59088213  0.38039887
   0.57945826  0.66706796  0.28606272
   0.82935557  0.65805521  0.28564965
   0.66762500  0.58426200  0.09519900
   0.66665036  0.58494685  0.38362466
   0.08209482  0.91454101  0.28460237
   0.33001965  0.91245943  0.28733017
   0.57988836  0.91850762  0.28670566
   0.83378036  0.91554080  0.28665241
   0.66841400  0.83351100  0.09659800
   0.66107984  0.82834998  0.37862582
   0.00145350  0.00808378  0.43311973
   0.50093899  0.49836441  0.43518162
   0.00332343  0.50338627  0.43286639
   0.49694691  0.99860846  0.43501648
Direct configuration=     9
   0.99904300  0.00064200  0.19052300
   0.24849100  0.99862800  0.19205500
   0.49902500  0.00192700  0.19180600
   0.99813900  0.25067400  0.19194200
   0.24921500  0.24886200  0.19118600
   0.33429668  0.16369007  0.28667699
   0.74893500  0.25278100  0.19317500
   0.41837500  0.08394000  0.09411800
   0.41633882  0.08270103  0.38123955
   0.83319212  0.16692232  0.28888635
   0.66797000  0.08472300  0.09569300
   0.66455680  0.08559604  0.38311913
   0.99908600  0.49910800  0.19304000
   0.74816900  0.49871100  0.19204600
   0.58208415  0.41492454  0.28559632
   0.41961000  0.33337100  0.09414000
   0.41527035  0.33059572  0.38081301
   0.82794771  0.41358259  0.28703348
   0.91855900  0.33501600  0.09568700
   0.90830602  0.33059166  0.38333311
   0.99765800  0.74896900  0.19256000
   0.08024167  0.66386875  0.28599149
   0.75346500  0.75172800  0.19162900
   0.41737300  0.58352400  0.09623400
   0.40868722  0.57704231  0.38287977
   0.91550800  0.58461900  0.09542900
   0.91060138  0.58589007  0.38313024
   0.16682900  0.83490800  0.09456700
   0.16127016  0.83303871  0.37822646
   0.41715300  0.83338800  0.09679300
   0.41238099  0.83137544  0.38419642
   0.91985100  0.83263700  0.09539800
   0.91301782  0.82904703  0.38221357
   0.74918200  0.00453800  0.19311300
   0.08223303  0.16495747  0.28498184
   0.49319000  0.24544000  0.19167800
   0.17139600  0.08339300  0.09535900
   0.17584377  0.08530547  0.38329994
   0.58683568  0.16857380  0.28555480
   0.91693100  0.08581500  0.09410100
   0.90679497  0.08439096  0.38420404
   0.24596400  0.49669300  0.19369900
   0.07628183  0.41876238  0.28730294
   0.50297300  0.49962100  0.19096300
   0.33437000  0.41560931  0.28582739
   0.17081400  0.33724200  0.09550500
   0.15970804  0.32944177  0.37812527
   0.67264700  0.33598100  0.09600300
   0.66477747  0.33533333  0.38104986
   0.24490500  0.75270000  0.19343600
   0.49840300  0.74988300  0.19260700
   0.33561061  0.66605046  0.28829346
   0.16470600  0.58627100  0.09733100
   0.17015539  0.59138657  0.38159476
   0.57934577  0.66556506  0.28694707
   0.82818071  0.65776030  0.28638506
   0.66762500  0.58426200  0.09519900
   0.66544196  0.58496373  0.38554295
   0.08175734  0.91479732  0.28532314
   0.33037859  0.91169727  0.28777739
   0.58083231  0.91740996  0.28744481
   0.83421413  0.91564743  0.28736843
   0.66841400  0.83351100  0.09659800
   0.66100903  0.82876398  0.38052325
   0.00145486  0.00772011  0.43388367
   0.50061193  0.49824891  0.43621608
   0.00297099  0.50318029  0.43452889
   0.49739533  0.99981608  0.43634531
Direct configuration=    10
   0.99904300  0.00064200  0.19052300
   0.24849100  0.99862800  0.19205500
   0.49902500  0.00192700  0.19180600
   0.99813900  0.25067400  0.19194200
   0.24921500  0.24886200  0.19118600
   0.33434003  0.16351352  0.28708596
   0.74893500  0.25278100  0.19317500
   0.41837500  0.08394000  0.09411800
   0.41596243  0.08320904  0.38202003
   0.83344383  0.16659815  0.28932737
   0.66797000  0.08472300  0.09569300
   0.66614425  0.08594368  0.38419317
   0.99908600  0.49910800  0.19304000
   0.74816900  0.49871100  0.19204600
   0.58145914  0.41510669  0.28618896
   0.41961000  0.33337100  0.09414000
   0.41408211  0.32955604  0.38132259
   0.82872958  0.41329139  0.28759230
   0.91855900  0.33501600  0.09568700
   0.90851168  0.33074234  0.38439108
   0.99765800  0.74896900  0.19256000
   0.08051047  0.66433658  0.28656506
   0.75346500  0.75172800  0.19162900
   0.41737300  0.58352400  0.09623400
   0.40775436  0.57776495  0.38373675
   0.91550800  0.58461900  0.09542900
   0.91039935  0.58608796  0.38397592
   0.16682900  0.83490800  0.09456700
   0.16280982  0.83443136  0.37830307
   0.41715300  0.83338800  0.09679300
   0.41292081  0.83134207  0.38473162
   0.91985100  0.83263700  0.09539800
   0.91304740  0.82888166  0.38332448
   0.74918200  0.00453800  0.19311300
   0.08245181  0.16444021  0.28455195
   0.49319000  0.24544000  0.19167800
   0.17139600  0.08339300  0.09535900
   0.17483682  0.08578856  0.38372534
   0.58648171  0.16758025  0.28602166
   0.91693100  0.08581500  0.09410100
   0.90681754  0.08369853  0.38495608
   0.24596400  0.49669300  0.19369900
   0.07746318  0.41875619  0.28720813
   0.50297300  0.49962100  0.19096300
   0.33467990  0.41560995  0.28614458
   0.17081400  0.33724200  0.09550500
   0.15960982  0.33026287  0.37884436
   0.67264700  0.33598100  0.09600300
   0.66517271  0.33670136  0.38157669
   0.24490500  0.75270000  0.19343600
   0.49840300  0.74988300  0.19260700
   0.33530280  0.66617539  0.28936342
   0.16470600  0.58627100  0.09733100
   0.16934217  0.59041642  0.38288567
   0.57932021  0.66516908  0.28775747
   0.82802673  0.65823697  0.28730379
   0.66762500  0.58426200  0.09519900
   0.66827403  0.58732048  0.38598168
   0.08158665  0.91371636  0.28546500
   0.33108927  0.91093101  0.28812356
   0.58136180  0.91591286  0.28815794
   0.83307548  0.91507858  0.28721530
   0.66841400  0.83351100  0.09659800
   0.66107838  0.82928630  0.38155763
   0.00282176  0.00784116  0.43463783
   0.49902316  0.49707977  0.43822845
   0.00331875  0.50299714  0.43548351
   0.49854500  0.00140553  0.43783551
Direct configuration=    11
   0.99904300  0.00064200  0.19052300
   0.24849100  0.99862800  0.19205500
   0.49902500  0.00192700  0.19180600
   0.99813900  0.25067400  0.19194200
   0.24921500  0.24886200  0.19118600
   0.33433642  0.16352824  0.28705186
   0.74893500  0.25278100  0.19317500
   0.41837500  0.08394000  0.09411800
   0.41599381  0.08316669  0.38195496
   0.83342284  0.16662518  0.28929060
   0.66797000  0.08472300  0.09569300
   0.66601190  0.08591470  0.38410362
   0.99908600  0.49910800  0.19304000
   0.74816900  0.49871100  0.19204600
   0.58151125  0.41509150  0.28613955
   0.41961000  0.33337100  0.09414000
   0.41418118  0.32964272  0.38128011
   0.82866439  0.41331567  0.28754571
   0.91855900  0.33501600  0.09568700
   0.90849453  0.33072978  0.38430287
   0.99765800  0.74896900  0.19256000
   0.08048806  0.66429757  0.28651724
   0.75346500  0.75172800  0.19162900
   0.41737300  0.58352400  0.09623400
   0.40783213  0.57770470  0.38366530
   0.91550800  0.58461900  0.09542900
   0.91041619  0.58607146  0.38390541
   0.16682900  0.83490800  0.09456700
   0.16268146  0.83431525  0.37829668
   0.41715300  0.83338800  0.09679300
   0.41287580  0.83134485  0.38468700
   0.91985100  0.83263700  0.09539800
   0.91304493  0.82889545  0.38323186
   0.74918200  0.00453800  0.19311300
   0.08243357  0.16448334  0.28458779
   0.49319000  0.24544000  0.19167800
   0.17139600  0.08339300  0.09535900
   0.17492077  0.08574829  0.38368987
   0.58651122  0.16766309  0.28598274
   0.91693100  0.08581500  0.09410100
   0.90681566  0.08375626  0.38489338
   0.24596400  0.49669300  0.19369900
   0.07736468  0.41875671  0.28721604
   0.50297300  0.49962100  0.19096300
   0.33465406  0.41560989  0.28611814
   0.17081400  0.33724200  0.09550500
   0.15961801  0.33019442  0.37878441
   0.67264700  0.33598100  0.09600300
   0.66513976  0.33658731  0.38153277
   0.24490500  0.75270000  0.19343600
   0.49840300  0.74988300  0.19260700
   0.33532847  0.66616498  0.28927421
   0.16470600  0.58627100  0.09733100
   0.16940998  0.59049731  0.38277804
   0.57932234  0.66520210  0.28768991
   0.82803957  0.65819722  0.28722719
   0.66762500  0.58426200  0.09519900
   0.66803791  0.58712399  0.38594510
   0.08160088  0.91380649  0.28545318
   0.33103002  0.91099490  0.28809470
   0.58131766  0.91603768  0.28809848
   0.83317042  0.91512601  0.28722807
   0.66841400  0.83351100  0.09659800
   0.66107260  0.82924275  0.38147139
   0.00270779  0.00783107  0.43457495
   0.49915562  0.49717725  0.43806067
   0.00328975  0.50301241  0.43540392
   0.49844915  0.00127302  0.43771127
Direct configuration=    12
   0.99904300  0.00064200  0.19052300
   0.24849100  0.99862800  0.19205500
   0.49902500  0.00192700  0.19180600
   0.99813900  0.25067400  0.19194200
   0.24921500  0.24886200  0.19118600
   0.33388161  0.16368014  0.28731593
   0.74893500  0.25278100  0.19317500
   0.41837500  0.08394000  0.09411800
   0.41567941  0.08333007  0.38276325
   0.83377276  0.16740196  0.28974634
   0.66797000  0.08472300  0.09569300
   0.66635338  0.08555017  0.38486549
   0.99908600  0.49910800  0.19304000
   0.74816900  0.49871100  0.19204600
   0.58189228  0.41485891  0.28659198
   0.41961000  0.33337100  0.09414000
   0.41338158  0.33004922  0.38195213
   0.82885974  0.41351215  0.28790676
   0.91855900  0.33501600  0.09568700
   0.90950019  0.33061434  0.38489880
   0.99765800  0.74896900  0.19256000
   0.08030152  0.66428583  0.28694606
   0.75346500  0.75172800  0.19162900
   0.41737300  0.58352400  0.09623400
   0.40841839  0.57836815  0.38453108
   0.91550800  0.58461900  0.09542900
   0.91018167  0.58629793  0.38447516