       N       E                     dE             d eps       ncg     rms          rms(c)
DAV:   1     0.263244993517E+04    0.26324E+04   -0.12595E+05 52272   0.214E+03
DAV:   2     0.143806520452E+03   -0.24886E+04   -0.23592E+04 52164   0.441E+02
DAV:   3    -0.180647096317E+03   -0.32445E+03   -0.26456E+03 52164   0.186E+02
DAV:   4    -0.198126481584E+03   -0.17479E+02   -0.17010E+02 55566   0.515E+01
DAV:   5    -0.198368259260E+03   -0.24178E+00   -0.24167E+00 66465   0.531E+00
RMM:   6    -0.198375935171E+03   -0.76759E-02   -0.76755E-02 54234   0.913E-01
RMM:   7    -0.198378228217E+03   -0.22930E-02   -0.22847E-02 78335   0.289E-01
RMM:   8    -0.198378240457E+03   -0.12239E-04   -0.26001E-04 72352   0.414E-02
RMM:   9    -0.198378243473E+03   -0.30164E-05   -0.31105E-05 55805   0.111E-02
RMM:  10    -0.198378243641E+03   -0.16772E-06   -0.18015E-06 35472   0.344E-03
   1 F= -.19837824E+03 E0= -.19837824E+03  d E =0.000000E+00  mag=    35.4664
