 vasp.5.4.4.18Apr17-6-g9f103f2a35 (build Sep 06 2021 19:49:22) complex          
  
 executed on             LinuxIFC date 2021.12.27  23:35:50
 running on   48 total cores
 distrk:  each k-point on   48 cores,    1 groups
 distr:  one band on NCORES_PER_BAND=  16 cores,    3 groups


--------------------------------------------------------------------------------------------------------


 INCAR:
 POTCAR:    PAW_PBE Ni 02Aug2007                  
 POTCAR:    PAW_PBE Fe 06Sep2000                  

 ----------------------------------------------------------------------------- 
|                                                                             |
|           W    W    AA    RRRRR   N    N  II  N    N   GGGG   !!!           |
|           W    W   A  A   R    R  NN   N  II  NN   N  G    G  !!!           |
|           W    W  A    A  R    R  N N  N  II  N N  N  G       !!!           |
|           W WW W  AAAAAA  RRRRR   N  N N  II  N  N N  G  GGG   !            |
|           WW  WW  A    A  R   R   N   NN  II  N   NN  G    G                |
|           W    W  A    A  R    R  N    N  II  N    N   GGGG   !!!           |
|                                                                             |
|      For optimal performance we recommend to set                            |
|        NCORE= 4 - approx SQRT( number of cores)                             |
|      NCORE specifies how many cores store one orbital (NPAR=cpu/NCORE).     |
|      This setting can  greatly improve the performance of VASP for DFT.     |
|      The default,   NCORE=1            might be grossly inefficient         |
|      on modern multi-core architectures or massively parallel machines.     |
|      Do your own testing !!!!                                               |
|      Unfortunately you need to use the default for GW and RPA calculations. |
|      (for HF NCORE is supported but not extensively tested yet)             |
|                                                                             |
 ----------------------------------------------------------------------------- 

 POTCAR:    PAW_PBE Ni 02Aug2007                  
   VRHFIN =Ni:                                                                  
   LEXCH  = PE                                                                  
   EATOM  =  1077.6739 eV,   79.2068 Ry                                         
                                                                                
   TITEL  = PAW_PBE Ni 02Aug2007                                                
   LULTRA =        F    use ultrasoft PP ?                                      
   IUNSCR =        1    unscreen: 0-lin 1-nonlin 2-no                           
   RPACOR =    2.000    partial core radius                                     
   POMASS =   58.690; ZVAL   =   10.000    mass and valenz                      
   RCORE  =    2.300    outmost cutoff radius                                   
   RWIGS  =    2.430; RWIGS  =    1.286    wigner-seitz radius (au A)           
   ENMAX  =  269.532; ENMIN  =  202.149 eV                                      
   RCLOC  =    1.201    cutoff for local pot                                    
   LCOR   =        T    correct aug charges                                     
   LPAW   =        T    paw PP                                                  
   EAUG   =  544.565                                                            
   DEXC   =    0.000                                                            
   RMAX   =    2.357    core radius for proj-oper                               
   RAUG   =    1.300    factor for augmentation sphere                          
   RDEP   =    2.390    radius for radial grids                                 
   RDEPT  =    1.838    core radius for aug-charge                              
                                                                                
   Atomic configuration                                                         
    9 entries                                                                   
     n  l   j            E        occ.                                          
     1  0  0.50     -8206.4253   2.0000                                         
     2  0  0.50      -976.1748   2.0000                                         
     2  1  1.50      -839.0571   6.0000                                         
     3  0  0.50      -105.9991   2.0000                                         
     3  1  1.50       -66.4603   6.0000                                         
     3  2  2.50        -4.6458   9.0000                                         
     4  0  0.50        -4.4926   1.0000                                         
     4  1  1.50        -4.0817   0.0000                                         
     4  3  2.50        -1.3606   0.0000                                         
   Description                                                                  
     l       E           TYP  RCUT    TYP  RCUT                                 
     2     -4.6457903     23  2.300                                             
     2     -6.0063729     23  2.300                                             
     0     -4.4925590     23  2.300                                             
     0      5.0102601     23  2.300                                             
     1     -2.7211652     23  2.300                                             
     1     16.5183231     23  2.300                                             
  local pseudopotential read in
  partial core-charges read in
  partial kinetic energy density read in
  atomic valenz-charges read in
  non local Contribution for L=           2  read in
    real space projection operators read in
  non local Contribution for L=           2  read in
    real space projection operators read in
  non local Contribution for L=           0  read in
    real space projection operators read in
  non local Contribution for L=           0  read in
    real space projection operators read in
  non local Contribution for L=           1  read in
    real space projection operators read in
  non local Contribution for L=           1  read in
    real space projection operators read in
    PAW grid and wavefunctions read in
 
   number of l-projection  operators is LMAX  =           6
   number of lm-projection operators is LMMAX =          18
 
 POTCAR:    PAW_PBE Fe 06Sep2000                  
   VRHFIN =Fe:  d7 s1                                                           
   LEXCH  = PE                                                                  
   EATOM  =   594.3153 eV,   43.6809 Ry                                         
                                                                                
   TITEL  = PAW_PBE Fe 06Sep2000                                                
   LULTRA =        F    use ultrasoft PP ?                                      
   IUNSCR =        1    unscreen: 0-lin 1-nonlin 2-no                           
   RPACOR =    2.000    partial core radius                                     
   POMASS =   55.847; ZVAL   =    8.000    mass and valenz                      
   RCORE  =    2.300    outmost cutoff radius                                   
   RWIGS  =    2.460; RWIGS  =    1.302    wigner-seitz radius (au A)           
   ENMAX  =  267.882; ENMIN  =  200.911 eV                                      
   RCLOC  =    1.701    cutoff for local pot                                    
   LCOR   =        T    correct aug charges                                     
   LPAW   =        T    paw PP                                                  
   EAUG   =  511.368                                                            
   DEXC   =    0.000                                                            
   RMAX   =    2.356    core radius for proj-oper                               
   RAUG   =    1.300    factor for augmentation sphere                          
   RDEP   =    2.442    radius for radial grids                                 
   RDEPT  =    1.890    core radius for aug-charge                              
                                                                                
   Atomic configuration                                                         
    9 entries                                                                   
     n  l   j            E        occ.                                          
     1  0  0.50     -6993.8440   2.0000                                         
     2  0  0.50      -814.6047   2.0000                                         
     2  1  1.50      -693.3689   6.0000                                         
     3  0  0.50       -89.4732   2.0000                                         
     3  1  1.50       -55.6373   6.0000                                         
     3  2  2.50        -3.8151   7.0000                                         
     4  0  0.50        -4.2551   1.0000                                         
     4  1  1.50        -3.4015   0.0000                                         
     4  3  2.50        -1.3606   0.0000                                         
   Description                                                                  
     l       E           TYP  RCUT    TYP  RCUT                                 
     2     -3.8151135     23  2.300                                             
     2     -5.1756961     23  2.300                                             
     0     -4.2550963     23  2.300                                             
     0      7.2035603     23  2.300                                             
     1     -2.7211652     23  2.300                                             
     1     18.4316424     23  2.300                                             
  local pseudopotential read in
  partial core-charges read in
  partial kinetic energy density read in
  atomic valenz-charges read in
  non local Contribution for L=           2  read in
    real space projection operators read in
  non local Contribution for L=           2  read in
    real space projection operators read in
  non local Contribution for L=           0  read in
    real space projection operators read in
  non local Contribution for L=           0  read in
    real space projection operators read in
  non local Contribution for L=           1  read in
    real space projection operators read in
  non local Contribution for L=           1  read in
    real space projection operators read in
    PAW grid and wavefunctions read in
 
   number of l-projection  operators is LMAX  =           6
   number of lm-projection operators is LMMAX =          18
 
 Optimization of the real space projectors (new method)

 maximal supplied QI-value         = 16.25
 optimisation between [QCUT,QGAM] = [ 11.54, 23.24] = [ 37.28,151.24] Ry 
 Optimized for a Real-space Cutoff    1.45 Angstroem

   l    n(q)    QCUT    max X(q) W(low)/X(q) W(high)/X(q)  e(spline) 
   2      9    11.539    60.317    0.19E-03    0.47E-04    0.16E-06
   2      9    11.539    55.921    0.19E-03    0.48E-04    0.16E-06
   0     10    11.539    51.690    0.80E-04    0.50E-04    0.24E-06
   0     10    11.539    30.015    0.73E-04    0.45E-04    0.22E-06
   1     10    11.539    18.849    0.87E-04    0.16E-03    0.71E-07
   1     10    11.539    14.624    0.73E-04    0.13E-03    0.64E-07
 Optimization of the real space projectors (new method)

 maximal supplied QI-value         = 16.25
 optimisation between [QCUT,QGAM] = [ 11.54, 23.24] = [ 37.28,151.24] Ry 
 Optimized for a Real-space Cutoff    1.53 Angstroem

   l    n(q)    QCUT    max X(q) W(low)/X(q) W(high)/X(q)  e(spline) 
   2     10    11.539    80.901    0.11E-03    0.14E-03    0.21E-06
   2     10    11.539    75.754    0.11E-03    0.14E-03    0.22E-06
   0     11    11.539    58.752    0.52E-04    0.18E-04    0.33E-06
   0     11    11.539    30.679    0.44E-04    0.16E-04    0.30E-06
   1     10    11.539    17.977    0.53E-04    0.29E-04    0.13E-06
   1     10    11.539    13.559    0.44E-04    0.25E-04    0.11E-06
  PAW_PBE Ni 02Aug2007                  :
 energy of atom  1       EATOM=-1077.6739
 kinetic energy error for atom=    0.0030 (will be added to EATOM!!)
  PAW_PBE Fe 06Sep2000                  :
 energy of atom  2       EATOM= -594.3153
 kinetic energy error for atom=    0.0026 (will be added to EATOM!!)
 
 
 POSCAR: POSCAR                                  
  positions in direct lattice
  velocities in cartesian coordinates
 exchange correlation table for  LEXCH =        8
   RHO(1)=    0.500       N(1)  =     2000
   RHO(2)=  100.500       N(2)  =     4000
 


--------------------------------------------------------------------------------------------------------


 ion  position               nearest neighbor table
   1  0.999  0.001  0.500-  18 2.49   5 2.50  19 2.50  14 2.50   2 2.50   7 2.50  25 2.50   6 2.50
                            23 2.50  10 2.51   3 2.51  12 2.52
   2  0.002  0.249  0.751-  32 2.48  28 2.50  27 2.50   1 2.50  20 2.51   7 2.51  10 2.51  11 2.51
                            19 2.52   4 2.52  25 2.53  26 2.54
   3  0.998  0.251  0.249-  28 2.48   4 2.49  18 2.49  32 2.50  22 2.50  11 2.51   6 2.51  19 2.51
                             1 2.51  13 2.51   7 2.51  26 2.52
   4  0.999  0.498  0.499-  27 2.45  19 2.49   3 2.49  12 2.49  20 2.50  23 2.50   7 2.50  14 2.51
                            13 2.51   2 2.52  22 2.52   5 2.54
   5  0.998  0.753  0.750-  26 2.47  27 2.48  10 2.49  23 2.49   1 2.50  20 2.50  14 2.50  25 2.51
                            11 2.51  24 2.51  21 2.53   4 2.54
   6  0.249  0.002  0.250-  28 2.49   7 2.49  26 2.49  31 2.50  29 2.50   1 2.50   3 2.51  15 2.51
                            14 2.51  21 2.51  12 2.52   8 2.53
   7  0.250  0.250  0.499-  29 2.46   6 2.49   9 2.49  27 2.49  13 2.50  25 2.50   4 2.50   1 2.50
                             2 2.51   3 2.51   8 2.53  16 2.53
   8  0.502  0.998  0.501-  29 2.45  31 2.45  25 2.47  10 2.49  23 2.50  17 2.51  18 2.51  19 2.51
                             9 2.51  14 2.51   6 2.53   7 2.53
   9  0.498  0.252  0.748-  30 2.48   7 2.49  16 2.49  25 2.50  19 2.50  15 2.51   8 2.51  20 2.52
                            10 2.52  32 2.52  28 2.54  27 2.54
  10  0.749  0.000  0.751-  32 2.48   5 2.49   8 2.49  15 2.50  19 2.50  17 2.51   1 2.51  24 2.51
                             2 2.51  23 2.52  26 2.52   9 2.52
  11  0.001  0.502  1.000-  28 2.49  12 2.49  21 2.50  20 2.50   3 2.51  13 2.51  32 2.51   5 2.51
                            24 2.51   2 2.51  22 2.51  27 2.52
  12  1.000  0.748  0.251-  26 2.47  14 2.49   4 2.49  11 2.49  23 2.49  18 2.51  13 2.51  22 2.51
                            21 2.51   1 2.52   6 2.52  24 2.52
  13  0.252  0.499  0.250-  28 2.48  21 2.50   7 2.50  11 2.51  12 2.51  16 2.51   4 2.51   3 2.51
                            14 2.52  29 2.52  31 2.53  30 2.53
  14  0.248  0.751  0.500-  27 2.44  25 2.46  12 2.49  31 2.50   1 2.50   5 2.50   4 2.51   6 2.51
                             8 2.51  13 2.52  16 2.52  17 2.53
  15  0.500  0.003  0.000-  10 2.50  32 2.50  28 2.51   6 2.51   9 2.51  25 2.51  24 2.52  21 2.52
                            31 2.52  18 2.52  29 2.53  17 2.53
  16  0.502  0.502  0.501-  29 2.48  17 2.49  23 2.49   9 2.49  27 2.50  22 2.50  31 2.50  19 2.50
                            20 2.51  13 2.51  14 2.52   7 2.53
  17  0.501  0.748  0.751-  30 2.47  24 2.48  25 2.49  16 2.49  20 2.51   8 2.51  21 2.51  10 2.51
                            27 2.51  23 2.51  14 2.53  15 2.53
  18  0.752  0.000  0.250-  26 2.48   1 2.49   3 2.49  29 2.49  31 2.50  12 2.51  23 2.51   8 2.51
                            24 2.51  19 2.51  15 2.52  32 2.52
  19  0.750  0.250  0.501-  29 2.45   4 2.49  20 2.49   1 2.50   9 2.50  16 2.50  10 2.50   3 2.51
                             8 2.51  18 2.51   2 2.52  22 2.52
  20  0.753  0.500  0.750-  30 2.49  32 2.49  19 2.49   4 2.50  11 2.50   5 2.50  23 2.50  17 2.51
                             2 2.51  16 2.51  24 2.51   9 2.52
  21  0.252  0.749  0.001-  26 2.49  11 2.50  13 2.50  30 2.50  17 2.51  31 2.51  12 2.51   6 2.51
                            15 2.52  25 2.53  27 2.53   5 2.53
  22  0.748  0.499  0.248-  24 2.49  16 2.50   3 2.50  30 2.50  29 2.50  12 2.51  32 2.51  11 2.51
                            23 2.52  19 2.52   4 2.52  31 2.53
  23  0.751  0.749  0.500-   5 2.49  16 2.49  12 2.49  31 2.49   8 2.50   4 2.50  20 2.50   1 2.50
                            18 2.51  17 2.51  10 2.52  22 2.52
  24  0.747  0.749  0.000-  30 2.48  17 2.48  26 2.49  22 2.49  20 2.51  11 2.51  18 2.51   5 2.51
                            10 2.51  31 2.52  15 2.52  12 2.52
  25  0.254  0.997  0.745-  14 2.46   8 2.47  17 2.49   7 2.50   9 2.50   1 2.50   5 2.51  15 2.51
                             2 2.53  21 2.53  26 2.57  28 2.57
  26  0.999  0.993  0.003-  12 2.47   5 2.47  18 2.48  24 2.49   6 2.49  21 2.49  10 2.52  32 2.52
                             3 2.52  28 2.54   2 2.54  25 2.57
  27  0.245  0.505  0.741-  14 2.44   4 2.45   5 2.48   7 2.49  16 2.50   2 2.50  17 2.51  11 2.52
                            21 2.53   9 2.54  30 2.56  28 2.58
  28  0.247  0.251  0.003-  13 2.48   3 2.48   6 2.49  11 2.49   2 2.50  15 2.51  30 2.52   9 2.54
                            26 2.54  29 2.56  25 2.57  27 2.58
  29  0.501  0.247  0.261-   8 2.45  19 2.45   7 2.46  16 2.48  18 2.49   6 2.50  22 2.50  13 2.52
                            15 2.53  28 2.56  32 2.59  30 2.60
  30  0.502  0.500  0.995-  17 2.47  24 2.48   9 2.48  20 2.49  22 2.50  21 2.50  32 2.52  28 2.52
                            13 2.53  27 2.56  31 2.58  29 2.60
  31  0.500  0.755  0.254-   8 2.45  23 2.49   6 2.50  18 2.50  14 2.50  16 2.50  21 2.51  24 2.52
                            15 2.52  13 2.53  22 2.53  30 2.58
  32  0.753  0.249  0.996-   2 2.48  10 2.48  20 2.49   3 2.50  15 2.50  11 2.51  22 2.51  30 2.52
                            26 2.52  18 2.52   9 2.52  29 2.59
 

IMPORTANT INFORMATION: All symmetrisations will be switched off!
NOSYMM: (Re-)initialisation of all symmetry stuff for point group C_1.

 
 

Automatic generation of k-mesh.
 generate k-points for:    5    5    5
Space group operators:
 irot       det(A)        alpha          n_x          n_y          n_z        tau_x        tau_y        tau_z
    1     1.000000     0.000001     1.000000     0.000000     0.000000     0.000000     0.000000     0.000000
 
 Subroutine IBZKPT returns following result:
 ===========================================
 
 Found     63 irreducible k-points:
 
 Following reciprocal coordinates:
            Coordinates               Weight
  0.000000  0.000000  0.000000      1.000000
  0.200000  0.000000  0.000000      2.000000
  0.400000  0.000000  0.000000      2.000000
  0.000000  0.200000  0.000000      2.000000
  0.200000  0.200000  0.000000      2.000000
  0.400000  0.200000  0.000000      2.000000
 -0.400000  0.200000  0.000000      2.000000
 -0.200000  0.200000  0.000000      2.000000
  0.000000  0.400000  0.000000      2.000000
  0.200000  0.400000  0.000000      2.000000
  0.400000  0.400000  0.000000      2.000000
 -0.400000  0.400000  0.000000      2.000000
 -0.200000  0.400000  0.000000      2.000000
  0.000000  0.000000  0.200000      2.000000
  0.200000  0.000000  0.200000      2.000000
  0.400000  0.000000  0.200000      2.000000
 -0.400000  0.000000  0.200000      2.000000
 -0.200000  0.000000  0.200000      2.000000
  0.000000  0.200000  0.200000      2.000000
  0.200000  0.200000  0.200000      2.000000
  0.400000  0.200000  0.200000      2.000000
 -0.400000  0.200000  0.200000      2.000000
 -0.200000  0.200000  0.200000      2.000000
  0.000000  0.400000  0.200000      2.000000
  0.200000  0.400000  0.200000      2.000000
  0.400000  0.400000  0.200000      2.000000
 -0.400000  0.400000  0.200000      2.000000
 -0.200000  0.400000  0.200000      2.000000
  0.000000 -0.400000  0.200000      2.000000
  0.200000 -0.400000  0.200000      2.000000
  0.400000 -0.400000  0.200000      2.000000
 -0.400000 -0.400000  0.200000      2.000000
 -0.200000 -0.400000  0.200000      2.000000
  0.000000 -0.200000  0.200000      2.000000
  0.200000 -0.200000  0.200000      2.000000
  0.400000 -0.200000  0.200000      2.000000
 -0.400000 -0.200000  0.200000      2.000000
 -0.200000 -0.200000  0.200000      2.000000
  0.000000  0.000000  0.400000      2.000000
  0.200000  0.000000  0.400000      2.000000
  0.400000  0.000000  0.400000      2.000000
 -0.400000  0.000000  0.400000      2.000000
 -0.200000  0.000000  0.400000      2.000000
  0.000000  0.200000  0.400000      2.000000
  0.200000  0.200000  0.400000      2.000000
  0.400000  0.200000  0.400000      2.000000
 -0.400000  0.200000  0.400000      2.000000
 -0.200000  0.200000  0.400000      2.000000
  0.000000  0.400000  0.400000      2.000000
  0.200000  0.400000  0.400000      2.000000
  0.400000  0.400000  0.400000      2.000000
 -0.400000  0.400000  0.400000      2.000000
 -0.200000  0.400000  0.400000      2.000000
  0.000000 -0.400000  0.400000      2.000000
  0.200000 -0.400000  0.400000      2.000000
  0.400000 -0.400000  0.400000      2.000000
 -0.400000 -0.400000  0.400000      2.000000
 -0.200000 -0.400000  0.400000      2.000000
  0.000000 -0.200000  0.400000      2.000000
  0.200000 -0.200000  0.400000      2.000000
  0.400000 -0.200000  0.400000      2.000000
 -0.400000 -0.200000  0.400000      2.000000
 -0.200000 -0.200000  0.400000      2.000000
 
 Following cartesian coordinates:
            Coordinates               Weight
  0.000000  0.000000  0.000000      1.000000
  0.100000  0.000000  0.000000      2.000000
  0.200000  0.000000  0.000000      2.000000
  0.000000  0.100000  0.000000      2.000000
  0.100000  0.100000  0.000000      2.000000
  0.200000  0.100000  0.000000      2.000000
 -0.200000  0.100000  0.000000      2.000000
 -0.100000  0.100000  0.000000      2.000000
  0.000000  0.200000  0.000000      2.000000
  0.100000  0.200000  0.000000      2.000000
  0.200000  0.200000  0.000000      2.000000
 -0.200000  0.200000  0.000000      2.000000
 -0.100000  0.200000  0.000000      2.000000
  0.000000  0.000000  0.100000      2.000000
  0.100000  0.000000  0.100000      2.000000
  0.200000  0.000000  0.100000      2.000000
 -0.200000  0.000000  0.100000      2.000000
 -0.100000  0.000000  0.100000      2.000000
  0.000000  0.100000  0.100000      2.000000
  0.100000  0.100000  0.100000      2.000000
  0.200000  0.100000  0.100000      2.000000
 -0.200000  0.100000  0.100000      2.000000
 -0.100000  0.100000  0.100000      2.000000
  0.000000  0.200000  0.100000      2.000000
  0.100000  0.200000  0.100000      2.000000
  0.200000  0.200000  0.100000      2.000000
 -0.200000  0.200000  0.100000      2.000000
 -0.100000  0.200000  0.100000      2.000000
  0.000000 -0.200000  0.100000      2.000000
  0.100000 -0.200000  0.100000      2.000000
  0.200000 -0.200000  0.100000      2.000000
 -0.200000 -0.200000  0.100000      2.000000
 -0.100000 -0.200000  0.100000      2.000000
  0.000000 -0.100000  0.100000      2.000000
  0.100000 -0.100000  0.100000      2.000000
  0.200000 -0.100000  0.100000      2.000000
 -0.200000 -0.100000  0.100000      2.000000
 -0.100000 -0.100000  0.100000      2.000000
  0.000000  0.000000  0.200000      2.000000
  0.100000  0.000000  0.200000      2.000000
  0.200000  0.000000  0.200000      2.000000
 -0.200000  0.000000  0.200000      2.000000
 -0.100000  0.000000  0.200000      2.000000
  0.000000  0.100000  0.200000      2.000000
  0.100000  0.100000  0.200000      2.000000
  0.200000  0.100000  0.200000      2.000000
 -0.200000  0.100000  0.200000      2.000000
 -0.100000  0.100000  0.200000      2.000000
  0.000000  0.200000  0.200000      2.000000
  0.100000  0.200000  0.200000      2.000000
  0.200000  0.200000  0.200000      2.000000
 -0.200000  0.200000  0.200000      2.000000
 -0.100000  0.200000  0.200000      2.000000
  0.000000 -0.200000  0.200000      2.000000
  0.100000 -0.200000  0.200000      2.000000
  0.200000 -0.200000  0.200000      2.000000
 -0.200000 -0.200000  0.200000      2.000000
 -0.100000 -0.200000  0.200000      2.000000
  0.000000 -0.100000  0.200000      2.000000
  0.100000 -0.100000  0.200000      2.000000
  0.200000 -0.100000  0.200000      2.000000
 -0.200000 -0.100000  0.200000      2.000000
 -0.100000 -0.100000  0.200000      2.000000
 
 TETIRR: Found    372 inequivalent tetrahedra from      750


--------------------------------------------------------------------------------------------------------




 Dimension of arrays:
   k-points           NKPTS =     63   k-points in BZ     NKDIM =     63   number of bands    NBANDS=    207
   number of dos      NEDOS =    301   number of ions     NIONS =     32
   non local maximal  LDIM  =      6   non local SUM 2l+1 LMDIM =     18
   total plane-waves  NPLWV = 157464
   max r-space proj   IRMAX =   6728   max aug-charges    IRDMAX=  15936
   dimension x,y,z NGX =    54 NGY =   54 NGZ =   54
   dimension x,y,z NGXF=   108 NGYF=  108 NGZF=  108
   support grid    NGXF=   108 NGYF=  108 NGZF=  108
   ions per type =              24   8
   NGX,Y,Z   is equivalent  to a cutoff of  12.66, 12.66, 12.66 a.u.
   NGXF,Y,Z  is equivalent  to a cutoff of  25.32, 25.32, 25.32 a.u.

 SYSTEM =  SQS-NiFe                                
 POSCAR =  POSCAR                                  

 Startparameter for this run:
   NWRITE =      2    write-flag & timer
   PREC   = accura    normal or accurate (medium, high low for compatibility)
   ISTART =      0    job   : 0-new  1-cont  2-samecut
   ICHARG =     11    charge: 1-file 2-atom 10-const
   ISPIN  =      2    spin polarized calculation?
   LNONCOLLINEAR =      F non collinear calculations
   LSORBIT =      F    spin-orbit coupling
   INIWAV =      1    electr: 0-lowe 1-rand  2-diag
   LASPH  =      F    aspherical Exc in radial PAW
   METAGGA=      F    non-selfconsistent MetaGGA calc.

 Electronic Relaxation 1
   ENCUT  =  520.0 eV  38.22 Ry    6.18 a.u.  13.18 13.18 13.18*2*pi/ulx,y,z
   ENINI  =  520.0     initial cutoff
   ENAUG  =  544.6 eV  augmentation charge cutoff
   NELM   =    200;   NELMIN=  2; NELMDL= -5     # of ELM steps 
   EDIFF  = 0.1E-05   stopping-criterion for ELM
   LREAL  =      T    real-space projection
   NLSPLINE    = F    spline interpolate recip. space projectors
   LCOMPAT=      F    compatible to vasp.4.4
   GGA_COMPAT  = T    GGA compatible to vasp.4.4-vasp.4.6
   LMAXPAW     = -100 max onsite density
   LMAXMIX     =    2 max onsite mixed and CHGCAR
   VOSKOWN=      0    Vosko Wilk Nusair interpolation
   ROPT   =   -0.00025  -0.00025
 Ionic relaxation
   EDIFFG = -.2E-01   stopping-criterion for IOM
   NSW    =      0    number of steps for IOM
   NBLOCK =      1;   KBLOCK =      1    inner block; outer block 
   IBRION =     -1    ionic relax: 0-MD 1-quasi-New 2-CG
   NFREE  =      0    steps in history (QN), initial steepest desc. (CG)
   ISIF   =      2    stress and relaxation
   IWAVPR =     10    prediction:  0-non 1-charg 2-wave 3-comb
   ISYM   =      0    0-nonsym 1-usesym 2-fastsym
   LCORR  =      T    Harris-Foulkes like correction to forces

   POTIM  = 0.5000    time-step for ionic-motion
   TEIN   =    0.0    initial temperature
   TEBEG  =    0.0;   TEEND  =   0.0 temperature during run
   SMASS  =  -3.00    Nose mass-parameter (am)
   estimated Nose-frequenzy (Omega)   =  0.10E-29 period in steps =****** mass=  -0.115E-26a.u.
   SCALEE = 1.0000    scale energy and forces
   NPACO  =    256;   APACO  = 16.0  distance and # of slots for P.C.
   PSTRESS=    0.0 pullay stress

  Mass of Ions in am
   POMASS =  58.69 55.85
  Ionic Valenz
   ZVAL   =  10.00  8.00
  Atomic Wigner-Seitz radii
   RWIGS  =  -1.00 -1.00
  virtual crystal weights 
   VCA    =   1.00  1.00
   NELECT =     304.0000    total number of electrons
   NUPDOWN=      -1.0000    fix difference up-down

 DOS related values:
   EMIN   =  10.00;   EMAX   =-10.00  energy-range for DOS
   EFERMI =   0.00
   ISMEAR =    -5;   SIGMA  =   0.20  broadening in eV -4-tet -1-fermi 0-gaus

 Electronic relaxation 2 (details)
   IALGO  =     68    algorithm
   LDIAG  =      T    sub-space diagonalisation (order eigenvalues)
   LSUBROT=      F    optimize rotation matrix (better conditioning)
   TURBO    =      0    0=normal 1=particle mesh
   IRESTART =      0    0=no restart 2=restart with 2 vectors
   NREBOOT  =      0    no. of reboots
   NMIN     =      0    reboot dimension
   EREF     =   0.00    reference energy to select bands
   IMIX   =      4    mixing-type and parameters
     AMIX     =   0.40;   BMIX     =  1.00
     AMIX_MAG =   1.60;   BMIX_MAG =  1.00
     AMIN     =   0.10
     WC   =   100.;   INIMIX=   1;  MIXPRE=   1;  MAXMIX= -45

 Intra band minimization:
   WEIMIN = 0.0000     energy-eigenvalue tresh-hold
   EBREAK =  0.12E-08  absolut break condition
   DEPER  =   0.30     relativ break condition  

   TIME   =   0.40     timestep for ELM

  volume/ion in A,a.u.               =      11.14        75.16
  Fermi-wavevector in a.u.,A,eV,Ry     =   1.552577  2.933945 32.796776  2.410495
  Thomas-Fermi vector in A             =   2.656932
 
 Write flags
   LWAVE        =      F    write WAVECAR
   LDOWNSAMPLE  =      F    k-point downsampling of WAVECAR
   LCHARG       =      F    write CHGCAR
   LVTOT        =      F    write LOCPOT, total local potential
   LVHAR        =      F    write LOCPOT, Hartree potential only
   LELF         =      F    write electronic localiz. function (ELF)
   LORBIT       =     11    0 simple, 1 ext, 2 COOP (PROOUT), +10 PAW based schemes


 Dipole corrections
   LMONO  =      F    monopole corrections only (constant potential shift)
   LDIPOL =      F    correct potential (dipole corrections)
   IDIPOL =      0    1-x, 2-y, 3-z, 4-all directions 
   EPSILON=  1.0000000 bulk dielectric constant

 Exchange correlation treatment:
   GGA     =    --    GGA type
   LEXCH   =     8    internal setting for exchange type
   VOSKOWN=      0    Vosko Wilk Nusair interpolation
   LHFCALC =     F    Hartree Fock is set to
   LHFONE  =     F    Hartree Fock one center treatment
   AEXX    =    0.0000 exact exchange contribution

 Linear response parameters
   LEPSILON=     F    determine dielectric tensor
   LRPA    =     F    only Hartree local field effects (RPA)
   LNABLA  =     F    use nabla operator in PAW spheres
   LVEL    =     F    velocity operator in full k-point grid
   LINTERFAST=   F  fast interpolation
   KINTER  =     0    interpolate to denser k-point grid
   CSHIFT  =0.1000    complex shift for real part using Kramers Kronig
   OMEGAMAX=  -1.0    maximum frequency
   DEG_THRESHOLD= 0.2000000E-02 threshold for treating states as degnerate
   RTIME   =   -0.100 relaxation time in fs
  (WPLASMAI=    0.000 imaginary part of plasma frequency in eV, 0.658/RTIME)
   DFIELD  = 0.0000000 0.0000000 0.0000000 field for delta impulse in time
 
 Orbital magnetization related:
   ORBITALMAG=     F  switch on orbital magnetization
   LCHIMAG   =     F  perturbation theory with respect to B field
   DQ        =  0.001000  dq finite difference perturbation B field
   LLRAUG    =     F  two centre corrections for induced B field



--------------------------------------------------------------------------------------------------------


 Static calculation
 charge density and potential remain constant during run
 spin polarized calculation
 RMM-DIIS sequential band-by-band and
  variant of blocked Davidson during initial phase
 perform sub-space diagonalisation
    before iterative eigenvector-optimisation
 no mixing
 using additional bands           55
 real space projection scheme for non local part
 use partial core corrections
 calculate Harris-corrections to forces 
   (improved forces if not selfconsistent)
 use gradient corrections 
 WARNING: stress and forces are not correct
  (second derivative of E(xc) not defined)
 use of overlap-Matrix (Vanderbilt PP)
 Fermi weights with tetrahedron method with Bloechl corrections


--------------------------------------------------------------------------------------------------------


  energy-cutoff  :      520.00
  volume of cell :      356.40
      direct lattice vectors                 reciprocal lattice vectors
     7.090000000  0.000000000  0.000000000     0.141043724  0.000000000  0.000000000
     0.000000000  7.090000000  0.000000000     0.000000000  0.141043724  0.000000000
     0.000000000  0.000000000  7.090000000     0.000000000  0.000000000  0.141043724

  length of vectors
     7.090000000  7.090000000  7.090000000     0.141043724  0.141043724  0.141043724


 
 k-points in units of 2pi/SCALE and weight: read from INCAR                         
   0.00000000  0.00000000  0.00000000       0.008
   0.10000000  0.00000000  0.00000000       0.016
   0.20000000  0.00000000  0.00000000       0.016
   0.00000000  0.10000000  0.00000000       0.016
   0.10000000  0.10000000  0.00000000       0.016
   0.20000000  0.10000000  0.00000000       0.016
  -0.20000000  0.10000000  0.00000000       0.016
  -0.10000000  0.10000000  0.00000000       0.016
   0.00000000  0.20000000  0.00000000       0.016
   0.10000000  0.20000000  0.00000000       0.016
   0.20000000  0.20000000  0.00000000       0.016
  -0.20000000  0.20000000  0.00000000       0.016
  -0.10000000  0.20000000  0.00000000       0.016
   0.00000000  0.00000000  0.10000000       0.016
   0.10000000  0.00000000  0.10000000       0.016
   0.20000000  0.00000000  0.10000000       0.016
  -0.20000000  0.00000000  0.10000000       0.016
  -0.10000000  0.00000000  0.10000000       0.016
   0.00000000  0.10000000  0.10000000       0.016
   0.10000000  0.10000000  0.10000000       0.016
   0.20000000  0.10000000  0.10000000       0.016
  -0.20000000  0.10000000  0.10000000       0.016
  -0.10000000  0.10000000  0.10000000       0.016
   0.00000000  0.20000000  0.10000000       0.016
   0.10000000  0.20000000  0.10000000       0.016
   0.20000000  0.20000000  0.10000000       0.016
  -0.20000000  0.20000000  0.10000000       0.016
  -0.10000000  0.20000000  0.10000000       0.016
   0.00000000 -0.20000000  0.10000000       0.016
   0.10000000 -0.20000000  0.10000000       0.016
   0.20000000 -0.20000000  0.10000000       0.016
  -0.20000000 -0.20000000  0.10000000       0.016
  -0.10000000 -0.20000000  0.10000000       0.016
   0.00000000 -0.10000000  0.10000000       0.016
   0.10000000 -0.10000000  0.10000000       0.016
   0.20000000 -0.10000000  0.10000000       0.016
  -0.20000000 -0.10000000  0.10000000       0.016
  -0.10000000 -0.10000000  0.10000000       0.016
   0.00000000  0.00000000  0.20000000       0.016
   0.10000000  0.00000000  0.20000000       0.016
   0.20000000  0.00000000  0.20000000       0.016
  -0.20000000  0.00000000  0.20000000       0.016
  -0.10000000  0.00000000  0.20000000       0.016
   0.00000000  0.10000000  0.20000000       0.016
   0.10000000  0.10000000  0.20000000       0.016
   0.20000000  0.10000000  0.20000000       0.016
  -0.20000000  0.10000000  0.20000000       0.016
  -0.10000000  0.10000000  0.20000000       0.016
   0.00000000  0.20000000  0.20000000       0.016
   0.10000000  0.20000000  0.20000000       0.016
   0.20000000  0.20000000  0.20000000       0.016
  -0.20000000  0.20000000  0.20000000       0.016
  -0.10000000  0.20000000  0.20000000       0.016
   0.00000000 -0.20000000  0.20000000       0.016
   0.10000000 -0.20000000  0.20000000       0.016
   0.20000000 -0.20000000  0.20000000       0.016
  -0.20000000 -0.20000000  0.20000000       0.016
  -0.10000000 -0.20000000  0.20000000       0.016
   0.00000000 -0.10000000  0.20000000       0.016
   0.10000000 -0.10000000  0.20000000       0.016
   0.20000000 -0.10000000  0.20000000       0.016
  -0.20000000 -0.10000000  0.20000000       0.016
  -0.10000000 -0.10000000  0.20000000       0.016
 
 k-points in reciprocal lattice and weights: read from INCAR                         
   0.00000000  0.00000000  0.00000000       0.008
   0.20000000  0.00000000  0.00000000       0.016
   0.40000000  0.00000000  0.00000000       0.016
   0.00000000  0.20000000  0.00000000       0.016
   0.20000000  0.20000000  0.00000000       0.016
   0.40000000  0.20000000  0.00000000       0.016
  -0.40000000  0.20000000  0.00000000       0.016
  -0.20000000  0.20000000  0.00000000       0.016
   0.00000000  0.40000000  0.00000000       0.016
   0.20000000  0.40000000  0.00000000       0.016
   0.40000000  0.40000000  0.00000000       0.016
  -0.40000000  0.40000000  0.00000000       0.016
  -0.20000000  0.40000000  0.00000000       0.016
   0.00000000  0.00000000  0.20000000       0.016
   0.20000000  0.00000000  0.20000000       0.016
   0.40000000  0.00000000  0.20000000       0.016
  -0.40000000  0.00000000  0.20000000       0.016
  -0.20000000  0.00000000  0.20000000       0.016
   0.00000000  0.20000000  0.20000000       0.016
   0.20000000  0.20000000  0.20000000       0.016
   0.40000000  0.20000000  0.20000000       0.016
  -0.40000000  0.20000000  0.20000000       0.016
  -0.20000000  0.20000000  0.20000000       0.016
   0.00000000  0.40000000  0.20000000       0.016
   0.20000000  0.40000000  0.20000000       0.016
   0.40000000  0.40000000  0.20000000       0.016
  -0.40000000  0.40000000  0.20000000       0.016
  -0.20000000  0.40000000  0.20000000       0.016
   0.00000000 -0.40000000  0.20000000       0.016
   0.20000000 -0.40000000  0.20000000       0.016
   0.40000000 -0.40000000  0.20000000       0.016
  -0.40000000 -0.40000000  0.20000000       0.016
  -0.20000000 -0.40000000  0.20000000       0.016
   0.00000000 -0.20000000  0.20000000       0.016
   0.20000000 -0.20000000  0.20000000       0.016
   0.40000000 -0.20000000  0.20000000       0.016
  -0.40000000 -0.20000000  0.20000000       0.016
  -0.20000000 -0.20000000  0.20000000       0.016
   0.00000000  0.00000000  0.40000000       0.016
   0.20000000  0.00000000  0.40000000       0.016
   0.40000000  0.00000000  0.40000000       0.016
  -0.40000000  0.00000000  0.40000000       0.016
  -0.20000000  0.00000000  0.40000000       0.016
   0.00000000  0.20000000  0.40000000       0.016
   0.20000000  0.20000000  0.40000000       0.016
   0.40000000  0.20000000  0.40000000       0.016
  -0.40000000  0.20000000  0.40000000       0.016
  -0.20000000  0.20000000  0.40000000       0.016
   0.00000000  0.40000000  0.40000000       0.016
   0.20000000  0.40000000  0.40000000       0.016
   0.40000000  0.40000000  0.40000000       0.016
  -0.40000000  0.40000000  0.40000000       0.016
  -0.20000000  0.40000000  0.40000000       0.016
   0.00000000 -0.40000000  0.40000000       0.016
   0.20000000 -0.40000000  0.40000000       0.016
   0.40000000 -0.40000000  0.40000000       0.016
  -0.40000000 -0.40000000  0.40000000       0.016
  -0.20000000 -0.40000000  0.40000000       0.016
   0.00000000 -0.20000000  0.40000000       0.016
   0.20000000 -0.20000000  0.40000000       0.016
   0.40000000 -0.20000000  0.40000000       0.016
  -0.40000000 -0.20000000  0.40000000       0.016
  -0.20000000 -0.20000000  0.40000000       0.016
 
 position of ions in fractional coordinates (direct lattice) 
   0.99925219  0.00106413  0.49999431
   0.00198447  0.24886339  0.75124757
   0.99822662  0.25098147  0.24876528
   0.99929299  0.49824742  0.49850243
   0.99811931  0.75281902  0.75015618
   0.24878031  0.00173323  0.25007095
   0.24972513  0.24978074  0.49890999
   0.50170740  0.99800383  0.50084593
   0.49778266  0.25182820  0.74815704
   0.74923602  0.00040043  0.75072485
   0.00104304  0.50175803  0.99976380
   0.99991518  0.74806721  0.25088621
   0.25151760  0.49918293  0.24965148
   0.24762285  0.75071310  0.50023564
   0.49956207  0.00316001  0.00033853
   0.50168298  0.50166246  0.50052541
   0.50142197  0.74800154  0.75086203
   0.75200714  0.00005735  0.25043651
   0.75007652  0.25049656  0.50119609
   0.75267027  0.49957310  0.74964241
   0.25164939  0.74897836  0.00123966
   0.74770914  0.49930984  0.24783189
   0.75145441  0.74928065  0.49998449
   0.74732403  0.74898803  0.00045107
   0.25375534  0.99678775  0.74470151
   0.99875073  0.99331359  0.00308179
   0.24485578  0.50453578  0.74147935
   0.24747241  0.25137350  0.00348506
   0.50138533  0.24685923  0.26095971
   0.50159648  0.49997484  0.99508594
   0.49954024  0.75483547  0.25435584
   0.75288002  0.24936883  0.99643104
 
 position of ions in cartesian coordinates  (Angst):
   7.08469800  0.00754469  3.54495964
   0.01406986  1.76444145  5.32634530
   7.07742672  1.77945862  1.76374586
   7.08498729  3.53257418  3.53438225
   7.07666589  5.33748684  5.31860729
   1.76385236  0.01228860  1.77300304
   1.77055119  1.77094544  3.53727185
   3.55710547  7.07584719  3.55099764
   3.52927907  1.78546191  5.30443341
   5.31208340  0.00283903  5.32263922
   0.00739512  3.55746445  7.08832535
   7.08939861  5.30379653  1.77878325
   1.78325977  3.53920697  1.77002896
   1.75564599  5.32255590  3.54667067
   3.54189511  0.02240450  0.00240019
   3.55693232  3.55678682  3.54872517
   3.55508180  5.30333089  5.32361179
   5.33173059  0.00040663  1.77559487
   5.31804252  1.77602058  3.55348025
   5.33643222  3.54197325  5.31496471
   1.78419419  5.31025655  0.00878922
   5.30125783  3.54010673  1.75712809
   5.32781178  5.31239978  3.54489006
   5.29852736  5.31032517  0.00319811
   1.79912535  7.06722513  5.27993368
   7.08114265  7.04259333  0.02184989
   1.73602745  3.57715868  5.25708857
   1.75457940  1.78223809  0.02470907
   3.55482200  1.75023195  1.85020434
   3.55631904  3.54482160  7.05515928
   3.54174028  5.35178349  1.80338294
   5.33791934  1.76802503  7.06469606
 


--------------------------------------------------------------------------------------------------------


 k-point  1 :   0.0000 0.0000 0.0000  plane waves:    9627
 k-point  2 :   0.2000 0.0000 0.0000  plane waves:    9566
 k-point  3 :   0.4000 0.0000 0.0000  plane waves:    9610
 k-point  4 :   0.0000 0.2000 0.0000  plane waves:    9566
 k-point  5 :   0.2000 0.2000 0.0000  plane waves:    9589
 k-point  6 :   0.4000 0.2000 0.0000  plane waves:    9577
 k-point  7 :  -0.4000 0.2000 0.0000  plane waves:    9577
 k-point  8 :  -0.2000 0.2000 0.0000  plane waves:    9589
 k-point  9 :   0.0000 0.4000 0.0000  plane waves:    9610
 k-point 10 :   0.2000 0.4000 0.0000  plane waves:    9577
 k-point 11 :   0.4000 0.4000 0.0000  plane waves:    9582
 k-point 12 :  -0.4000 0.4000 0.0000  plane waves:    9582
 k-point 13 :  -0.2000 0.4000 0.0000  plane waves:    9577
 k-point 14 :   0.0000 0.0000 0.2000  plane waves:    9566
 k-point 15 :   0.2000 0.0000 0.2000  plane waves:    9589
 k-point 16 :   0.4000 0.0000 0.2000  plane waves:    9577
 k-point 17 :  -0.4000 0.0000 0.2000  plane waves:    9577
 k-point 18 :  -0.2000 0.0000 0.2000  plane waves:    9589
 k-point 19 :   0.0000 0.2000 0.2000  plane waves:    9589
 k-point 20 :   0.2000 0.2000 0.2000  plane waves:    9603
 k-point 21 :   0.4000 0.2000 0.2000  plane waves:    9583
 k-point 22 :  -0.4000 0.2000 0.2000  plane waves:    9583
 k-point 23 :  -0.2000 0.2000 0.2000  plane waves:    9603
 k-point 24 :   0.0000 0.4000 0.2000  plane waves:    9577
 k-point 25 :   0.2000 0.4000 0.2000  plane waves:    9583
 k-point 26 :   0.4000 0.4000 0.2000  plane waves:    9609
 k-point 27 :  -0.4000 0.4000 0.2000  plane waves:    9609
 k-point 28 :  -0.2000 0.4000 0.2000  plane waves:    9583
 k-point 29 :   0.0000-0.4000 0.2000  plane waves:    9577
 k-point 30 :   0.2000-0.4000 0.2000  plane waves:    9583
 k-point 31 :   0.4000-0.4000 0.2000  plane waves:    9609
 k-point 32 :  -0.4000-0.4000 0.2000  plane waves:    9609
 k-point 33 :  -0.2000-0.4000 0.2000  plane waves:    9583
 k-point 34 :   0.0000-0.2000 0.2000  plane waves:    9589
 k-point 35 :   0.2000-0.2000 0.2000  plane waves:    9603
 k-point 36 :   0.4000-0.2000 0.2000  plane waves:    9583
 k-point 37 :  -0.4000-0.2000 0.2000  plane waves:    9583
 k-point 38 :  -0.2000-0.2000 0.2000  plane waves:    9603
 k-point 39 :   0.0000 0.0000 0.4000  plane waves:    9610
 k-point 40 :   0.2000 0.0000 0.4000  plane waves:    9577
 k-point 41 :   0.4000 0.0000 0.4000  plane waves:    9582
 k-point 42 :  -0.4000 0.0000 0.4000  plane waves:    9582
 k-point 43 :  -0.2000 0.0000 0.4000  plane waves:    9577
 k-point 44 :   0.0000 0.2000 0.4000  plane waves:    9577
 k-point 45 :   0.2000 0.2000 0.4000  plane waves:    9583
 k-point 46 :   0.4000 0.2000 0.4000  plane waves:    9609
 k-point 47 :  -0.4000 0.2000 0.4000  plane waves:    9609
 k-point 48 :  -0.2000 0.2000 0.4000  plane waves:    9583
 k-point 49 :   0.0000 0.4000 0.4000  plane waves:    9582
 k-point 50 :   0.2000 0.4000 0.4000  plane waves:    9609
 k-point 51 :   0.4000 0.4000 0.4000  plane waves:    9631
 k-point 52 :  -0.4000 0.4000 0.4000  plane waves:    9631
 k-point 53 :  -0.2000 0.4000 0.4000  plane waves:    9609
 k-point 54 :   0.0000-0.4000 0.4000  plane waves:    9582
 k-point 55 :   0.2000-0.4000 0.4000  plane waves:    9609
 k-point 56 :   0.4000-0.4000 0.4000  plane waves:    9631
 k-point 57 :  -0.4000-0.4000 0.4000  plane waves:    9631
 k-point 58 :  -0.2000-0.4000 0.4000  plane waves:    9609
 k-point 59 :   0.0000-0.2000 0.4000  plane waves:    9577
 k-point 60 :   0.2000-0.2000 0.4000  plane waves:    9583
 k-point 61 :   0.4000-0.2000 0.4000  plane waves:    9609
 k-point 62 :  -0.4000-0.2000 0.4000  plane waves:    9609
 k-point 63 :  -0.2000-0.2000 0.4000  plane waves:    9583

 maximum and minimum number of plane-waves per node :       626      578

 maximum number of plane-waves:      9631
 maximum index in each direction: 
   IXMAX=   13   IYMAX=   13   IZMAX=   13
   IXMIN=  -13   IYMIN=  -13   IZMIN=  -13


 real space projection operators:
  total allocation   :      25578.14 KBytes
  max/ min on nodes  :       1972.55       1278.00


 parallel 3D FFT for wavefunctions:
    minimum data exchange during FFTs selected (reduces bandwidth)
 parallel 3D FFT for charge:
    minimum data exchange during FFTs selected (reduces bandwidth)


 total amount of memory used by VASP MPI-rank0   132724. kBytes
=======================================================================

   base      :      30000. kBytes
   nonlr-proj:       6007. kBytes
   fftplans  :       1484. kBytes
   grid      :       3780. kBytes
   one-center:         62. kBytes
   wavefun   :      91391. kBytes
 
     INWAV:  cpu time    0.0000: real time    0.0002
 initial charge density was supplied:
 number of electron     303.9999867 magnetization      35.4663768
 keeping initial charge density in first step


--------------------------------------------------------------------------------------------------------


 Maximum index for non-local projection operator          731
 Maximum index for augmentation-charges         1045 (set IRDMAX)


--------------------------------------------------------------------------------------------------------


 First call to EWALD:  gamma=   0.250
 Maximum number of real-space cells 3x 3x 3
 Maximum number of reciprocal cells 3x 3x 3

    FEWALD:  cpu time    0.0010: real time    0.0017


--------------------------------------- Iteration      1(   1)  ---------------------------------------


    POTLOK:  cpu time    0.0580: real time    0.1186
    SETDIJ:  cpu time    0.0080: real time    0.0183
     EDDAV:  cpu time   46.0420: real time   92.2282
 BZINTS: Fermi energy: 24.084058;304.000000 electrons
         Band energy:4668.068083;  BLOECHL correction: -0.064288
       DOS:  cpu time    0.3789: real time    0.7588
    --------------------------------------------
      LOOP:  cpu time   46.4869: real time   93.1239

 eigenvalue-minimisations  : 52272
 total energy-change (2. order) : 0.2632450E+04  (-0.1259499E+05)
 number of electron     303.9999867 magnetization      35.4663768
 augmentation part      303.9999867 magnetization      35.4663768

 Free energy of the ion-electron system (eV)
  ---------------------------------------------------
  alpha Z        PSCENC =      1633.54701045
  Ewald energy   TEWEN  =    -26923.96990925
  -Hartree energ DENC   =     -6419.33847167
  -exchange      EXHF   =         0.00000000
  -V(xc)+E(xc)   XCENC  =       774.45098635
  PAW double counting   =     33097.64215033   -34816.55342507
  entropy T*S    EENTRO =         0.00000000
  eigenvalues    EBANDS =      4668.06808275
  atomic energy  EATOM  =     30618.60351129
  Solvation  Ediel_sol  =         0.00000000
  ---------------------------------------------------
  free energy    TOTEN  =      2632.44993517 eV

  energy without entropy =     2632.44993517  energy(sigma->0) =     2632.44993517


--------------------------------------------------------------------------------------------------------




--------------------------------------- Iteration      1(   2)  ---------------------------------------


     EDDAV:  cpu time   46.0810: real time   92.3578
 BZINTS: Fermi energy: 10.597370;304.000000 electrons
         Band energy:2179.424668;  BLOECHL correction: -0.035067
       DOS:  cpu time    0.3469: real time    0.6829
    --------------------------------------------
      LOOP:  cpu time   46.4279: real time   93.0407

 eigenvalue-minimisations  : 52164
 total energy-change (2. order) :-0.2488643E+04  (-0.2359248E+04)
 number of electron     303.9999867 magnetization      35.4663768
 augmentation part      303.9999867 magnetization      35.4663768

 Free energy of the ion-electron system (eV)
  ---------------------------------------------------
  alpha Z        PSCENC =      1633.54701045
  Ewald energy   TEWEN  =    -26923.96990925
  -Hartree energ DENC   =     -6419.33847167
  -exchange      EXHF   =         0.00000000
  -V(xc)+E(xc)   XCENC  =       774.45098635
  PAW double counting   =     33097.64215033   -34816.55342507
  entropy T*S    EENTRO =         0.00000000
  eigenvalues    EBANDS =      2179.42466803
  atomic energy  EATOM  =     30618.60351129
  Solvation  Ediel_sol  =         0.00000000
  ---------------------------------------------------
  free energy    TOTEN  =       143.80652045 eV

  energy without entropy =      143.80652045  energy(sigma->0) =      143.80652045


--------------------------------------------------------------------------------------------------------




--------------------------------------- Iteration      1(   3)  ---------------------------------------


     EDDAV:  cpu time   46.0530: real time   92.2538
 BZINTS: Fermi energy:  8.438937;304.000000 electrons
         Band energy:1854.971051;  BLOECHL correction: -0.131102
       DOS:  cpu time    0.3789: real time    0.7571
    --------------------------------------------
      LOOP:  cpu time   46.4319: real time   93.0110

 eigenvalue-minimisations  : 52164
 total energy-change (2. order) :-0.3244536E+03  (-0.2645613E+03)
 number of electron     303.9999867 magnetization      35.4663768
 augmentation part      303.9999867 magnetization      35.4663768

 Free energy of the ion-electron system (eV)
  ---------------------------------------------------
  alpha Z        PSCENC =      1633.54701045
  Ewald energy   TEWEN  =    -26923.96990925
  -Hartree energ DENC   =     -6419.33847167
  -exchange      EXHF   =         0.00000000
  -V(xc)+E(xc)   XCENC  =       774.45098635
  PAW double counting   =     33097.64215033   -34816.55342507
  entropy T*S    EENTRO =         0.00000000
  eigenvalues    EBANDS =      1854.97105126
  atomic energy  EATOM  =     30618.60351129
  Solvation  Ediel_sol  =         0.00000000
  ---------------------------------------------------
  free energy    TOTEN  =      -180.64709632 eV

  energy without entropy =     -180.64709632  energy(sigma->0) =     -180.64709632


--------------------------------------------------------------------------------------------------------




--------------------------------------- Iteration      1(   4)  ---------------------------------------


     EDDAV:  cpu time   48.1617: real time   96.5086
 BZINTS: Fermi energy:  8.378353;304.000000 electrons
         Band energy:1837.491666;  BLOECHL correction: -0.134480
       DOS:  cpu time    0.3759: real time    0.7554
    --------------------------------------------
      LOOP:  cpu time   48.5376: real time   97.2640

 eigenvalue-minimisations  : 55566
 total energy-change (2. order) :-0.1747939E+02  (-0.1701031E+02)
 number of electron     303.9999867 magnetization      35.4663768
 augmentation part      303.9999867 magnetization      35.4663768

 Free energy of the ion-electron system (eV)
  ---------------------------------------------------
  alpha Z        PSCENC =      1633.54701045
  Ewald energy   TEWEN  =    -26923.96990925
  -Hartree energ DENC   =     -6419.33847167
  -exchange      EXHF   =         0.00000000
  -V(xc)+E(xc)   XCENC  =       774.45098635
  PAW double counting   =     33097.64215033   -34816.55342507
  entropy T*S    EENTRO =         0.00000000
  eigenvalues    EBANDS =      1837.49166599
  atomic energy  EATOM  =     30618.60351129
  Solvation  Ediel_sol  =         0.00000000
  ---------------------------------------------------
  free energy    TOTEN  =      -198.12648158 eV

  energy without entropy =     -198.12648158  energy(sigma->0) =     -198.12648158


--------------------------------------------------------------------------------------------------------




--------------------------------------- Iteration      1(   5)  ---------------------------------------


     EDDAV:  cpu time   55.5955: real time  111.4601
 BZINTS: Fermi energy:  8.377626;304.000000 electrons
         Band energy:1837.249888;  BLOECHL correction: -0.134331
       DOS:  cpu time    0.3529: real time    0.6927
    --------------------------------------------
      LOOP:  cpu time   55.9485: real time  112.1529

 eigenvalue-minimisations  : 66465
 total energy-change (2. order) :-0.2417777E+00  (-0.2416702E+00)
 number of electron     303.9999867 magnetization      35.4663768
 augmentation part      303.9999867 magnetization      35.4663768

 Free energy of the ion-electron system (eV)
  ---------------------------------------------------
  alpha Z        PSCENC =      1633.54701045
  Ewald energy   TEWEN  =    -26923.96990925
  -Hartree energ DENC   =     -6419.33847167
  -exchange      EXHF   =         0.00000000
  -V(xc)+E(xc)   XCENC  =       774.45098635
  PAW double counting   =     33097.64215033   -34816.55342507
  entropy T*S    EENTRO =         0.00000000
  eigenvalues    EBANDS =      1837.24988831
  atomic energy  EATOM  =     30618.60351129
  Solvation  Ediel_sol  =         0.00000000
  ---------------------------------------------------
  free energy    TOTEN  =      -198.36825926 eV

  energy without entropy =     -198.36825926  energy(sigma->0) =     -198.36825926


--------------------------------------------------------------------------------------------------------




--------------------------------------- Iteration      1(   6)  ---------------------------------------


    EDDIAG:  cpu time    6.9909: real time   14.0793
  RMM-DIIS:  cpu time   32.3841: real time   65.4988
    ORTHCH:  cpu time    0.9779: real time    1.9686
 BZINTS: Fermi energy:  8.377596;304.000000 electrons
         Band energy:1837.242212;  BLOECHL correction: -0.134326
       DOS:  cpu time    0.3829: real time    0.7669
    --------------------------------------------
      LOOP:  cpu time   40.7358: real time   82.3136

 eigenvalue-minimisations  : 54234
 total energy-change (2. order) :-0.7675911E-02  (-0.7675479E-02)
 number of electron     303.9999867 magnetization      35.4663768
 augmentation part      303.9999867 magnetization      35.4663768

 Free energy of the ion-electron system (eV)
  ---------------------------------------------------
  alpha Z        PSCENC =      1633.54701045
  Ewald energy   TEWEN  =    -26923.96990925
  -Hartree energ DENC   =     -6419.33847167
  -exchange      EXHF   =         0.00000000
  -V(xc)+E(xc)   XCENC  =       774.45098635
  PAW double counting   =     33097.64215033   -34816.55342507
  entropy T*S    EENTRO =         0.00000000
  eigenvalues    EBANDS =      1837.24221240
  atomic energy  EATOM  =     30618.60351129
  Solvation  Ediel_sol  =         0.00000000
  ---------------------------------------------------
  free energy    TOTEN  =      -198.37593517 eV

  energy without entropy =     -198.37593517  energy(sigma->0) =     -198.37593517


--------------------------------------------------------------------------------------------------------




--------------------------------------- Iteration      1(   7)  ---------------------------------------


    EDDIAG:  cpu time    6.8090: real time   13.6260
  RMM-DIIS:  cpu time   46.5139: real time   93.1949
    ORTHCH:  cpu time    0.9809: real time    1.9620
 BZINTS: Fermi energy:  8.377587;304.000000 electrons
         Band energy:1837.239919;  BLOECHL correction: -0.134324
       DOS:  cpu time    0.3679: real time    0.7378
    --------------------------------------------
      LOOP:  cpu time   54.6717: real time  109.5206

 eigenvalue-minimisations  : 78335
 total energy-change (2. order) :-0.2293047E-02  (-0.2284651E-02)
 number of electron     303.9999867 magnetization      35.4663768
 augmentation part      303.9999867 magnetization      35.4663768

 Free energy of the ion-electron system (eV)
  ---------------------------------------------------
  alpha Z        PSCENC =      1633.54701045
  Ewald energy   TEWEN  =    -26923.96990925
  -Hartree energ DENC   =     -6419.33847167
  -exchange      EXHF   =         0.00000000
  -V(xc)+E(xc)   XCENC  =       774.45098635
  PAW double counting   =     33097.64215033   -34816.55342507
  entropy T*S    EENTRO =         0.00000000
  eigenvalues    EBANDS =      1837.23991936
  atomic energy  EATOM  =     30618.60351129
  Solvation  Ediel_sol  =         0.00000000
  ---------------------------------------------------
  free energy    TOTEN  =      -198.37822822 eV

  energy without entropy =     -198.37822822  energy(sigma->0) =     -198.37822822


--------------------------------------------------------------------------------------------------------




--------------------------------------- Iteration      1(   8)  ---------------------------------------


    EDDIAG:  cpu time    6.7320: real time   13.4685
  RMM-DIIS:  cpu time   43.1794: real time   86.5631
    ORTHCH:  cpu time    0.9838: real time    1.9664
 BZINTS: Fermi energy:  8.377587;304.000000 electrons
         Band energy:1837.239907;  BLOECHL correction: -0.134324
       DOS:  cpu time    0.3609: real time    0.7194
    --------------------------------------------
      LOOP:  cpu time   51.2562: real time  102.7175

 eigenvalue-minimisations  : 72352
 total energy-change (2. order) :-0.1223943E-04  (-0.2600058E-04)
 number of electron     303.9999867 magnetization      35.4663768
 augmentation part      303.9999867 magnetization      35.4663768

 Free energy of the ion-electron system (eV)
  ---------------------------------------------------
  alpha Z        PSCENC =      1633.54701045
  Ewald energy   TEWEN  =    -26923.96990925
  -Hartree energ DENC   =     -6419.33847167
  -exchange      EXHF   =         0.00000000
  -V(xc)+E(xc)   XCENC  =       774.45098635
  PAW double counting   =     33097.64215033   -34816.55342507
  entropy T*S    EENTRO =         0.00000000
  eigenvalues    EBANDS =      1837.23990712
  atomic energy  EATOM  =     30618.60351129
  Solvation  Ediel_sol  =         0.00000000
  ---------------------------------------------------
  free energy    TOTEN  =      -198.37824046 eV

  energy without entropy =     -198.37824046  energy(sigma->0) =     -198.37824046


--------------------------------------------------------------------------------------------------------




--------------------------------------- Iteration      1(   9)  ---------------------------------------


    EDDIAG:  cpu time    6.7370: real time   13.4783
  RMM-DIIS:  cpu time   33.7439: real time   67.7208
    ORTHCH:  cpu time    0.9719: real time    1.9671
 BZINTS: Fermi energy:  8.377587;304.000000 electrons
         Band energy:1837.239904;  BLOECHL correction: -0.134324
       DOS:  cpu time    0.3699: real time    0.7387
    --------------------------------------------
      LOOP:  cpu time   41.8226: real time   83.9048

 eigenvalue-minimisations  : 55805
 total energy-change (2. order) :-0.3016430E-05  (-0.3110462E-05)
 number of electron     303.9999867 magnetization      35.4663768
 augmentation part      303.9999867 magnetization      35.4663768

 Free energy of the ion-electron system (eV)
  ---------------------------------------------------
  alpha Z        PSCENC =      1633.54701045
  Ewald energy   TEWEN  =    -26923.96990925
  -Hartree energ DENC   =     -6419.33847167
  -exchange      EXHF   =         0.00000000
  -V(xc)+E(xc)   XCENC  =       774.45098635
  PAW double counting   =     33097.64215033   -34816.55342507
  entropy T*S    EENTRO =         0.00000000
  eigenvalues    EBANDS =      1837.23990410
  atomic energy  EATOM  =     30618.60351129
  Solvation  Ediel_sol  =         0.00000000
  ---------------------------------------------------
  free energy    TOTEN  =      -198.37824347 eV

  energy without entropy =     -198.37824347  energy(sigma->0) =     -198.37824347


--------------------------------------------------------------------------------------------------------




--------------------------------------- Iteration      1(  10)  ---------------------------------------


    EDDIAG:  cpu time    6.7320: real time   13.6237
  RMM-DIIS:  cpu time   22.2916: real time   44.7501
    ORTHCH:  cpu time    0.9858: real time    1.9741
 BZINTS: Fermi energy:  8.377587;304.000000 electrons
         Band energy:1837.239904;  BLOECHL correction: -0.134324
       DOS:  cpu time    0.3809: real time    0.7597
    --------------------------------------------
      LOOP:  cpu time   30.3904: real time   61.1077

 eigenvalue-minimisations  : 35472
 total energy-change (2. order) :-0.1677181E-06  (-0.1801532E-06)
 number of electron     303.9999867 magnetization      35.4663768
 augmentation part      303.9999867 magnetization      35.4663768

 Free energy of the ion-electron system (eV)
  ---------------------------------------------------
  alpha Z        PSCENC =      1633.54701045
  Ewald energy   TEWEN  =    -26923.96990925
  -Hartree energ DENC   =     -6419.33847167
  -exchange      EXHF   =         0.00000000
  -V(xc)+E(xc)   XCENC  =       774.45098635
  PAW double counting   =     33097.64215033   -34816.55342507
  entropy T*S    EENTRO =         0.00000000
  eigenvalues    EBANDS =      1837.23990393
  atomic energy  EATOM  =     30618.60351129
  Solvation  Ediel_sol  =         0.00000000
  ---------------------------------------------------
  free energy    TOTEN  =      -198.37824364 eV

  energy without entropy =     -198.37824364  energy(sigma->0) =     -198.37824364


--------------------------------------------------------------------------------------------------------




 average (electrostatic) potential at core
  the test charge radii are     0.9791  1.0103
  (the norm of the test charge is              1.0000)
       1 -82.9305       2 -82.9778       3 -82.9183       4 -82.8715       5 -82.9164
       6 -82.9284       7 -82.8998       8 -82.9293       9 -82.9330      10 -82.9212
      11 -82.9616      12 -82.8982      13 -82.9697      14 -82.9640      15 -82.9520
      16 -82.9419      17 -82.9418      18 -82.9326      19 -82.9262      20 -82.8920
      21 -82.9666      22 -82.9689      23 -82.8815      24 -82.9729      25 -41.1837
      26 -41.1583      27 -41.1973      28 -41.0540      29 -41.1761      30 -41.0738
      31 -41.2318      32 -41.1241
 
 
 
 E-fermi :   8.3776     XC(G=0): -13.1408     alpha+bet :-15.5409


 spin component 1

 k-point     1 :       0.0000    0.0000    0.0000
  band No.  band energies     occupation 
      1      -0.4904      1.00000
      2       2.2854      1.00000
      3       2.2911      1.00000
      4       2.3086      1.00000
      5       2.3275      1.00000
      6       2.3635      1.00000
      7       2.3798      1.00000
      8       3.4534      1.00000
      9       3.4599      1.00000
     10       3.4687      1.00000
     11       3.4792      1.00000
     12       3.5177      1.00000
     13       3.5269      1.00000
     14       3.5454      1.00000
     15       3.9967      1.00000
     16       4.0297      1.00000
     17       4.0409      1.00000
     18       4.1008      1.00000
     19       4.1140      1.00000
     20       4.1352      1.00000
     21       4.1453      1.00000
     22       4.1502      1.00000
     23       4.1574      1.00000
     24       4.1667      1.00000
     25       4.1913      1.00000
     26       4.1992      1.00000
     27       4.2232      1.00000
     28       4.2364      1.00000
     29       4.2645      1.00000
     30       4.3378      1.00000
     31       4.3877      1.00000
     32       4.4287      1.00000
     33       4.4452      1.00000
     34       4.5278      1.00000
     35       4.5485      1.00000
     36       4.8480      1.00000
     37       4.8588      1.00000
     38       4.8845      1.00000
     39       4.9099      1.00000
     40       4.9287      1.00000
     41       4.9603      1.00000
     42       5.0850      1.00000
     43       5.1371      1.00000
     44       5.1598      1.00000
     45       5.1809      1.00000
     46       5.1975      1.00000
     47       5.2109      1.00000
     48       5.2165      1.00000
     49       5.2386      1.00000
     50       5.2525      1.00000
     51       5.2653      1.00000
     52       5.2847      1.00000
     53       5.2943      1.00000
     54       5.3093      1.00000
     55       5.3203      1.00000
     56       5.3345      1.00000
     57       5.3483      1.00000
     58       5.3652      1.00000
     59       5.3820      1.00000
     60       5.3932      1.00000
     61       5.4184      1.00000
     62       5.4257      1.00000
     63       5.4365      1.00000
     64       5.4398      1.00000
     65       5.4498      1.00000
     66       5.4526      1.00000
     67       5.4601      1.00000
     68       5.4640      1.00000
     69       5.4769      1.00000
     70       5.5004      1.00000
     71       5.5307      1.00000
     72       5.5484      1.00000
     73       5.5576      1.00000
     74       5.5651      1.00000
     75       5.5815      1.00000
     76       5.5886      1.00000
     77       5.6208      1.00000
     78       5.8677      1.00000
     79       5.8724      1.00000
     80       5.8989      1.00000
     81       5.9042      1.00000
     82       5.9180      1.00000
     83       5.9343      1.00000
     84       5.9534      1.00000
     85       5.9595      1.00000
     86       5.9782      1.00000
     87       5.9826      1.00000
     88       5.9946      1.00000
     89       6.2843      1.00000
     90       6.3057      1.00000
     91       6.3499      1.00000
     92       6.3639      1.00000
     93       6.4075      1.00000
     94       6.4547      1.00000
     95       6.4869      1.00000
     96       6.5192      1.00000
     97       6.5423      1.00000
     98       6.5683      1.00000
     99       6.5987      1.00000
    100       6.6055      1.00000
    101       6.6143      1.00000
    102       6.6236      1.00000
    103       6.6360      1.00000
    104       6.6396      1.00000
    105       6.6648      1.00000
    106       6.6671      1.00000
    107       6.7357      1.00000
    108       6.7603      1.00000
    109       6.7701      1.00000
    110       6.7845      1.00000
    111       6.7962      1.00000
    112       6.8074      1.00000
    113       6.8183      1.00000
    114       6.8259      1.00000
    115       6.8439      1.00000
    116       6.8471      1.00000
    117       6.8596      1.00000
    118       6.8676      1.00000
    119       6.9152      1.00000
    120       6.9255      1.00000
    121       6.9436      1.00000
    122       6.9553      1.00000
    123       6.9747      1.00000
    124       6.9811      1.00000
    125       7.0012      1.00000
    126       7.0091      1.00000
    127       7.0221      1.00000
    128       7.0285      1.00000
    129       7.0392      1.00000
    130       7.0479      1.00000
    131       7.0520      1.00000
    132       7.0584      1.00000
    133       7.0634      1.00000
    134       7.0677      1.00000
    135       7.0722      1.00000
    136       7.0775      1.00000
    137       7.0862      1.00000
    138       7.0966      1.00000
    139       7.3470      1.00000
    140       7.3654      1.00000
    141       7.3853      1.00000
    142       7.3890      1.00000
    143       7.4160      1.00000
    144       7.4218      1.00000
    145       7.7414      1.00000
    146       7.7473      1.00000
    147       7.7560      1.00000
    148       7.7704      1.00000
    149       7.7704      1.00000
    150       7.7760      1.00000
    151       7.7800      1.00000
    152       7.7817      1.00000
    153       7.7849      1.00000
    154       7.7879      1.00000
    155       7.7905      1.00000
    156       7.9353      1.00000
    157       7.9457      1.00000
    158       7.9526      1.00000
    159       7.9595      1.00000
    160       7.9655      1.00000
    161       7.9705      1.00000
    162       7.9708      1.00000
    163       7.9745      1.00000
    164       7.9763      1.00000
    165       7.9818      1.00000
    166       7.9892      1.00000
    167       7.9950      1.00000
    168       8.1204      1.05964
    169       8.1271      1.07843
    170       8.1435      1.04012
    171       8.1606      0.72042
    172       9.3412      0.00000
    173       9.3457      0.00000
    174       9.3493      0.00000
    175       9.3547      0.00000
    176       9.3741      0.00000
    177       9.3772      0.00000
    178       9.3941      0.00000
    179       9.3993      0.00000
    180       9.4011      0.00000
    181       9.4071      0.00000
    182       9.4123      0.00000
    183       9.4151      0.00000
    184      10.8343      0.00000
    185      10.8353      0.00000
    186      10.8409      0.00000
    187      14.1214      0.00000
    188      14.1264      0.00000
    189      14.1285      0.00000
    190      14.1331      0.00000
    191      16.0205      0.00000
    192      16.0406      0.00000
    193      16.0504      0.00000
    194      16.0647      0.00000
    195      16.0658      0.00000
    196      16.0876      0.00000
    197      16.1049      0.00000
    198      16.1218      0.00000
    199      16.1279      0.00000
    200      16.1312      0.00000
    201      16.1552      0.00000
    202      16.1902      0.00000
    203      17.5489      0.00000
    204      17.5614      0.00000
    205      17.5678      0.00000
    206      18.2322      0.00000
    207      18.2657      0.00000

 k-point     2 :       0.2000    0.0000    0.0000
  band No.  band energies     occupation 
      1      -0.3610      1.00000
      2       1.4385      1.00000
      3       2.3932      1.00000
      4       2.4118      1.00000
      5       2.4342      1.00000
      6       2.4648      1.00000
      7       3.0748      1.00000
      8       3.4776      1.00000
      9       3.4864      1.00000
     10       3.5037      1.00000
     11       3.5168      1.00000
     12       3.5481      1.00000
     13       3.5657      1.00000
     14       3.6039      1.00000
     15       3.6500      1.00000
     16       3.6808      1.00000
     17       3.7074      1.00000
     18       3.7222      1.00000
     19       4.0034      1.00000
     20       4.0254      1.00000
     21       4.0445      1.00000
     22       4.0593      1.00000
     23       4.1320      1.00000
     24       4.1491      1.00000
     25       4.1714      1.00000
     26       4.2750      1.00000
     27       4.3131      1.00000
     28       4.4474      1.00000
     29       4.4578      1.00000
     30       4.4836      1.00000
     31       4.5312      1.00000
     32       4.5397      1.00000
     33       4.5622      1.00000
     34       4.5689      1.00000
     35       4.5886      1.00000
     36       4.6705      1.00000
     37       4.7639      1.00000
     38       4.8606      1.00000
     39       4.9176      1.00000
     40       4.9455      1.00000
     41       4.9665      1.00000
     42       5.0186      1.00000
     43       5.0559      1.00000
     44       5.1389      1.00000
     45       5.1499      1.00000
     46       5.1678      1.00000
     47       5.1814      1.00000
     48       5.2000      1.00000
     49       5.2045      1.00000
     50       5.2164      1.00000
     51       5.2407      1.00000
     52       5.2530      1.00000
     53       5.2723      1.00000
     54       5.2801      1.00000
     55       5.2973      1.00000
     56       5.3032      1.00000
     57       5.3289      1.00000
     58       5.3439      1.00000
     59       5.3734      1.00000
     60       5.4028      1.00000
     61       5.4146      1.00000
     62       5.4252      1.00000
     63       5.4425      1.00000
     64       5.4636      1.00000
     65       5.4715      1.00000
     66       5.5057      1.00000
     67       5.5173      1.00000
     68       5.5421      1.00000
     69       5.5506      1.00000
     70       5.5742      1.00000
     71       5.5877      1.00000
     72       5.6243      1.00000
     73       5.6427      1.00000
     74       5.6903      1.00000
     75       5.7207      1.00000
     76       5.8323      1.00000
     77       5.8494      1.00000
     78       5.8679      1.00000
     79       5.8715      1.00000
     80       5.8858      1.00000
     81       5.8886      1.00000
     82       5.9216      1.00000
     83       5.9290      1.00000
     84       5.9491      1.00000
     85       5.9848      1.00000
     86       5.9979      1.00000
     87       6.0147      1.00000
     88       6.0320      1.00000
     89       6.1876      1.00000
     90       6.2194      1.00000
     91       6.2560      1.00000
     92       6.2871      1.00000
     93       6.4113      1.00000
     94       6.4239      1.00000
     95       6.4410      1.00000
     96       6.4745      1.00000
     97       6.4836      1.00000
     98       6.5288      1.00000
     99       6.5339      1.00000
    100       6.5497      1.00000
    101       6.5897      1.00000
    102       6.6155      1.00000
    103       6.6469      1.00000
    104       6.6764      1.00000
    105       6.6812      1.00000
    106       6.6927      1.00000
    107       6.7086      1.00000
    108       6.7508      1.00000
    109       6.7629      1.00000
    110       6.7911      1.00000
    111       6.8041      1.00000
    112       6.8350      1.00000
    113       6.8832      1.00000
    114       6.8875      1.00000
    115       6.9004      1.00000
    116       6.9081      1.00000
    117       6.9222      1.00000
    118       6.9356      1.00000
    119       6.9445      1.00000
    120       6.9496      1.00000
    121       6.9623      1.00000
    122       6.9754      1.00000
    123       6.9776      1.00000
    124       7.0015      1.00000
    125       7.0093      1.00000
    126       7.0733      1.00000
    127       7.0773      1.00000
    128       7.0962      1.00000
    129       7.1190      1.00000
    130       7.1248      1.00000
    131       7.1469      1.00000
    132       7.1553      1.00000
    133       7.1808      1.00000
    134       7.1891      1.00000
    135       7.1990      1.00000
    136       7.2082      1.00000
    137       7.2247      1.00000
    138       7.2321      1.00000
    139       7.2379      1.00000
    140       7.2520      1.00000
    141       7.2633      1.00000
    142       7.2649      1.00000
    143       7.2827      1.00000
    144       7.4287      1.00000
    145       7.4517      1.00000
    146       7.4549      1.00000
    147       7.4601      1.00000
    148       7.5116      1.00000
    149       7.6681      1.00000
    150       7.6787      1.00000
    151       7.6965      1.00000
    152       7.7061      1.00000
    153       7.7313      1.00000
    154       7.7333      1.00000
    155       7.7368      1.00000
    156       7.7451      1.00000
    157       7.7491      1.00000
    158       7.8944      1.00000
    159       7.8994      1.00000
    160       7.9051      1.00000
    161       7.9064      1.00000
    162       7.9126      1.00000
    163       7.9235      1.00000
    164       7.9640      1.00000
    165       7.9693      1.00000
    166       7.9828      1.00000
    167       7.9869      1.00000
    168       8.5557      0.49337
    169       8.5586      0.35264
    170       8.5865      0.24400
    171       8.5912     -0.02388
    172       8.6818     -0.00016
    173       8.6909      0.00000
    174       8.7026      0.00000
    175       8.7124      0.00000
    176       9.3277      0.00000
    177       9.3303      0.00000
    178       9.3627      0.00000
    179       9.3674      0.00000
    180      10.1738      0.00000
    181      10.2930      0.00000
    182      10.3045      0.00000
    183      10.3161      0.00000
    184      10.3340      0.00000
    185      11.2338      0.00000
    186      11.2382      0.00000
    187      14.4155      0.00000
    188      14.4193      0.00000
    189      14.4294      0.00000
    190      14.4345      0.00000
    191      14.6549      0.00000
    192      14.6607      0.00000
    193      14.8361      0.00000
    194      14.8674      0.00000
    195      14.8845      0.00000
    196      14.9284      0.00000
    197      16.2301      0.00000
    198      16.2618      0.00000
    199      16.2916      0.00000
    200      16.3206      0.00000
    201      17.5741      0.00000
    202      17.5870      0.00000
    203      17.6166      0.00000
    204      17.6299      0.00000
    205      18.0899      0.00000
    206      18.0962      0.00000
    207      18.3747      0.00000

 k-point     3 :       0.4000    0.0000    0.0000
  band No.  band energies     occupation 
      1       0.0214      1.00000
      2       0.6365      1.00000
      3       2.6809      1.00000
      4       2.7007      1.00000
      5       2.7209      1.00000
      6       2.7526      1.00000
      7       3.1198      1.00000
      8       3.1379      1.00000
      9       3.1583      1.00000
     10       3.1907      1.00000
     11       3.4323      1.00000
     12       3.5851      1.00000
     13       3.6140      1.00000
     14       3.6211      1.00000
     15       3.6283      1.00000
     16       3.6325      1.00000
     17       3.7674      1.00000
     18       3.7832      1.00000
     19       3.8334      1.00000
     20       3.8429      1.00000
     21       3.8714      1.00000
     22       3.8795      1.00000
     23       4.0798      1.00000
     24       4.0950      1.00000
     25       4.2283      1.00000
     26       4.2528      1.00000
     27       4.2643      1.00000
     28       4.4573      1.00000
     29       4.4865      1.00000
     30       4.5102      1.00000
     31       4.5720      1.00000
     32       4.5907      1.00000
     33       4.6111      1.00000
     34       4.7115      1.00000
     35       4.7633      1.00000
     36       4.7904      1.00000
     37       4.8081      1.00000
     38       4.8490      1.00000
     39       4.9203      1.00000
     40       4.9405      1.00000
     41       4.9546      1.00000
     42       4.9761      1.00000
     43       4.9903      1.00000
     44       4.9975      1.00000
     45       5.0365      1.00000
     46       5.0678      1.00000
     47       5.0980      1.00000
[...]
  0.000   0.000   0.000   0.000   0.180   0.000   0.000   0.000   0.000   0.000   0.000   0.000   0.000   0.000   0.000   0.000
  0.000   0.000   0.000   0.000   0.000   0.000   0.000   0.000   0.000   0.000   0.000   0.000   0.000   0.000   0.000   0.000
  0.000   0.000   0.000   0.000   0.000   0.000   0.000   0.000   0.000   0.000   0.000   0.000   0.000   0.000   0.000   0.000
  0.000   0.000   0.000   0.000   0.000   0.000   0.000   0.000   0.000   0.000   0.000   0.000   0.000   0.000   0.000   0.000
  0.000   0.000   0.000   0.000   0.000   0.000   0.000   0.000   0.000   0.000   0.000   0.000   0.000   0.000   0.000   0.000
  0.000   0.000   0.000   0.000   0.000   0.000   0.000   0.000   0.000   0.000   0.000   0.000   0.000   0.000   0.000   0.000
  0.000   0.000   0.000   0.000   0.000   0.000   0.000   0.000   0.000   0.000   0.100   0.000   0.000   0.000   0.000   0.000
  0.000   0.000   0.000   0.000   0.000   0.000   0.000   0.000   0.000   0.000   0.000   0.000   0.000   0.000   0.000   0.000
  0.000   0.000   0.000   0.000   0.000   0.000   0.000   0.000   0.000   0.000   0.000   0.000   0.000   0.000   0.000   0.000
  0.000   0.000   0.000   0.000   0.000   0.000   0.000   0.000   0.000   0.000   0.000   0.000   0.000   0.000   0.000   0.000
  0.000   0.000   0.000   0.000   0.000   0.000   0.000   0.000   0.000   0.000   0.000   0.000   0.000   0.000   0.000   0.000
  0.000   0.000   0.000   0.000   0.000   0.000   0.000   0.000   0.000   0.000   0.000   0.000   0.000   0.000   0.000   0.000
  0.000   0.000   0.000   0.000   0.000   0.000   0.000   0.000   0.000   0.000   0.000   0.000   0.000   0.000   0.000   0.000
  0.000   0.000   0.000   0.000   0.000   0.000   0.000   0.000   0.000   0.000   0.000   0.000   0.000   0.000   0.000   0.000


------------------------ aborting loop because EDIFF is reached ----------------------------------------


 


 total charge     
 
# of ion       s       p       d       tot
------------------------------------------
    1        0.492   0.490   8.306   9.288
    2        0.507   0.507   8.318   9.332
    3        0.501   0.498   8.324   9.323
    4        0.496   0.486   8.325   9.307
    5        0.503   0.500   8.324   9.326
    6        0.504   0.504   8.333   9.341
    7        0.502   0.501   8.328   9.331
    8        0.507   0.504   8.334   9.345
    9        0.504   0.504   8.326   9.335
   10        0.496   0.491   8.322   9.310
   11        0.497   0.500   8.313   9.310
   12        0.493   0.487   8.321   9.301
   13        0.502   0.500   8.317   9.319
   14        0.505   0.505   8.322   9.332
   15        0.499   0.503   8.319   9.321
   16        0.500   0.503   8.313   9.315
   17        0.502   0.500   8.323   9.326
   18        0.506   0.506   8.327   9.338
   19        0.495   0.491   8.313   9.298
   20        0.498   0.493   8.328   9.319
   21        0.503   0.506   8.325   9.334
   22        0.504   0.501   8.312   9.317
   23        0.494   0.487   8.320   9.302
   24        0.500   0.500   8.319   9.319
   25        0.471   0.503   6.160   7.134
   26        0.477   0.509   6.174   7.160
   27        0.473   0.506   6.160   7.140
   28        0.474   0.506   6.185   7.166
   29        0.475   0.509   6.164   7.149
   30        0.477   0.510   6.184   7.171
   31        0.469   0.501   6.150   7.120
   32        0.473   0.505   6.178   7.157
--------------------------------------------------
tot         15.801  16.015 249.069 280.885
 


 magnetization (x)
 
# of ion       s       p       d       tot
------------------------------------------
    1       -0.009  -0.032   0.662   0.621
    2       -0.021  -0.041   0.679   0.617
    3       -0.015  -0.033   0.628   0.580
    4       -0.012  -0.026   0.602   0.564
    5       -0.016  -0.033   0.629   0.580
    6       -0.017  -0.037   0.629   0.574
    7       -0.015  -0.034   0.616   0.567
    8       -0.016  -0.032   0.623   0.575
    9       -0.020  -0.041   0.642   0.582
   10       -0.013  -0.031   0.638   0.594
   11       -0.012  -0.037   0.671   0.621
   12       -0.010  -0.028   0.625   0.586
   13       -0.018  -0.037   0.671   0.616
   14       -0.016  -0.035   0.660   0.609
   15       -0.017  -0.045   0.670   0.608
   16       -0.014  -0.038   0.661   0.610
   17       -0.015  -0.034   0.643   0.595
   18       -0.018  -0.038   0.638   0.582
   19       -0.010  -0.029   0.649   0.610
   20       -0.013  -0.030   0.607   0.564
   21       -0.018  -0.043   0.667   0.606
   22       -0.019  -0.037   0.678   0.622
   23       -0.011  -0.028   0.614   0.575
   24       -0.014  -0.034   0.669   0.621
   25        0.006  -0.016   2.749   2.739
   26        0.003  -0.016   2.723   2.710
   27        0.006  -0.015   2.752   2.743
   28       -0.001  -0.025   2.681   2.655
   29        0.004  -0.018   2.740   2.726
   30       -0.002  -0.024   2.687   2.660
   31        0.009  -0.012   2.777   2.774
   32        0.004  -0.017   2.708   2.695
--------------------------------------------------
tot         -0.332  -0.974  37.290  35.984
 
    CHARGE:  cpu time    1.2148: real time    2.4304
    FORLOC:  cpu time    0.0060: real time    0.0121
    FORNL :  cpu time   14.2498: real time   28.6160
    STRESS:  cpu time   42.6395: real time   85.6654
    FORCOR:  cpu time    0.0510: real time    0.1008
    FORHAR:  cpu time    0.0120: real time    0.0248
    OFIELD:  cpu time    0.0000: real time    0.0002

  FORCE on cell =-STRESS in cart. coord.  units (eV):
  Direction    XX          YY          ZZ          XY          YZ          ZX
  --------------------------------------------------------------------------------------
  Alpha Z  1633.54701  1633.54701  1633.54701
  Ewald   -8968.40703 -8935.41774 -9020.25629     0.31539    -0.12547     2.40626
  Hartree  2145.54271  2177.68011  2094.00716     0.33919     0.08724     2.68943
  E(xc)   -1640.46577 -1640.40409 -1640.46941     0.01077    -0.01673    -0.03808
  Local     230.45411   165.74875   333.37173    -1.30786     0.52510    -6.36713
  n-local  -391.49507  -391.26658  -391.11388    -0.08383    -0.12859    -0.23276
  augment  4537.09839  4536.82347  4537.39576     0.55065    -0.43545     1.01740
  Kinetic  2450.60991  2450.04395  2451.58269    -0.16711    -0.21179     0.40043
  Fock        0.00000     0.00000     0.00000     0.00000     0.00000     0.00000
  -------------------------------------------------------------------------------------
  Total      -3.11573    -3.24512    -1.93524    -0.34281    -0.30571    -0.12444
  in kB     -14.00658   -14.58824    -8.69973    -1.54108    -1.37428    -0.55940
  external pressure =      -12.43 kB  Pullay stress =        0.00 kB


 VOLUME and BASIS-vectors are now :
 -----------------------------------------------------------------------------
  energy-cutoff  :      520.00
  volume of cell :      356.40
      direct lattice vectors                 reciprocal lattice vectors
     7.090000000  0.000000000  0.000000000     0.141043724  0.000000000  0.000000000
     0.000000000  7.090000000  0.000000000     0.000000000  0.141043724  0.000000000
     0.000000000  0.000000000  7.090000000     0.000000000  0.000000000  0.141043724

  length of vectors
     7.090000000  7.090000000  7.090000000     0.141043724  0.141043724  0.141043724


 FORCES acting on ions
    electron-ion (+dipol)            ewald-force                    non-local-force                 convergence-correction
 -----------------------------------------------------------------------------------------------
   -.336E+02 -.153E+02 -.226E+02   0.337E+02 0.153E+02 0.226E+02   0.180E-01 0.284E-02 0.969E-02   -.683E-01 0.582E-01 0.517E-02
   -.633E+02 0.278E+02 -.959E+02   0.634E+02 -.281E+02 0.962E+02   -.130E+00 0.109E+00 -.213E-01   0.543E-01 0.198E+00 -.307E+00
   -.120E+02 0.205E+02 0.926E+02   0.122E+02 -.208E+02 -.929E+02   -.151E-01 0.840E-01 -.356E-01   -.107E+00 0.196E+00 0.334E+00
   -.310E+02 0.128E+02 -.176E+02   0.309E+02 -.128E+02 0.176E+02   0.108E+00 -.360E-02 0.224E-01   -.401E-01 -.585E-01 0.397E-02
   -.580E+02 -.221E+02 -.527E+02   0.580E+02 0.223E+02 0.530E+02   0.638E-02 -.139E-01 -.859E-02   0.399E-02 -.163E+00 -.248E+00
   -.352E+02 -.307E+02 0.770E+02   0.351E+02 0.306E+02 -.774E+02   0.570E-01 -.224E-01 0.606E-01   0.965E-02 0.959E-01 0.257E+00
   -.307E+02 -.769E+00 -.257E+02   0.306E+02 0.564E+00 0.257E+02   0.932E-01 -.544E-02 0.240E-02   -.194E-01 0.215E+00 -.396E-01
   0.344E+02 -.121E+02 0.167E+02   -.344E+02 0.120E+02 -.165E+02   -.820E-01 -.437E-03 -.117E+00   0.612E-01 0.631E-01 -.764E-01
   0.620E+02 -.202E+02 -.104E+03   -.620E+02 0.201E+02 0.104E+03   0.889E-01 -.301E-01 -.196E+00   -.482E-01 0.200E+00 -.290E+00
   -.679E+01 -.374E+02 -.721E+02   0.671E+01 0.374E+02 0.724E+02   0.283E-02 -.204E-01 0.106E-01   0.787E-01 -.210E-01 -.293E+00
   -.385E+02 0.558E+02 0.224E+02   0.385E+02 -.558E+02 -.224E+02   -.205E-01 -.662E-01 0.224E-01   -.217E-01 -.768E-02 0.164E-01
   -.145E+02 -.186E+02 0.493E+02   0.147E+02 0.187E+02 -.494E+02   -.129E-01 0.304E-01 -.153E+00   -.128E+00 -.180E+00 0.254E+00
   -.862E+02 0.317E+02 0.750E+02   0.862E+02 -.317E+02 -.754E+02   -.652E-01 0.296E-01 0.138E+00   0.338E-01 -.855E-01 0.255E+00
   -.369E+02 0.120E+01 -.142E+02   0.369E+02 -.997E+00 0.139E+02   0.338E-01 -.145E-01 0.238E+00   -.371E-01 -.204E+00 0.362E-01
   0.391E+02 -.616E+02 -.209E+02   -.393E+02 0.617E+02 0.208E+02   0.529E-01 -.609E-01 0.518E-01   0.626E-01 -.673E-02 0.742E-01
   0.375E+02 0.105E+02 0.251E+02   -.376E+02 -.104E+02 -.249E+02   -.441E-01 -.996E-02 -.114E+00   0.462E-01 -.787E-01 -.942E-01
   0.590E+02 0.177E+02 -.522E+02   -.589E+02 -.174E+02 0.524E+02   -.784E-01 -.335E-01 -.540E-02   -.154E-02 -.224E+00 -.214E+00
   0.379E+02 -.354E+02 0.758E+02   -.379E+02 0.354E+02 -.762E+02   0.349E-01 -.756E-01 0.582E-01   0.851E-02 0.565E-01 0.278E+00
   0.289E+02 0.588E+00 0.177E+02   -.288E+02 -.746E+00 -.175E+02   -.864E-01 -.116E-01 -.837E-01   0.311E-01 0.176E+00 -.180E+00
   0.331E+02 0.369E+02 -.706E+02   -.332E+02 -.369E+02 0.708E+02   0.129E-01 0.142E-01 0.927E-01   0.505E-01 0.570E-01 -.295E+00
   -.398E+02 -.870E+00 0.229E+02   0.399E+02 0.113E+01 -.229E+02   -.730E-01 0.263E-01 0.126E-01   0.199E-02 -.237E+00 -.434E-01
   0.825E+02 0.354E+02 0.731E+02   -.826E+02 -.354E+02 -.734E+02   0.599E-01 0.497E-01 0.726E-01   -.558E-01 -.508E-01 0.243E+00
   0.330E+02 0.867E+00 0.226E+02   -.330E+02 -.664E+00 -.225E+02   -.398E-01 -.105E-01 0.194E-01   0.331E-01 -.202E+00 -.838E-01
   0.381E+02 -.122E+01 -.262E+02   -.382E+02 0.143E+01 0.261E+02   0.623E-01 0.174E-01 -.229E-01   0.125E-02 -.209E+00 0.861E-01
   0.124E+02 -.355E+02 -.737E+02   -.124E+02 0.356E+02 0.742E+02   0.557E-01 -.118E+00 -.215E+00   -.606E-01 -.720E-02 -.241E+00
   -.356E+02 -.547E+02 0.268E+02   0.358E+02 0.549E+02 -.270E+02   -.207E+00 -.155E+00 0.104E+00   -.388E-01 -.237E-01 0.147E-01
   -.347E+02 0.360E+02 -.735E+02   0.348E+02 -.361E+02 0.739E+02   -.602E-01 0.866E-01 -.184E+00   -.311E-01 -.204E-01 -.191E+00
   -.389E+02 0.253E+01 0.301E+02   0.391E+02 -.274E+01 -.302E+02   -.192E+00 -.553E-02 0.657E-01   0.858E-02 0.217E+00 0.322E-01
   0.103E+02 -.248E+02 0.100E+03   -.104E+02 0.247E+02 -.101E+03   0.127E-01 -.991E-01 0.223E+00   0.726E-01 0.199E+00 0.230E+00
   0.385E+02 0.546E+02 -.312E+02   -.388E+02 -.550E+02 0.311E+02   0.240E+00 0.384E+00 -.431E-01   0.647E-02 0.125E-04 0.834E-01
   0.122E+02 0.259E+02 0.504E+02   -.124E+02 -.257E+02 -.507E+02   0.753E-02 -.575E-01 0.196E-01   0.104E+00 -.187E+00 0.175E+00
   0.368E+02 0.470E+00 -.248E+02   -.369E+02 -.648E+00 0.248E+02   0.123E+00 0.328E-02 -.441E-01   0.387E-02 0.171E+00 0.128E+00
 -----------------------------------------------------------------------------------------------
   0.216E-01 0.371E-01 0.108E+00   0.284E-13 0.727E-13 0.224E-12   -.371E-01 0.227E-01 -.205E-01   0.148E-01 -.623E-01 -.894E-01
 
 
 POSITION                                       TOTAL-FORCE (eV/Angst)
 -----------------------------------------------------------------------------------
      7.08470      0.00754      3.54496         0.008513      0.001436      0.016375
      0.01407      1.76444      5.32635         0.017761     -0.002040      0.021042
      7.07743      1.77946      1.76375         0.000953      0.005083     -0.037891
      7.08499      3.53257      3.53438         0.000445      0.008455      0.001754
      7.07667      5.33749      5.31861         0.007580      0.009598      0.022335
      1.76385      0.01229      1.77300         0.014139     -0.012473     -0.032795
      1.77055      1.77095      3.53727         0.017572      0.004740      0.024326
      3.55711      7.07585      3.55100        -0.008504      0.006168      0.000186
      3.52928      1.78546      5.30443        -0.021858     -0.011653      0.042549
      5.31208      0.00284      5.32264        -0.001555     -0.007881      0.013721
      0.00740      3.55746      7.08833         0.001830     -0.031361      0.004091
      7.08940      5.30380      1.77878         0.005577      0.004362     -0.013055
      1.78326      3.53921      1.77003         0.026635      0.002245      0.003157
      1.75565      5.32256      3.54667         0.017872     -0.010606     -0.003314
      3.54190      0.02240      0.00240        -0.011310      0.022823      0.008873
      3.55693      3.55679      3.54873        -0.030538     -0.003524     -0.027865
      3.55508      5.30333      5.32361        -0.018517      0.002267      0.005303
      5.33173      0.00041      1.77559        -0.022022      0.002357     -0.029422
      5.31804      1.77602      3.55348        -0.000975      0.005419     -0.013484
      5.33643      3.54197      5.31496         0.000335      0.014086      0.033687
      1.78419      5.31026      0.00879         0.010821      0.046352      0.007582
      5.30126      3.54011      1.75713        -0.018305     -0.007767     -0.012523
      5.32781      5.31240      3.54489        -0.003505     -0.008544      0.005942
      5.29853      5.31033      0.00320         0.013759      0.018851     -0.019712
      1.79913      7.06723      5.27993        -0.000220      0.008410      0.025482
      7.08114      7.04259      0.02185        -0.004684      0.028111     -0.003937
      1.73603      3.57716      5.25709         0.018725     -0.018312      0.027672
      1.75458      1.78224      0.02471         0.012751      0.006369     -0.004606
      3.55482      1.75023      1.85020         0.000542     -0.007970     -0.054211
      3.55632      3.54482      7.05516        -0.024862     -0.058224      0.000959
      3.54174      5.35178      1.80338        -0.012505     -0.013645     -0.015182
      5.33792      1.76803      7.06470         0.003550     -0.003132      0.002962
 -----------------------------------------------------------------------------------
    total drift:                               -0.000739     -0.002576     -0.002066


--------------------------------------------------------------------------------------------------------



  FREE ENERGIE OF THE ION-ELECTRON SYSTEM (eV)
  ---------------------------------------------------
  free  energy   TOTEN  =      -198.37824364 eV

  energy  without entropy=     -198.37824364  energy(sigma->0) =     -198.37824364
 


--------------------------------------------------------------------------------------------------------


    POTLOK:  cpu time    0.0560: real time    0.1164


--------------------------------------------------------------------------------------------------------


     LOOP+:  cpu time  521.1298: real time 1045.5076
    4ORBIT:  cpu time    0.0000: real time    0.0000
 


 total charge     
 
# of ion       s       p       d       tot
------------------------------------------
    1        0.492   0.490   8.306   9.288
    2        0.507   0.507   8.318   9.332
    3        0.501   0.498   8.324   9.323
    4        0.496   0.486   8.325   9.307
    5        0.503   0.500   8.324   9.326
    6        0.504   0.504   8.333   9.341
    7        0.502   0.501   8.328   9.331
    8        0.507   0.504   8.334   9.345
    9        0.504   0.504   8.326   9.335
   10        0.496   0.491   8.322   9.310
   11        0.497   0.500   8.313   9.310
   12        0.493   0.487   8.321   9.301
   13        0.502   0.500   8.317   9.319
   14        0.505   0.505   8.322   9.332
   15        0.499   0.503   8.319   9.321
   16        0.500   0.503   8.313   9.315
   17        0.502   0.500   8.323   9.326
   18        0.506   0.506   8.327   9.338
   19        0.495   0.491   8.313   9.298
   20        0.498   0.493   8.328   9.319
   21        0.503   0.506   8.325   9.334
   22        0.504   0.501   8.312   9.317
   23        0.494   0.487   8.320   9.302
   24        0.500   0.500   8.319   9.319
   25        0.471   0.503   6.160   7.134
   26        0.477   0.509   6.174   7.160
   27        0.473   0.506   6.160   7.140
   28        0.474   0.506   6.185   7.166
   29        0.475   0.509   6.164   7.149
   30        0.477   0.510   6.184   7.171
   31        0.469   0.501   6.150   7.120
   32        0.473   0.505   6.178   7.157
--------------------------------------------------
tot         15.801  16.015 249.069 280.885
 


 magnetization (x)
 
# of ion       s       p       d       tot
------------------------------------------
    1       -0.009  -0.032   0.662   0.621
    2       -0.021  -0.041   0.679   0.617
    3       -0.015  -0.033   0.628   0.580
    4       -0.012  -0.026   0.602   0.564
    5       -0.016  -0.033   0.629   0.580
    6       -0.017  -0.037   0.629   0.574
    7       -0.015  -0.034   0.616   0.567
    8       -0.016  -0.032   0.623   0.575
    9       -0.020  -0.041   0.642   0.582
   10       -0.013  -0.031   0.638   0.594
   11       -0.012  -0.037   0.671   0.621
   12       -0.010  -0.028   0.625   0.586
   13       -0.018  -0.037   0.671   0.616
   14       -0.016  -0.035   0.660   0.609
   15       -0.017  -0.045   0.670   0.608
   16       -0.014  -0.038   0.661   0.610
   17       -0.015  -0.034   0.643   0.595
   18       -0.018  -0.038   0.638   0.582
   19       -0.010  -0.029   0.649   0.610
   20       -0.013  -0.030   0.607   0.564
   21       -0.018  -0.043   0.667   0.606
   22       -0.019  -0.037   0.678   0.622
   23       -0.011  -0.028   0.614   0.575
   24       -0.014  -0.034   0.669   0.621
   25        0.006  -0.016   2.749   2.739
   26        0.003  -0.016   2.723   2.710
   27        0.006  -0.015   2.752   2.743
   28       -0.001  -0.025   2.681   2.655
   29        0.004  -0.018   2.740   2.726
   30       -0.002  -0.024   2.687   2.660
   31        0.009  -0.012   2.777   2.774
   32        0.004  -0.017   2.708   2.695
--------------------------------------------------
tot         -0.332  -0.974  37.290  35.984
 
 BZINTS: Fermi energy:  8.377587;304.000000 electrons
         Band energy:1837.239904;  BLOECHL correction: -0.134324

 total amount of memory used by VASP MPI-rank0   132724. kBytes
=======================================================================

   base      :      30000. kBytes
   nonlr-proj:       6007. kBytes
   fftplans  :       1484. kBytes
   grid      :       3780. kBytes
   one-center:         62. kBytes
   wavefun   :      91391. kBytes
 
  
  
 General timing and accounting informations for this job:
 ========================================================
  
                  Total CPU time used (sec):      566.242
                            User time (sec):      502.825
                          System time (sec):       63.417
                         Elapsed time (sec):     1136.696
  
                   Maximum memory used (kb):      233516.
                   Average memory used (kb):           0.
  
                          Minor page faults:        18685
                          Major page faults:            0
                 Voluntary context switches:          959
