SQS-NiFe                                
           1
     7.090000    0.000000    0.000000
     0.000000    7.090000    0.000000
     0.000000    0.000000    7.090000
   Ni   Fe
  24   8
Direct configuration=     1
   0.99925219  0.00106413  0.49999431
   0.00198447  0.24886339  0.75124757
   0.99822662  0.25098147  0.24876528
   0.99929299  0.49824742  0.49850243
   0.99811931  0.75281902  0.75015618
   0.24878031  0.00173323  0.25007095
   0.24972513  0.24978074  0.49890999
   0.50170740  0.99800383  0.50084593
   0.49778266  0.25182820  0.74815704
   0.74923602  0.00040043  0.75072485
   0.00104304  0.50175803  0.99976380
   0.99991518  0.74806721  0.25088621
   0.25151760  0.49918293  0.24965148
   0.24762285  0.75071310  0.50023564
   0.49956207  0.00316001  0.00033853
   0.50168298  0.50166246  0.50052541
   0.50142197  0.74800154  0.75086203
   0.75200714  0.00005735  0.25043651
   0.75007652  0.25049656  0.50119609
   0.75267027  0.49957310  0.74964241
   0.25164939  0.74897836  0.00123966
   0.74770914  0.49930984  0.24783189
   0.75145441  0.74928065  0.49998449
   0.74732403  0.74898803  0.00045107
   0.25375534  0.99678775  0.74470151
   0.99875073  0.99331359  0.00308179
   0.24485578  0.50453578  0.74147935
   0.24747241  0.25137350  0.00348506
   0.50138533  0.24685923  0.26095971
   0.50159648  0.49997484  0.99508594
   0.49954024  0.75483547  0.25435584
   0.75288002  0.24936883  0.99643104
