       N       E                     dE             d eps       ncg     rms          rms(c)
DAV:   1     0.251413098742E+04    0.25141E+04   -0.11219E+05 59814   0.172E+03
DAV:   2     0.156898152896E+03   -0.23572E+04   -0.21731E+04 59724   0.364E+02
DAV:   3    -0.195852618920E+03   -0.35275E+03   -0.27790E+03 59736   0.164E+02
DAV:   4    -0.219262177879E+03   -0.23410E+02   -0.22726E+02 64452   0.512E+01
DAV:   5    -0.219570198275E+03   -0.30802E+00   -0.30783E+00 72708   0.543E+00
RMM:   6    -0.219582160801E+03   -0.11963E-01   -0.11964E-01 65645   0.926E-01
RMM:   7    -0.219585878497E+03   -0.37177E-02   -0.37082E-02 94566   0.318E-01
RMM:   8    -0.219585888566E+03   -0.10070E-04   -0.30428E-04 87445   0.378E-02
RMM:   9    -0.219585891190E+03   -0.26242E-05   -0.26289E-05 76497   0.103E-02
RMM:  10    -0.219585891397E+03   -0.20717E-06   -0.20616E-06 51889   0.285E-03
   1 F= -.21958589E+03 E0= -.21958589E+03  d E =0.000000E+00  mag=    51.6148
