 vasp.5.4.4.18Apr17-6-g9f103f2a35 (build Sep 06 2021 19:49:22) complex          
  
 executed on             LinuxIFC date 2021.12.24  19:05:09
 running on   24 total cores
 distrk:  each k-point on   24 cores,    1 groups
 distr:  one band on NCORES_PER_BAND=   8 cores,    3 groups


--------------------------------------------------------------------------------------------------------


 INCAR:
 POTCAR:    PAW_PBE Fe 06Sep2000                  
 POTCAR:    PAW_PBE Ni 02Aug2007                  
 POTCAR:    PAW_PBE Fe 06Sep2000                  
   VRHFIN =Fe:  d7 s1                                                           
   LEXCH  = PE                                                                  
   EATOM  =   594.3153 eV,   43.6809 Ry                                         
                                                                                
   TITEL  = PAW_PBE Fe 06Sep2000                                                
   LULTRA =        F    use ultrasoft PP ?                                      
   IUNSCR =        1    unscreen: 0-lin 1-nonlin 2-no                           
   RPACOR =    2.000    partial core radius                                     
   POMASS =   55.847; ZVAL   =    8.000    mass and valenz                      
   RCORE  =    2.300    outmost cutoff radius                                   
   RWIGS  =    2.460; RWIGS  =    1.302    wigner-seitz radius (au A)           
   ENMAX  =  267.882; ENMIN  =  200.911 eV                                      
   RCLOC  =    1.701    cutoff for local pot                                    
   LCOR   =        T    correct aug charges                                     
   LPAW   =        T    paw PP                                                  
   EAUG   =  511.368                                                            
   DEXC   =    0.000                                                            
   RMAX   =    2.356    core radius for proj-oper                               
   RAUG   =    1.300    factor for augmentation sphere                          
   RDEP   =    2.442    radius for radial grids                                 
   RDEPT  =    1.890    core radius for aug-charge                              
                                                                                
   Atomic configuration                                                         
    9 entries                                                                   
     n  l   j            E        occ.                                          
     1  0  0.50     -6993.8440   2.0000                                         
     2  0  0.50      -814.6047   2.0000                                         
     2  1  1.50      -693.3689   6.0000                                         
     3  0  0.50       -89.4732   2.0000                                         
     3  1  1.50       -55.6373   6.0000                                         
     3  2  2.50        -3.8151   7.0000                                         
     4  0  0.50        -4.2551   1.0000                                         
     4  1  1.50        -3.4015   0.0000                                         
     4  3  2.50        -1.3606   0.0000                                         
   Description                                                                  
     l       E           TYP  RCUT    TYP  RCUT                                 
     2     -3.8151135     23  2.300                                             
     2     -5.1756961     23  2.300                                             
     0     -4.2550963     23  2.300                                             
     0      7.2035603     23  2.300                                             
     1     -2.7211652     23  2.300                                             
     1     18.4316424     23  2.300                                             
  local pseudopotential read in
  partial core-charges read in
  partial kinetic energy density read in
  atomic valenz-charges read in
  non local Contribution for L=           2  read in
    real space projection operators read in
  non local Contribution for L=           2  read in
    real space projection operators read in
  non local Contribution for L=           0  read in
    real space projection operators read in
  non local Contribution for L=           0  read in
    real space projection operators read in
  non local Contribution for L=           1  read in
    real space projection operators read in
  non local Contribution for L=           1  read in
    real space projection operators read in
    PAW grid and wavefunctions read in
 
   number of l-projection  operators is LMAX  =           6
   number of lm-projection operators is LMMAX =          18
 
 POTCAR:    PAW_PBE Ni 02Aug2007                  
   VRHFIN =Ni:                                                                  
   LEXCH  = PE                                                                  
   EATOM  =  1077.6739 eV,   79.2068 Ry                                         
                                                                                
   TITEL  = PAW_PBE Ni 02Aug2007                                                
   LULTRA =        F    use ultrasoft PP ?                                      
   IUNSCR =        1    unscreen: 0-lin 1-nonlin 2-no                           
   RPACOR =    2.000    partial core radius                                     
   POMASS =   58.690; ZVAL   =   10.000    mass and valenz                      
   RCORE  =    2.300    outmost cutoff radius                                   
   RWIGS  =    2.430; RWIGS  =    1.286    wigner-seitz radius (au A)           
   ENMAX  =  269.532; ENMIN  =  202.149 eV                                      
   RCLOC  =    1.201    cutoff for local pot                                    
   LCOR   =        T    correct aug charges                                     
   LPAW   =        T    paw PP                                                  
   EAUG   =  544.565                                                            
   DEXC   =    0.000                                                            
   RMAX   =    2.357    core radius for proj-oper                               
   RAUG   =    1.300    factor for augmentation sphere                          
   RDEP   =    2.390    radius for radial grids                                 
   RDEPT  =    1.838    core radius for aug-charge                              
                                                                                
   Atomic configuration                                                         
    9 entries                                                                   
     n  l   j            E        occ.                                          
     1  0  0.50     -8206.4253   2.0000                                         
     2  0  0.50      -976.1748   2.0000                                         
     2  1  1.50      -839.0571   6.0000                                         
     3  0  0.50      -105.9991   2.0000                                         
     3  1  1.50       -66.4603   6.0000                                         
     3  2  2.50        -4.6458   9.0000                                         
     4  0  0.50        -4.4926   1.0000                                         
     4  1  1.50        -4.0817   0.0000                                         
     4  3  2.50        -1.3606   0.0000                                         
   Description                                                                  
     l       E           TYP  RCUT    TYP  RCUT                                 
     2     -4.6457903     23  2.300                                             
     2     -6.0063729     23  2.300                                             
     0     -4.4925590     23  2.300                                             
     0      5.0102601     23  2.300                                             
     1     -2.7211652     23  2.300                                             
     1     16.5183231     23  2.300                                             
  local pseudopotential read in
  partial core-charges read in
  partial kinetic energy density read in
  atomic valenz-charges read in
  non local Contribution for L=           2  read in
    real space projection operators read in
  non local Contribution for L=           2  read in
    real space projection operators read in
  non local Contribution for L=           0  read in
    real space projection operators read in
  non local Contribution for L=           0  read in
    real space projection operators read in
  non local Contribution for L=           1  read in
    real space projection operators read in
  non local Contribution for L=           1  read in
    real space projection operators read in
    PAW grid and wavefunctions read in
 
   number of l-projection  operators is LMAX  =           6
   number of lm-projection operators is LMMAX =          18
 
 Optimization of the real space projectors (new method)

 maximal supplied QI-value         = 16.25
 optimisation between [QCUT,QGAM] = [ 11.54, 23.24] = [ 37.28,151.24] Ry 
 Optimized for a Real-space Cutoff    1.53 Angstroem

   l    n(q)    QCUT    max X(q) W(low)/X(q) W(high)/X(q)  e(spline) 
   2     10    11.539    80.901    0.11E-03    0.14E-03    0.21E-06
   2     10    11.539    75.754    0.11E-03    0.14E-03    0.22E-06
   0     11    11.539    58.752    0.52E-04    0.18E-04    0.33E-06
   0     11    11.539    30.679    0.44E-04    0.16E-04    0.30E-06
   1     10    11.539    17.977    0.53E-04    0.29E-04    0.13E-06
   1     10    11.539    13.559    0.44E-04    0.25E-04    0.11E-06
 Optimization of the real space projectors (new method)

 maximal supplied QI-value         = 16.25
 optimisation between [QCUT,QGAM] = [ 11.54, 23.24] = [ 37.28,151.24] Ry 
 Optimized for a Real-space Cutoff    1.45 Angstroem

   l    n(q)    QCUT    max X(q) W(low)/X(q) W(high)/X(q)  e(spline) 
   2      9    11.539    60.317    0.19E-03    0.47E-04    0.16E-06
   2      9    11.539    55.921    0.19E-03    0.48E-04    0.16E-06
   0     10    11.539    51.690    0.80E-04    0.50E-04    0.24E-06
   0     10    11.539    30.015    0.73E-04    0.45E-04    0.22E-06
   1     10    11.539    18.849    0.87E-04    0.16E-03    0.71E-07
   1     10    11.539    14.624    0.73E-04    0.13E-03    0.64E-07
  PAW_PBE Fe 06Sep2000                  :
 energy of atom  1       EATOM= -594.3153
 kinetic energy error for atom=    0.0026 (will be added to EATOM!!)
  PAW_PBE Ni 02Aug2007                  :
 energy of atom  2       EATOM=-1077.6739
 kinetic energy error for atom=    0.0030 (will be added to EATOM!!)
 
 
 POSCAR: POSCAR                                  
  positions in direct lattice
  velocities in cartesian coordinates
 exchange correlation table for  LEXCH =        8
   RHO(1)=    0.500       N(1)  =     2000
   RHO(2)=  100.500       N(2)  =     4000
 


--------------------------------------------------------------------------------------------------------


 ion  position               nearest neighbor table
   1  1.000  0.998  0.500-  31 2.53  22 2.53  10 2.55   6 2.55  17 2.55  26 2.55   2 2.55   4 2.55
                             5 2.55  11 2.55  14 2.58   7 2.58
   2  0.003  0.252  0.750-  18 2.52  20 2.52  12 2.53   7 2.53  27 2.53   3 2.55   1 2.55   8 2.56
                            15 2.57  14 2.57  17 2.57  10 2.58
   3  0.000  0.998  1.000-  28 2.53  32 2.53  10 2.55   6 2.55  17 2.55  26 2.55   2 2.55   4 2.55
                            11 2.55   5 2.55  12 2.58  15 2.58
   4  0.997  0.252  0.250-  18 2.52  20 2.52  15 2.53  14 2.53  21 2.53   3 2.55   1 2.55  16 2.56
                            12 2.57   7 2.57  26 2.57   6 2.58
   5  0.998  0.744  0.750-  20 2.49  18 2.49  27 2.49   8 2.51  32 2.53  31 2.53  28 2.54  22 2.54
                             3 2.55   1 2.55  10 2.56  17 2.56
   6  0.254  0.999  0.250-  30 2.49  13 2.51   9 2.51  23 2.53  28 2.53  22 2.53   3 2.55   1 2.55
                            12 2.56   7 2.56  11 2.56   4 2.58
   7  0.254  0.255  0.501-  24 2.49  19 2.50  21 2.50  23 2.51  18 2.52   2 2.53   8 2.53   6 2.56
                             9 2.57   4 2.57  17 2.58   1 2.58
   8  0.257  0.506  0.750-  25 2.47  28 2.48  22 2.48  29 2.49  24 2.49  19 2.50   5 2.51  12 2.53
                             7 2.53  20 2.56  18 2.56   2 2.56
   9  0.500  0.993  0.500-  31 2.49  22 2.49  25 2.50  30 2.50  26 2.50  17 2.50  10 2.51   6 2.51
                            14 2.57   7 2.57  19 2.57  23 2.57
  10  0.746  0.999  0.750-  25 2.49   9 2.51  13 2.51  19 2.53  32 2.53  31 2.53   3 2.55   1 2.55
                            15 2.56  14 2.56   5 2.56   2 2.58
  11  0.002  0.744  0.250-  20 2.49  18 2.49  21 2.49  16 2.51  28 2.53  22 2.53  32 2.54  31 2.54
                             3 2.55   1 2.55   6 2.56  26 2.56
  12  0.254  0.255  0.999-  29 2.49  19 2.50  21 2.50  23 2.51  20 2.52   2 2.53   8 2.53   6 2.56
                            13 2.57   4 2.57  17 2.58   3 2.58
  13  0.500  0.993  1.000-  28 2.49  32 2.49  25 2.50  30 2.50  17 2.50  26 2.50  10 2.51   6 2.51
                            12 2.57  15 2.57  19 2.57  23 2.57
  14  0.746  0.255  0.499-  24 2.49  23 2.50  27 2.50  19 2.51  18 2.52   4 2.53  16 2.53  10 2.56
                             9 2.57   2 2.57  26 2.58   1 2.58
  15  0.746  0.255  0.001-  29 2.49  23 2.50  27 2.50  19 2.51  20 2.52   4 2.53  16 2.53  10 2.56
                            13 2.57   2 2.57  26 2.58   3 2.58
  16  0.743  0.506  0.250-  30 2.47  32 2.48  31 2.48  29 2.49  24 2.49  23 2.50  11 2.51  15 2.53
                            14 2.53  20 2.56  18 2.56   4 2.56
  17  0.254  0.995  0.750-  28 2.50  22 2.50  25 2.50  13 2.50   9 2.50  19 2.54   3 2.55   1 2.55
                             5 2.56   2 2.57  12 2.58   7 2.58
  18  1.000  0.501  0.500-   5 2.49  11 2.49  31 2.52  22 2.52   4 2.52   2 2.52  14 2.52   7 2.52
                            27 2.53  21 2.53  16 2.56   8 2.56
  19  0.499  0.252  0.750-   7 2.50  12 2.50   8 2.50  27 2.51  15 2.51  14 2.51  29 2.53  24 2.53
                            10 2.53  17 2.54  13 2.57   9 2.57
  20  1.000  0.501  1.000-   5 2.49  11 2.49  28 2.52  32 2.52   2 2.52   4 2.52  12 2.52  15 2.52
                            27 2.53  21 2.53   8 2.56  16 2.56
  21  0.252  0.499  0.250-  11 2.49  12 2.50   7 2.50  30 2.50  23 2.51  29 2.52  24 2.52  28 2.53
                            22 2.53  20 2.53  18 2.53   4 2.53
  22  0.251  0.749  0.501-   8 2.48   9 2.49  17 2.50  24 2.50  30 2.51  18 2.52  11 2.53   1 2.53
                            21 2.53  25 2.53   6 2.53   5 2.54
  23  0.501  0.252  0.250-  15 2.50  14 2.50  16 2.50  21 2.51  12 2.51   7 2.51  29 2.53  24 2.53
                             6 2.53  26 2.54  13 2.57   9 2.57
  24  0.500  0.502  0.500-  14 2.49   7 2.49  16 2.49   8 2.49  31 2.50  22 2.50  25 2.51  30 2.51
                            21 2.52  27 2.52  19 2.53  23 2.53
  25  0.504  0.749  0.750-   8 2.47  10 2.49  13 2.50   9 2.50  27 2.50  17 2.50  32 2.51  31 2.51
                            29 2.51  24 2.51  28 2.53  22 2.53
  26  0.746  0.995  0.250-  32 2.50  31 2.50  30 2.50   9 2.50  13 2.50  23 2.54   3 2.55   1 2.55
                            11 2.56   4 2.57  15 2.58  14 2.58
  27  0.748  0.499  0.750-   5 2.49  15 2.50  14 2.50  25 2.50  19 2.51  29 2.52  24 2.52  32 2.53
                            31 2.53  20 2.53  18 2.53   2 2.53
  28  0.251  0.749  0.999-   8 2.48  13 2.49  17 2.50  29 2.50  30 2.51  20 2.52  11 2.53   3 2.53
                            21 2.53  25 2.53   6 2.53   5 2.54
  29  0.500  0.502  1.000-  15 2.49  12 2.49   8 2.49  16 2.49  28 2.50  32 2.50  25 2.51  30 2.51
                            27 2.52  21 2.52  19 2.53  23 2.53
  30  0.496  0.749  0.250-  16 2.47   6 2.49  13 2.50   9 2.50  21 2.50  26 2.50  28 2.51  22 2.51
                            29 2.51  24 2.51  32 2.53  31 2.53
  31  0.749  0.749  0.499-  16 2.48   9 2.49  26 2.50  24 2.50  25 2.51  18 2.52   5 2.53   1 2.53
                            27 2.53  30 2.53  10 2.53  11 2.54
  32  0.749  0.749  0.001-  16 2.48  13 2.49  26 2.50  29 2.50  25 2.51  20 2.52   5 2.53   3 2.53
                            27 2.53  30 2.53  10 2.53  11 2.54
 

IMPORTANT INFORMATION: All symmetrisations will be switched off!
NOSYMM: (Re-)initialisation of all symmetry stuff for point group C_1.

 
 

Automatic generation of k-mesh.
 generate k-points for:    5    5    5
Space group operators:
 irot       det(A)        alpha          n_x          n_y          n_z        tau_x        tau_y        tau_z
    1     1.000000     0.000000     1.000000     0.000000     0.000000     0.000000     0.000000     0.000000
 
 Subroutine IBZKPT returns following result:
 ===========================================
 
 Found     63 irreducible k-points:
 
 Following reciprocal coordinates:
            Coordinates               Weight
  0.000000  0.000000  0.000000      1.000000
  0.200000  0.000000  0.000000      2.000000
  0.400000  0.000000  0.000000      2.000000
  0.000000  0.200000  0.000000      2.000000
  0.200000  0.200000  0.000000      2.000000
  0.400000  0.200000  0.000000      2.000000
 -0.400000  0.200000  0.000000      2.000000
 -0.200000  0.200000  0.000000      2.000000
  0.000000  0.400000  0.000000      2.000000
  0.200000  0.400000  0.000000      2.000000
  0.400000  0.400000  0.000000      2.000000
 -0.400000  0.400000  0.000000      2.000000
 -0.200000  0.400000  0.000000      2.000000
  0.000000  0.000000  0.200000      2.000000
  0.200000  0.000000  0.200000      2.000000
  0.400000  0.000000  0.200000      2.000000
 -0.400000  0.000000  0.200000      2.000000
 -0.200000  0.000000  0.200000      2.000000
  0.000000  0.200000  0.200000      2.000000
  0.200000  0.200000  0.200000      2.000000
  0.400000  0.200000  0.200000      2.000000
 -0.400000  0.200000  0.200000      2.000000
 -0.200000  0.200000  0.200000      2.000000
  0.000000  0.400000  0.200000      2.000000
  0.200000  0.400000  0.200000      2.000000
  0.400000  0.400000  0.200000      2.000000
 -0.400000  0.400000  0.200000      2.000000
 -0.200000  0.400000  0.200000      2.000000
  0.000000 -0.400000  0.200000      2.000000
  0.200000 -0.400000  0.200000      2.000000
  0.400000 -0.400000  0.200000      2.000000
 -0.400000 -0.400000  0.200000      2.000000
 -0.200000 -0.400000  0.200000      2.000000
  0.000000 -0.200000  0.200000      2.000000
  0.200000 -0.200000  0.200000      2.000000
  0.400000 -0.200000  0.200000      2.000000
 -0.400000 -0.200000  0.200000      2.000000
 -0.200000 -0.200000  0.200000      2.000000
  0.000000  0.000000  0.400000      2.000000
  0.200000  0.000000  0.400000      2.000000
  0.400000  0.000000  0.400000      2.000000
 -0.400000  0.000000  0.400000      2.000000
 -0.200000  0.000000  0.400000      2.000000
  0.000000  0.200000  0.400000      2.000000
  0.200000  0.200000  0.400000      2.000000
  0.400000  0.200000  0.400000      2.000000
 -0.400000  0.200000  0.400000      2.000000
 -0.200000  0.200000  0.400000      2.000000
  0.000000  0.400000  0.400000      2.000000
  0.200000  0.400000  0.400000      2.000000
  0.400000  0.400000  0.400000      2.000000
 -0.400000  0.400000  0.400000      2.000000
 -0.200000  0.400000  0.400000      2.000000
  0.000000 -0.400000  0.400000      2.000000
  0.200000 -0.400000  0.400000      2.000000
  0.400000 -0.400000  0.400000      2.000000
 -0.400000 -0.400000  0.400000      2.000000
 -0.200000 -0.400000  0.400000      2.000000
  0.000000 -0.200000  0.400000      2.000000
  0.200000 -0.200000  0.400000      2.000000
  0.400000 -0.200000  0.400000      2.000000
 -0.400000 -0.200000  0.400000      2.000000
 -0.200000 -0.200000  0.400000      2.000000
 
 Following cartesian coordinates:
            Coordinates               Weight
  0.000000  0.000000  0.000000      1.000000
  0.100000  0.000000  0.000000      2.000000
  0.200000  0.000000  0.000000      2.000000
  0.000000  0.100000  0.000000      2.000000
  0.100000  0.100000  0.000000      2.000000
  0.200000  0.100000  0.000000      2.000000
 -0.200000  0.100000  0.000000      2.000000
 -0.100000  0.100000  0.000000      2.000000
  0.000000  0.200000  0.000000      2.000000
  0.100000  0.200000  0.000000      2.000000
  0.200000  0.200000  0.000000      2.000000
 -0.200000  0.200000  0.000000      2.000000
 -0.100000  0.200000  0.000000      2.000000
  0.000000  0.000000  0.100000      2.000000
  0.100000  0.000000  0.100000      2.000000
  0.200000  0.000000  0.100000      2.000000
 -0.200000  0.000000  0.100000      2.000000
 -0.100000  0.000000  0.100000      2.000000
  0.000000  0.100000  0.100000      2.000000
  0.100000  0.100000  0.100000      2.000000
  0.200000  0.100000  0.100000      2.000000
 -0.200000  0.100000  0.100000      2.000000
 -0.100000  0.100000  0.100000      2.000000
  0.000000  0.200000  0.100000      2.000000
  0.100000  0.200000  0.100000      2.000000
  0.200000  0.200000  0.100000      2.000000
 -0.200000  0.200000  0.100000      2.000000
 -0.100000  0.200000  0.100000      2.000000
  0.000000 -0.200000  0.100000      2.000000
  0.100000 -0.200000  0.100000      2.000000
  0.200000 -0.200000  0.100000      2.000000
 -0.200000 -0.200000  0.100000      2.000000
 -0.100000 -0.200000  0.100000      2.000000
  0.000000 -0.100000  0.100000      2.000000
  0.100000 -0.100000  0.100000      2.000000
  0.200000 -0.100000  0.100000      2.000000
 -0.200000 -0.100000  0.100000      2.000000
 -0.100000 -0.100000  0.100000      2.000000
  0.000000  0.000000  0.200000      2.000000
  0.100000  0.000000  0.200000      2.000000
  0.200000  0.000000  0.200000      2.000000
 -0.200000  0.000000  0.200000      2.000000
 -0.100000  0.000000  0.200000      2.000000
  0.000000  0.100000  0.200000      2.000000
  0.100000  0.100000  0.200000      2.000000
  0.200000  0.100000  0.200000      2.000000
 -0.200000  0.100000  0.200000      2.000000
 -0.100000  0.100000  0.200000      2.000000
  0.000000  0.200000  0.200000      2.000000
  0.100000  0.200000  0.200000      2.000000
  0.200000  0.200000  0.200000      2.000000
 -0.200000  0.200000  0.200000      2.000000
 -0.100000  0.200000  0.200000      2.000000
  0.000000 -0.200000  0.200000      2.000000
  0.100000 -0.200000  0.200000      2.000000
  0.200000 -0.200000  0.200000      2.000000
 -0.200000 -0.200000  0.200000      2.000000
 -0.100000 -0.200000  0.200000      2.000000
  0.000000 -0.100000  0.200000      2.000000
  0.100000 -0.100000  0.200000      2.000000
  0.200000 -0.100000  0.200000      2.000000
 -0.200000 -0.100000  0.200000      2.000000
 -0.100000 -0.100000  0.200000      2.000000
 
 TETIRR: Found    372 inequivalent tetrahedra from      750


--------------------------------------------------------------------------------------------------------




 Dimension of arrays:
   k-points           NKPTS =     63   k-points in BZ     NKDIM =     63   number of bands    NBANDS=    237
   number of dos      NEDOS =    301   number of ions     NIONS =     32
   non local maximal  LDIM  =      6   non local SUM 2l+1 LMDIM =     18
   total plane-waves  NPLWV = 157464
   max r-space proj   IRMAX =   6583   max aug-charges    IRDMAX=  15595
   dimension x,y,z NGX =    54 NGY =   54 NGZ =   54
   dimension x,y,z NGXF=   108 NGYF=  108 NGZF=  108
   support grid    NGXF=   108 NGYF=  108 NGZF=  108
   ions per type =              16  16
   NGX,Y,Z   is equivalent  to a cutoff of  12.57, 12.57, 12.57 a.u.
   NGXF,Y,Z  is equivalent  to a cutoff of  25.14, 25.14, 25.14 a.u.

 SYSTEM =  SQS-NiFe                                
 POSCAR =  POSCAR                                  

 Startparameter for this run:
   NWRITE =      2    write-flag & timer
   PREC   = accura    normal or accurate (medium, high low for compatibility)
   ISTART =      0    job   : 0-new  1-cont  2-samecut
   ICHARG =     11    charge: 1-file 2-atom 10-const
   ISPIN  =      2    spin polarized calculation?
   LNONCOLLINEAR =      F non collinear calculations
   LSORBIT =      F    spin-orbit coupling
   INIWAV =      1    electr: 0-lowe 1-rand  2-diag
   LASPH  =      F    aspherical Exc in radial PAW
   METAGGA=      F    non-selfconsistent MetaGGA calc.

 Electronic Relaxation 1
   ENCUT  =  520.0 eV  38.22 Ry    6.18 a.u.  13.28 13.28 13.28*2*pi/ulx,y,z
   ENINI  =  520.0     initial cutoff
   ENAUG  =  544.6 eV  augmentation charge cutoff
   NELM   =    200;   NELMIN=  2; NELMDL= -5     # of ELM steps 
   EDIFF  = 0.1E-05   stopping-criterion for ELM
   LREAL  =      T    real-space projection
   NLSPLINE    = F    spline interpolate recip. space projectors
   LCOMPAT=      F    compatible to vasp.4.4
   GGA_COMPAT  = T    GGA compatible to vasp.4.4-vasp.4.6
   LMAXPAW     = -100 max onsite density
   LMAXMIX     =    2 max onsite mixed and CHGCAR
   VOSKOWN=      0    Vosko Wilk Nusair interpolation
   ROPT   =   -0.00025  -0.00025
 Ionic relaxation
   EDIFFG = -.2E-01   stopping-criterion for IOM
   NSW    =      0    number of steps for IOM
   NBLOCK =      1;   KBLOCK =      1    inner block; outer block 
   IBRION =     -1    ionic relax: 0-MD 1-quasi-New 2-CG
   NFREE  =      0    steps in history (QN), initial steepest desc. (CG)
   ISIF   =      2    stress and relaxation
   IWAVPR =     10    prediction:  0-non 1-charg 2-wave 3-comb
   ISYM   =      0    0-nonsym 1-usesym 2-fastsym
   LCORR  =      T    Harris-Foulkes like correction to forces

   POTIM  = 0.5000    time-step for ionic-motion
   TEIN   =    0.0    initial temperature
   TEBEG  =    0.0;   TEEND  =   0.0 temperature during run
   SMASS  =  -3.00    Nose mass-parameter (am)
   estimated Nose-frequenzy (Omega)   =  0.10E-29 period in steps =****** mass=  -0.117E-26a.u.
   SCALEE = 1.0000    scale energy and forces
   NPACO  =    256;   APACO  = 16.0  distance and # of slots for P.C.
   PSTRESS=    0.0 pullay stress

  Mass of Ions in am
   POMASS =  55.85 58.69
  Ionic Valenz
   ZVAL   =   8.00 10.00
  Atomic Wigner-Seitz radii
   RWIGS  =  -1.00 -1.00
  virtual crystal weights 
   VCA    =   1.00  1.00
   NELECT =     288.0000    total number of electrons
   NUPDOWN=      -1.0000    fix difference up-down

 DOS related values:
   EMIN   =  10.00;   EMAX   =-10.00  energy-range for DOS
   EFERMI =   0.00
   ISMEAR =    -5;   SIGMA  =   0.20  broadening in eV -4-tet -1-fermi 0-gaus

 Electronic relaxation 2 (details)
   IALGO  =     68    algorithm
   LDIAG  =      T    sub-space diagonalisation (order eigenvalues)
   LSUBROT=      F    optimize rotation matrix (better conditioning)
   TURBO    =      0    0=normal 1=particle mesh
   IRESTART =      0    0=no restart 2=restart with 2 vectors
   NREBOOT  =      0    no. of reboots
   NMIN     =      0    reboot dimension
   EREF     =   0.00    reference energy to select bands
   IMIX   =      4    mixing-type and parameters
     AMIX     =   0.40;   BMIX     =  1.00
     AMIX_MAG =   1.60;   BMIX_MAG =  1.00
     AMIN     =   0.10
     WC   =   100.;   INIMIX=   1;  MIXPRE=   1;  MAXMIX= -45

 Intra band minimization:
   WEIMIN = 0.0000     energy-eigenvalue tresh-hold
   EBREAK =  0.11E-08  absolut break condition
   DEPER  =   0.30     relativ break condition  

   TIME   =   0.40     timestep for ELM

  volume/ion in A,a.u.               =      11.38        76.83
  Fermi-wavevector in a.u.,A,eV,Ry     =   1.513744  2.860562 31.176681  2.291421
  Thomas-Fermi vector in A             =   2.623494
 
 Write flags
   LWAVE        =      F    write WAVECAR
   LDOWNSAMPLE  =      F    k-point downsampling of WAVECAR
   LCHARG       =      F    write CHGCAR
   LVTOT        =      F    write LOCPOT, total local potential
   LVHAR        =      F    write LOCPOT, Hartree potential only
   LELF         =      F    write electronic localiz. function (ELF)
   LORBIT       =     11    0 simple, 1 ext, 2 COOP (PROOUT), +10 PAW based schemes


 Dipole corrections
   LMONO  =      F    monopole corrections only (constant potential shift)
   LDIPOL =      F    correct potential (dipole corrections)
   IDIPOL =      0    1-x, 2-y, 3-z, 4-all directions 
   EPSILON=  1.0000000 bulk dielectric constant

 Exchange correlation treatment:
   GGA     =    --    GGA type
   LEXCH   =     8    internal setting for exchange type
   VOSKOWN=      0    Vosko Wilk Nusair interpolation
   LHFCALC =     F    Hartree Fock is set to
   LHFONE  =     F    Hartree Fock one center treatment
   AEXX    =    0.0000 exact exchange contribution

 Linear response parameters
   LEPSILON=     F    determine dielectric tensor
   LRPA    =     F    only Hartree local field effects (RPA)
   LNABLA  =     F    use nabla operator in PAW spheres
   LVEL    =     F    velocity operator in full k-point grid
   LINTERFAST=   F  fast interpolation
   KINTER  =     0    interpolate to denser k-point grid
   CSHIFT  =0.1000    complex shift for real part using Kramers Kronig
   OMEGAMAX=  -1.0    maximum frequency
   DEG_THRESHOLD= 0.2000000E-02 threshold for treating states as degnerate
   RTIME   =   -0.100 relaxation time in fs
  (WPLASMAI=    0.000 imaginary part of plasma frequency in eV, 0.658/RTIME)
   DFIELD  = 0.0000000 0.0000000 0.0000000 field for delta impulse in time
 
 Orbital magnetization related:
   ORBITALMAG=     F  switch on orbital magnetization
   LCHIMAG   =     F  perturbation theory with respect to B field
   DQ        =  0.001000  dq finite difference perturbation B field
   LLRAUG    =     F  two centre corrections for induced B field



--------------------------------------------------------------------------------------------------------


 Static calculation
 charge density and potential remain constant during run
 spin polarized calculation
 RMM-DIIS sequential band-by-band and
  variant of blocked Davidson during initial phase
 perform sub-space diagonalisation
    before iterative eigenvector-optimisation
 no mixing
 using additional bands           93
 real space projection scheme for non local part
 use partial core corrections
 calculate Harris-corrections to forces 
   (improved forces if not selfconsistent)
 use gradient corrections 
 WARNING: stress and forces are not correct
  (second derivative of E(xc) not defined)
 use of overlap-Matrix (Vanderbilt PP)
 Fermi weights with tetrahedron method with Bloechl corrections


--------------------------------------------------------------------------------------------------------


  energy-cutoff  :      520.00
  volume of cell :      364.30
      direct lattice vectors                 reciprocal lattice vectors
     7.142000000  0.000000000  0.000000000     0.140016802  0.000000000  0.000000000
     0.000000000  7.142000000  0.000000000     0.000000000  0.140016802  0.000000000
     0.000000000  0.000000000  7.142000000     0.000000000  0.000000000  0.140016802

  length of vectors
     7.142000000  7.142000000  7.142000000     0.140016802  0.140016802  0.140016802


 
 k-points in units of 2pi/SCALE and weight: read from INCAR                         
   0.00000000  0.00000000  0.00000000       0.008
   0.10000000  0.00000000  0.00000000       0.016
   0.20000000  0.00000000  0.00000000       0.016
   0.00000000  0.10000000  0.00000000       0.016
   0.10000000  0.10000000  0.00000000       0.016
   0.20000000  0.10000000  0.00000000       0.016
  -0.20000000  0.10000000  0.00000000       0.016
  -0.10000000  0.10000000  0.00000000       0.016
   0.00000000  0.20000000  0.00000000       0.016
   0.10000000  0.20000000  0.00000000       0.016
   0.20000000  0.20000000  0.00000000       0.016
  -0.20000000  0.20000000  0.00000000       0.016
  -0.10000000  0.20000000  0.00000000       0.016
   0.00000000  0.00000000  0.10000000       0.016
   0.10000000  0.00000000  0.10000000       0.016
   0.20000000  0.00000000  0.10000000       0.016
  -0.20000000  0.00000000  0.10000000       0.016
  -0.10000000  0.00000000  0.10000000       0.016
   0.00000000  0.10000000  0.10000000       0.016
   0.10000000  0.10000000  0.10000000       0.016
   0.20000000  0.10000000  0.10000000       0.016
  -0.20000000  0.10000000  0.10000000       0.016
  -0.10000000  0.10000000  0.10000000       0.016
   0.00000000  0.20000000  0.10000000       0.016
   0.10000000  0.20000000  0.10000000       0.016
   0.20000000  0.20000000  0.10000000       0.016
  -0.20000000  0.20000000  0.10000000       0.016
  -0.10000000  0.20000000  0.10000000       0.016
   0.00000000 -0.20000000  0.10000000       0.016
   0.10000000 -0.20000000  0.10000000       0.016
   0.20000000 -0.20000000  0.10000000       0.016
  -0.20000000 -0.20000000  0.10000000       0.016
  -0.10000000 -0.20000000  0.10000000       0.016
   0.00000000 -0.10000000  0.10000000       0.016
   0.10000000 -0.10000000  0.10000000       0.016
   0.20000000 -0.10000000  0.10000000       0.016
  -0.20000000 -0.10000000  0.10000000       0.016
  -0.10000000 -0.10000000  0.10000000       0.016
   0.00000000  0.00000000  0.20000000       0.016
   0.10000000  0.00000000  0.20000000       0.016
   0.20000000  0.00000000  0.20000000       0.016
  -0.20000000  0.00000000  0.20000000       0.016
  -0.10000000  0.00000000  0.20000000       0.016
   0.00000000  0.10000000  0.20000000       0.016
   0.10000000  0.10000000  0.20000000       0.016
   0.20000000  0.10000000  0.20000000       0.016
  -0.20000000  0.10000000  0.20000000       0.016
  -0.10000000  0.10000000  0.20000000       0.016
   0.00000000  0.20000000  0.20000000       0.016
   0.10000000  0.20000000  0.20000000       0.016
   0.20000000  0.20000000  0.20000000       0.016
  -0.20000000  0.20000000  0.20000000       0.016
  -0.10000000  0.20000000  0.20000000       0.016
   0.00000000 -0.20000000  0.20000000       0.016
   0.10000000 -0.20000000  0.20000000       0.016
   0.20000000 -0.20000000  0.20000000       0.016
  -0.20000000 -0.20000000  0.20000000       0.016
  -0.10000000 -0.20000000  0.20000000       0.016
   0.00000000 -0.10000000  0.20000000       0.016
   0.10000000 -0.10000000  0.20000000       0.016
   0.20000000 -0.10000000  0.20000000       0.016
  -0.20000000 -0.10000000  0.20000000       0.016
  -0.10000000 -0.10000000  0.20000000       0.016
 
 k-points in reciprocal lattice and weights: read from INCAR                         
   0.00000000  0.00000000  0.00000000       0.008
   0.20000000  0.00000000  0.00000000       0.016
   0.40000000  0.00000000  0.00000000       0.016
   0.00000000  0.20000000  0.00000000       0.016
   0.20000000  0.20000000  0.00000000       0.016
   0.40000000  0.20000000  0.00000000       0.016
  -0.40000000  0.20000000  0.00000000       0.016
  -0.20000000  0.20000000  0.00000000       0.016
   0.00000000  0.40000000  0.00000000       0.016
   0.20000000  0.40000000  0.00000000       0.016
   0.40000000  0.40000000  0.00000000       0.016
  -0.40000000  0.40000000  0.00000000       0.016
  -0.20000000  0.40000000  0.00000000       0.016
   0.00000000  0.00000000  0.20000000       0.016
   0.20000000  0.00000000  0.20000000       0.016
   0.40000000  0.00000000  0.20000000       0.016
  -0.40000000  0.00000000  0.20000000       0.016
  -0.20000000  0.00000000  0.20000000       0.016
   0.00000000  0.20000000  0.20000000       0.016
   0.20000000  0.20000000  0.20000000       0.016
   0.40000000  0.20000000  0.20000000       0.016
  -0.40000000  0.20000000  0.20000000       0.016
  -0.20000000  0.20000000  0.20000000       0.016
   0.00000000  0.40000000  0.20000000       0.016
   0.20000000  0.40000000  0.20000000       0.016
   0.40000000  0.40000000  0.20000000       0.016
  -0.40000000  0.40000000  0.20000000       0.016
  -0.20000000  0.40000000  0.20000000       0.016
   0.00000000 -0.40000000  0.20000000       0.016
   0.20000000 -0.40000000  0.20000000       0.016
   0.40000000 -0.40000000  0.20000000       0.016
  -0.40000000 -0.40000000  0.20000000       0.016
  -0.20000000 -0.40000000  0.20000000       0.016
   0.00000000 -0.20000000  0.20000000       0.016
   0.20000000 -0.20000000  0.20000000       0.016
   0.40000000 -0.20000000  0.20000000       0.016
  -0.40000000 -0.20000000  0.20000000       0.016
  -0.20000000 -0.20000000  0.20000000       0.016
   0.00000000  0.00000000  0.40000000       0.016
   0.20000000  0.00000000  0.40000000       0.016
   0.40000000  0.00000000  0.40000000       0.016
  -0.40000000  0.00000000  0.40000000       0.016
  -0.20000000  0.00000000  0.40000000       0.016
   0.00000000  0.20000000  0.40000000       0.016
   0.20000000  0.20000000  0.40000000       0.016
   0.40000000  0.20000000  0.40000000       0.016
  -0.40000000  0.20000000  0.40000000       0.016
  -0.20000000  0.20000000  0.40000000       0.016
   0.00000000  0.40000000  0.40000000       0.016
   0.20000000  0.40000000  0.40000000       0.016
   0.40000000  0.40000000  0.40000000       0.016
  -0.40000000  0.40000000  0.40000000       0.016
  -0.20000000  0.40000000  0.40000000       0.016
   0.00000000 -0.40000000  0.40000000       0.016
   0.20000000 -0.40000000  0.40000000       0.016
   0.40000000 -0.40000000  0.40000000       0.016
  -0.40000000 -0.40000000  0.40000000       0.016
  -0.20000000 -0.40000000  0.40000000       0.016
   0.00000000 -0.20000000  0.40000000       0.016
   0.20000000 -0.20000000  0.40000000       0.016
   0.40000000 -0.20000000  0.40000000       0.016
  -0.40000000 -0.20000000  0.40000000       0.016
  -0.20000000 -0.20000000  0.40000000       0.016
 
 position of ions in fractional coordinates (direct lattice) 
   0.99999786  0.99821196  0.50000161
   0.00347326  0.25248865  0.75000005
   0.00000101  0.99821394  0.99999972
   0.99652452  0.25248798  0.25000101
   0.99775554  0.74376684  0.75000284
   0.25396965  0.99918777  0.24999652
   0.25406350  0.25538753  0.50059492
   0.25737441  0.50639448  0.75000412
   0.50000770  0.99346185  0.50000426
   0.74603336  0.99918461  0.75000479
   0.00224450  0.74376930  0.24999687
   0.25405802  0.25538719  0.99940643
   0.49999635  0.99346322  0.99999465
   0.74593727  0.25538856  0.49940670
   0.74594149  0.25538663  0.00059264
   0.74262557  0.50639197  0.24999633
   0.25413704  0.99472621  0.75000064
   0.99999843  0.50121287  0.50000004
   0.49878917  0.25201426  0.75000318
   0.99999983  0.50121468  0.99999933
   0.25155100  0.49910383  0.24999914
   0.25099506  0.74878762  0.50133594
   0.50121113  0.25201295  0.24999678
   0.50000030  0.50204310  0.49999983
   0.50366369  0.74903825  0.75000319
   0.74586135  0.99472602  0.24999765
   0.74844851  0.49910659  0.75000211
   0.25099449  0.74878651  0.99866334
   0.50000006  0.50204173  0.99999984
   0.49633540  0.74904007  0.24999581
   0.74900527  0.74878575  0.49866286
   0.74900523  0.74878708  0.00133687
 
 position of ions in cartesian coordinates  (Angst):
   7.14198470  7.12922982  3.57101152
   0.02480603  1.80327395  5.35650034
   0.00000724  7.12924397  7.14199801
   7.11717814  1.80326919  1.78550723
   7.12597006  5.31198276  5.35652026
   1.81385125  7.13619906  1.78547513
   1.81452154  1.82397774  3.57524890
   1.83816805  3.61666938  5.35652945
   3.57105502  7.09530454  3.57103042
   5.32817027  7.13617645  5.35653419
   0.01603023  5.31200034  1.78547767
   1.81448235  1.82397529  7.13776069
   3.57097395  7.09531430  7.14196177
   5.32748398  1.82398512  3.56676267
   5.32751412  1.82397132  0.00423265
   5.30383180  3.61665143  1.78547378
   1.81504676  7.10433458  5.35650459
   7.14198880  3.57966233  3.57100028
   3.56235227  1.79988582  5.35652273
   7.14199876  3.57967522  7.14199521
   1.79657723  3.56459958  1.78549387
   1.79260675  5.34784116  3.58054127
   3.57964987  1.79987647  1.78547698
   3.57100216  3.58559185  3.57099880
   3.59716608  5.34963118  5.35652279
   5.32694175  7.10433321  1.78548321
   5.34541929  3.56461924  5.35651505
   1.79260266  5.34783328  7.13245360
   3.57100046  3.58558205  7.14199883
   3.54482745  5.34964421  1.78547004
   5.34939562  5.34782785  3.56145017
   5.34939535  5.34783731  0.00954791
 


--------------------------------------------------------------------------------------------------------


 k-point  1 :   0.0000 0.0000 0.0000  plane waves:    9795
 k-point  2 :   0.2000 0.0000 0.0000  plane waves:    9823
 k-point  3 :   0.4000 0.0000 0.0000  plane waves:    9806
 k-point  4 :   0.0000 0.2000 0.0000  plane waves:    9823
 k-point  5 :   0.2000 0.2000 0.0000  plane waves:    9819
 k-point  6 :   0.4000 0.2000 0.0000  plane waves:    9805
 k-point  7 :  -0.4000 0.2000 0.0000  plane waves:    9805
 k-point  8 :  -0.2000 0.2000 0.0000  plane waves:    9819
 k-point  9 :   0.0000 0.4000 0.0000  plane waves:    9806
 k-point 10 :   0.2000 0.4000 0.0000  plane waves:    9805
 k-point 11 :   0.4000 0.4000 0.0000  plane waves:    9820
 k-point 12 :  -0.4000 0.4000 0.0000  plane waves:    9820
 k-point 13 :  -0.2000 0.4000 0.0000  plane waves:    9805
 k-point 14 :   0.0000 0.0000 0.2000  plane waves:    9823
 k-point 15 :   0.2000 0.0000 0.2000  plane waves:    9819
 k-point 16 :   0.4000 0.0000 0.2000  plane waves:    9805
 k-point 17 :  -0.4000 0.0000 0.2000  plane waves:    9805
 k-point 18 :  -0.2000 0.0000 0.2000  plane waves:    9819
 k-point 19 :   0.0000 0.2000 0.2000  plane waves:    9819
 k-point 20 :   0.2000 0.2000 0.2000  plane waves:    9795
 k-point 21 :   0.4000 0.2000 0.2000  plane waves:    9821
 k-point 22 :  -0.4000 0.2000 0.2000  plane waves:    9821
 k-point 23 :  -0.2000 0.2000 0.2000  plane waves:    9795
 k-point 24 :   0.0000 0.4000 0.2000  plane waves:    9805
 k-point 25 :   0.2000 0.4000 0.2000  plane waves:    9821
 k-point 26 :   0.4000 0.4000 0.2000  plane waves:    9788
 k-point 27 :  -0.4000 0.4000 0.2000  plane waves:    9788
 k-point 28 :  -0.2000 0.4000 0.2000  plane waves:    9821
 k-point 29 :   0.0000-0.4000 0.2000  plane waves:    9805
 k-point 30 :   0.2000-0.4000 0.2000  plane waves:    9821
 k-point 31 :   0.4000-0.4000 0.2000  plane waves:    9788
 k-point 32 :  -0.4000-0.4000 0.2000  plane waves:    9788
 k-point 33 :  -0.2000-0.4000 0.2000  plane waves:    9821
 k-point 34 :   0.0000-0.2000 0.2000  plane waves:    9819
 k-point 35 :   0.2000-0.2000 0.2000  plane waves:    9795
 k-point 36 :   0.4000-0.2000 0.2000  plane waves:    9821
 k-point 37 :  -0.4000-0.2000 0.2000  plane waves:    9821
 k-point 38 :  -0.2000-0.2000 0.2000  plane waves:    9795
 k-point 39 :   0.0000 0.0000 0.4000  plane waves:    9806
 k-point 40 :   0.2000 0.0000 0.4000  plane waves:    9805
 k-point 41 :   0.4000 0.0000 0.4000  plane waves:    9820
 k-point 42 :  -0.4000 0.0000 0.4000  plane waves:    9820
 k-point 43 :  -0.2000 0.0000 0.4000  plane waves:    9805
 k-point 44 :   0.0000 0.2000 0.4000  plane waves:    9805
 k-point 45 :   0.2000 0.2000 0.4000  plane waves:    9821
 k-point 46 :   0.4000 0.2000 0.4000  plane waves:    9788
 k-point 47 :  -0.4000 0.2000 0.4000  plane waves:    9788
 k-point 48 :  -0.2000 0.2000 0.4000  plane waves:    9821
 k-point 49 :   0.0000 0.4000 0.4000  plane waves:    9820
 k-point 50 :   0.2000 0.4000 0.4000  plane waves:    9788
 k-point 51 :   0.4000 0.4000 0.4000  plane waves:    9814
 k-point 52 :  -0.4000 0.4000 0.4000  plane waves:    9814
 k-point 53 :  -0.2000 0.4000 0.4000  plane waves:    9788
 k-point 54 :   0.0000-0.4000 0.4000  plane waves:    9820
 k-point 55 :   0.2000-0.4000 0.4000  plane waves:    9788
 k-point 56 :   0.4000-0.4000 0.4000  plane waves:    9814
 k-point 57 :  -0.4000-0.4000 0.4000  plane waves:    9814
 k-point 58 :  -0.2000-0.4000 0.4000  plane waves:    9788
 k-point 59 :   0.0000-0.2000 0.4000  plane waves:    9805
 k-point 60 :   0.2000-0.2000 0.4000  plane waves:    9821
 k-point 61 :   0.4000-0.2000 0.4000  plane waves:    9788
 k-point 62 :  -0.4000-0.2000 0.4000  plane waves:    9788
 k-point 63 :  -0.2000-0.2000 0.4000  plane waves:    9821

 maximum and minimum number of plane-waves per node :      1253     1195

 maximum number of plane-waves:      9823
 maximum index in each direction: 
   IXMAX=   13   IYMAX=   13   IZMAX=   13
   IXMIN=  -13   IYMIN=  -13   IZMIN=  -13


 real space projection operators:
  total allocation   :      26213.91 KBytes
  max/ min on nodes  :       3422.25       2969.44


 parallel 3D FFT for wavefunctions:
    minimum data exchange during FFTs selected (reduces bandwidth)
 parallel 3D FFT for charge:
    minimum data exchange during FFTs selected (reduces bandwidth)


 total amount of memory used by VASP MPI-rank0   258029. kBytes
=======================================================================

   base      :      30000. kBytes
   nonlr-proj:       7779. kBytes
   fftplans  :       2563. kBytes
   grid      :       6379. kBytes
   one-center:        124. kBytes
   wavefun   :     211184. kBytes
 
     INWAV:  cpu time    0.0010: real time    0.0001
 initial charge density was supplied:
 number of electron     287.9999843 magnetization      51.6148309
 keeping initial charge density in first step


--------------------------------------------------------------------------------------------------------


 Maximum index for non-local projection operator          932
 Maximum index for augmentation-charges         1041 (set IRDMAX)


--------------------------------------------------------------------------------------------------------


 First call to EWALD:  gamma=   0.248
 Maximum number of real-space cells 3x 3x 3
 Maximum number of reciprocal cells 3x 3x 3

    FEWALD:  cpu time    0.0020: real time    0.0017


--------------------------------------- Iteration      1(   1)  ---------------------------------------


    POTLOK:  cpu time    0.0800: real time    0.0842
    SETDIJ:  cpu time    0.0190: real time    0.0183
     EDDAV:  cpu time   71.3482: real time   71.7559
 BZINTS: Fermi energy: 21.601306;288.000000 electrons
         Band energy:4191.721216;  BLOECHL correction: -0.040031
       DOS:  cpu time    0.4239: real time    0.4267
    --------------------------------------------
      LOOP:  cpu time   71.8711: real time   72.2852

 eigenvalue-minimisations  : 59814
 total energy-change (2. order) : 0.2514131E+04  (-0.1121924E+05)
 number of electron     287.9999843 magnetization      51.6148309
 augmentation part      287.9999843 magnetization      51.6148309

 Free energy of the ion-electron system (eV)
  ---------------------------------------------------
  alpha Z        PSCENC =      1737.85356999
  Ewald energy   TEWEN  =    -23952.58598529
  -Hartree energ DENC   =     -5534.74685663
  -exchange      EXHF   =         0.00000000
  -V(xc)+E(xc)   XCENC  =       564.73612079
  PAW double counting   =     29633.65168588   -30878.23636465
  entropy T*S    EENTRO =         0.00000000
  eigenvalues    EBANDS =      4191.72121563
  atomic energy  EATOM  =     26751.73760169
  Solvation  Ediel_sol  =         0.00000000
  ---------------------------------------------------
  free energy    TOTEN  =      2514.13098742 eV

  energy without entropy =     2514.13098742  energy(sigma->0) =     2514.13098742


--------------------------------------------------------------------------------------------------------




--------------------------------------- Iteration      1(   2)  ---------------------------------------


     EDDAV:  cpu time   71.4491: real time   71.6627
 BZINTS: Fermi energy:  9.686230;288.000000 electrons
         Band energy:1834.488381;  BLOECHL correction: -0.021037
       DOS:  cpu time    0.4239: real time    0.4244
    --------------------------------------------
      LOOP:  cpu time   71.8731: real time   72.0871

 eigenvalue-minimisations  : 59724
 total energy-change (2. order) :-0.2357233E+04  (-0.2173083E+04)
 number of electron     287.9999843 magnetization      51.6148309
 augmentation part      287.9999843 magnetization      51.6148309

 Free energy of the ion-electron system (eV)
  ---------------------------------------------------
  alpha Z        PSCENC =      1737.85356999
  Ewald energy   TEWEN  =    -23952.58598529
  -Hartree energ DENC   =     -5534.74685663
  -exchange      EXHF   =         0.00000000
  -V(xc)+E(xc)   XCENC  =       564.73612079
  PAW double counting   =     29633.65168588   -30878.23636465
  entropy T*S    EENTRO =         0.00000000
  eigenvalues    EBANDS =      1834.48838110
  atomic energy  EATOM  =     26751.73760169
  Solvation  Ediel_sol  =         0.00000000
  ---------------------------------------------------
  free energy    TOTEN  =       156.89815290 eV

  energy without entropy =      156.89815290  energy(sigma->0) =      156.89815290


--------------------------------------------------------------------------------------------------------




--------------------------------------- Iteration      1(   3)  ---------------------------------------


     EDDAV:  cpu time   71.2772: real time   71.5865
 BZINTS: Fermi energy:  7.536769;288.000000 electrons
         Band energy:1481.737609;  BLOECHL correction: -0.132667
       DOS:  cpu time    0.4169: real time    0.4183
    --------------------------------------------
      LOOP:  cpu time   71.6941: real time   72.0048

 eigenvalue-minimisations  : 59736
 total energy-change (2. order) :-0.3527508E+03  (-0.2779002E+03)
 number of electron     287.9999843 magnetization      51.6148309
 augmentation part      287.9999843 magnetization      51.6148309

 Free energy of the ion-electron system (eV)
  ---------------------------------------------------
  alpha Z        PSCENC =      1737.85356999
  Ewald energy   TEWEN  =    -23952.58598529
  -Hartree energ DENC   =     -5534.74685663
  -exchange      EXHF   =         0.00000000
  -V(xc)+E(xc)   XCENC  =       564.73612079
  PAW double counting   =     29633.65168588   -30878.23636465
  entropy T*S    EENTRO =         0.00000000
  eigenvalues    EBANDS =      1481.73760929
  atomic energy  EATOM  =     26751.73760169
  Solvation  Ediel_sol  =         0.00000000
  ---------------------------------------------------
  free energy    TOTEN  =      -195.85261892 eV

  energy without entropy =     -195.85261892  energy(sigma->0) =     -195.85261892


--------------------------------------------------------------------------------------------------------




--------------------------------------- Iteration      1(   4)  ---------------------------------------


     EDDAV:  cpu time   76.1304: real time   76.6461
 BZINTS: Fermi energy:  7.455719;288.000000 electrons
         Band energy:1458.328050;  BLOECHL correction: -0.136215
       DOS:  cpu time    0.4249: real time    0.4250
    --------------------------------------------
      LOOP:  cpu time   76.5554: real time   77.0711

 eigenvalue-minimisations  : 64452
 total energy-change (2. order) :-0.2340956E+02  (-0.2272563E+02)
 number of electron     287.9999843 magnetization      51.6148309
 augmentation part      287.9999843 magnetization      51.6148309

 Free energy of the ion-electron system (eV)
  ---------------------------------------------------
  alpha Z        PSCENC =      1737.85356999
  Ewald energy   TEWEN  =    -23952.58598529
  -Hartree energ DENC   =     -5534.74685663
  -exchange      EXHF   =         0.00000000
  -V(xc)+E(xc)   XCENC  =       564.73612079
  PAW double counting   =     29633.65168588   -30878.23636465
  entropy T*S    EENTRO =         0.00000000
  eigenvalues    EBANDS =      1458.32805033
  atomic energy  EATOM  =     26751.73760169
  Solvation  Ediel_sol  =         0.00000000
  ---------------------------------------------------
  free energy    TOTEN  =      -219.26217788 eV

  energy without entropy =     -219.26217788  energy(sigma->0) =     -219.26217788


--------------------------------------------------------------------------------------------------------




--------------------------------------- Iteration      1(   5)  ---------------------------------------


     EDDAV:  cpu time   83.3603: real time   83.6131
 BZINTS: Fermi energy:  7.454702;288.000000 electrons
         Band energy:1458.020030;  BLOECHL correction: -0.136104
       DOS:  cpu time    0.4239: real time    0.4247
    --------------------------------------------
      LOOP:  cpu time   83.7843: real time   84.0378

 eigenvalue-minimisations  : 72708
 total energy-change (2. order) :-0.3080204E+00  (-0.3078296E+00)
 number of electron     287.9999843 magnetization      51.6148309
 augmentation part      287.9999843 magnetization      51.6148309

 Free energy of the ion-electron system (eV)
  ---------------------------------------------------
  alpha Z        PSCENC =      1737.85356999
  Ewald energy   TEWEN  =    -23952.58598529
  -Hartree energ DENC   =     -5534.74685663
  -exchange      EXHF   =         0.00000000
  -V(xc)+E(xc)   XCENC  =       564.73612079
  PAW double counting   =     29633.65168588   -30878.23636465
  entropy T*S    EENTRO =         0.00000000
  eigenvalues    EBANDS =      1458.02002993
  atomic energy  EATOM  =     26751.73760169
  Solvation  Ediel_sol  =         0.00000000
  ---------------------------------------------------
  free energy    TOTEN  =      -219.57019828 eV

  energy without entropy =     -219.57019828  energy(sigma->0) =     -219.57019828


--------------------------------------------------------------------------------------------------------




--------------------------------------- Iteration      1(   6)  ---------------------------------------


    EDDIAG:  cpu time    9.2346: real time    9.2652
  RMM-DIIS:  cpu time   49.7364: real time   49.9973
    ORTHCH:  cpu time    1.7237: real time    1.7395
 BZINTS: Fermi energy:  7.454658;288.000000 electrons
         Band energy:1458.008067;  BLOECHL correction: -0.136099
       DOS:  cpu time    0.4339: real time    0.4353
    --------------------------------------------
      LOOP:  cpu time   61.1287: real time   61.4373

 eigenvalue-minimisations  : 65645
 total energy-change (2. order) :-0.1196253E-01  (-0.1196400E-01)
 number of electron     287.9999843 magnetization      51.6148309
 augmentation part      287.9999843 magnetization      51.6148309

 Free energy of the ion-electron system (eV)
  ---------------------------------------------------
  alpha Z        PSCENC =      1737.85356999
  Ewald energy   TEWEN  =    -23952.58598529
  -Hartree energ DENC   =     -5534.74685663
  -exchange      EXHF   =         0.00000000
  -V(xc)+E(xc)   XCENC  =       564.73612079
  PAW double counting   =     29633.65168588   -30878.23636465
  entropy T*S    EENTRO =         0.00000000
  eigenvalues    EBANDS =      1458.00806741
  atomic energy  EATOM  =     26751.73760169
  Solvation  Ediel_sol  =         0.00000000
  ---------------------------------------------------
  free energy    TOTEN  =      -219.58216080 eV

  energy without entropy =     -219.58216080  energy(sigma->0) =     -219.58216080


--------------------------------------------------------------------------------------------------------




--------------------------------------- Iteration      1(   7)  ---------------------------------------


    EDDIAG:  cpu time    9.3586: real time    9.3899
  RMM-DIIS:  cpu time   70.5743: real time   70.8778
    ORTHCH:  cpu time    1.7647: real time    1.8058
 BZINTS: Fermi energy:  7.454645;288.000000 electrons
         Band energy:1458.004350;  BLOECHL correction: -0.136099
       DOS:  cpu time    0.4339: real time    0.4429
    --------------------------------------------
      LOOP:  cpu time   82.1315: real time   82.5165

 eigenvalue-minimisations  : 94566
 total energy-change (2. order) :-0.3717695E-02  (-0.3708208E-02)
 number of electron     287.9999843 magnetization      51.6148309
 augmentation part      287.9999843 magnetization      51.6148309

 Free energy of the ion-electron system (eV)
  ---------------------------------------------------
  alpha Z        PSCENC =      1737.85356999
  Ewald energy   TEWEN  =    -23952.58598529
  -Hartree energ DENC   =     -5534.74685663
  -exchange      EXHF   =         0.00000000
  -V(xc)+E(xc)   XCENC  =       564.73612079
  PAW double counting   =     29633.65168588   -30878.23636465
  entropy T*S    EENTRO =         0.00000000
  eigenvalues    EBANDS =      1458.00434971
  atomic energy  EATOM  =     26751.73760169
  Solvation  Ediel_sol  =         0.00000000
  ---------------------------------------------------
  free energy    TOTEN  =      -219.58587850 eV

  energy without entropy =     -219.58587850  energy(sigma->0) =     -219.58587850


--------------------------------------------------------------------------------------------------------




--------------------------------------- Iteration      1(   8)  ---------------------------------------


    EDDIAG:  cpu time    9.7925: real time   10.0362
  RMM-DIIS:  cpu time   65.8460: real time   66.1997
    ORTHCH:  cpu time    1.7587: real time    1.7639
 BZINTS: Fermi energy:  7.454645;288.000000 electrons
         Band energy:1458.004340;  BLOECHL correction: -0.136099
       DOS:  cpu time    0.4249: real time    0.4254
    --------------------------------------------
      LOOP:  cpu time   77.8222: real time   78.4252

 eigenvalue-minimisations  : 87445
 total energy-change (2. order) :-0.1006953E-04  (-0.3042753E-04)
 number of electron     287.9999843 magnetization      51.6148309
 augmentation part      287.9999843 magnetization      51.6148309

 Free energy of the ion-electron system (eV)
  ---------------------------------------------------
  alpha Z        PSCENC =      1737.85356999
  Ewald energy   TEWEN  =    -23952.58598529
  -Hartree energ DENC   =     -5534.74685663
  -exchange      EXHF   =         0.00000000
  -V(xc)+E(xc)   XCENC  =       564.73612079
  PAW double counting   =     29633.65168588   -30878.23636465
  entropy T*S    EENTRO =         0.00000000
  eigenvalues    EBANDS =      1458.00433964
  atomic energy  EATOM  =     26751.73760169
  Solvation  Ediel_sol  =         0.00000000
  ---------------------------------------------------
  free energy    TOTEN  =      -219.58588857 eV

  energy without entropy =     -219.58588857  energy(sigma->0) =     -219.58588857


--------------------------------------------------------------------------------------------------------




--------------------------------------- Iteration      1(   9)  ---------------------------------------


    EDDIAG:  cpu time    9.3586: real time    9.3752
  RMM-DIIS:  cpu time   57.9152: real time   58.1612
    ORTHCH:  cpu time    1.7627: real time    1.7655
 BZINTS: Fermi energy:  7.454645;288.000000 electrons
         Band energy:1458.004337;  BLOECHL correction: -0.136099
       DOS:  cpu time    0.4239: real time    0.4247
    --------------------------------------------
      LOOP:  cpu time   69.4604: real time   69.7265

 eigenvalue-minimisations  : 76497
 total energy-change (2. order) :-0.2624151E-05  (-0.2628889E-05)
 number of electron     287.9999843 magnetization      51.6148309
 augmentation part      287.9999843 magnetization      51.6148309

 Free energy of the ion-electron system (eV)
  ---------------------------------------------------
  alpha Z        PSCENC =      1737.85356999
  Ewald energy   TEWEN  =    -23952.58598529
  -Hartree energ DENC   =     -5534.74685663
  -exchange      EXHF   =         0.00000000
  -V(xc)+E(xc)   XCENC  =       564.73612079
  PAW double counting   =     29633.65168588   -30878.23636465
  entropy T*S    EENTRO =         0.00000000
  eigenvalues    EBANDS =      1458.00433702
  atomic energy  EATOM  =     26751.73760169
  Solvation  Ediel_sol  =         0.00000000
  ---------------------------------------------------
  free energy    TOTEN  =      -219.58589119 eV

  energy without entropy =     -219.58589119  energy(sigma->0) =     -219.58589119


--------------------------------------------------------------------------------------------------------




--------------------------------------- Iteration      1(  10)  ---------------------------------------


    EDDIAG:  cpu time    9.3416: real time    9.3564
  RMM-DIIS:  cpu time   40.4389: real time   40.5944
    ORTHCH:  cpu time    1.7677: real time    1.7688
 BZINTS: Fermi energy:  7.454645;288.000000 electrons
         Band energy:1458.004337;  BLOECHL correction: -0.136099
       DOS:  cpu time    0.3779: real time    0.3781
    --------------------------------------------
      LOOP:  cpu time   51.9261: real time   52.0977

 eigenvalue-minimisations  : 51889
 total energy-change (2. order) :-0.2071720E-06  (-0.2061586E-06)
 number of electron     287.9999843 magnetization      51.6148309
 augmentation part      287.9999843 magnetization      51.6148309

 Free energy of the ion-electron system (eV)
  ---------------------------------------------------
  alpha Z        PSCENC =      1737.85356999
  Ewald energy   TEWEN  =    -23952.58598529
  -Hartree energ DENC   =     -5534.74685663
  -exchange      EXHF   =         0.00000000
  -V(xc)+E(xc)   XCENC  =       564.73612079
  PAW double counting   =     29633.65168588   -30878.23636465
  entropy T*S    EENTRO =         0.00000000
  eigenvalues    EBANDS =      1458.00433681
  atomic energy  EATOM  =     26751.73760169
  Solvation  Ediel_sol  =         0.00000000
  ---------------------------------------------------
  free energy    TOTEN  =      -219.58589140 eV

  energy without entropy =     -219.58589140  energy(sigma->0) =     -219.58589140


--------------------------------------------------------------------------------------------------------




 average (electrostatic) potential at core
  the test charge radii are     1.0103  0.9791
  (the norm of the test charge is              1.0000)
       1 -41.8693       2 -41.8181       3 -41.8691       4 -41.8183       5 -41.9376
       6 -41.8159       7 -41.9128       8 -42.0004       9 -41.9535      10 -41.8156
      11 -41.9374      12 -41.9127      13 -41.9534      14 -41.9127      15 -41.9126
      16 -42.0001      17 -83.9396      18 -83.9550      19 -83.9857      20 -83.9549
      21 -83.9150      22 -83.9107      23 -83.9862      24 -83.9287      25 -83.9023
      26 -83.9393      27 -83.9152      28 -83.9112      29 -83.9287      30 -83.9025
      31 -83.9104      32 -83.9103
 
 
 
 E-fermi :   7.4546     XC(G=0): -13.0401     alpha+bet :-14.6744


 spin component 1

 k-point     1 :       0.0000    0.0000    0.0000
  band No.  band energies     occupation 
      1      -1.3112      1.00000
      2       1.4272      1.00000
      3       1.4378      1.00000
      4       1.4420      1.00000
      5       1.4496      1.00000
      6       1.4574      1.00000
      7       1.4875      1.00000
      8       2.4619      1.00000
      9       2.4661      1.00000
     10       2.4666      1.00000
     11       2.4850      1.00000
     12       2.4881      1.00000
     13       2.5251      1.00000
     14       2.5441      1.00000
     15       3.0836      1.00000
     16       3.0940      1.00000
     17       3.0977      1.00000
     18       3.1856      1.00000
     19       3.2044      1.00000
     20       3.2072      1.00000
     21       3.2128      1.00000
     22       3.2208      1.00000
     23       3.2284      1.00000
     24       3.2368      1.00000
     25       3.2407      1.00000
     26       3.2522      1.00000
     27       3.2614      1.00000
     28       3.2667      1.00000
     29       3.2746      1.00000
     30       3.3610      1.00000
     31       3.4121      1.00000
     32       3.4132      1.00000
     33       3.4169      1.00000
     34       3.4286      1.00000
     35       3.4579      1.00000
     36       3.9132      1.00000
     37       3.9297      1.00000
     38       3.9452      1.00000
     39       3.9581      1.00000
     40       3.9648      1.00000
     41       3.9894      1.00000
     42       4.0655      1.00000
     43       4.1496      1.00000
     44       4.1660      1.00000
     45       4.1792      1.00000
     46       4.1846      1.00000
     47       4.2155      1.00000
     48       4.2394      1.00000
     49       4.2464      1.00000
     50       4.2507      1.00000
     51       4.2567      1.00000
     52       4.2678      1.00000
     53       4.2762      1.00000
     54       4.2778      1.00000
     55       4.2902      1.00000
     56       4.3104      1.00000
     57       4.3221      1.00000
     58       4.3447      1.00000
     59       4.3477      1.00000
     60       4.3775      1.00000
     61       4.3860      1.00000
     62       4.3958      1.00000
     63       4.4061      1.00000
     64       4.4109      1.00000
     65       4.4327      1.00000
     66       4.4378      1.00000
     67       4.4380      1.00000
     68       4.4718      1.00000
     69       4.4767      1.00000
     70       4.4883      1.00000
     71       4.4921      1.00000
     72       4.5003      1.00000
     73       4.5047      1.00000
     74       4.5160      1.00000
     75       4.5278      1.00000
     76       4.5388      1.00000
     77       4.5591      1.00000
     78       4.8286      1.00000
     79       4.8417      1.00000
     80       4.8448      1.00000
     81       4.8646      1.00000
     82       4.8759      1.00000
     83       4.8991      1.00000
     84       4.9206      1.00000
     85       4.9351      1.00000
     86       4.9622      1.00000
     87       4.9685      1.00000
     88       4.9718      1.00000
     89       5.3738      1.00000
     90       5.3822      1.00000
     91       5.3869      1.00000
     92       5.3876      1.00000
     93       5.3959      1.00000
     94       5.4570      1.00000
     95       5.4919      1.00000
     96       5.5009      1.00000
     97       5.5393      1.00000
     98       5.5400      1.00000
     99       5.5497      1.00000
    100       5.5662      1.00000
    101       5.5715      1.00000
    102       5.5748      1.00000
    103       5.5800      1.00000
    104       5.5856      1.00000
    105       5.5949      1.00000
    106       5.6169      1.00000
    107       5.7723      1.00000
    108       5.7948      1.00000
    109       5.8046      1.00000
    110       5.8073      1.00000
    111       5.8075      1.00000
    112       5.8144      1.00000
    113       5.8214      1.00000
    114       5.8252      1.00000
    115       5.8390      1.00000
    116       5.8479      1.00000
    117       5.8600      1.00000
    118       5.8811      1.00000
    119       5.9289      1.00000
    120       5.9332      1.00000
    121       5.9350      1.00000
    122       5.9456      1.00000
    123       5.9652      1.00000
    124       5.9719      1.00000
    125       5.9790      1.00000
    126       5.9937      1.00000
    127       6.0139      1.00000
    128       6.0233      1.00000
    129       6.0367      1.00000
    130       6.0396      1.00000
    131       6.0446      1.00000
    132       6.0491      1.00000
    133       6.0502      1.00000
    134       6.0600      1.00000
    135       6.0627      1.00000
    136       6.0751      1.00000
    137       6.0860      1.00000
    138       6.1009      1.00000
    139       6.3372      1.00000
    140       6.3562      1.00000
    141       6.3822      1.00000
    142       6.3830      1.00000
    143       6.3954      1.00000
    144       6.4170      1.00000
    145       6.7296      1.00000
    146       6.7427      1.00000
    147       6.7516      1.00000
    148       6.7737      1.00000
    149       6.7796      1.00000
    150       6.7878      1.00000
    151       6.7910      1.00000
    152       6.8080      1.00000
    153       6.8167      1.00000
    154       6.8194      1.00000
    155       6.8252      1.00000
    156       6.8956      1.00000
    157       6.9302      1.00000
    158       6.9562      1.00000
    159       7.0063      1.00000
    160       7.0083      1.00000
    161       7.0134      1.00000
    162       7.0144      1.00000
    163       7.0221      1.00000
    164       7.0376      1.00000
    165       7.0902      1.00000
    166       7.0968      1.00000
    167       7.1132      1.00000
    168       7.1993      1.06225
    169       7.2038      1.07996
    170       7.2060      1.06452
    171       7.2064      0.81503
    172       8.4396      0.00000
    173       8.4449      0.00000
    174       8.4501      0.00000
    175       8.4522      0.00000
    176       8.4572      0.00000
    177       8.4649      0.00000
    178       8.4725      0.00000
    179       8.4799      0.00000
    180       8.4804      0.00000
    181       8.4811      0.00000
    182       8.4832      0.00000
    183       8.5079      0.00000
    184       9.8797      0.00000
    185       9.8898      0.00000
    186       9.8988      0.00000
    187      13.2411      0.00000
    188      13.2632      0.00000
    189      13.2701      0.00000
    190      13.2729      0.00000
    191      15.0827      0.00000
    192      15.0927      0.00000
    193      15.0970      0.00000
    194      15.1187      0.00000
    195      15.1190      0.00000
    196      15.1204      0.00000
    197      15.1321      0.00000
    198      15.1325      0.00000
    199      15.1382      0.00000
    200      15.1383      0.00000
    201      15.1781      0.00000
    202      15.1803      0.00000
    203      16.5932      0.00000
    204      16.6157      0.00000
    205      16.6557      0.00000
    206      17.2146      0.00000
    207      17.2415      0.00000
    208      17.2421      0.00000
    209      17.2615      0.00000
    210      17.2631      0.00000
    211      17.2833      0.00000
    212      18.3769      0.00000
    213      18.4034      0.00000
    214      18.4126      0.00000
    215      18.4288      0.00000
    216      18.4765      0.00000
    217      18.4944      0.00000
    218      18.7696      0.00000
    219      18.8194      0.00000
    220      18.8245      0.00000
    221      18.8368      0.00000
    222      18.8448      0.00000
    223      18.8464      0.00000
    224      18.8474      0.00000
    225      18.8496      0.00000
    226      18.8665      0.00000
    227      18.8793      0.00000
    228      18.8882      0.00000
    229      18.9170      0.00000
    230      20.1153      0.00000
    231      20.1412      0.00000
    232      20.1541      0.00000
    233      20.1649      0.00000
    234      20.1755      0.00000
    235      20.1993      0.00000
    236      20.2136      0.00000
    237      20.2440      0.00000

 k-point     2 :       0.2000    0.0000    0.0000
  band No.  band energies     occupation 
      1      -1.1834      1.00000
      2       0.5943      1.00000
      3       1.5312      1.00000
      4       1.5436      1.00000
      5       1.5472      1.00000
      6       1.5691      1.00000
      7       2.1488      1.00000
      8       2.4878      1.00000
      9       2.5028      1.00000
     10       2.5105      1.00000
     11       2.5242      1.00000
     12       2.5315      1.00000
     13       2.5862      1.00000
     14       2.6009      1.00000
     15       2.7614      1.00000
     16       2.7766      1.00000
     17       2.7830      1.00000
     18       2.8170      1.00000
     19       3.0671      1.00000
     20       3.1086      1.00000
     21       3.1185      1.00000
     22       3.1278      1.00000
     23       3.1396      1.00000
     24       3.1493      1.00000
     25       3.1518      1.00000
     26       3.2869      1.00000
     27       3.3024      1.00000
     28       3.4458      1.00000
     29       3.4648      1.00000
     30       3.4662      1.00000
     31       3.4771      1.00000
     32       3.5687      1.00000
     33       3.5764      1.00000
     34       3.5789      1.00000
     35       3.6027      1.00000
     36       3.6866      1.00000
     37       3.8177      1.00000
     38       3.8663      1.00000
     39       3.9501      1.00000
     40       3.9685      1.00000
     41       3.9969      1.00000
     42       4.0138      1.00000
     43       4.1177      1.00000
     44       4.1285      1.00000
     45       4.1392      1.00000
     46       4.1591      1.00000
     47       4.1706      1.00000
     48       4.1977      1.00000
     49       4.1987      1.00000
     50       4.2176      1.00000
     51       4.2181      1.00000
     52       4.2293      1.00000
     53       4.2362      1.00000
     54       4.2611      1.00000
     55       4.2792      1.00000
     56       4.2907      1.00000
     57       4.2924      1.00000
     58       4.3232      1.00000
     59       4.3432      1.00000
     60       4.3639      1.00000
     61       4.3755      1.00000
     62       4.4115      1.00000
     63       4.4333      1.00000
     64       4.4406      1.00000
     65       4.4602      1.00000
     66       4.4920      1.00000
     67       4.5116      1.00000
     68       4.5232      1.00000
     69       4.5364      1.00000
     70       4.5451      1.00000
     71       4.5688      1.00000
     72       4.6336      1.00000
     73       4.6359      1.00000
     74       4.6427      1.00000
     75       4.6782      1.00000
     76       4.8042      1.00000
     77       4.8266      1.00000
     78       4.8318      1.00000
     79       4.8461      1.00000
     80       4.8486      1.00000
     81       4.8815      1.00000
     82       4.9018      1.00000
     83       4.9085      1.00000
     84       4.9123      1.00000
     85       4.9321      1.00000
     86       4.9680      1.00000
     87       4.9969      1.00000
     88       5.0069      1.00000
     89       5.2124      1.00000
     90       5.2242      1.00000
     91       5.2436      1.00000
     92       5.2868      1.00000
     93       5.3946      1.00000
     94       5.4269      1.00000
     95       5.4290      1.00000
     96       5.4513      1.00000
     97       5.4518      1.00000
     98       5.5145      1.00000
     99       5.5217      1.00000
    100       5.5745      1.00000
    101       5.5876      1.00000
    102       5.6007      1.00000
    103       5.6164      1.00000
    104       5.6450      1.00000
    105       5.6641      1.00000
    106       5.6770      1.00000
    107       5.6882      1.00000
    108       5.7450      1.00000
    109       5.8043      1.00000
    110       5.8139      1.00000
    111       5.8337      1.00000
    112       5.8362      1.00000
    113       5.8883      1.00000
    114       5.8944      1.00000
    115       5.8990      1.00000
    116       5.9064      1.00000
    117       5.9267      1.00000
    118       5.9297      1.00000
    119       5.9400      1.00000
    120       5.9429      1.00000
    121       5.9528      1.00000
    122       5.9719      1.00000
    123       5.9753      1.00000
    124       5.9770      1.00000
    125       5.9843      1.00000
    126       6.0432      1.00000
    127       6.0561      1.00000
    128       6.0686      1.00000
    129       6.1313      1.00000
    130       6.1520      1.00000
    131       6.1554      1.00000
    132       6.1628      1.00000
    133       6.1790      1.00000
    134       6.2000      1.00000
    135       6.2286      1.00000
    136       6.2312      1.00000
    137       6.2429      1.00000
    138       6.2500      1.00000
    139       6.2514      1.00000
    140       6.2644      1.00000
    141       6.2705      1.00000
    142       6.2812      1.00000
    143       6.2919      1.00000
    144       6.4340      1.00000
    145       6.4484      1.00000
    146       6.4505      1.00000
    147       6.4631      1.00000
    148       6.5084      1.00000
    149       6.6797      1.00000
    150       6.6843      1.00000
    151       6.6888      1.00000
    152       6.7073      1.00000
    153       6.7251      1.00000
    154       6.7479      1.00000
    155       6.7564      1.00000
    156       6.7727      1.00000
    157       6.7791      1.00000
    158       6.8686      1.00000
    159       6.9209      1.00000
    160       6.9417      1.00000
    161       6.9506      1.00000
    162       6.9527      1.00000
    163       6.9670      1.00000
    164       7.0175      1.00000
    165       7.0253      1.00000
    166       7.0298      1.00000
    167       7.1003      1.00000
    168       7.6104      0.58119
    169       7.6177      0.45043
    170       7.6506      0.32979
    171       7.6639     -0.01038
    172       7.7532     -0.00057
    173       7.7653      0.00000
    174       7.7687      0.00000
    175       7.7865      0.00000
    176       8.4103      0.00000
    177       8.4131      0.00000
    178       8.4476      0.00000
    179       8.4676      0.00000
    180       9.2442      0.00000
    181       9.3934      0.00000
    182       9.3976      0.00000
    183       9.4099      0.00000
    184       9.4203      0.00000
    185      10.2809      0.00000
    186      10.2978      0.00000
    187      13.5342      0.00000
    188      13.5494      0.00000
    189      13.5586      0.00000
    190      13.5688      0.00000
    191      13.6998      0.00000
    192      13.7138      0.00000
    193      13.9066      0.00000
    194      13.9163      0.00000
    195      13.9255      0.00000
    196      13.9529      0.00000
    197      15.2645      0.00000
    198      15.3090      0.00000
    199      15.3099      0.00000
    200      15.3487      0.00000
    201      16.6203      0.00000
    202      16.6234      0.00000
    203      16.6364      0.00000
    204      16.6593      0.00000
    205      17.0684      0.00000
    206      17.1387      0.00000
    207      17.3802      0.00000
    208      17.3975      0.00000
    209      17.3984      0.00000
    210      17.4175      0.00000
    211      17.5037      0.00000
    212      17.6219      0.00000
    213      17.6306      0.00000
    214      17.6510      0.00000
    215      17.6800      0.00000
    216      17.7911      0.00000
    217      17.8288      0.00000
    218      17.8510      0.00000
    219      17.8731      0.00000
    220      18.7244      0.00000
    221      18.7886      0.00000
    222      19.1777      0.00000
    223      19.2598      0.00000
    224      19.2868      0.00000
    225      19.3471      0.00000
    226      19.3991      0.00000
    227      19.4184      0.00000
    228      19.5189      0.00000
    229      19.5982      0.00000
    230      20.1715      0.00000
    231      20.1937      0.00000
    232      20.2049      0.00000
    233      20.2095      0.00000
    234      21.1833      0.00000
    235      21.2271      0.00000
    236      21.2539      0.00000
    237      21.3989      0.00000

 k-point     3 :       0.4000    0.0000    0.0000
  band No.  band energies     occupation 
      1      -0.8088      1.00000
      2      -0.1887      1.00000
      3       1.8046      1.00000
      4       1.8179      1.00000
      5       1.8239      1.00000
      6       1.8474      1.00000
      7       2.2491      1.00000
      8       2.2630      1.00000
      9       2.2817      1.00000
     10       2.2919      1.00000
     11       2.4766      1.00000
     12       2.5675      1.00000
     13       2.6185      1.00000
     14       2.6436      1.00000
     15       2.6639      1.00000
     16       2.6932      1.00000
     17       2.7507      1.00000
     18       2.7910      1.00000
     19       2.8626      1.00000
     20       2.8955      1.00000
     21       2.9046      1.00000
     22       2.9238      1.00000
     23       3.0474      1.00000
     24       3.0583      1.00000
     25       3.2558      1.00000
     26       3.2702      1.00000
     27       3.2795      1.00000
     28       3.4498      1.00000
     29       3.5084      1.00000
     30       3.5100      1.00000
     31       3.5810      1.00000
     32       3.6142      1.00000
     33       3.6258      1.00000
     34       3.6273      1.00000
[...]
  0.000   0.000   0.000   0.000   0.700   0.000   0.000   0.000   0.000   0.000   0.000   0.000   0.000   0.000   0.000   0.000
  0.000   0.000   0.000   0.000   0.000   0.000   0.000   0.000   0.000   0.000   0.000   0.000   0.000   0.000   0.000   0.000
  0.000   0.000   0.000   0.000   0.000   0.000   0.000   0.000   0.000   0.000   0.000   0.000   0.000   0.000   0.000   0.000
  0.000   0.000   0.000   0.000   0.000   0.000   0.000   0.000   0.000   0.000   0.000   0.000   0.000   0.000   0.000   0.000
  0.000   0.000   0.000   0.000   0.000   0.000   0.000   0.000   0.000   0.000   0.000   0.000   0.000   0.000   0.000   0.000
  0.000   0.000   0.000   0.000   0.000   0.000   0.000   0.000   0.000   0.000   0.000   0.000   0.000   0.000   0.000   0.000
  0.000   0.000   0.000   0.000   0.000   0.000   0.000   0.000   0.000   0.000   0.500   0.000   0.000   0.000   0.000   0.000
  0.000   0.000   0.000   0.000   0.000   0.000   0.000   0.000   0.000   0.000   0.000   0.000   0.000   0.000   0.000   0.000
  0.000   0.000   0.000   0.000   0.000   0.000   0.000   0.000   0.000   0.000   0.000   0.000   0.000   0.000   0.000   0.000
  0.000   0.000   0.000   0.000   0.000   0.000   0.000   0.000   0.000   0.000   0.000   0.000   0.000   0.000   0.000   0.000
  0.000   0.000   0.000   0.000   0.000   0.000   0.000   0.000   0.000   0.000   0.000   0.000   0.000   0.000   0.000   0.000
  0.000   0.000   0.000   0.000   0.000   0.000   0.000   0.000   0.000   0.000   0.000   0.000   0.000   0.000   0.000   0.000
  0.000   0.000   0.000   0.000   0.000   0.000   0.000   0.000   0.000   0.000   0.000   0.000   0.000   0.000   0.000   0.000
  0.000   0.000   0.000   0.000   0.000   0.000   0.000   0.000   0.000   0.000   0.000   0.000   0.000   0.000   0.000   0.000


------------------------ aborting loop because EDIFF is reached ----------------------------------------


 


 total charge     
 
# of ion       s       p       d       tot
------------------------------------------
    1        0.470   0.495   6.185   7.149
    2        0.470   0.497   6.196   7.162
    3        0.470   0.495   6.185   7.149
    4        0.470   0.497   6.196   7.163
    5        0.468   0.494   6.180   7.142
    6        0.478   0.505   6.216   7.200
    7        0.470   0.498   6.186   7.155
    8        0.482   0.507   6.185   7.174
    9        0.471   0.498   6.191   7.160
   10        0.478   0.505   6.215   7.199
   11        0.468   0.494   6.180   7.142
   12        0.470   0.498   6.186   7.154
   13        0.471   0.498   6.191   7.160
   14        0.471   0.498   6.186   7.154
   15        0.470   0.498   6.186   7.154
   16        0.482   0.507   6.185   7.174
   17        0.501   0.506   8.318   9.324
   18        0.511   0.517   8.306   9.334
   19        0.512   0.519   8.312   9.343
   20        0.511   0.517   8.306   9.334
   21        0.497   0.499   8.303   9.299
   22        0.508   0.511   8.313   9.332
   23        0.512   0.519   8.312   9.343
   24        0.508   0.508   8.319   9.334
   25        0.508   0.508   8.312   9.328
   26        0.501   0.506   8.317   9.324
   27        0.497   0.499   8.303   9.300
   28        0.508   0.511   8.313   9.333
   29        0.508   0.508   8.319   9.334
   30        0.508   0.508   8.312   9.328
   31        0.508   0.511   8.312   9.332
   32        0.508   0.511   8.312   9.332
--------------------------------------------------
tot         15.667  16.142 232.035 263.844
 


 magnetization (x)
 
# of ion       s       p       d       tot
------------------------------------------
    1       -0.008  -0.035   2.655   2.612
    2       -0.009  -0.037   2.620   2.574
    3       -0.008  -0.035   2.655   2.612
    4       -0.009  -0.037   2.620   2.574
    5        0.000  -0.022   2.676   2.655
    6       -0.011  -0.034   2.568   2.523
    7       -0.004  -0.030   2.665   2.631
    8       -0.004  -0.019   2.679   2.656
    9        0.001  -0.021   2.664   2.643
   10       -0.011  -0.034   2.569   2.523
   11        0.000  -0.022   2.676   2.655
   12       -0.004  -0.030   2.665   2.631
   13        0.001  -0.021   2.664   2.643
   14       -0.004  -0.030   2.665   2.631
   15       -0.004  -0.030   2.665   2.631
   16       -0.004  -0.019   2.678   2.656
   17       -0.023  -0.056   0.728   0.649
   18       -0.027  -0.055   0.727   0.645
   19       -0.027  -0.055   0.733   0.651
   20       -0.027  -0.055   0.727   0.645
   21       -0.016  -0.043   0.714   0.656
   22       -0.024  -0.048   0.692   0.621
   23       -0.027  -0.055   0.733   0.651
   24       -0.020  -0.039   0.686   0.628
   25       -0.020  -0.039   0.678   0.620
   26       -0.023  -0.056   0.729   0.650
   27       -0.016  -0.043   0.714   0.656
   28       -0.024  -0.048   0.692   0.621
   29       -0.020  -0.039   0.687   0.628
   30       -0.020  -0.039   0.679   0.620
   31       -0.024  -0.048   0.693   0.621
   32       -0.024  -0.048   0.693   0.621
--------------------------------------------------
tot         -0.435  -1.218  53.686  52.033
 
    CHARGE:  cpu time    1.8127: real time    1.8156
    FORLOC:  cpu time    0.0100: real time    0.0095
    FORNL :  cpu time   19.9820: real time   20.0166
    STRESS:  cpu time   59.9449: real time   60.1633
    FORCOR:  cpu time    0.0860: real time    0.0870
    FORHAR:  cpu time    0.0190: real time    0.0190
    OFIELD:  cpu time    0.0000: real time    0.0005

  FORCE on cell =-STRESS in cart. coord.  units (eV):
  Direction    XX          YY          ZZ          XY          YZ          ZX
  --------------------------------------------------------------------------------------
  Alpha Z  1737.85357  1737.85357  1737.85357
  Ewald   -7990.25244 -8110.81911 -7851.61358    -0.00044     0.00185     0.00193
  Hartree  1835.91949  1725.34295  1968.67359    -0.09534     0.09198     0.13103
  E(xc)   -1518.27145 -1518.63652 -1518.31103     0.00718    -0.00639    -0.01094
  Local     623.88277   848.51567   353.66037     0.26048    -0.25315    -0.37126
  n-local  -532.58987  -533.36125  -534.05478    -0.06078     0.05784     0.07318
  augment  3436.73030  3441.45493  3436.20041    -0.03703     0.04520     0.06577
  Kinetic  2402.99930  2407.86019  2400.67976    -0.05229     0.06492     0.08667
  Fock        0.00000     0.00000     0.00000     0.00000     0.00000     0.00000
  -------------------------------------------------------------------------------------
  Total      -3.72834    -1.78956    -6.91169     0.02177     0.00224    -0.02362
  in kB     -16.39708    -7.87042   -30.39734     0.09576     0.00986    -0.10389
  external pressure =      -18.22 kB  Pullay stress =        0.00 kB


 VOLUME and BASIS-vectors are now :
 -----------------------------------------------------------------------------
  energy-cutoff  :      520.00
  volume of cell :      364.30
      direct lattice vectors                 reciprocal lattice vectors
     7.142000000  0.000000000  0.000000000     0.140016802  0.000000000  0.000000000
     0.000000000  7.142000000  0.000000000     0.000000000  0.140016802  0.000000000
     0.000000000  0.000000000  7.142000000     0.000000000  0.000000000  0.140016802

  length of vectors
     7.142000000  7.142000000  7.142000000     0.140016802  0.140016802  0.140016802


 FORCES acting on ions
    electron-ion (+dipol)            ewald-force                    non-local-force                 convergence-correction
 -----------------------------------------------------------------------------------------------
   0.218E-01 -.713E+02 0.764E-02   0.774E-02 0.720E+02 -.617E-02   0.187E-02 -.497E+00 0.242E-02   -.312E-01 -.277E+00 -.453E-02
   0.149E+01 0.737E+02 0.101E-01   -.123E+01 -.746E+02 -.144E-01   -.164E+00 0.422E+00 -.190E-02   -.888E-01 0.509E+00 0.618E-02
   0.304E-01 -.713E+02 -.230E-03   -.270E-03 0.720E+02 0.490E-02   0.232E-02 -.497E+00 0.232E-02   -.318E-01 -.269E+00 -.706E-02
   -.147E+01 0.736E+02 -.145E-01   0.124E+01 -.746E+02 0.128E-01   0.164E+00 0.419E+00 -.819E-03   0.695E-01 0.522E+00 0.247E-02
   -.909E+00 -.750E+02 0.299E-01   0.101E+01 0.760E+02 -.197E-01   0.122E-01 -.343E+00 0.154E-02   -.121E+00 -.511E+00 -.111E-01
   0.790E+02 -.723E+02 -.207E-01   -.794E+02 0.732E+02 0.264E-01   0.533E+00 -.425E+00 0.236E-02   -.133E+00 -.368E+00 -.740E-02
   0.739E+02 0.795E+02 -.126E+01   -.742E+02 -.805E+02 0.132E+01   0.450E+00 0.417E+00 -.213E-01   -.194E+00 0.572E+00 -.498E-01
   0.793E+02 0.708E+02 0.164E-01   -.798E+02 -.716E+02 -.239E-01   0.440E+00 0.401E+00 -.794E-03   -.370E-01 0.334E+00 0.777E-02
   -.158E-01 -.832E+02 -.734E-02   -.121E-01 0.838E+02 -.895E-02   -.420E-03 -.144E+00 -.396E-02   0.274E-01 -.485E+00 0.198E-01
   -.790E+02 -.723E+02 0.136E-01   0.794E+02 0.732E+02 -.159E-01   -.532E+00 -.424E+00 0.666E-03   0.129E+00 -.370E+00 0.858E-03
   0.955E+00 -.750E+02 -.244E-01   -.100E+01 0.760E+02 0.197E-01   -.543E-02 -.345E+00 0.164E-02   0.622E-01 -.512E+00 0.311E-02
   0.738E+02 0.795E+02 0.126E+01   -.742E+02 -.805E+02 -.132E+01   0.449E+00 0.413E+00 0.197E-01   -.173E+00 0.581E+00 0.540E-01
   -.354E-01 -.832E+02 -.772E-02   0.524E-02 0.838E+02 0.131E-01   -.339E-02 -.146E+00 0.145E-03   0.340E-01 -.473E+00 -.494E-02
   -.739E+02 0.795E+02 0.125E+01   0.742E+02 -.805E+02 -.132E+01   -.450E+00 0.420E+00 0.225E-01   0.192E+00 0.547E+00 0.621E-01
   -.738E+02 0.795E+02 -.124E+01   0.742E+02 -.805E+02 0.133E+01   -.450E+00 0.419E+00 -.182E-01   0.175E+00 0.552E+00 -.723E-01
   -.793E+02 0.707E+02 -.127E-01   0.798E+02 -.716E+02 0.167E-01   -.441E+00 0.402E+00 -.154E-02   0.446E-01 0.358E+00 -.202E-02
   0.955E+02 -.965E+02 0.232E-01   -.959E+02 0.972E+02 -.261E-01   0.456E+00 -.265E+00 0.393E-02   -.113E+00 -.428E+00 -.129E-02
   -.915E-02 0.857E+02 0.570E-02   0.105E-01 -.863E+02 -.438E-02   -.621E-02 0.278E+00 -.142E-02   0.525E-02 0.301E+00 0.261E-03
   0.833E+00 0.918E+02 -.533E-02   -.847E+00 -.930E+02 -.197E-01   -.711E-01 0.488E+00 -.164E-02   0.819E-01 0.701E+00 0.264E-01
   0.656E-02 0.857E+02 -.227E-01   0.215E-02 -.863E+02 0.735E-02   0.449E-03 0.281E+00 -.648E-02   -.918E-02 0.285E+00 0.223E-01
   0.870E+02 0.810E+02 -.824E-02   -.870E+02 -.816E+02 0.202E-01   0.109E+00 0.104E+00 0.129E-02   -.924E-01 0.489E+00 -.131E-01
   0.907E+02 -.822E+02 0.452E+01   -.911E+02 0.832E+02 -.452E+01   0.370E+00 -.321E+00 0.103E+00   0.930E-02 -.706E+00 -.125E+00
   -.853E+00 0.918E+02 0.121E-01   0.842E+00 -.930E+02 0.189E-01   0.688E-01 0.490E+00 0.381E-02   -.532E-01 0.703E+00 -.340E-01
   -.685E-02 0.797E+02 0.820E-02   -.579E-02 -.804E+02 -.518E-02   -.188E-02 0.112E+00 0.267E-02   0.148E-01 0.591E+00 -.590E-02
   -.495E+01 -.789E+02 0.467E-02   0.493E+01 0.800E+02 -.252E-01   -.106E+00 -.290E+00 -.403E-02   0.139E+00 -.750E+00 0.239E-01
   -.955E+02 -.964E+02 -.666E-03   0.959E+02 0.972E+02 0.135E-01   -.461E+00 -.260E+00 0.437E-02   0.136E+00 -.469E+00 -.173E-01
   -.870E+02 0.810E+02 0.676E-02   0.870E+02 -.816E+02 -.177E-01   -.103E+00 0.106E+00 -.230E-02   0.717E-01 0.485E+00 0.133E-01
   0.907E+02 -.822E+02 -.452E+01   -.911E+02 0.832E+02 0.452E+01   0.362E+00 -.318E+00 -.102E+00   0.454E-01 -.715E+00 0.120E+00
   -.215E-02 0.797E+02 0.153E-02   -.184E-02 -.804E+02 0.676E-02   0.139E-02 0.116E+00 0.277E-02   0.244E-02 0.571E+00 -.111E-01
   0.490E+01 -.789E+02 -.142E-01   -.494E+01 0.800E+02 0.258E-01   0.104E+00 -.287E+00 -.982E-03   -.773E-01 -.767E+00 -.104E-01
   -.907E+02 -.822E+02 -.449E+01   0.911E+02 0.832E+02 0.451E+01   -.370E+00 -.325E+00 -.973E-01   -.627E-02 -.673E+00 0.101E+00
   -.907E+02 -.822E+02 0.449E+01   0.911E+02 0.832E+02 -.451E+01   -.372E+00 -.328E+00 0.101E+00   -.255E-01 -.665E+00 -.107E+00
 -----------------------------------------------------------------------------------------------
   -.361E-01 0.263E+00 0.914E-02   0.426E-12 -.298E-12 0.117E-12   -.145E-01 0.753E-01 0.106E-01   0.518E-01 -.337E+00 -.208E-01
 
 
 POSITION                                       TOTAL-FORCE (eV/Angst)
 -----------------------------------------------------------------------------------
      7.14198      7.12923      3.57101         0.000115     -0.014133     -0.000610
      0.02481      1.80327      5.35650         0.002609     -0.054114      0.000050
      0.00001      7.12924      7.14200         0.000536     -0.015104     -0.000031
      7.11718      1.80327      1.78551        -0.003090     -0.053849     -0.000041
      7.12597      5.31198      5.35652        -0.007799      0.090062      0.000578
      1.81385      7.13620      1.78548        -0.021182      0.030566      0.000716
      1.81452      1.82398      3.57525        -0.030420     -0.012699     -0.008686
      1.83817      3.61667      5.35653        -0.039170     -0.059721     -0.000391
      3.57106      7.09530      3.57103        -0.000942      0.002498     -0.000440
      5.32817      7.13618      5.35653         0.020552      0.031662     -0.000758
      0.01603      5.31200      1.78548         0.008938      0.089879      0.000104
      1.81448      1.82398      7.13776        -0.030376     -0.012874      0.008288
      3.57097      7.09531      7.14196         0.000430      0.002417      0.000651
      5.32748      1.82399      3.56676         0.029895     -0.012550      0.007232
      5.32751      1.82397      0.00423         0.030959     -0.012339     -0.007635
      5.30383      3.61665      1.78547         0.039185     -0.061163      0.000498
      1.81505      7.10433      5.35650        -0.039811      0.032835     -0.000249
      7.14199      3.57966      3.57100         0.000338     -0.018880      0.000189
      3.56235      1.79989      5.35652        -0.003372     -0.015396     -0.000266
      7.14200      3.57968      7.14200        -0.000054     -0.018868      0.000554
      1.79658      3.56460      1.78549         0.000288     -0.005691      0.000219
      1.79261      5.34784      3.58054         0.004107      0.024630     -0.025957
      3.57965      1.79988      1.78548         0.003780     -0.016137      0.000853
      3.57100      3.58559      3.57100         0.000210     -0.027883     -0.000184
      3.59717      5.34963      5.35652         0.009988      0.016213     -0.000667
      5.32694      7.10433      1.78548         0.039515      0.034473     -0.000096
      5.34542      3.56462      5.35652        -0.000323     -0.006073      0.000080
      1.79260      5.34783      7.13245         0.003133      0.024693      0.026313
      3.57100      3.58558      7.14200        -0.000186     -0.028128      0.000008
      3.54483      5.34964      1.78547        -0.011250      0.016154      0.000198
      5.34940      5.34783      3.56145        -0.003620      0.024512      0.025612
      5.34940      5.34784      0.00955        -0.002985      0.025009     -0.026133
 -----------------------------------------------------------------------------------
    total drift:                                0.001191      0.000856     -0.001037


--------------------------------------------------------------------------------------------------------



  FREE ENERGIE OF THE ION-ELECTRON SYSTEM (eV)
  ---------------------------------------------------
  free  energy   TOTEN  =      -219.58589140 eV

  energy  without entropy=     -219.58589140  energy(sigma->0) =     -219.58589140
 


--------------------------------------------------------------------------------------------------------


    POTLOK:  cpu time    0.0950: real time    0.0954


--------------------------------------------------------------------------------------------------------


     LOOP+:  cpu time  800.4353: real time  804.1469
    4ORBIT:  cpu time    0.0000: real time    0.0000
 


 total charge     
 
# of ion       s       p       d       tot
------------------------------------------
    1        0.470   0.495   6.185   7.149
    2        0.470   0.497   6.196   7.162
    3        0.470   0.495   6.185   7.149
    4        0.470   0.497   6.196   7.163
    5        0.468   0.494   6.180   7.142
    6        0.478   0.505   6.216   7.200
    7        0.470   0.498   6.186   7.155
    8        0.482   0.507   6.185   7.174
    9        0.471   0.498   6.191   7.160
   10        0.478   0.505   6.215   7.199
   11        0.468   0.494   6.180   7.142
   12        0.470   0.498   6.186   7.154
   13        0.471   0.498   6.191   7.160
   14        0.471   0.498   6.186   7.154
   15        0.470   0.498   6.186   7.154
   16        0.482   0.507   6.185   7.174
   17        0.501   0.506   8.318   9.324
   18        0.511   0.517   8.306   9.334
   19        0.512   0.519   8.312   9.343
   20        0.511   0.517   8.306   9.334
   21        0.497   0.499   8.303   9.299
   22        0.508   0.511   8.313   9.332
   23        0.512   0.519   8.312   9.343
   24        0.508   0.508   8.319   9.334
   25        0.508   0.508   8.312   9.328
   26        0.501   0.506   8.317   9.324
   27        0.497   0.499   8.303   9.300
   28        0.508   0.511   8.313   9.333
   29        0.508   0.508   8.319   9.334
   30        0.508   0.508   8.312   9.328
   31        0.508   0.511   8.312   9.332
   32        0.508   0.511   8.312   9.332
--------------------------------------------------
tot         15.667  16.142 232.035 263.844
 


 magnetization (x)
 
# of ion       s       p       d       tot
------------------------------------------
    1       -0.008  -0.035   2.655   2.612
    2       -0.009  -0.037   2.620   2.574
    3       -0.008  -0.035   2.655   2.612
    4       -0.009  -0.037   2.620   2.574
    5        0.000  -0.022   2.676   2.655
    6       -0.011  -0.034   2.568   2.523
    7       -0.004  -0.030   2.665   2.631
    8       -0.004  -0.019   2.679   2.656
    9        0.001  -0.021   2.664   2.643
   10       -0.011  -0.034   2.569   2.523
   11        0.000  -0.022   2.676   2.655
   12       -0.004  -0.030   2.665   2.631
   13        0.001  -0.021   2.664   2.643
   14       -0.004  -0.030   2.665   2.631
   15       -0.004  -0.030   2.665   2.631
   16       -0.004  -0.019   2.678   2.656
   17       -0.023  -0.056   0.728   0.649
   18       -0.027  -0.055   0.727   0.645
   19       -0.027  -0.055   0.733   0.651
   20       -0.027  -0.055   0.727   0.645
   21       -0.016  -0.043   0.714   0.656
   22       -0.024  -0.048   0.692   0.621
   23       -0.027  -0.055   0.733   0.651
   24       -0.020  -0.039   0.686   0.628
   25       -0.020  -0.039   0.678   0.620
   26       -0.023  -0.056   0.729   0.650
   27       -0.016  -0.043   0.714   0.656
   28       -0.024  -0.048   0.692   0.621
   29       -0.020  -0.039   0.687   0.628
   30       -0.020  -0.039   0.679   0.620
   31       -0.024  -0.048   0.693   0.621
   32       -0.024  -0.048   0.693   0.621
--------------------------------------------------
tot         -0.435  -1.218  53.686  52.033
 
 BZINTS: Fermi energy:  7.454645;288.000000 electrons
         Band energy:1458.004337;  BLOECHL correction: -0.136099

 total amount of memory used by VASP MPI-rank0   258029. kBytes
=======================================================================

   base      :      30000. kBytes
   nonlr-proj:       7779. kBytes
   fftplans  :       2563. kBytes
   grid      :       6379. kBytes
   one-center:        124. kBytes
   wavefun   :     211184. kBytes
 
  
  
 General timing and accounting informations for this job:
 ========================================================
  
                  Total CPU time used (sec):      852.276
                            User time (sec):      834.781
                          System time (sec):       17.495
                         Elapsed time (sec):      856.213
  
                   Maximum memory used (kb):      366932.
                   Average memory used (kb):           0.
  
                          Minor page faults:        16246
                          Major page faults:            0
                 Voluntary context switches:         1675
