SQS-NiFe                                
           1
     7.142000    0.000000    0.000000
     0.000000    7.142000    0.000000
     0.000000    0.000000    7.142000
   Fe   Ni
  16  16
Direct configuration=     1
   0.99999786  0.99821196  0.50000161
   0.00347326  0.25248865  0.75000005
   0.00000101  0.99821394  0.99999972
   0.99652452  0.25248798  0.25000101
   0.99775554  0.74376684  0.75000284
   0.25396965  0.99918777  0.24999652
   0.25406350  0.25538753  0.50059492
   0.25737441  0.50639448  0.75000412
   0.50000770  0.99346185  0.50000426
   0.74603336  0.99918461  0.75000479
   0.00224450  0.74376930  0.24999687
   0.25405802  0.25538719  0.99940643
   0.49999635  0.99346322  0.99999465
   0.74593727  0.25538856  0.49940670
   0.74594149  0.25538663  0.00059264
   0.74262557  0.50639197  0.24999633
   0.25413704  0.99472621  0.75000064
   0.99999843  0.50121287  0.50000004
   0.49878917  0.25201426  0.75000318
   0.99999983  0.50121468  0.99999933
   0.25155100  0.49910383  0.24999914
   0.25099506  0.74878762  0.50133594
   0.50121113  0.25201295  0.24999678
   0.50000030  0.50204310  0.49999983
   0.50366369  0.74903825  0.75000319
   0.74586135  0.99472602  0.24999765
   0.74844851  0.49910659  0.75000211
   0.25099449  0.74878651  0.99866334
   0.50000006  0.50204173  0.99999984
   0.49633540  0.74904007  0.24999581
   0.74900527  0.74878575  0.49866286
   0.74900523  0.74878708  0.00133687
