       N       E                     dE             d eps       ncg     rms          rms(c)
DAV:   1     0.129791604799E+04    0.12979E+04   -0.62780E+04 13020   0.206E+03
DAV:   2     0.437452534782E+02   -0.12542E+04   -0.11885E+04 13020   0.421E+02
DAV:   3    -0.109519419331E+03   -0.15326E+03   -0.12780E+03 13032   0.182E+02
DAV:   4    -0.115413786307E+03   -0.58944E+01   -0.58011E+01 14193   0.428E+01
DAV:   5    -0.115512821684E+03   -0.99035E-01   -0.98960E-01 19299   0.462E+00    0.409E+01
RMM:   6    -0.106413301422E+03    0.90995E+01   -0.14683E+02 13510   0.715E+01    0.375E+01
RMM:   7    -0.128032102138E+03   -0.21619E+02   -0.32608E+01 13661   0.286E+01    0.874E+01
RMM:   8    -0.101789487036E+03    0.26243E+02   -0.13563E+01 13666   0.200E+01    0.231E+01
RMM:   9    -0.101794024659E+03   -0.45376E-02   -0.93477E+00 13497   0.158E+01    0.219E+01
RMM:  10    -0.994805188496E+02    0.23135E+01   -0.20735E+00 13322   0.784E+00    0.882E+00
RMM:  11    -0.997357257648E+02   -0.25521E+00   -0.10147E+00 13426   0.503E+00    0.115E+01
RMM:  12    -0.992708840881E+02    0.46484E+00   -0.40325E-01 13440   0.332E+00    0.360E+00
RMM:  13    -0.992665889687E+02    0.42951E-02   -0.11183E-01 13537   0.166E+00    0.326E+00
RMM:  14    -0.992610354405E+02    0.55535E-02   -0.63990E-02 13598   0.124E+00    0.224E+00
RMM:  15    -0.992665465866E+02   -0.55111E-02   -0.39423E-02 13572   0.101E+00    0.241E+00
RMM:  16    -0.992490836616E+02    0.17463E-01   -0.20409E-02 13496   0.742E-01    0.992E-01
RMM:  17    -0.992479276959E+02    0.11560E-02   -0.56726E-03 13583   0.385E-01    0.749E-01
RMM:  18    -0.992466306204E+02    0.12971E-02   -0.26837E-03 13651   0.258E-01    0.362E-01
RMM:  19    -0.992467703133E+02   -0.13969E-03   -0.69282E-04 13727   0.131E-01    0.400E-01
RMM:  20    -0.992463855373E+02    0.38478E-03   -0.32466E-04 13629   0.874E-02    0.236E-01
RMM:  21    -0.992462574716E+02    0.12807E-03   -0.14964E-04 13666   0.613E-02    0.149E-01
RMM:  22    -0.992462319713E+02    0.25500E-04   -0.99934E-05 13725   0.481E-02    0.871E-02
RMM:  23    -0.992462231556E+02    0.88157E-05   -0.35798E-05 13817   0.304E-02    0.735E-02
RMM:  24    -0.992462023505E+02    0.20805E-04   -0.14918E-05 13624   0.196E-02    0.266E-02
RMM:  25    -0.992461953841E+02    0.69664E-05   -0.93886E-06 13367   0.152E-02    0.396E-02
RMM:  26    -0.992461751467E+02    0.20237E-04   -0.52373E-06 11570   0.120E-02    0.809E-03
RMM:  27    -0.992461741841E+02    0.96262E-06   -0.67313E-07  7280   0.444E-03
   1 F= -.99246174E+02 E0= -.99246174E+02  d E =0.000000E+00  mag=    18.1256
