 vasp.5.4.4.18Apr17-6-g9f103f2a35 (build Sep 06 2021 19:49:22) complex          
  
 executed on             LinuxIFC date 2021.12.27  22:11:37
 running on   24 total cores
 distrk:  each k-point on   24 cores,    1 groups
 distr:  one band on NCORES_PER_BAND=   8 cores,    3 groups


--------------------------------------------------------------------------------------------------------


 INCAR:
 POTCAR:    PAW_PBE Ni 02Aug2007                  
 POTCAR:    PAW_PBE Fe 06Sep2000                  
 POTCAR:    PAW_PBE Ni 02Aug2007                  
   VRHFIN =Ni:                                                                  
   LEXCH  = PE                                                                  
   EATOM  =  1077.6739 eV,   79.2068 Ry                                         
                                                                                
   TITEL  = PAW_PBE Ni 02Aug2007                                                
   LULTRA =        F    use ultrasoft PP ?                                      
   IUNSCR =        1    unscreen: 0-lin 1-nonlin 2-no                           
   RPACOR =    2.000    partial core radius                                     
   POMASS =   58.690; ZVAL   =   10.000    mass and valenz                      
   RCORE  =    2.300    outmost cutoff radius                                   
   RWIGS  =    2.430; RWIGS  =    1.286    wigner-seitz radius (au A)           
   ENMAX  =  269.532; ENMIN  =  202.149 eV                                      
   RCLOC  =    1.201    cutoff for local pot                                    
   LCOR   =        T    correct aug charges                                     
   LPAW   =        T    paw PP                                                  
   EAUG   =  544.565                                                            
   DEXC   =    0.000                                                            
   RMAX   =    2.357    core radius for proj-oper                               
   RAUG   =    1.300    factor for augmentation sphere                          
   RDEP   =    2.390    radius for radial grids                                 
   RDEPT  =    1.838    core radius for aug-charge                              
                                                                                
   Atomic configuration                                                         
    9 entries                                                                   
     n  l   j            E        occ.                                          
     1  0  0.50     -8206.4253   2.0000                                         
     2  0  0.50      -976.1748   2.0000                                         
     2  1  1.50      -839.0571   6.0000                                         
     3  0  0.50      -105.9991   2.0000                                         
     3  1  1.50       -66.4603   6.0000                                         
     3  2  2.50        -4.6458   9.0000                                         
     4  0  0.50        -4.4926   1.0000                                         
     4  1  1.50        -4.0817   0.0000                                         
     4  3  2.50        -1.3606   0.0000                                         
   Description                                                                  
     l       E           TYP  RCUT    TYP  RCUT                                 
     2     -4.6457903     23  2.300                                             
     2     -6.0063729     23  2.300                                             
     0     -4.4925590     23  2.300                                             
     0      5.0102601     23  2.300                                             
     1     -2.7211652     23  2.300                                             
     1     16.5183231     23  2.300                                             
  local pseudopotential read in
  partial core-charges read in
  partial kinetic energy density read in
  atomic valenz-charges read in
  non local Contribution for L=           2  read in
    real space projection operators read in
  non local Contribution for L=           2  read in
    real space projection operators read in
  non local Contribution for L=           0  read in
    real space projection operators read in
  non local Contribution for L=           0  read in
    real space projection operators read in
  non local Contribution for L=           1  read in
    real space projection operators read in
  non local Contribution for L=           1  read in
    real space projection operators read in
    PAW grid and wavefunctions read in
 
   number of l-projection  operators is LMAX  =           6
   number of lm-projection operators is LMMAX =          18
 
 POTCAR:    PAW_PBE Fe 06Sep2000                  
   VRHFIN =Fe:  d7 s1                                                           
   LEXCH  = PE                                                                  
   EATOM  =   594.3153 eV,   43.6809 Ry                                         
                                                                                
   TITEL  = PAW_PBE Fe 06Sep2000                                                
   LULTRA =        F    use ultrasoft PP ?                                      
   IUNSCR =        1    unscreen: 0-lin 1-nonlin 2-no                           
   RPACOR =    2.000    partial core radius                                     
   POMASS =   55.847; ZVAL   =    8.000    mass and valenz                      
   RCORE  =    2.300    outmost cutoff radius                                   
   RWIGS  =    2.460; RWIGS  =    1.302    wigner-seitz radius (au A)           
   ENMAX  =  267.882; ENMIN  =  200.911 eV                                      
   RCLOC  =    1.701    cutoff for local pot                                    
   LCOR   =        T    correct aug charges                                     
   LPAW   =        T    paw PP                                                  
   EAUG   =  511.368                                                            
   DEXC   =    0.000                                                            
   RMAX   =    2.356    core radius for proj-oper                               
   RAUG   =    1.300    factor for augmentation sphere                          
   RDEP   =    2.442    radius for radial grids                                 
   RDEPT  =    1.890    core radius for aug-charge                              
                                                                                
   Atomic configuration                                                         
    9 entries                                                                   
     n  l   j            E        occ.                                          
     1  0  0.50     -6993.8440   2.0000                                         
     2  0  0.50      -814.6047   2.0000                                         
     2  1  1.50      -693.3689   6.0000                                         
     3  0  0.50       -89.4732   2.0000                                         
     3  1  1.50       -55.6373   6.0000                                         
     3  2  2.50        -3.8151   7.0000                                         
     4  0  0.50        -4.2551   1.0000                                         
     4  1  1.50        -3.4015   0.0000                                         
     4  3  2.50        -1.3606   0.0000                                         
   Description                                                                  
     l       E           TYP  RCUT    TYP  RCUT                                 
     2     -3.8151135     23  2.300                                             
     2     -5.1756961     23  2.300                                             
     0     -4.2550963     23  2.300                                             
     0      7.2035603     23  2.300                                             
     1     -2.7211652     23  2.300                                             
     1     18.4316424     23  2.300                                             
  local pseudopotential read in
  partial core-charges read in
  partial kinetic energy density read in
  atomic valenz-charges read in
  non local Contribution for L=           2  read in
    real space projection operators read in
  non local Contribution for L=           2  read in
    real space projection operators read in
  non local Contribution for L=           0  read in
    real space projection operators read in
  non local Contribution for L=           0  read in
    real space projection operators read in
  non local Contribution for L=           1  read in
    real space projection operators read in
  non local Contribution for L=           1  read in
    real space projection operators read in
    PAW grid and wavefunctions read in
 
   number of l-projection  operators is LMAX  =           6
   number of lm-projection operators is LMMAX =          18
 
 Optimization of the real space projectors (new method)

 maximal supplied QI-value         = 16.25
 optimisation between [QCUT,QGAM] = [ 11.54, 23.24] = [ 37.28,151.24] Ry 
 Optimized for a Real-space Cutoff    1.45 Angstroem

   l    n(q)    QCUT    max X(q) W(low)/X(q) W(high)/X(q)  e(spline) 
   2      9    11.539    60.317    0.19E-03    0.47E-04    0.16E-06
   2      9    11.539    55.921    0.19E-03    0.48E-04    0.16E-06
   0     10    11.539    51.690    0.80E-04    0.50E-04    0.24E-06
   0     10    11.539    30.015    0.73E-04    0.45E-04    0.22E-06
   1     10    11.539    18.849    0.87E-04    0.16E-03    0.71E-07
   1     10    11.539    14.624    0.73E-04    0.13E-03    0.64E-07
 Optimization of the real space projectors (new method)

 maximal supplied QI-value         = 16.25
 optimisation between [QCUT,QGAM] = [ 11.54, 23.24] = [ 37.28,151.24] Ry 
 Optimized for a Real-space Cutoff    1.53 Angstroem

   l    n(q)    QCUT    max X(q) W(low)/X(q) W(high)/X(q)  e(spline) 
   2     10    11.539    80.901    0.11E-03    0.14E-03    0.21E-06
   2     10    11.539    75.754    0.11E-03    0.14E-03    0.22E-06
   0     11    11.539    58.752    0.52E-04    0.18E-04    0.33E-06
   0     11    11.539    30.679    0.44E-04    0.16E-04    0.30E-06
   1     10    11.539    17.977    0.53E-04    0.29E-04    0.13E-06
   1     10    11.539    13.559    0.44E-04    0.25E-04    0.11E-06
  PAW_PBE Ni 02Aug2007                  :
 energy of atom  1       EATOM=-1077.6739
 kinetic energy error for atom=    0.0030 (will be added to EATOM!!)
  PAW_PBE Fe 06Sep2000                  :
 energy of atom  2       EATOM= -594.3153
 kinetic energy error for atom=    0.0026 (will be added to EATOM!!)
 
 
 POSCAR: POSCAR                                  
  positions in direct lattice
  velocities in cartesian coordinates
 exchange correlation table for  LEXCH =        8
   RHO(1)=    0.500       N(1)  =     2000
   RHO(2)=  100.500       N(2)  =     4000
 


--------------------------------------------------------------------------------------------------------


 ion  position               nearest neighbor table
   1  0.261  0.690  0.814-  13 2.46  14 2.46  13 2.49   7 2.49   6 2.49  10 2.50  15 2.50   3 2.52
                             4 2.53   2 2.53  11 2.54   6 2.54
   2  1.000  0.250  0.752-  13 2.46  14 2.48  10 2.49   6 2.50  11 2.50  14 2.50   7 2.51   4 2.51
                             3 2.52   7 2.52  12 2.52   1 2.53
   3  0.250  0.939  0.561-  14 2.47   6 2.49   7 2.50   8 2.50  12 2.50  12 2.51   9 2.51   2 2.52
                             4 2.52   6 2.52   1 2.52   5 2.53
   4  0.000  0.499  0.501-  16 2.47   8 2.49  12 2.50   6 2.50   7 2.50   7 2.51   2 2.51   9 2.52
                             3 2.52   8 2.52   5 2.52   1 2.53
   5  0.989  0.748  0.248-  15 2.46  16 2.46  15 2.49  12 2.49   8 2.49  11 2.50  13 2.50   4 2.52
                             3 2.53   9 2.53  10 2.54   8 2.54
   6  0.753  0.814  0.686-  13 2.46   3 2.49   1 2.49  12 2.49   2 2.50   8 2.50   4 2.50  14 2.50
                            11 2.51   3 2.52   7 2.52   1 2.54
   7  0.498  0.374  0.625-  14 2.48   1 2.49  13 2.49   8 2.49   3 2.50   4 2.50   2 2.51   4 2.51
                            12 2.51   2 2.52   9 2.52   6 2.52
   8  0.497  0.624  0.377-  15 2.46   4 2.49   5 2.49   7 2.49   9 2.50   6 2.50   3 2.50  16 2.50
                            10 2.51   4 2.52  12 2.52   5 2.54
   9  0.250  0.188  0.310-  15 2.46  16 2.48  11 2.49   8 2.50  10 2.50  16 2.50  12 2.51   3 2.51
                             4 2.52  12 2.52   7 2.52   5 2.53
  10  0.256  0.437  0.062-  15 2.45   2 2.49   9 2.50   1 2.50  16 2.51  14 2.51  13 2.51   8 2.51
                            11 2.52  16 2.53   5 2.54  13 2.57
  11  0.994  0.000  0.001-  13 2.45   9 2.49   2 2.50   5 2.50  14 2.51  16 2.51  15 2.51   6 2.51
                            10 2.52  14 2.53   1 2.54  15 2.57
  12  0.752  0.063  0.437-  16 2.48   5 2.49  15 2.49   6 2.49   4 2.50   3 2.50   9 2.51   3 2.51
                             7 2.51   9 2.52   2 2.52   8 2.52
  13  0.764  0.569  0.931-  11 2.45   6 2.46   1 2.46   2 2.46   1 2.49   7 2.49   5 2.50  10 2.51
                            10 2.57  14 2.58  15 2.59  16 2.59
  14  0.496  0.122  0.870-   1 2.46   3 2.47   2 2.48   7 2.48   6 2.50   2 2.50  11 2.51  10 2.51
                            11 2.53  13 2.58  16 2.59  15 2.59
  15  0.486  0.869  0.132-  10 2.45   8 2.46   5 2.46   9 2.46   5 2.49  12 2.49   1 2.50  11 2.51
                            11 2.57  16 2.58  13 2.59  14 2.59
  16  0.754  0.315  0.193-   5 2.46   4 2.47   9 2.48  12 2.48   8 2.50   9 2.50  10 2.51  11 2.51
                            10 2.53  15 2.58  14 2.59  13 2.59
 

IMPORTANT INFORMATION: All symmetrisations will be switched off!
NOSYMM: (Re-)initialisation of all symmetry stuff for point group C_1.

 
 

Automatic generation of k-mesh.
 generate k-points for:    5    4    3
Space group operators:
 irot       det(A)        alpha          n_x          n_y          n_z        tau_x        tau_y        tau_z
    1     1.000000     0.000001     1.000000     0.000000     0.000000     0.000000     0.000000     0.000000
 
 Subroutine IBZKPT returns following result:
 ===========================================
 
 Found     31 irreducible k-points:
 
 Following reciprocal coordinates:
            Coordinates               Weight
  0.000000  0.000000  0.000000      1.000000
  0.200000  0.000000  0.000000      2.000000
  0.400000  0.000000  0.000000      2.000000
  0.000000  0.250000  0.000000      2.000000
  0.200000  0.250000  0.000000      2.000000
  0.400000  0.250000  0.000000      2.000000
 -0.400000  0.250000  0.000000      2.000000
 -0.200000  0.250000  0.000000      2.000000
  0.000000  0.500000  0.000000      1.000000
  0.200000  0.500000  0.000000      2.000000
  0.400000  0.500000  0.000000      2.000000
  0.000000  0.000000  0.333333      2.000000
  0.200000  0.000000  0.333333      2.000000
  0.400000  0.000000  0.333333      2.000000
 -0.400000  0.000000  0.333333      2.000000
 -0.200000  0.000000  0.333333      2.000000
  0.000000  0.250000  0.333333      2.000000
  0.200000  0.250000  0.333333      2.000000
  0.400000  0.250000  0.333333      2.000000
 -0.400000  0.250000  0.333333      2.000000
 -0.200000  0.250000  0.333333      2.000000
  0.000000  0.500000  0.333333      2.000000
  0.200000  0.500000  0.333333      2.000000
  0.400000  0.500000  0.333333      2.000000
 -0.400000  0.500000  0.333333      2.000000
 -0.200000  0.500000  0.333333      2.000000
  0.000000 -0.250000  0.333333      2.000000
  0.200000 -0.250000  0.333333      2.000000
  0.400000 -0.250000  0.333333      2.000000
 -0.400000 -0.250000  0.333333      2.000000
 -0.200000 -0.250000  0.333333      2.000000
 
 Following cartesian coordinates:
            Coordinates               Weight
 -0.000000 -0.000000 -0.000000      1.000000
  0.050000  0.050000 -0.150000      2.000000
  0.100000  0.100000 -0.300000      2.000000
 -0.015625 -0.140625 -0.078125      2.000000
  0.034375 -0.090625 -0.228125      2.000000
  0.084375 -0.040625 -0.378125      2.000000
 -0.115625 -0.240625  0.221875      2.000000
 -0.065625 -0.190625  0.071875      2.000000
 -0.031250 -0.281250 -0.156250      1.000000
  0.018750 -0.231250 -0.306250      2.000000
  0.068750 -0.181250 -0.456250      2.000000
 -0.145833  0.020833 -0.062500      2.000000
 -0.095833  0.070833 -0.212500      2.000000
 -0.045833  0.120833 -0.362500      2.000000
 -0.245833 -0.079167  0.237500      2.000000
 -0.195833 -0.029167  0.087500      2.000000
 -0.161458 -0.119792 -0.140625      2.000000
 -0.111458 -0.069792 -0.290625      2.000000
 -0.061458 -0.019792 -0.440625      2.000000
 -0.261458 -0.219792  0.159375      2.000000
 -0.211458 -0.169792  0.009375      2.000000
 -0.177083 -0.260417 -0.218750      2.000000
 -0.127083 -0.210417 -0.368750      2.000000
 -0.077083 -0.160417 -0.518750      2.000000
 -0.277083 -0.360417  0.081250      2.000000
 -0.227083 -0.310417 -0.068750      2.000000
 -0.130208  0.161458  0.015625      2.000000
 -0.080208  0.211458 -0.134375      2.000000
 -0.030208  0.261458 -0.284375      2.000000
 -0.230208  0.061458  0.315625      2.000000
 -0.180208  0.111458  0.165625      2.000000
 
 TETIRR: Found    178 inequivalent tetrahedra from      360


--------------------------------------------------------------------------------------------------------




 Dimension of arrays:
   k-points           NKPTS =     31   k-points in BZ     NKDIM =     31   number of bands    NBANDS=    105
   number of dos      NEDOS =    301   number of ions     NIONS =     16
   non local maximal  LDIM  =      6   non local SUM 2l+1 LMDIM =     18
   total plane-waves  NPLWV =  75264
   max r-space proj   IRMAX =   6433   max aug-charges    IRDMAX=  15243
   dimension x,y,z NGX =    32 NGY =   42 NGZ =   56
   dimension x,y,z NGXF=    64 NGYF=   84 NGZF=  112
   support grid    NGXF=    64 NGYF=   84 NGZF=  112
   ions per type =              12   4
   NGX,Y,Z   is equivalent  to a cutoff of  12.25, 12.46, 12.38 a.u.
   NGXF,Y,Z  is equivalent  to a cutoff of  24.51, 24.91, 24.76 a.u.

 SYSTEM =  SQS-NiFe                                
 POSCAR =  POSCAR                                  

 Startparameter for this run:
   NWRITE =      2    write-flag & timer
   PREC   = accura    normal or accurate (medium, high low for compatibility)
   ISTART =      0    job   : 0-new  1-cont  2-samecut
   ICHARG =      2    charge: 1-file 2-atom 10-const
   ISPIN  =      2    spin polarized calculation?
   LNONCOLLINEAR =      F non collinear calculations
   LSORBIT =      F    spin-orbit coupling
   INIWAV =      1    electr: 0-lowe 1-rand  2-diag
   LASPH  =      F    aspherical Exc in radial PAW
   METAGGA=      F    non-selfconsistent MetaGGA calc.

 Electronic Relaxation 1
   ENCUT  =  520.0 eV  38.22 Ry    6.18 a.u.   8.07 10.42 13.98*2*pi/ulx,y,z
   ENINI  =  520.0     initial cutoff
   ENAUG  =  544.6 eV  augmentation charge cutoff
   NELM   =    200;   NELMIN=  2; NELMDL= -5     # of ELM steps 
   EDIFF  = 0.1E-05   stopping-criterion for ELM
   LREAL  =      T    real-space projection
   NLSPLINE    = F    spline interpolate recip. space projectors
   LCOMPAT=      F    compatible to vasp.4.4
   GGA_COMPAT  = T    GGA compatible to vasp.4.4-vasp.4.6
   LMAXPAW     = -100 max onsite density
   LMAXMIX     =    2 max onsite mixed and CHGCAR
   VOSKOWN=      0    Vosko Wilk Nusair interpolation
   ROPT   =   -0.00025  -0.00025
 Ionic relaxation
   EDIFFG = -.2E-01   stopping-criterion for IOM
   NSW    =      0    number of steps for IOM
   NBLOCK =      1;   KBLOCK =      1    inner block; outer block 
   IBRION =     -1    ionic relax: 0-MD 1-quasi-New 2-CG
   NFREE  =      0    steps in history (QN), initial steepest desc. (CG)
   ISIF   =      2    stress and relaxation
   IWAVPR =     10    prediction:  0-non 1-charg 2-wave 3-comb
   ISYM   =      0    0-nonsym 1-usesym 2-fastsym
   LCORR  =      T    Harris-Foulkes like correction to forces

   POTIM  = 0.5000    time-step for ionic-motion
   TEIN   =    0.0    initial temperature
   TEBEG  =    0.0;   TEEND  =   0.0 temperature during run
   SMASS  =  -3.00    Nose mass-parameter (am)
   estimated Nose-frequenzy (Omega)   =  0.10E-29 period in steps =****** mass=  -0.431E-27a.u.
   SCALEE = 1.0000    scale energy and forces
   NPACO  =    256;   APACO  = 16.0  distance and # of slots for P.C.
   PSTRESS=    0.0 pullay stress

  Mass of Ions in am
   POMASS =  58.69 55.85
  Ionic Valenz
   ZVAL   =  10.00  8.00
  Atomic Wigner-Seitz radii
   RWIGS  =  -1.00 -1.00
  virtual crystal weights 
   VCA    =   1.00  1.00
   NELECT =     152.0000    total number of electrons
   NUPDOWN=      -1.0000    fix difference up-down

 DOS related values:
   EMIN   =  10.00;   EMAX   =-10.00  energy-range for DOS
   EFERMI =   0.00
   ISMEAR =    -5;   SIGMA  =   0.20  broadening in eV -4-tet -1-fermi 0-gaus

 Electronic relaxation 2 (details)
   IALGO  =     68    algorithm
   LDIAG  =      T    sub-space diagonalisation (order eigenvalues)
   LSUBROT=      F    optimize rotation matrix (better conditioning)
   TURBO    =      0    0=normal 1=particle mesh
   IRESTART =      0    0=no restart 2=restart with 2 vectors
   NREBOOT  =      0    no. of reboots
   NMIN     =      0    reboot dimension
   EREF     =   0.00    reference energy to select bands
   IMIX   =      4    mixing-type and parameters
     AMIX     =   0.40;   BMIX     =  1.00
     AMIX_MAG =   1.60;   BMIX_MAG =  1.00
     AMIN     =   0.10
     WC   =   100.;   INIMIX=   1;  MIXPRE=   1;  MAXMIX= -45

 Intra band minimization:
   WEIMIN = 0.0000     energy-eigenvalue tresh-hold
   EBREAK =  0.24E-08  absolut break condition
   DEPER  =   0.30     relativ break condition  

   TIME   =   0.40     timestep for ELM

  volume/ion in A,a.u.               =      11.14        75.16
  Fermi-wavevector in a.u.,A,eV,Ry     =   1.552577  2.933945 32.796776  2.410495
  Thomas-Fermi vector in A             =   2.656932
 
 Write flags
   LWAVE        =      F    write WAVECAR
   LDOWNSAMPLE  =      F    k-point downsampling of WAVECAR
   LCHARG       =      T    write CHGCAR
   LVTOT        =      F    write LOCPOT, total local potential
   LVHAR        =      F    write LOCPOT, Hartree potential only
   LELF         =      F    write electronic localiz. function (ELF)
   LORBIT       =     11    0 simple, 1 ext, 2 COOP (PROOUT), +10 PAW based schemes


 Dipole corrections
   LMONO  =      F    monopole corrections only (constant potential shift)
   LDIPOL =      F    correct potential (dipole corrections)
   IDIPOL =      0    1-x, 2-y, 3-z, 4-all directions 
   EPSILON=  1.0000000 bulk dielectric constant

 Exchange correlation treatment:
   GGA     =    --    GGA type
   LEXCH   =     8    internal setting for exchange type
   VOSKOWN=      0    Vosko Wilk Nusair interpolation
   LHFCALC =     F    Hartree Fock is set to
   LHFONE  =     F    Hartree Fock one center treatment
   AEXX    =    0.0000 exact exchange contribution

 Linear response parameters
   LEPSILON=     F    determine dielectric tensor
   LRPA    =     F    only Hartree local field effects (RPA)
   LNABLA  =     F    use nabla operator in PAW spheres
   LVEL    =     F    velocity operator in full k-point grid
   LINTERFAST=   F  fast interpolation
   KINTER  =     0    interpolate to denser k-point grid
   CSHIFT  =0.1000    complex shift for real part using Kramers Kronig
   OMEGAMAX=  -1.0    maximum frequency
   DEG_THRESHOLD= 0.2000000E-02 threshold for treating states as degnerate
   RTIME   =   -0.100 relaxation time in fs
  (WPLASMAI=    0.000 imaginary part of plasma frequency in eV, 0.658/RTIME)
   DFIELD  = 0.0000000 0.0000000 0.0000000 field for delta impulse in time
 
 Orbital magnetization related:
   ORBITALMAG=     F  switch on orbital magnetization
   LCHIMAG   =     F  perturbation theory with respect to B field
   DQ        =  0.001000  dq finite difference perturbation B field
   LLRAUG    =     F  two centre corrections for induced B field



--------------------------------------------------------------------------------------------------------


 Static calculation
 charge density and potential will be updated during run
 spin polarized calculation
 RMM-DIIS sequential band-by-band and
  variant of blocked Davidson during initial phase
 perform sub-space diagonalisation
    before iterative eigenvector-optimisation
 modified Broyden-mixing scheme, WC =      100.0
 initial mixing is a Kerker type mixing with AMIX =  0.4000 and BMIX =      1.0000
 Hartree-type preconditioning will be used
 using additional bands           29
 real space projection scheme for non local part
 use partial core corrections
 calculate Harris-corrections to forces 
   (improved forces if not selfconsistent)
 use gradient corrections 
 use of overlap-Matrix (Vanderbilt PP)
 Fermi weights with tetrahedron method with Bloechl corrections


--------------------------------------------------------------------------------------------------------


  energy-cutoff  :      520.00
  volume of cell :      178.20
      direct lattice vectors                 reciprocal lattice vectors
     1.772500000  1.772500000 -3.545000000     0.070521862  0.070521862 -0.211565585
     0.000000000 -5.317500000 -1.772500000    -0.017630465 -0.158674189 -0.088152327
    -7.090000000  1.772500000 -1.772500000    -0.123413258  0.017630465 -0.052891396

  length of vectors
     4.341720569  5.605137153  7.520080618     0.233894555  0.182370953  0.135422175


 
 k-points in units of 2pi/SCALE and weight: read from INCAR                         
  -0.00000000 -0.00000000 -0.00000000       0.017
   0.05000000  0.05000000 -0.15000000       0.033
   0.10000000  0.10000000 -0.30000000       0.033
  -0.01562500 -0.14062500 -0.07812500       0.033
   0.03437500 -0.09062500 -0.22812500       0.033
   0.08437500 -0.04062500 -0.37812500       0.033
  -0.11562500 -0.24062500  0.22187500       0.033
  -0.06562500 -0.19062500  0.07187500       0.033
  -0.03125000 -0.28125000 -0.15625000       0.017
   0.01875000 -0.23125000 -0.30625000       0.033
   0.06875000 -0.18125000 -0.45625000       0.033
  -0.14583333  0.02083333 -0.06250000       0.033
  -0.09583333  0.07083333 -0.21250000       0.033
  -0.04583333  0.12083333 -0.36250000       0.033
  -0.24583333 -0.07916667  0.23750000       0.033
  -0.19583333 -0.02916667  0.08750000       0.033
  -0.16145833 -0.11979167 -0.14062500       0.033
  -0.11145833 -0.06979167 -0.29062500       0.033
  -0.06145833 -0.01979167 -0.44062500       0.033
  -0.26145833 -0.21979167  0.15937500       0.033
  -0.21145833 -0.16979167  0.00937500       0.033
  -0.17708333 -0.26041667 -0.21875000       0.033
  -0.12708333 -0.21041667 -0.36875000       0.033
  -0.07708333 -0.16041667 -0.51875000       0.033
  -0.27708333 -0.36041667  0.08125000       0.033
  -0.22708333 -0.31041667 -0.06875000       0.033
  -0.13020833  0.16145833  0.01562500       0.033
  -0.08020833  0.21145833 -0.13437500       0.033
  -0.03020833  0.26145833 -0.28437500       0.033
  -0.23020833  0.06145833  0.31562500       0.033
  -0.18020833  0.11145833  0.16562500       0.033
 
 k-points in reciprocal lattice and weights: read from INCAR                         
   0.00000000  0.00000000  0.00000000       0.017
   0.20000000  0.00000000  0.00000000       0.033
   0.40000000  0.00000000  0.00000000       0.033
   0.00000000  0.25000000  0.00000000       0.033
   0.20000000  0.25000000  0.00000000       0.033
   0.40000000  0.25000000  0.00000000       0.033
  -0.40000000  0.25000000  0.00000000       0.033
  -0.20000000  0.25000000  0.00000000       0.033
   0.00000000  0.50000000  0.00000000       0.017
   0.20000000  0.50000000  0.00000000       0.033
   0.40000000  0.50000000  0.00000000       0.033
   0.00000000  0.00000000  0.33333333       0.033
   0.20000000  0.00000000  0.33333333       0.033
   0.40000000  0.00000000  0.33333333       0.033
  -0.40000000  0.00000000  0.33333333       0.033
  -0.20000000  0.00000000  0.33333333       0.033
   0.00000000  0.25000000  0.33333333       0.033
   0.20000000  0.25000000  0.33333333       0.033
   0.40000000  0.25000000  0.33333333       0.033
  -0.40000000  0.25000000  0.33333333       0.033
  -0.20000000  0.25000000  0.33333333       0.033
   0.00000000  0.50000000  0.33333333       0.033
   0.20000000  0.50000000  0.33333333       0.033
   0.40000000  0.50000000  0.33333333       0.033
  -0.40000000  0.50000000  0.33333333       0.033
  -0.20000000  0.50000000  0.33333333       0.033
   0.00000000 -0.25000000  0.33333333       0.033
   0.20000000 -0.25000000  0.33333333       0.033
   0.40000000 -0.25000000  0.33333333       0.033
  -0.40000000 -0.25000000  0.33333333       0.033
  -0.20000000 -0.25000000  0.33333333       0.033
 
 position of ions in fractional coordinates (direct lattice) 
   0.26089384  0.68950155  0.81419434
   0.99992985  0.24993015  0.75227757
   0.24993165  0.93853124  0.56149491
   0.00007258  0.49897331  0.50100451
   0.98910417  0.74800006  0.24831606
   0.75339002  0.81381833  0.68572140
   0.49835085  0.37442955  0.62527246
   0.49660267  0.62367129  0.37677335
   0.25007658  0.18757614  0.31022108
   0.25579085  0.43727671  0.06169838
   0.99420130  0.00022474  0.00080070
   0.75164356  0.06307274  0.43722919
   0.76403065  0.56895930  0.93066932
   0.49575906  0.12206672  0.86997398
   0.48596729  0.86853597  0.13182357
   0.75425508  0.31543219  0.19252918
 
 position of ions in cartesian coordinates  (Angst):
  -5.31020352 -1.76083071 -3.59016962
  -3.56127230  1.77678405 -5.32116451
  -3.53799507 -3.55238629 -3.54480405
  -3.55199334 -1.76513141 -1.77271798
  -0.00737372 -1.78416297 -5.27234461
  -3.52638092 -1.77665399 -5.32870179
  -3.54985488  0.00059318 -3.53862560
  -1.79109480 -1.76831310 -3.53374457
  -1.75620674 -0.00430849 -1.76886706
   0.01594776 -1.76246924 -1.79121190
   1.75654482  1.76244597 -3.52626122
  -1.76766676  1.77188764 -3.55136160
  -5.24420113 -0.02158541 -5.36658038
  -5.28938257  1.77167205 -3.51585800
  -0.07325207 -3.52340574 -3.49589133
  -0.02811478  0.00086443 -3.57419578
 


--------------------------------------------------------------------------------------------------------


 k-point  1 :   0.0000 0.0000 0.0000  plane waves:    4803
 k-point  2 :   0.2000 0.0000 0.0000  plane waves:    4785
 k-point  3 :   0.4000 0.0000 0.0000  plane waves:    4796
 k-point  4 :   0.0000 0.2500 0.0000  plane waves:    4787
 k-point  5 :   0.2000 0.2500 0.0000  plane waves:    4793
 k-point  6 :   0.4000 0.2500 0.0000  plane waves:    4794
 k-point  7 :  -0.4000 0.2500 0.0000  plane waves:    4817
 k-point  8 :  -0.2000 0.2500 0.0000  plane waves:    4796
 k-point  9 :   0.0000 0.5000 0.0000  plane waves:    4768
 k-point 10 :   0.2000 0.5000 0.0000  plane waves:    4788
 k-point 11 :   0.4000 0.5000 0.0000  plane waves:    4797
 k-point 12 :   0.0000 0.0000 0.3333  plane waves:    4787
 k-point 13 :   0.2000 0.0000 0.3333  plane waves:    4805
 k-point 14 :   0.4000 0.0000 0.3333  plane waves:    4812
 k-point 15 :  -0.4000 0.0000 0.3333  plane waves:    4818
 k-point 16 :  -0.2000 0.0000 0.3333  plane waves:    4808
 k-point 17 :   0.0000 0.2500 0.3333  plane waves:    4800
 k-point 18 :   0.2000 0.2500 0.3333  plane waves:    4794
 k-point 19 :   0.4000 0.2500 0.3333  plane waves:    4810
 k-point 20 :  -0.4000 0.2500 0.3333  plane waves:    4812
 k-point 21 :  -0.2000 0.2500 0.3333  plane waves:    4813
 k-point 22 :   0.0000 0.5000 0.3333  plane waves:    4794
 k-point 23 :   0.2000 0.5000 0.3333  plane waves:    4784
 k-point 24 :   0.4000 0.5000 0.3333  plane waves:    4788
 k-point 25 :  -0.4000 0.5000 0.3333  plane waves:    4808
 k-point 26 :  -0.2000 0.5000 0.3333  plane waves:    4789
 k-point 27 :   0.0000-0.2500 0.3333  plane waves:    4783
 k-point 28 :   0.2000-0.2500 0.3333  plane waves:    4789
 k-point 29 :   0.4000-0.2500 0.3333  plane waves:    4814
 k-point 30 :  -0.4000-0.2500 0.3333  plane waves:    4809
 k-point 31 :  -0.2000-0.2500 0.3333  plane waves:    4795

 maximum and minimum number of plane-waves per node :       619      573

 maximum number of plane-waves:      4818
 maximum index in each direction: 
   IXMAX=    8   IYMAX=   10   IZMAX=   13
   IXMIN=   -8   IYMIN=  -10   IZMIN=  -14


 real space projection operators:
  total allocation   :      12242.67 KBytes
  max/ min on nodes  :       1617.05       1455.75


 parallel 3D FFT for wavefunctions:
    minimum data exchange during FFTs selected (reduces bandwidth)
 parallel 3D FFT for charge:
    minimum data exchange during FFTs selected (reduces bandwidth)


 total amount of memory used by VASP MPI-rank0    60675. kBytes
=======================================================================

   base      :      30000. kBytes
   nonlr-proj:       3737. kBytes
   fftplans  :       1226. kBytes
   grid      :       3048. kBytes
   one-center:         62. kBytes
   wavefun   :      22602. kBytes
 
     INWAV:  cpu time    0.0010: real time    0.0001
 Broyden mixing: mesh for mixing (old mesh)
   NGX = 17   NGY = 21   NGZ = 27
  (NGX  = 64   NGY  = 84   NGZ  =112)
  gives a total of   9639 points

 initial charge density was supplied:
 charge density of overlapping atoms calculated
 number of electron     152.0000000 magnetization      24.0000000
 keeping initial charge density in first step


--------------------------------------------------------------------------------------------------------


 Maximum index for non-local projection operator          827
 Maximum index for augmentation-charges          723 (set IRDMAX)


--------------------------------------------------------------------------------------------------------


 First call to EWALD:  gamma=   0.315
 Maximum number of real-space cells 3x 3x 2
 Maximum number of reciprocal cells 2x 3x 4

    FEWALD:  cpu time    0.0020: real time    0.0014


--------------------------------------- Iteration      1(   1)  ---------------------------------------


    POTLOK:  cpu time    0.0390: real time    0.0425
    SETDIJ:  cpu time    0.0090: real time    0.0090
     EDDAV:  cpu time    6.4770: real time    6.5640
 BZINTS: Fermi energy: 24.310407;152.000000 electrons
         Band energy:2586.707023;  BLOECHL correction: -0.067501
       DOS:  cpu time    0.0900: real time    0.0929
    --------------------------------------------
      LOOP:  cpu time    6.6150: real time    6.7085

 eigenvalue-minimisations  : 13020
 total energy-change (2. order) : 0.1297916E+04  (-0.6277986E+04)
 number of electron     152.0000000 magnetization      24.0000000
 augmentation part      152.0000000 magnetization      24.0000000

 Free energy of the ion-electron system (eV)
  ---------------------------------------------------
  alpha Z        PSCENC =       816.77350523
  Ewald energy   TEWEN  =    -13459.44393300
  -Hartree energ DENC   =     -3523.38395992
  -exchange      EXHF   =         0.00000000
  -V(xc)+E(xc)   XCENC  =       400.91620169
  PAW double counting   =     13769.03515065   -14601.98969573
  entropy T*S    EENTRO =         0.00000000
  eigenvalues    EBANDS =      2586.70702343
  atomic energy  EATOM  =     15309.30175564
  Solvation  Ediel_sol  =         0.00000000
  ---------------------------------------------------
  free energy    TOTEN  =      1297.91604799 eV

  energy without entropy =     1297.91604799  energy(sigma->0) =     1297.91604799


--------------------------------------------------------------------------------------------------------




--------------------------------------- Iteration      1(   2)  ---------------------------------------


     EDDAV:  cpu time    6.3730: real time    6.4432
 BZINTS: Fermi energy: 12.372881;152.000000 electrons
         Band energy:1332.536229;  BLOECHL correction: -0.039993
       DOS:  cpu time    0.0910: real time    0.0919
    --------------------------------------------
      LOOP:  cpu time    6.4640: real time    6.5351

 eigenvalue-minimisations  : 13020
 total energy-change (2. order) :-0.1254171E+04  (-0.1188516E+04)
 number of electron     152.0000000 magnetization      24.0000000
 augmentation part      152.0000000 magnetization      24.0000000

 Free energy of the ion-electron system (eV)
  ---------------------------------------------------
  alpha Z        PSCENC =       816.77350523
  Ewald energy   TEWEN  =    -13459.44393300
  -Hartree energ DENC   =     -3523.38395992
  -exchange      EXHF   =         0.00000000
  -V(xc)+E(xc)   XCENC  =       400.91620169
  PAW double counting   =     13769.03515065   -14601.98969573
  entropy T*S    EENTRO =         0.00000000
  eigenvalues    EBANDS =      1332.53622892
  atomic energy  EATOM  =     15309.30175564
  Solvation  Ediel_sol  =         0.00000000
  ---------------------------------------------------
  free energy    TOTEN  =        43.74525348 eV

  energy without entropy =       43.74525348  energy(sigma->0) =       43.74525348


--------------------------------------------------------------------------------------------------------




--------------------------------------- Iteration      1(   3)  ---------------------------------------


     EDDAV:  cpu time    6.3840: real time    6.4573
 BZINTS: Fermi energy: 10.605893;152.000000 electrons
         Band energy:1179.271556;  BLOECHL correction: -0.053319
       DOS:  cpu time    0.0920: real time    0.0922
    --------------------------------------------
      LOOP:  cpu time    6.4760: real time    6.5494

 eigenvalue-minimisations  : 13032
 total energy-change (2. order) :-0.1532647E+03  (-0.1278005E+03)
 number of electron     152.0000000 magnetization      24.0000000
 augmentation part      152.0000000 magnetization      24.0000000

 Free energy of the ion-electron system (eV)
  ---------------------------------------------------
  alpha Z        PSCENC =       816.77350523
  Ewald energy   TEWEN  =    -13459.44393300
  -Hartree energ DENC   =     -3523.38395992
  -exchange      EXHF   =         0.00000000
  -V(xc)+E(xc)   XCENC  =       400.91620169
  PAW double counting   =     13769.03515065   -14601.98969573
  entropy T*S    EENTRO =         0.00000000
  eigenvalues    EBANDS =      1179.27155611
  atomic energy  EATOM  =     15309.30175564
  Solvation  Ediel_sol  =         0.00000000
  ---------------------------------------------------
  free energy    TOTEN  =      -109.51941933 eV

  energy without entropy =     -109.51941933  energy(sigma->0) =     -109.51941933


--------------------------------------------------------------------------------------------------------




--------------------------------------- Iteration      1(   4)  ---------------------------------------


     EDDAV:  cpu time    6.7970: real time    6.8765
 BZINTS: Fermi energy: 10.566035;152.000000 electrons
         Band energy:1173.377189;  BLOECHL correction: -0.055233
       DOS:  cpu time    0.0900: real time    0.0897
    --------------------------------------------
      LOOP:  cpu time    6.8870: real time    6.9662

 eigenvalue-minimisations  : 14193
 total energy-change (2. order) :-0.5894367E+01  (-0.5801135E+01)
 number of electron     152.0000000 magnetization      24.0000000
 augmentation part      152.0000000 magnetization      24.0000000

 Free energy of the ion-electron system (eV)
  ---------------------------------------------------
  alpha Z        PSCENC =       816.77350523
  Ewald energy   TEWEN  =    -13459.44393300
  -Hartree energ DENC   =     -3523.38395992
  -exchange      EXHF   =         0.00000000
  -V(xc)+E(xc)   XCENC  =       400.91620169
  PAW double counting   =     13769.03515065   -14601.98969573
  entropy T*S    EENTRO =         0.00000000
  eigenvalues    EBANDS =      1173.37718914
  atomic energy  EATOM  =     15309.30175564
  Solvation  Ediel_sol  =         0.00000000
  ---------------------------------------------------
  free energy    TOTEN  =      -115.41378631 eV

  energy without entropy =     -115.41378631  energy(sigma->0) =     -115.41378631


--------------------------------------------------------------------------------------------------------




--------------------------------------- Iteration      1(   5)  ---------------------------------------


     EDDAV:  cpu time    8.7877: real time    8.8898
 BZINTS: Fermi energy: 10.565357;152.000000 electrons
         Band energy:1173.278154;  BLOECHL correction: -0.055275
       DOS:  cpu time    0.0920: real time    0.0916
    CHARGE:  cpu time    0.2250: real time    0.2266
    MIXING:  cpu time    0.0020: real time    0.0011
    --------------------------------------------
      LOOP:  cpu time    9.1066: real time    9.2091

 eigenvalue-minimisations  : 19299
 total energy-change (2. order) :-0.9903538E-01  (-0.9896031E-01)
 number of electron     151.9999954 magnetization      20.7666685
 augmentation part       81.7296811 magnetization      16.5480803

 Broyden mixing:
  rms(total) = 0.40882E+01    rms(broyden)= 0.40881E+01
  rms(prec ) = 0.53439E+01
  weight for this iteration     100.00

 Free energy of the ion-electron system (eV)
  ---------------------------------------------------
  alpha Z        PSCENC =       816.77350523
  Ewald energy   TEWEN  =    -13459.44393300
  -Hartree energ DENC   =     -3523.38395992
  -exchange      EXHF   =         0.00000000
  -V(xc)+E(xc)   XCENC  =       400.91620169
  PAW double counting   =     13769.03515065   -14601.98969573
  entropy T*S    EENTRO =         0.00000000
  eigenvalues    EBANDS =      1173.27815376
  atomic energy  EATOM  =     15309.30175564
  Solvation  Ediel_sol  =         0.00000000
  ---------------------------------------------------
  free energy    TOTEN  =      -115.51282168 eV

  energy without entropy =     -115.51282168  energy(sigma->0) =     -115.51282168


--------------------------------------------------------------------------------------------------------




--------------------------------------- Iteration      1(   6)  ---------------------------------------


    POTLOK:  cpu time    0.0330: real time    0.0338
    SETDIJ:  cpu time    0.0090: real time    0.0087
    EDDIAG:  cpu time    0.9449: real time    0.9484
  RMM-DIIS:  cpu time    4.2144: real time    4.2268
    ORTHCH:  cpu time    0.1260: real time    0.1263
 BZINTS: Fermi energy:  7.458510;152.000000 electrons
         Band energy: 777.851467;  BLOECHL correction: -0.077706
       DOS:  cpu time    0.0940: real time    0.0946
    CHARGE:  cpu time    0.2230: real time    0.2227
    MIXING:  cpu time    0.0010: real time    0.0009
    --------------------------------------------
      LOOP:  cpu time    5.6451: real time    5.6622

 eigenvalue-minimisations  : 13510
 total energy-change (2. order) : 0.9099520E+01  (-0.1468350E+02)
 number of electron     151.9999944 magnetization      19.6038511
 augmentation part       95.6476332 magnetization      16.4270323

 Broyden mixing:
  rms(total) = 0.37497E+01    rms(broyden)= 0.37496E+01
  rms(prec ) = 0.52123E+01
  weight for this iteration     100.00

 eigenvalues of (default mixing * dielectric matrix)
  average eigenvalue GAMMA=   0.4343
  0.4343

 Free energy of the ion-electron system (eV)
  ---------------------------------------------------
  alpha Z        PSCENC =       816.77350523
  Ewald energy   TEWEN  =    -13459.44393300
  -Hartree energ DENC   =     -3163.21740122
  -exchange      EXHF   =         0.00000000
  -V(xc)+E(xc)   XCENC  =       383.02376239
  PAW double counting   =     14738.16885625   -15508.87131359
  entropy T*S    EENTRO =         0.00000000
  eigenvalues    EBANDS =       777.85146689
  atomic energy  EATOM  =     15309.30175564
  Solvation  Ediel_sol  =         0.00000000
  ---------------------------------------------------
  free energy    TOTEN  =      -106.41330142 eV

  energy without entropy =     -106.41330142  energy(sigma->0) =     -106.41330142


--------------------------------------------------------------------------------------------------------




--------------------------------------- Iteration      1(   7)  ---------------------------------------


    POTLOK:  cpu time    0.0330: real time    0.0336
    SETDIJ:  cpu time    0.0090: real time    0.0087
    EDDIAG:  cpu time    0.9679: real time    0.9695
  RMM-DIIS:  cpu time    4.2813: real time    4.2920
    ORTHCH:  cpu time    0.1260: real time    0.1264
 BZINTS: Fermi energy:  8.853151;152.000000 electrons
         Band energy: 900.683798;  BLOECHL correction: -0.019909
       DOS:  cpu time    0.0990: real time    0.0986
    CHARGE:  cpu time    0.2140: real time    0.2148
    MIXING:  cpu time    0.0010: real time    0.0009
    --------------------------------------------
      LOOP:  cpu time    5.7311: real time    5.7446

 eigenvalue-minimisations  : 13661
 total energy-change (2. order) :-0.2161880E+02  (-0.3260752E+01)
 number of electron     151.9999966 magnetization      18.1323735
 augmentation part       89.3184701 magnetization      17.0983714

 Broyden mixing:
  rms(total) = 0.87438E+01    rms(broyden)= 0.87436E+01
  rms(prec ) = 0.15759E+02
  weight for this iteration     100.00

 eigenvalues of (default mixing * dielectric matrix)
  average eigenvalue GAMMA=   0.3709
  0.5958  0.1460

 Free energy of the ion-electron system (eV)
  ---------------------------------------------------
  alpha Z        PSCENC =       816.77350523
  Ewald energy   TEWEN  =    -13459.44393300
  -Hartree energ DENC   =     -3266.48704833
  -exchange      EXHF   =         0.00000000
  -V(xc)+E(xc)   XCENC  =       389.52509448
  PAW double counting   =     15253.17564538   -16071.56091972
  entropy T*S    EENTRO =         0.00000000
  eigenvalues    EBANDS =       900.68379819
  atomic energy  EATOM  =     15309.30175564
  Solvation  Ediel_sol  =         0.00000000
  ---------------------------------------------------
  free energy    TOTEN  =      -128.03210214 eV

  energy without entropy =     -128.03210214  energy(sigma->0) =     -128.03210214


--------------------------------------------------------------------------------------------------------




--------------------------------------- Iteration      1(   8)  ---------------------------------------


    POTLOK:  cpu time    0.0360: real time    0.0371
    SETDIJ:  cpu time    0.0100: real time    0.0088
    EDDIAG:  cpu time    0.9709: real time    0.9760
  RMM-DIIS:  cpu time    4.2863: real time    4.2966
    ORTHCH:  cpu time    0.1250: real time    0.1260
 BZINTS: Fermi energy:  8.569600;152.000000 electrons
         Band energy: 934.130842;  BLOECHL correction: -0.055884
       DOS:  cpu time    0.0930: real time    0.0936
    CHARGE:  cpu time    0.2220: real time    0.2211
    MIXING:  cpu time    0.0010: real time    0.0009
    --------------------------------------------
      LOOP:  cpu time    5.7441: real time    5.7601

 eigenvalue-minimisations  : 13666
 total energy-change (2. order) : 0.2624262E+02  (-0.1356309E+01)
 number of electron     151.9999947 magnetization      17.7297981
 augmentation part       89.8796137 magnetization      14.7112210

 Broyden mixing:
  rms(total) = 0.23066E+01    rms(broyden)= 0.23064E+01
  rms(prec ) = 0.35132E+01
  weight for this iteration     100.00

 eigenvalues of (default mixing * dielectric matrix)
  average eigenvalue GAMMA=   0.4463
  0.7438  0.4930  0.1021

 Free energy of the ion-electron system (eV)
  ---------------------------------------------------
  alpha Z        PSCENC =       816.77350523
  Ewald energy   TEWEN  =    -13459.44393300
  -Hartree energ DENC   =     -3261.76298198
  -exchange      EXHF   =         0.00000000
  -V(xc)+E(xc)   XCENC  =       388.04195777
  PAW double counting   =     15464.66405345   -16293.49468575
  entropy T*S    EENTRO =         0.00000000
  eigenvalues    EBANDS =       934.13084160
  atomic energy  EATOM  =     15309.30175564
  Solvation  Ediel_sol  =         0.00000000
  ---------------------------------------------------
  free energy    TOTEN  =      -101.78948704 eV

  energy without entropy =     -101.78948704  energy(sigma->0) =     -101.78948704


--------------------------------------------------------------------------------------------------------




--------------------------------------- Iteration      1(   9)  ---------------------------------------


    POTLOK:  cpu time    0.0330: real time    0.0336
    SETDIJ:  cpu time    0.0090: real time    0.0088
    EDDIAG:  cpu time    0.9669: real time    0.9680
  RMM-DIIS:  cpu time    4.2614: real time    4.2820
    ORTHCH:  cpu time    0.1260: real time    0.1269
 BZINTS: Fermi energy:  8.514154;152.000000 electrons
         Band energy: 922.924769;  BLOECHL correction: -0.054212
       DOS:  cpu time    0.0940: real time    0.0946
    CHARGE:  cpu time    0.2250: real time    0.2244
    MIXING:  cpu time    0.0010: real time    0.0010
    --------------------------------------------
      LOOP:  cpu time    5.7161: real time    5.7394

 eigenvalue-minimisations  : 13497
 total energy-change (2. order) :-0.4537623E-02  (-0.9347722E+00)
 number of electron     151.9999951 magnetization      16.7830555
 augmentation part       90.5583012 magnetization      13.5018453

 Broyden mixing:
  rms(total) = 0.21925E+01    rms(broyden)= 0.21925E+01
  rms(prec ) = 0.32507E+01
  weight for this iteration     100.00

 eigenvalues of (default mixing * dielectric matrix)
  average eigenvalue GAMMA=   0.4980
  1.1819  0.5440  0.1075  0.1587

 Free energy of the ion-electron system (eV)
  ---------------------------------------------------
  alpha Z        PSCENC =       816.77350523
  Ewald energy   TEWEN  =    -13459.44393300
  -Hartree energ DENC   =     -3246.02339170
  -exchange      EXHF   =         0.00000000
  -V(xc)+E(xc)   XCENC  =       387.30064241
  PAW double counting   =     15633.56720902   -16466.19458168
  entropy T*S    EENTRO =         0.00000000
  eigenvalues    EBANDS =       922.92476942
  atomic energy  EATOM  =     15309.30175564
  Solvation  Ediel_sol  =         0.00000000
  ---------------------------------------------------
  free energy    TOTEN  =      -101.79402466 eV

  energy without entropy =     -101.79402466  energy(sigma->0) =     -101.79402466


--------------------------------------------------------------------------------------------------------




--------------------------------------- Iteration      1(  10)  ---------------------------------------


    POTLOK:  cpu time    0.0330: real time    0.0338
    SETDIJ:  cpu time    0.0090: real time    0.0088
    EDDIAG:  cpu time    0.9539: real time    0.9552
  RMM-DIIS:  cpu time    4.1724: real time    4.2365
    ORTHCH:  cpu time    0.1470: real time    0.1476
 BZINTS: Fermi energy:  8.448397;152.000000 electrons
         Band energy: 927.257551;  BLOECHL correction: -0.065819
       DOS:  cpu time    0.0930: real time    0.0946
    CHARGE:  cpu time    0.2230: real time    0.2223
    MIXING:  cpu time    0.0010: real time    0.0011
    --------------------------------------------
      LOOP:  cpu time    5.6321: real time    5.7000

 eigenvalue-minimisations  : 13322
 total energy-change (2. order) : 0.2313506E+01  (-0.2073525E+00)
 number of electron     151.9999949 magnetization      16.7913683
 augmentation part       90.3557328 magnetization      14.1627033

 Broyden mixing:
  rms(total) = 0.88177E+00    rms(broyden)= 0.88173E+00
  rms(prec ) = 0.12981E+01
  weight for this iteration     100.00

 eigenvalues of (default mixing * dielectric matrix)
  average eigenvalue GAMMA=   0.5452
  1.4354  0.5073  0.5073  0.1063  0.1698

 Free energy of the ion-electron system (eV)
  ---------------------------------------------------
  alpha Z        PSCENC =       816.77350523
  Ewald energy   TEWEN  =    -13459.44393300
  -Hartree energ DENC   =     -3232.46738967
  -exchange      EXHF   =         0.00000000
  -V(xc)+E(xc)   XCENC  =       387.27611411
  PAW double counting   =     16081.96984659   -16930.14796906
  entropy T*S    EENTRO =         0.00000000
  eigenvalues    EBANDS =       927.25755132
  atomic energy  EATOM  =     15309.30175564
  Solvation  Ediel_sol  =         0.00000000
  ---------------------------------------------------
  free energy    TOTEN  =       -99.48051885 eV

  energy without entropy =      -99.48051885  energy(sigma->0) =      -99.48051885


--------------------------------------------------------------------------------------------------------




--------------------------------------- Iteration      1(  11)  ---------------------------------------


    POTLOK:  cpu time    0.0340: real time    0.0340
    SETDIJ:  cpu time    0.0090: real time    0.0088
    EDDIAG:  cpu time    0.9439: real time    0.9456
  RMM-DIIS:  cpu time    4.2054: real time    4.2155
    ORTHCH:  cpu time    0.1260: real time    0.1263
 BZINTS: Fermi energy:  8.456528;152.000000 electrons
         Band energy: 923.268054;  BLOECHL correction: -0.060859
       DOS:  cpu time    0.0930: real time    0.0925
    CHARGE:  cpu time    0.2230: real time    0.2233
    MIXING:  cpu time    0.0010: real time    0.0010
    --------------------------------------------
      LOOP:  cpu time    5.6351: real time    5.6470

 eigenvalue-minimisations  : 13426
 total energy-change (2. order) :-0.2552069E+00  (-0.1014742E+00)
 number of electron     151.9999951 magnetization      16.9441916
 augmentation part       90.4531246 magnetization      14.4148797

 Broyden mixing:
  rms(total) = 0.11510E+01    rms(broyden)= 0.11509E+01
  rms(prec ) = 0.17837E+01
  weight for this iteration     100.00

 eigenvalues of (default mixing * dielectric matrix)
  average eigenvalue GAMMA=   0.5219
  1.5679  0.5736  0.5736  0.1065  0.1707  0.1390

 Free energy of the ion-electron system (eV)
  ---------------------------------------------------
  alpha Z        PSCENC =       816.77350523
  Ewald energy   TEWEN  =    -13459.44393300
  -Hartree energ DENC   =     -3225.81395390
  -exchange      EXHF   =         0.00000000
  -V(xc)+E(xc)   XCENC  =       387.21492258
  PAW double counting   =     16197.77113382   -17048.80721063
  entropy T*S    EENTRO =         0.00000000
  eigenvalues    EBANDS =       923.26805450
  atomic energy  EATOM  =     15309.30175564
  Solvation  Ediel_sol  =         0.00000000
  ---------------------------------------------------
  free energy    TOTEN  =       -99.73572576 eV

  energy without entropy =      -99.73572576  energy(sigma->0) =      -99.73572576


--------------------------------------------------------------------------------------------------------




--------------------------------------- Iteration      1(  12)  ---------------------------------------


    POTLOK:  cpu time    0.0330: real time    0.0337
    SETDIJ:  cpu time    0.0090: real time    0.0088
    EDDIAG:  cpu time    0.9709: real time    0.9742
  RMM-DIIS:  cpu time    4.2194: real time    4.2334
    ORTHCH:  cpu time    0.1270: real time    0.1276
 BZINTS: Fermi energy:  8.428512;152.000000 electrons
         Band energy: 922.230016;  BLOECHL correction: -0.070587
       DOS:  cpu time    0.0970: real time    0.0974
    CHARGE:  cpu time    0.2200: real time    0.2200
    MIXING:  cpu time    0.0020: real time    0.0010
    --------------------------------------------
      LOOP:  cpu time    5.6781: real time    5.6962

 eigenvalue-minimisations  : 13440
 total energy-change (2. order) : 0.4648417E+00  (-0.4032477E-01)
 number of electron     151.9999949 magnetization      17.0922247
 augmentation part       90.4946630 magnetization      14.7295884

 Broyden mixing:
  rms(total) = 0.35996E+00    rms(broyden)= 0.35992E+00
  rms(prec ) = 0.52205E+00
  weight for this iteration     100.00

 eigenvalues of (default mixing * dielectric matrix)
  average eigenvalue GAMMA=   0.5598
  1.6292  0.7144  0.7144  0.4561  0.1675  0.1061  0.1312

 Free energy of the ion-electron system (eV)
  ---------------------------------------------------
  alpha Z        PSCENC =       816.77350523
  Ewald energy   TEWEN  =    -13459.44393300
  -Hartree energ DENC   =     -3221.23144363
  -exchange      EXHF   =         0.00000000
  -V(xc)+E(xc)   XCENC  =       387.37768794
  PAW double counting   =     16313.02390089   -17167.30237342
  entropy T*S    EENTRO =         0.00000000
  eigenvalues    EBANDS =       922.23001627
  atomic energy  EATOM  =     15309.30175564
  Solvation  Ediel_sol  =         0.00000000
  ---------------------------------------------------
  free energy    TOTEN  =       -99.27088409 eV

  energy without entropy =      -99.27088409  energy(sigma->0) =      -99.27088409


--------------------------------------------------------------------------------------------------------




--------------------------------------- Iteration      1(  13)  ---------------------------------------


    POTLOK:  cpu time    0.0330: real time    0.0337
    SETDIJ:  cpu time    0.0090: real time    0.0088
    EDDIAG:  cpu time    0.9679: real time    0.9703
  RMM-DIIS:  cpu time    4.2484: real time    4.2586
    ORTHCH:  cpu time    0.1260: real time    0.1264
 BZINTS: Fermi energy:  8.430709;152.000000 electrons
         Band energy: 922.552092;  BLOECHL correction: -0.071877
       DOS:  cpu time    0.0920: real time    0.0926
    CHARGE:  cpu time    0.2220: real time    0.2218
    MIXING:  cpu time    0.0010: real time    0.0011
    --------------------------------------------
      LOOP:  cpu time    5.6991: real time    5.7132

 eigenvalue-minimisations  : 13537
 total energy-change (2. order) : 0.4295119E-02  (-0.1118307E-01)
 number of electron     151.9999949 magnetization      17.6984172
 augmentation part       90.4515718 magnetization      15.4088223

 Broyden mixing:
  rms(total) = 0.32647E+00    rms(broyden)= 0.32645E+00
  rms(prec ) = 0.46405E+00
  weight for this iteration     100.00

 eigenvalues of (default mixing * dielectric matrix)
  average eigenvalue GAMMA=   0.6284
  1.9261  1.2569  0.7325  0.5636  0.1694  0.1061  0.1434  0.1290

 Free energy of the ion-electron system (eV)
  ---------------------------------------------------
  alpha Z        PSCENC =       816.77350523
  Ewald energy   TEWEN  =    -13459.44393300
  -Hartree energ DENC   =     -3220.47694877
  -exchange      EXHF   =         0.00000000
  -V(xc)+E(xc)   XCENC  =       387.47416710
  PAW double counting   =     16351.96287121   -17207.41009819
  entropy T*S    EENTRO =         0.00000000
  eigenvalues    EBANDS =       922.55209181
  atomic energy  EATOM  =     15309.30175564
  Solvation  Ediel_sol  =         0.00000000
  ---------------------------------------------------
  free energy    TOTEN  =       -99.26658897 eV

  energy without entropy =      -99.26658897  energy(sigma->0) =      -99.26658897


--------------------------------------------------------------------------------------------------------




--------------------------------------- Iteration      1(  14)  ---------------------------------------


    POTLOK:  cpu time    0.0340: real time    0.0338
    SETDIJ:  cpu time    0.0090: real time    0.0088
    EDDIAG:  cpu time    0.9669: real time    0.9693
  RMM-DIIS:  cpu time    4.2594: real time    4.2699
    ORTHCH:  cpu time    0.1250: real time    0.1262
 BZINTS: Fermi energy:  8.441725;152.000000 electrons
         Band energy: 920.482187;  BLOECHL correction: -0.075978
       DOS:  cpu time    0.0940: real time    0.0939
    CHARGE:  cpu time    0.2140: real time    0.2138
    MIXING:  cpu time    0.0010: real time    0.0011
    --------------------------------------------
      LOOP:  cpu time    5.7031: real time    5.7170

 eigenvalue-minimisations  : 13598
 total energy-change (2. order) : 0.5553528E-02  (-0.6398957E-02)
 number of electron     151.9999949 magnetization      17.8939065
 augmentation part       90.4457231 magnetization      15.7175173

 Broyden mixing:
  rms(total) = 0.22415E+00    rms(broyden)= 0.22414E+00
  rms(prec ) = 0.34104E+00
  weight for this iteration     100.00

 eigenvalues of (default mixing * dielectric matrix)
  average eigenvalue GAMMA=   0.6187
  1.9831  1.3658  0.7398  0.5440  0.3841  0.1062  0.1611  0.1580  0.1259

 Free energy of the ion-electron system (eV)
  ---------------------------------------------------
  alpha Z        PSCENC =       816.77350523
  Ewald energy   TEWEN  =    -13459.44393300
  -Hartree energ DENC   =     -3215.25031184
  -exchange      EXHF   =         0.00000000
  -V(xc)+E(xc)   XCENC  =       387.57003865
  PAW double counting   =     16486.88603741   -17345.58031431
  entropy T*S    EENTRO =         0.00000000
  eigenvalues    EBANDS =       920.48218678
  atomic energy  EATOM  =     15309.30175564
  Solvation  Ediel_sol  =         0.00000000
  ---------------------------------------------------
  free energy    TOTEN  =       -99.26103544 eV

  energy without entropy =      -99.26103544  energy(sigma->0) =      -99.26103544


--------------------------------------------------------------------------------------------------------




--------------------------------------- Iteration      1(  15)  ---------------------------------------


    POTLOK:  cpu time    0.0340: real time    0.0338
    SETDIJ:  cpu time    0.0090: real time    0.0088
    EDDIAG:  cpu time    0.9549: real time    0.9591
  RMM-DIIS:  cpu time    4.2384: real time    4.2508
    ORTHCH:  cpu time    0.1290: real time    0.1292
 BZINTS: Fermi energy:  8.441952;152.000000 electrons
         Band energy: 919.152157;  BLOECHL correction: -0.076059
       DOS:  cpu time    0.0960: real time    0.0958
    CHARGE:  cpu time    0.2160: real time    0.2156
    MIXING:  cpu time    0.0010: real time    0.0012
    --------------------------------------------
      LOOP:  cpu time    5.6781: real time    5.6943

 eigenvalue-minimisations  : 13572
 total energy-change (2. order) :-0.5511146E-02  (-0.3942346E-02)
 number of electron     151.9999950 magnetization      18.1852986
 augmentation part       90.4855859 magnetization      15.9989359

 Broyden mixing:
  rms(total) = 0.24071E+00    rms(broyden)= 0.24070E+00
  rms(prec ) = 0.38610E+00
  weight for this iteration     100.00

 eigenvalues of (default mixing * dielectric matrix)
  average eigenvalue GAMMA=   0.6543
  1.8201  1.8201  0.9754  0.6148  0.6148  0.1061  0.1649  0.1612  0.1257  0.1401

 Free energy of the ion-electron system (eV)
  ---------------------------------------------------
  alpha Z        PSCENC =       816.77350523
  Ewald energy   TEWEN  =    -13459.44393300
  -Hartree energ DENC   =     -3213.47486770
  -exchange      EXHF   =         0.00000000
  -V(xc)+E(xc)   XCENC  =       387.53916029
  PAW double counting   =     16513.82893218   -17372.94325664
  entropy T*S    EENTRO =         0.00000000
  eigenvalues    EBANDS =       919.15215741
  atomic energy  EATOM  =     15309.30175564
  Solvation  Ediel_sol  =         0.00000000
  ---------------------------------------------------
  free energy    TOTEN  =       -99.26654659 eV

  energy without entropy =      -99.26654659  energy(sigma->0) =      -99.26654659


--------------------------------------------------------------------------------------------------------




--------------------------------------- Iteration      1(  16)  ---------------------------------------


    POTLOK:  cpu time    0.0350: real time    0.0357
    SETDIJ:  cpu time    0.0090: real time    0.0088
    EDDIAG:  cpu time    0.9479: real time    0.9553
  RMM-DIIS:  cpu time    4.2474: real time    4.2552
    ORTHCH:  cpu time    0.1250: real time    0.1266
 BZINTS: Fermi energy:  8.429588;152.000000 electrons
         Band energy: 917.562346;  BLOECHL correction: -0.077797
       DOS:  cpu time    0.0910: real time    0.0909
    CHARGE:  cpu time    0.2360: real time    0.2361
    MIXING:  cpu time    0.0020: real time    0.0013
    --------------------------------------------
      LOOP:  cpu time    5.6931: real time    5.7099

 eigenvalue-minimisations  : 13496
 total energy-change (2. order) : 0.1746293E-01  (-0.2040924E-02)
 number of electron     151.9999950 magnetization      18.1924084
 augmentation part       90.5509749 magnetization      15.9616699

 Broyden mixing:
  rms(total) = 0.99237E-01    rms(broyden)= 0.99232E-01
  rms(prec ) = 0.15696E+00
  weight for this iteration     100.00

 eigenvalues of (default mixing * dielectric matrix)
  average eigenvalue GAMMA=   0.6366
  1.7889  1.7889  1.1225  0.6220  0.6220  0.3585  0.1061  0.1632  0.1632  0.1254
  0.1419

 Free energy of the ion-electron system (eV)
  ---------------------------------------------------
  alpha Z        PSCENC =       816.77350523
  Ewald energy   TEWEN  =    -13459.44393300
  -Hartree energ DENC   =     -3211.77522985
  -exchange      EXHF   =         0.00000000
  -V(xc)+E(xc)   XCENC  =       387.47117035
  PAW double counting   =     16530.87152998   -17390.01022771
  entropy T*S    EENTRO =         0.00000000
  eigenvalues    EBANDS =       917.56234570
  atomic energy  EATOM  =     15309.30175564
  Solvation  Ediel_sol  =         0.00000000
  ---------------------------------------------------
  free energy    TOTEN  =       -99.24908366 eV

  energy without entropy =      -99.24908366  energy(sigma->0) =      -99.24908366


--------------------------------------------------------------------------------------------------------




--------------------------------------- Iteration      1(  17)  ---------------------------------------


    POTLOK:  cpu time    0.0330: real time    0.0337
    SETDIJ:  cpu time    0.0090: real time    0.0088
    EDDIAG:  cpu time    0.9459: real time    0.9472
  RMM-DIIS:  cpu time    4.2714: real time    4.2830
    ORTHCH:  cpu time    0.1280: real time    0.1278
 BZINTS: Fermi energy:  8.428809;152.000000 electrons
         Band energy: 917.532242;  BLOECHL correction: -0.077530
       DOS:  cpu time    0.0960: real time    0.0957
    CHARGE:  cpu time    0.2170: real time    0.2174
    MIXING:  cpu time    0.0010: real time    0.0013
    --------------------------------------------
      LOOP:  cpu time    5.7011: real time    5.7150

 eigenvalue-minimisations  : 13583
 total energy-change (2. order) : 0.1155966E-02  (-0.5672600E-03)
 number of electron     151.9999949 magnetization      18.1615582
 augmentation part       90.5565836 magnetization      15.9129951

 Broyden mixing:
  rms(total) = 0.74867E-01    rms(broyden)= 0.74864E-01
  rms(prec ) = 0.10846E+00
  weight for this iteration     100.00

 eigenvalues of (default mixing * dielectric matrix)
  average eigenvalue GAMMA=   0.6296
  1.7180  1.5544  1.5544  0.6336  0.6336  0.5982  0.1061  0.1695  0.1695  0.1254
  0.1466  0.1466

 Free energy of the ion-electron system (eV)
  ---------------------------------------------------
  alpha Z        PSCENC =       816.77350523
  Ewald energy   TEWEN  =    -13459.44393300
  -Hartree energ DENC   =     -3211.72274172
  -exchange      EXHF   =         0.00000000
  -V(xc)+E(xc)   XCENC  =       387.45105069
  PAW double counting   =     16531.38745872   -17390.52726566
  entropy T*S    EENTRO =         0.00000000
  eigenvalues    EBANDS =       917.53224240
  atomic energy  EATOM  =     15309.30175564
  Solvation  Ediel_sol  =         0.00000000
  ---------------------------------------------------
  free energy    TOTEN  =       -99.24792770 eV

  energy without entropy =      -99.24792770  energy(sigma->0) =      -99.24792770


--------------------------------------------------------------------------------------------------------




--------------------------------------- Iteration      1(  18)  ---------------------------------------


    POTLOK:  cpu time    0.0330: real time    0.0336
    SETDIJ:  cpu time    0.0090: real time    0.0088
    EDDIAG:  cpu time    0.9679: real time    0.9686
  RMM-DIIS:  cpu time    4.3163: real time    4.3382
    ORTHCH:  cpu time    0.1260: real time    0.1264
 BZINTS: Fermi energy:  8.424812;152.000000 electrons
         Band energy: 917.516784;  BLOECHL correction: -0.076858
       DOS:  cpu time    0.0920: real time    0.0916
    CHARGE:  cpu time    0.2240: real time    0.2239
    MIXING:  cpu time    0.0010: real time    0.0014
    --------------------------------------------
      LOOP:  cpu time    5.7691: real time    5.7925

 eigenvalue-minimisations  : 13651
 total energy-change (2. order) : 0.1297076E-02  (-0.2683748E-03)
 number of electron     151.9999949 magnetization      18.1559489
 augmentation part       90.5701678 magnetization      15.8773193

 Broyden mixing:
  rms(total) = 0.36205E-01    rms(broyden)= 0.36202E-01
  rms(prec ) = 0.53414E-01
  weight for this iteration     100.00

 eigenvalues of (default mixing * dielectric matrix)
  average eigenvalue GAMMA=   0.6267
  1.7992  1.5722  1.5722  0.6277  0.6277  0.5413  0.5413  0.1061  0.1728  0.1604
  0.1604  0.1253  0.1404

 Free energy of the ion-electron system (eV)
  ---------------------------------------------------
  alpha Z        PSCENC =       816.77350523
  Ewald energy   TEWEN  =    -13459.44393300
  -Hartree energ DENC   =     -3211.61498766
  -exchange      EXHF   =         0.00000000
  -V(xc)+E(xc)   XCENC  =       387.40107285
  PAW double counting   =     16532.83708010   -17392.01790781
  entropy T*S    EENTRO =         0.00000000
  eigenvalues    EBANDS =       917.51678402
  atomic energy  EATOM  =     15309.30175564
  Solvation  Ediel_sol  =         0.00000000
  ---------------------------------------------------
  free energy    TOTEN  =       -99.24663062 eV

  energy without entropy =      -99.24663062  energy(sigma->0) =      -99.24663062


--------------------------------------------------------------------------------------------------------




--------------------------------------- Iteration      1(  19)  ---------------------------------------


    POTLOK:  cpu time    0.0330: real time    0.0340
    SETDIJ:  cpu time    0.0100: real time    0.0088
    EDDIAG:  cpu time    0.9669: real time    0.9718
  RMM-DIIS:  cpu time    4.3003: real time    4.3134
    ORTHCH:  cpu time    0.1260: real time    0.1270
 BZINTS: Fermi energy:  8.424485;152.000000 electrons
         Band energy: 917.599326;  BLOECHL correction: -0.076746
       DOS:  cpu time    0.0920: real time    0.0922
    CHARGE:  cpu time    0.2140: real time    0.2131
    MIXING:  cpu time    0.0010: real time    0.0014
    --------------------------------------------
      LOOP:  cpu time    5.7431: real time    5.7617

 eigenvalue-minimisations  : 13727
 total energy-change (2. order) :-0.1396929E-03  (-0.6928248E-04)
 number of electron     151.9999949 magnetization      18.1462813
 augmentation part       90.5669536 magnetization      15.8649190

 Broyden mixing:
  rms(total) = 0.40010E-01    rms(broyden)= 0.40010E-01
  rms(prec ) = 0.61963E-01
  weight for this iteration     100.00

 eigenvalues of (default mixing * dielectric matrix)
  average eigenvalue GAMMA=   0.6220
  1.8849  1.5623  1.5623  0.7256  0.7256  0.6260  0.6260  0.1061  0.1754  0.1616
  0.1616  0.1394  0.1252  0.1264

 Free energy of the ion-electron system (eV)
  ---------------------------------------------------
  alpha Z        PSCENC =       816.77350523
  Ewald energy   TEWEN  =    -13459.44393300
  -Hartree energ DENC   =     -3211.60246593
  -exchange      EXHF   =         0.00000000
  -V(xc)+E(xc)   XCENC  =       387.39355017
  PAW double counting   =     16535.60914977   -17394.87765824
  entropy T*S    EENTRO =         0.00000000
  eigenvalues    EBANDS =       917.59932604
  atomic energy  EATOM  =     15309.30175564
  Solvation  Ediel_sol  =         0.00000000
  ---------------------------------------------------
  free energy    TOTEN  =       -99.24677031 eV

  energy without entropy =      -99.24677031  energy(sigma->0) =      -99.24677031


--------------------------------------------------------------------------------------------------------




--------------------------------------- Iteration      1(  20)  ---------------------------------------


    POTLOK:  cpu time    0.0340: real time    0.0338
    SETDIJ:  cpu time    0.0090: real time    0.0088
    EDDIAG:  cpu time    0.9649: real time    0.9680
  RMM-DIIS:  cpu time    4.2743: real time    4.2918
    ORTHCH:  cpu time    0.1260: real time    0.1264
 BZINTS: Fermi energy:  8.424096;152.000000 electrons
         Band energy: 917.659939;  BLOECHL correction: -0.076644
       DOS:  cpu time    0.0940: real time    0.0946
    CHARGE:  cpu time    0.2170: real time    0.2169
    MIXING:  cpu time    0.0030: real time    0.0024
    --------------------------------------------
      LOOP:  cpu time    5.7221: real time    5.7427

 eigenvalue-minimisations  : 13629
 total energy-change (2. order) : 0.3847760E-03  (-0.3246644E-04)
 number of electron     151.9999949 magnetization      18.1434927
 augmentation part       90.5641678 magnetization      15.8591610

 Broyden mixing:
  rms(total) = 0.23590E-01    rms(broyden)= 0.23589E-01
  rms(prec ) = 0.35315E-01
  weight for this iteration     100.00

 eigenvalues of (default mixing * dielectric matrix)
  average eigenvalue GAMMA=   0.6058
  1.9054  1.5404  1.5404  0.7815  0.7815  0.6245  0.6245  0.2921  0.1061  0.1667
  0.1667  0.1253  0.1529  0.1457  0.1340

 Free energy of the ion-electron system (eV)
  ---------------------------------------------------
  alpha Z        PSCENC =       816.77350523
  Ewald energy   TEWEN  =    -13459.44393300
  -Hartree energ DENC   =     -3211.47562584
  -exchange      EXHF   =         0.00000000
  -V(xc)+E(xc)   XCENC  =       387.37771508
  PAW double counting   =     16541.84830809   -17401.28804933
  entropy T*S    EENTRO =         0.00000000
  eigenvalues    EBANDS =       917.65993860
  atomic energy  EATOM  =     15309.30175564
  Solvation  Ediel_sol  =         0.00000000
  ---------------------------------------------------
  free energy    TOTEN  =       -99.24638554 eV

  energy without entropy =      -99.24638554  energy(sigma->0) =      -99.24638554


--------------------------------------------------------------------------------------------------------




--------------------------------------- Iteration      1(  21)  ---------------------------------------


    POTLOK:  cpu time    0.0330: real time    0.0338
    SETDIJ:  cpu time    0.0090: real time    0.0088
    EDDIAG:  cpu time    0.9479: real time    0.9499
  RMM-DIIS:  cpu time    4.2913: real time    4.3507
    ORTHCH:  cpu time    0.1270: real time    0.1284
 BZINTS: Fermi energy:  8.423997;152.000000 electrons
         Band energy: 917.651209;  BLOECHL correction: -0.076631
       DOS:  cpu time    0.0950: real time    0.0948
    CHARGE:  cpu time    0.2170: real time    0.2171
    MIXING:  cpu time    0.0020: real time    0.0016
    --------------------------------------------
      LOOP:  cpu time    5.7221: real time    5.7852

 eigenvalue-minimisations  : 13666
 total energy-change (2. order) : 0.1280657E-03  (-0.1496367E-04)
 number of electron     151.9999949 magnetization      18.1386689
 augmentation part       90.5645107 magnetization      15.8533352

 Broyden mixing:
  rms(total) = 0.14855E-01    rms(broyden)= 0.14854E-01
  rms(prec ) = 0.21604E-01
  weight for this iteration     100.00

 eigenvalues of (default mixing * dielectric matrix)
  average eigenvalue GAMMA=   0.6515
  1.9003  1.8288  1.2692  1.2692  1.0696  0.6575  0.6575  0.6306  0.1061  0.1731
  0.1632  0.1632  0.1504  0.1413  0.1253  0.1194

 Free energy of the ion-electron system (eV)
  ---------------------------------------------------
  alpha Z        PSCENC =       816.77350523
  Ewald energy   TEWEN  =    -13459.44393300
  -Hartree energ DENC   =     -3211.40850937
  -exchange      EXHF   =         0.00000000
  -V(xc)+E(xc)   XCENC  =       387.37192730
  PAW double counting   =     16544.08242256   -17403.57463508
  entropy T*S    EENTRO =         0.00000000
  eigenvalues    EBANDS =       917.65120925
  atomic energy  EATOM  =     15309.30175564
  Solvation  Ediel_sol  =         0.00000000
  ---------------------------------------------------
  free energy    TOTEN  =       -99.24625747 eV

  energy without entropy =      -99.24625747  energy(sigma->0) =      -99.24625747


--------------------------------------------------------------------------------------------------------




--------------------------------------- Iteration      1(  22)  ---------------------------------------


    POTLOK:  cpu time    0.0330: real time    0.0338
    SETDIJ:  cpu time    0.0090: real time    0.0088
    EDDIAG:  cpu time    0.9469: real time    0.9489
  RMM-DIIS:  cpu time    4.3013: real time    4.3114
    ORTHCH:  cpu time    0.1270: real time    0.1279
 BZINTS: Fermi energy:  8.424220;152.000000 electrons
         Band energy: 917.695973;  BLOECHL correction: -0.076614
       DOS:  cpu time    0.0830: real time    0.0840
    CHARGE:  cpu time    0.2350: real time    0.2367
    MIXING:  cpu time    0.0020: real time    0.0017
    --------------------------------------------
      LOOP:  cpu time    5.7371: real time    5.7531

 eigenvalue-minimisations  : 13725
 total energy-change (2. order) : 0.2550024E-04  (-0.9993434E-05)
 number of electron     151.9999949 magnetization      18.1380887
 augmentation part       90.5619118 magnetization      15.8513697

 Broyden mixing:
  rms(total) = 0.87073E-02    rms(broyden)= 0.87069E-02
  rms(prec ) = 0.13503E-01
  weight for this iteration     100.00

 eigenvalues of (default mixing * dielectric matrix)
  average eigenvalue GAMMA=   0.6481
  2.0207  1.9268  1.3354  1.3354  0.8841  0.6881  0.6881  0.6131  0.3853  0.1061
  0.1739  0.1624  0.1624  0.1515  0.1413  0.1253  0.1176

 Free energy of the ion-electron system (eV)
  ---------------------------------------------------
  alpha Z        PSCENC =       816.77350523
  Ewald energy   TEWEN  =    -13459.44393300
  -Hartree energ DENC   =     -3211.26307895
  -exchange      EXHF   =         0.00000000
  -V(xc)+E(xc)   XCENC  =       387.35990696
  PAW double counting   =     16551.68772374   -17411.35808496
  entropy T*S    EENTRO =         0.00000000
  eigenvalues    EBANDS =       917.69597337
  atomic energy  EATOM  =     15309.30175564
  Solvation  Ediel_sol  =         0.00000000
  ---------------------------------------------------
  free energy    TOTEN  =       -99.24623197 eV

  energy without entropy =      -99.24623197  energy(sigma->0) =      -99.24623197


--------------------------------------------------------------------------------------------------------




--------------------------------------- Iteration      1(  23)  ---------------------------------------


    POTLOK:  cpu time    0.0340: real time    0.0339
    SETDIJ:  cpu time    0.0080: real time    0.0088
    EDDIAG:  cpu time    0.9549: real time    0.9551
  RMM-DIIS:  cpu time    4.3293: real time    4.3460
    ORTHCH:  cpu time    0.1260: real time    0.1267
 BZINTS: Fermi energy:  8.424190;152.000000 electrons
         Band energy: 917.691721;  BLOECHL correction: -0.076611
       DOS:  cpu time    0.0900: real time    0.0905
    CHARGE:  cpu time    0.2220: real time    0.2219
    MIXING:  cpu time    0.0020: real time    0.0017
    --------------------------------------------
      LOOP:  cpu time    5.7661: real time    5.7847

 eigenvalue-minimisations  : 13817
 total energy-change (2. order) : 0.8815739E-05  (-0.3579755E-05)
 number of electron     151.9999949 magnetization      18.1356040
 augmentation part       90.5620920 magnetization      15.8492458

 Broyden mixing:
  rms(total) = 0.73457E-02    rms(broyden)= 0.73454E-02
  rms(prec ) = 0.11477E-01
  weight for this iteration     100.00

 eigenvalues of (default mixing * dielectric matrix)
[...]
     99      15.3292      0.00000
    100      15.9344      0.00000
    101      16.7218      0.00000
    102      17.0310      0.00000
    103      17.1476      0.00000
    104      17.4872      0.00000
    105      17.8558      0.00000


--------------------------------------------------------------------------------------------------------


 soft charge-density along one line, spin component           1
         0         1         2         3         4         5         6         7         8         9
 total charge-density along one line
 
 soft charge-density along one line, spin component           2
         0         1         2         3         4         5         6         7         8         9
 total charge-density along one line
 
 pseudopotential strength for first ion, spin component:           1
 -1.307  -0.014  -0.002  -0.003   0.000  -1.954  -0.013  -0.002
 -0.014  -1.250   0.001   0.000   0.004  -0.013  -1.899   0.001
 -0.002   0.001  -1.260  -0.019   0.006  -0.002   0.001  -1.908
 -0.003   0.000  -0.019  -1.247   0.016  -0.003   0.000  -0.018
  0.000   0.004   0.006   0.016  -1.169   0.000   0.004   0.006
 -1.954  -0.013  -0.002  -0.003   0.000  -2.530  -0.013  -0.002
 -0.013  -1.899   0.001   0.000   0.004  -0.013  -2.478   0.001
 -0.002   0.001  -1.908  -0.018   0.006  -0.002   0.001  -2.486
 -0.003   0.000  -0.018  -1.896   0.015  -0.003   0.000  -0.017
  0.000   0.004   0.006   0.015  -1.821   0.000   0.004   0.006
 -0.000   0.001   0.002   0.001   0.001  -0.000   0.001   0.002
 -0.000   0.001   0.004   0.002   0.001  -0.000   0.001   0.003
 -0.005  -0.007  -0.000   0.000   0.000  -0.004  -0.007  -0.000
  0.000  -0.000  -0.005  -0.009   0.002   0.000  -0.000  -0.005
  0.000   0.000   0.002  -0.003  -0.007   0.000   0.000   0.002
 -0.006  -0.009  -0.000   0.000   0.000  -0.006  -0.009  -0.000
  0.000  -0.000  -0.007  -0.011   0.003   0.000   0.000  -0.007
  0.000   0.000   0.002  -0.004  -0.009   0.000   0.000   0.002
 pseudopotential strength for first ion, spin component:           2
 -0.626   0.007  -0.001  -0.001  -0.001  -1.304   0.007  -0.001
  0.007  -0.674  -0.002   0.002   0.003   0.007  -1.351  -0.002
 -0.001  -0.002  -0.647   0.012  -0.001  -0.001  -0.002  -1.324
 -0.001   0.002   0.012  -0.680  -0.008  -0.001   0.002   0.011
 -0.001   0.003  -0.001  -0.008  -0.678  -0.001   0.002  -0.001
 -1.304   0.007  -0.001  -0.001  -0.001  -1.911   0.006  -0.001
  0.007  -1.351  -0.002   0.002   0.002   0.006  -1.956  -0.002
 -0.001  -0.002  -1.324   0.011  -0.001  -0.001  -0.002  -1.930
 -0.001   0.002   0.011  -1.357  -0.008  -0.001   0.002   0.011
 -0.001   0.002  -0.001  -0.008  -1.355  -0.001   0.002  -0.001
 -0.001   0.000  -0.000  -0.000   0.000  -0.001   0.000  -0.000
 -0.001   0.001  -0.000  -0.001   0.000  -0.001   0.001  -0.000
 -0.004  -0.003  -0.000  -0.000  -0.000  -0.004  -0.003  -0.000
 -0.000  -0.000  -0.003  -0.003  -0.000  -0.000  -0.000  -0.003
  0.000  -0.000   0.002  -0.003  -0.004   0.000  -0.000   0.002
 -0.005  -0.003  -0.000  -0.000  -0.000  -0.005  -0.003  -0.000
 -0.000   0.000  -0.004  -0.003  -0.001  -0.000   0.000  -0.004
  0.000  -0.000   0.003  -0.004  -0.004   0.000  -0.000   0.003
 total augmentation occupancy for first ion, spin component:           1
  2.658  -0.068  -0.013   0.004  -0.001  -1.213   0.050   0.007  -0.004  -0.000   0.009  -0.000   0.017   0.002  -0.002  -0.001
 -0.068   2.706   0.022   0.000   0.024   0.050  -1.180  -0.013  -0.001  -0.010  -0.010   0.000  -0.025  -0.003   0.002   0.001
 -0.013   0.022   3.165  -0.046   0.000   0.007  -0.013  -1.415   0.030   0.006  -0.002   0.002   0.003  -0.001  -0.027  -0.000
  0.004   0.000  -0.046   2.727   0.095  -0.005  -0.001   0.030  -1.196  -0.046   0.047  -0.006   0.003  -0.033   0.027  -0.000
 -0.001   0.024   0.000   0.095   3.323  -0.000  -0.010   0.006  -0.046  -1.441  -0.005   0.001   0.002   0.033  -0.005  -0.000
 -1.213   0.050   0.007  -0.005  -0.000   1.450  -0.044  -0.003   0.004   0.001  -0.006   0.000  -0.015  -0.001   0.006   0.002
  0.050  -1.180  -0.013  -0.001  -0.010  -0.044   1.407   0.007   0.001  -0.001   0.011  -0.000  -0.002   0.003  -0.001  -0.001
  0.007  -0.013  -1.415   0.030   0.006  -0.003   0.007   1.427  -0.030  -0.008   0.021  -0.001  -0.004  -0.007   0.018   0.000
 -0.004  -0.001   0.030  -1.196  -0.046   0.004   0.001  -0.030   1.425   0.014  -0.048   0.007  -0.001   0.006  -0.026  -0.000
 -0.000  -0.010   0.006  -0.046  -1.441   0.001  -0.001  -0.008   0.014   1.395   0.010  -0.002   0.000  -0.015  -0.011   0.000
  0.009  -0.010  -0.002   0.047  -0.005  -0.006   0.011   0.021  -0.048   0.010   2.323  -0.317   0.004  -0.022  -0.021  -0.001
 -0.000   0.000   0.002  -0.006   0.001   0.000  -0.000  -0.001   0.007  -0.002  -0.317   0.051  -0.001   0.001   0.001   0.000
  0.017  -0.025   0.003   0.003   0.002  -0.015  -0.002  -0.004  -0.001   0.000   0.004  -0.001   0.307   0.001   0.000  -0.033
  0.002  -0.003  -0.001  -0.033   0.033  -0.001   0.003  -0.007   0.006  -0.015  -0.022   0.001   0.001   0.310  -0.004   0.000
 -0.002   0.002  -0.027   0.027  -0.005   0.006  -0.001   0.018  -0.026  -0.011  -0.021   0.001   0.000  -0.004   0.310   0.000
 -0.001   0.001  -0.000  -0.000  -0.000   0.002  -0.001   0.000  -0.000   0.000  -0.001   0.000  -0.033   0.000   0.000   0.004
  0.000   0.000   0.000   0.002  -0.001  -0.000  -0.001   0.001  -0.001   0.002   0.001   0.000   0.000  -0.032   0.000  -0.000
  0.000  -0.000   0.002  -0.001  -0.001  -0.000  -0.000  -0.002   0.003   0.001   0.001  -0.000   0.000   0.000  -0.033   0.000
 total augmentation occupancy for first ion, spin component:           2
  1.228   0.065   0.005   0.005  -0.009  -0.603  -0.032  -0.003  -0.002   0.005  -0.008  -0.001  -0.014  -0.002  -0.002   0.000
  0.065   1.089  -0.022   0.004  -0.014  -0.031  -0.605   0.016  -0.002   0.010  -0.001  -0.000   0.047  -0.000  -0.003  -0.002
  0.005  -0.022   1.023   0.088  -0.018  -0.003   0.016  -0.510  -0.041   0.008  -0.026  -0.000  -0.003   0.004   0.027   0.000
  0.005   0.004   0.088   1.062  -0.104  -0.002  -0.002  -0.040  -0.592   0.059   0.004   0.001  -0.005   0.051  -0.020   0.000
 -0.009  -0.014  -0.018  -0.104   0.697   0.006   0.010   0.008   0.060  -0.381  -0.003   0.000  -0.004  -0.042   0.022   0.000
 -0.603  -0.031  -0.003  -0.002   0.006   0.189   0.013   0.002   0.000  -0.003   0.005   0.000   0.013   0.001   0.000  -0.001
 -0.032  -0.605   0.016  -0.002   0.010   0.013   0.253  -0.011   0.001  -0.008   0.001   0.000  -0.028   0.000   0.002   0.003
 -0.003   0.016  -0.510  -0.040   0.008   0.002  -0.011   0.160   0.015  -0.002   0.014  -0.003   0.002   0.003  -0.019  -0.000
 -0.002  -0.002  -0.041  -0.592   0.060   0.000   0.001   0.015   0.247  -0.031  -0.004  -0.001   0.003  -0.028   0.018  -0.000
  0.005   0.010   0.008   0.059  -0.381  -0.003  -0.008  -0.002  -0.031   0.141   0.001  -0.000   0.003   0.027  -0.010  -0.000
 -0.008  -0.001  -0.026   0.004  -0.003   0.005   0.001   0.014  -0.004   0.001  -0.162   0.042  -0.001   0.009   0.007   0.000
 -0.001  -0.000  -0.000   0.001   0.000   0.000   0.000  -0.003  -0.001  -0.000   0.042  -0.008   0.000   0.001   0.001  -0.000
 -0.014   0.047  -0.003  -0.005  -0.004   0.013  -0.028   0.002   0.003   0.003  -0.001   0.000  -0.024  -0.000   0.000   0.003
 -0.002  -0.000   0.004   0.051  -0.042   0.001   0.000   0.003  -0.028   0.027   0.009   0.001  -0.000  -0.020   0.000   0.000
 -0.002  -0.003   0.027  -0.020   0.022   0.000   0.002  -0.019   0.018  -0.010   0.007   0.001   0.000   0.000  -0.025  -0.000
  0.000  -0.002   0.000   0.000   0.000  -0.001   0.003  -0.000  -0.000  -0.000   0.000  -0.000   0.003   0.000  -0.000  -0.000
 -0.000  -0.000   0.000  -0.002   0.001  -0.000   0.000   0.000   0.003  -0.002   0.000  -0.000   0.000   0.002   0.000  -0.000
  0.000   0.000  -0.001   0.000  -0.001  -0.000  -0.000   0.001  -0.001   0.002   0.001  -0.000  -0.000   0.000   0.002   0.000


------------------------ aborting loop because EDIFF is reached ----------------------------------------


 


 total charge     
 
# of ion       s       p       d       tot
------------------------------------------
    1        0.507   0.508   8.325   9.340
    2        0.502   0.502   8.326   9.330
    3        0.492   0.485   8.316   9.292
    4        0.492   0.485   8.315   9.292
    5        0.507   0.508   8.326   9.340
    6        0.499   0.495   8.323   9.317
    7        0.498   0.494   8.318   9.310
    8        0.499   0.495   8.323   9.317
    9        0.502   0.502   8.327   9.330
   10        0.509   0.515   8.322   9.346
   11        0.509   0.515   8.322   9.346
   12        0.498   0.494   8.318   9.310
   13        0.475   0.509   6.166   7.150
   14        0.472   0.504   6.162   7.138
   15        0.475   0.509   6.166   7.151
   16        0.472   0.504   6.161   7.137
--------------------------------------------------
tot          7.911   8.021 124.515 140.447
 


 magnetization (x)
 
# of ion       s       p       d       tot
------------------------------------------
    1       -0.018  -0.039   0.669   0.613
    2       -0.014  -0.036   0.639   0.589
    3       -0.010  -0.029   0.650   0.611
    4       -0.010  -0.029   0.650   0.611
    5       -0.018  -0.039   0.669   0.613
    6       -0.012  -0.030   0.643   0.601
    7       -0.013  -0.031   0.654   0.610
    8       -0.012  -0.030   0.643   0.601
    9       -0.014  -0.036   0.638   0.589
   10       -0.020  -0.047   0.701   0.634
   11       -0.020  -0.047   0.701   0.634
   12       -0.013  -0.031   0.654   0.610
   13        0.004  -0.018   2.745   2.731
   14        0.003  -0.019   2.746   2.729
   15        0.004  -0.018   2.744   2.731
   16        0.003  -0.019   2.746   2.730
--------------------------------------------------
tot         -0.158  -0.497  18.892  18.237
 
    CHARGE:  cpu time    0.2130: real time    0.2137
    FORLOC:  cpu time    0.0030: real time    0.0028
    FORNL :  cpu time    1.6597: real time    1.6659
    STRESS:  cpu time    4.9273: real time    4.9389
    FORCOR:  cpu time    0.0350: real time    0.0353
    FORHAR:  cpu time    0.0060: real time    0.0061
    MIXING:  cpu time    0.0030: real time    0.0020
    OFIELD:  cpu time    0.0000: real time    0.0000

  FORCE on cell =-STRESS in cart. coord.  units (eV):
  Direction    XX          YY          ZZ          XY          YZ          ZX
  --------------------------------------------------------------------------------------
  Alpha Z   816.77351   816.77351   816.77351
  Ewald   -4530.18030 -4445.76929 -4483.52762    -2.13876    24.54309   -20.19634
  Hartree  1028.20066  1109.03711  1073.96805    -0.75957    23.38809   -20.13110
  E(xc)    -820.31981  -820.35978  -820.26936     0.01041    -0.07368    -0.01452
  Local     204.62164    40.66672   113.66909     2.15297   -48.20480    40.06107
  n-local  -194.29890  -194.79165  -194.22950     0.10638    -0.29199     0.29180
  augment  2269.46975  2268.90959  2268.46257     0.48967     0.28866    -0.01982
  Kinetic  1225.49163  1225.08194  1224.67381     0.16395     0.41453    -0.28582
  Fock        0.00000     0.00000     0.00000     0.00000     0.00000     0.00000
  -------------------------------------------------------------------------------------
  Total      -0.24183    -0.45186    -0.47945     0.02507     0.06391    -0.29474
  in kB      -2.17428    -4.06265    -4.31069     0.22540     0.57458    -2.64993
  external pressure =       -3.52 kB  Pullay stress =        0.00 kB


 VOLUME and BASIS-vectors are now :
 -----------------------------------------------------------------------------
  energy-cutoff  :      520.00
  volume of cell :      178.20
      direct lattice vectors                 reciprocal lattice vectors
     1.772500000  1.772500000 -3.545000000     0.070521862  0.070521862 -0.211565585
     0.000000000 -5.317500000 -1.772500000    -0.017630465 -0.158674189 -0.088152327
    -7.090000000  1.772500000 -1.772500000    -0.123413258  0.017630465 -0.052891396

  length of vectors
     4.341720569  5.605137153  7.520080618     0.233894555  0.182370953  0.135422175


 FORCES acting on ions
    electron-ion (+dipol)            ewald-force                    non-local-force                 convergence-correction
 -----------------------------------------------------------------------------------------------
   0.818E+02 -.886E+01 0.541E+02   -.816E+02 0.886E+01 -.541E+02   -.129E+00 -.125E-01 -.196E-01   0.538E-02 0.790E-02 0.133E-01
   0.872E+02 -.568E+01 0.229E+02   -.871E+02 0.565E+01 -.228E+02   -.686E-01 0.376E-01 -.110E+00   0.636E-02 -.123E-01 -.329E-03
   0.177E+02 -.362E+00 0.191E+02   -.177E+02 0.338E+00 -.191E+02   -.321E-02 0.157E-01 -.797E-01   0.326E-02 0.802E-03 0.845E-02
   -.177E+02 0.355E+00 -.192E+02   0.177E+02 -.335E+00 0.191E+02   0.313E-02 -.157E-01 0.793E-01   0.219E-02 0.328E-02 0.515E-02
   -.818E+02 0.887E+01 -.541E+02   0.817E+02 -.889E+01 0.541E+02   0.130E+00 0.123E-01 0.194E-01   -.626E-02 0.102E-01 0.543E-02
   0.751E+02 -.432E+01 0.235E+02   -.749E+02 0.425E+01 -.235E+02   -.207E+00 0.672E-01 -.245E-01   0.785E-02 0.917E-02 0.123E-02
   0.550E+02 -.245E+02 0.278E+02   -.549E+02 0.245E+02 -.278E+02   -.889E-01 0.121E-01 0.169E-01   0.726E-02 -.838E-02 -.191E-02
   -.751E+02 0.433E+01 -.235E+02   0.749E+02 -.427E+01 0.235E+02   0.206E+00 -.680E-01 0.246E-01   -.131E-02 0.120E-01 0.135E-02
   -.872E+02 0.567E+01 -.229E+02   0.871E+02 -.562E+01 0.228E+02   0.686E-01 -.372E-01 0.110E+00   -.456E-02 -.117E-01 -.306E-02
   -.310E+02 -.156E+02 0.918E+01   0.311E+02 0.157E+02 -.922E+01   -.664E-01 -.122E+00 0.502E-01   -.699E-02 0.865E-04 0.260E-02
   0.310E+02 0.156E+02 -.917E+01   -.311E+02 -.157E+02 0.921E+01   0.662E-01 0.120E+00 -.501E-01   -.388E-02 -.268E-02 -.314E-03
   -.550E+02 0.245E+02 -.278E+02   0.549E+02 -.245E+02 0.278E+02   0.896E-01 -.116E-01 -.163E-01   0.210E-02 -.798E-02 -.825E-02
   0.697E+02 -.256E+02 -.124E+02   -.697E+02 0.259E+02 0.126E+02   0.659E-01 -.253E+00 -.172E+00   0.249E-02 0.429E-02 -.179E-02
   0.797E+02 -.682E+01 0.564E+02   -.799E+02 0.680E+01 -.566E+02   0.237E+00 0.291E-01 0.212E+00   0.550E-03 -.395E-02 -.389E-02
   -.696E+02 0.256E+02 0.124E+02   0.697E+02 -.259E+02 -.126E+02   -.652E-01 0.253E+00 0.173E+00   -.396E-02 0.218E-02 -.280E-02
   -.797E+02 0.684E+01 -.564E+02   0.799E+02 -.681E+01 0.566E+02   -.237E+00 -.290E-01 -.212E+00   -.713E-02 -.239E-02 -.830E-02
 -----------------------------------------------------------------------------------------------
   -.304E-02 -.176E-03 -.605E-02   -.284E-13 0.355E-13 -.995E-13   0.142E-02 -.114E-02 0.876E-03   0.335E-02 0.528E-03 0.682E-02
 
 
 POSITION                                       TOTAL-FORCE (eV/Angst)
 -----------------------------------------------------------------------------------
     -5.31020     -1.76083     -3.59017         0.000252     -0.002678     -0.005935
     -3.56127      1.77678     -5.32116         0.001859      0.000929     -0.007195
     -3.53800     -3.55239     -3.54480         0.001255     -0.007210     -0.015080
     -3.55199     -1.76513     -1.77272        -0.001451      0.007318      0.014659
     -0.00737     -1.78416     -5.27234        -0.000127      0.002327      0.005705
     -3.52638     -1.77665     -5.32870        -0.004471     -0.002781      0.010744
     -3.54985      0.00059     -3.53863        -0.006423     -0.016328      0.006900
     -1.79109     -1.76831     -3.53374         0.004381      0.002265     -0.010926
     -1.75621     -0.00431     -1.76887        -0.001964     -0.000431      0.007128
      0.01595     -1.76247     -1.79121        -0.010585      0.004607      0.011391
      1.75654      1.76245     -3.52626         0.010405     -0.004685     -0.011290
     -1.76767      1.77189     -3.55136         0.006659      0.016680     -0.006750
     -5.24420     -0.02159     -5.36658         0.004503      0.002312     -0.012412
     -5.28938      1.77167     -3.51586         0.020714      0.002410     -0.005388
     -0.07325     -3.52341     -3.49589        -0.004225     -0.002477      0.012714
     -0.02811      0.00086     -3.57420        -0.020781     -0.002258      0.005737
 -----------------------------------------------------------------------------------
    total drift:                                0.001737     -0.000788      0.001643


--------------------------------------------------------------------------------------------------------



  FREE ENERGIE OF THE ION-ELECTRON SYSTEM (eV)
  ---------------------------------------------------
  free  energy   TOTEN  =       -99.24617418 eV

  energy  without entropy=      -99.24617418  energy(sigma->0) =      -99.24617418
 


--------------------------------------------------------------------------------------------------------


    POTLOK:  cpu time    0.0420: real time    0.0430


--------------------------------------------------------------------------------------------------------


     LOOP+:  cpu time  167.1436: real time  168.0898
    4ORBIT:  cpu time    0.0000: real time    0.0000
 


 total charge     
 
# of ion       s       p       d       tot
------------------------------------------
    1        0.507   0.508   8.325   9.340
    2        0.502   0.502   8.326   9.330
    3        0.492   0.485   8.316   9.292
    4        0.492   0.485   8.315   9.292
    5        0.507   0.508   8.326   9.340
    6        0.499   0.495   8.323   9.317
    7        0.498   0.494   8.318   9.310
    8        0.499   0.495   8.323   9.317
    9        0.502   0.502   8.327   9.330
   10        0.509   0.515   8.322   9.346
   11        0.509   0.515   8.322   9.346
   12        0.498   0.494   8.318   9.310
   13        0.475   0.509   6.166   7.150
   14        0.472   0.504   6.162   7.138
   15        0.475   0.509   6.166   7.151
   16        0.472   0.504   6.161   7.137
--------------------------------------------------
tot          7.911   8.021 124.515 140.447
 


 magnetization (x)
 
# of ion       s       p       d       tot
------------------------------------------
    1       -0.018  -0.039   0.669   0.613
    2       -0.014  -0.036   0.639   0.589
    3       -0.010  -0.029   0.650   0.611
    4       -0.010  -0.029   0.650   0.611
    5       -0.018  -0.039   0.669   0.613
    6       -0.012  -0.030   0.643   0.601
    7       -0.013  -0.031   0.654   0.610
    8       -0.012  -0.030   0.643   0.601
    9       -0.014  -0.036   0.638   0.589
   10       -0.020  -0.047   0.701   0.634
   11       -0.020  -0.047   0.701   0.634
   12       -0.013  -0.031   0.654   0.610
   13        0.004  -0.018   2.745   2.731
   14        0.003  -0.019   2.746   2.729
   15        0.004  -0.018   2.744   2.731
   16        0.003  -0.019   2.746   2.730
--------------------------------------------------
tot         -0.158  -0.497  18.892  18.237
 
 BZINTS: Fermi energy:  8.423972;152.000000 electrons
         Band energy: 917.676394;  BLOECHL correction: -0.076577

 total amount of memory used by VASP MPI-rank0    60675. kBytes
=======================================================================

   base      :      30000. kBytes
   nonlr-proj:       3737. kBytes
   fftplans  :       1226. kBytes
   grid      :       3048. kBytes
   one-center:         62. kBytes
   wavefun   :      22602. kBytes
 
  
  
 General timing and accounting informations for this job:
 ========================================================
  
                  Total CPU time used (sec):      176.614
                            User time (sec):      170.985
                          System time (sec):        5.629
                         Elapsed time (sec):      177.742
  
                   Maximum memory used (kb):       85424.
                   Average memory used (kb):           0.
  
                          Minor page faults:        11745
                          Major page faults:            0
                 Voluntary context switches:         1641
