       N       E                     dE             d eps       ncg     rms          rms(c)
DAV:   1     0.479059073780E+04    0.47906E+04   -0.24444E+05  8220   0.150E+03
DAV:   2     0.292875484778E+02   -0.47613E+04   -0.44558E+04  8220   0.349E+02
DAV:   3    -0.449439017834E+03   -0.47873E+03   -0.41099E+03  8478   0.159E+02
DAV:   4    -0.471924646259E+03   -0.22486E+02   -0.21795E+02  8799   0.368E+01
DAV:   5    -0.472377561576E+03   -0.45292E+00   -0.45168E+00  9321   0.479E+00    0.806E+01
RMM:   6    -0.570138551420E+03   -0.97761E+02   -0.80003E+02  8820   0.802E+01    0.169E+02
RMM:   7    -0.501727176498E+03    0.68411E+02   -0.25912E+02  8661   0.425E+01    0.139E+02
RMM:   8    -0.515838019596E+03   -0.14111E+02   -0.10872E+02  8664   0.282E+01    0.167E+02
RMM:   9    -0.454863292452E+03    0.60975E+02   -0.48019E+01  8840   0.171E+01    0.129E+02
RMM:  10    -0.442530896837E+03    0.12332E+02   -0.65320E+01  8706   0.186E+01    0.971E+01
RMM:  11    -0.515804082363E+03   -0.73273E+02   -0.87783E+01  8647   0.229E+01    0.139E+02
RMM:  12    -0.391975772444E+03    0.12383E+03   -0.52839E+01  8460   0.186E+01    0.763E+01
RMM:  13    -0.375844118089E+03    0.16132E+02   -0.24041E+01  8544   0.128E+01    0.585E+01
RMM:  14    -0.378923413158E+03   -0.30793E+01   -0.12026E+01  8555   0.847E+00    0.635E+01
RMM:  15    -0.376593686629E+03    0.23297E+01   -0.90622E+00  8574   0.744E+00    0.384E+01
RMM:  16    -0.381322876007E+03   -0.47292E+01   -0.50171E+00  8510   0.527E+00    0.358E+01
RMM:  17    -0.386452769177E+03   -0.51299E+01   -0.47680E+00  8518   0.524E+00    0.361E+01
RMM:  18    -0.389159884660E+03   -0.27071E+01   -0.54741E+00  8515   0.576E+00    0.318E+01
RMM:  19    -0.391428581574E+03   -0.22687E+01   -0.45550E+00  8435   0.497E+00    0.285E+01
RMM:  20    -0.393493458024E+03   -0.20649E+01   -0.38370E+00  8500   0.466E+00    0.199E+01
RMM:  21    -0.397387147873E+03   -0.38937E+01   -0.28940E+00  8441   0.362E+00    0.208E+01
RMM:  22    -0.399789119908E+03   -0.24020E+01   -0.20876E+00  8446   0.319E+00    0.137E+01
RMM:  23    -0.403013254703E+03   -0.32241E+01   -0.22089E+00  8401   0.276E+00    0.156E+01
RMM:  24    -0.404158222893E+03   -0.11450E+01   -0.17818E+00  8438   0.246E+00    0.101E+01
RMM:  25    -0.406709680251E+03   -0.25515E+01   -0.20860E+00  8459   0.289E+00    0.145E+01
RMM:  26    -0.407227207115E+03   -0.51753E+00   -0.92856E-01  8497   0.205E+00    0.841E+00
RMM:  27    -0.407922475950E+03   -0.69527E+00   -0.51537E-01  8477   0.154E+00    0.826E+00
RMM:  28    -0.409168156549E+03   -0.12457E+01   -0.76398E-01  8384   0.160E+00    0.712E+00
RMM:  29    -0.409695314342E+03   -0.52716E+00   -0.37623E-01  8495   0.131E+00    0.665E+00
RMM:  30    -0.410779008450E+03   -0.10837E+01   -0.57453E-01  8374   0.123E+00    0.533E+00
RMM:  31    -0.411096362707E+03   -0.31735E+00   -0.23223E-01  8514   0.995E-01    0.419E+00
RMM:  32    -0.411520224945E+03   -0.42386E+00   -0.22426E-01  8472   0.736E-01    0.304E+00
RMM:  33    -0.411600377906E+03   -0.80153E-01   -0.59440E-02  8639   0.517E-01    0.258E+00
RMM:  34    -0.411655750150E+03   -0.55372E-01   -0.22556E-02  8564   0.281E-01    0.184E+00
RMM:  35    -0.411728185393E+03   -0.72435E-01   -0.36727E-02  8615   0.405E-01    0.241E+00
RMM:  36    -0.411778204724E+03   -0.50019E-01   -0.64774E-02  8420   0.429E-01    0.159E+00
RMM:  37    -0.411780236832E+03   -0.20321E-02   -0.17568E-02  8582   0.282E-01    0.124E+00
RMM:  38    -0.411830402068E+03   -0.50165E-01   -0.18005E-02  8479   0.213E-01    0.111E+00
RMM:  39    -0.411855315876E+03   -0.24914E-01   -0.52207E-03  8620   0.150E-01    0.782E-01
RMM:  40    -0.411911212126E+03   -0.55896E-01   -0.36441E-03  8534   0.101E-01    0.649E-01
RMM:  41    -0.411935945689E+03   -0.24734E-01   -0.14039E-03  8610   0.765E-02    0.483E-01
RMM:  42    -0.411988842896E+03   -0.52897E-01   -0.24973E-03  8454   0.782E-02    0.430E-01
RMM:  43    -0.412023686606E+03   -0.34844E-01   -0.13711E-03  8543   0.661E-02    0.663E-01
RMM:  44    -0.412048604534E+03   -0.24918E-01   -0.49326E-04  8585   0.411E-02    0.697E-01
RMM:  45    -0.412085010480E+03   -0.36406E-01   -0.66223E-04  8512   0.430E-02    0.464E-01
RMM:  46    -0.412133778420E+03   -0.48768E-01   -0.13237E-03  8507   0.613E-02    0.290E-01
RMM:  47    -0.412192717079E+03   -0.58939E-01   -0.17475E-03  8506   0.598E-02    0.610E-01
RMM:  48    -0.412206894484E+03   -0.14177E-01   -0.30328E-04  8658   0.315E-02    0.551E-01
RMM:  49    -0.412216460160E+03   -0.95657E-02   -0.17832E-04  8624   0.263E-02    0.417E-01
RMM:  50    -0.412247860735E+03   -0.31401E-01   -0.53749E-04  8515   0.375E-02    0.271E-01
RMM:  51    -0.412257971118E+03   -0.10110E-01   -0.17234E-04  8646   0.288E-02    0.218E-01
RMM:  52    -0.412271975298E+03   -0.14004E-01   -0.11614E-04  8590   0.180E-02    0.232E-01
RMM:  53    -0.412279659216E+03   -0.76839E-02   -0.71694E-05  8617   0.163E-02    0.194E-01
RMM:  54    -0.412293695740E+03   -0.14037E-01   -0.19202E-04  8561   0.181E-02    0.107E-01
RMM:  55    -0.412298974123E+03   -0.52784E-02   -0.78998E-05  8640   0.153E-02    0.814E-02
RMM:  56    -0.412298856648E+03    0.11748E-03   -0.70195E-05  8667   0.190E-02    0.160E-01
RMM:  57    -0.412305264809E+03   -0.64082E-02   -0.10205E-04  8554   0.165E-02    0.118E-01
RMM:  58    -0.412307263973E+03   -0.19992E-02   -0.30072E-05  8623   0.985E-03    0.933E-02
RMM:  59    -0.412310578329E+03   -0.33144E-02   -0.53452E-05  8497   0.904E-03    0.159E-01
RMM:  60    -0.412311384926E+03   -0.80660E-03   -0.10814E-05  7989   0.569E-03    0.170E-01
RMM:  61    -0.412311757819E+03   -0.37289E-03   -0.12183E-05  8490   0.659E-03    0.105E-01
RMM:  62    -0.412312947218E+03   -0.11894E-02   -0.30686E-05  8465   0.764E-03    0.232E-02
RMM:  63    -0.412314260931E+03   -0.13137E-02   -0.26277E-05  8375   0.715E-03    0.433E-02
RMM:  64    -0.412314956681E+03   -0.69575E-03   -0.13640E-05  7573   0.536E-03    0.594E-02
RMM:  65    -0.412315575969E+03   -0.61929E-03   -0.16234E-05  6939   0.442E-03    0.624E-02
RMM:  66    -0.412315198215E+03    0.37775E-03   -0.52263E-06  7196   0.471E-03    0.355E-02
RMM:  67    -0.412315812350E+03   -0.61413E-03   -0.12923E-05  6755   0.433E-03    0.558E-02
RMM:  68    -0.412315815637E+03   -0.32869E-05   -0.18641E-06  5955   0.200E-03    0.354E-02
RMM:  69    -0.412315859617E+03   -0.43980E-04   -0.12205E-06  5856   0.199E-03    0.257E-02
RMM:  70    -0.412315975659E+03   -0.11604E-03   -0.26724E-06  6046   0.182E-03    0.218E-02
RMM:  71    -0.412315965073E+03    0.10586E-04   -0.93672E-07  5320   0.195E-03    0.864E-03
RMM:  72    -0.412316059094E+03   -0.94021E-04   -0.19398E-06  5911   0.219E-03    0.883E-03
RMM:  73    -0.412316106910E+03   -0.47816E-04   -0.16689E-06  5956   0.137E-03    0.470E-03
RMM:  74    -0.412316136073E+03   -0.29164E-04   -0.88448E-07  5700   0.124E-03    0.945E-03
RMM:  75    -0.412316166603E+03   -0.30530E-04   -0.13182E-06  5748   0.113E-03    0.131E-02
RMM:  76    -0.412316172380E+03   -0.57763E-05   -0.41213E-07  5410   0.826E-04    0.126E-02
RMM:  77    -0.412316175736E+03   -0.33563E-05   -0.30142E-07  5114   0.680E-04    0.984E-03
RMM:  78    -0.412316193732E+03   -0.17996E-04   -0.59878E-07  5486   0.941E-04    0.302E-02
RMM:  79    -0.412316199999E+03   -0.62665E-05   -0.16814E-07  5137   0.773E-04    0.374E-02
RMM:  80    -0.412316205152E+03   -0.51535E-05   -0.80543E-08  4511   0.559E-04    0.432E-02
RMM:  81    -0.412316208907E+03   -0.37552E-05   -0.55207E-08  4740   0.518E-04    0.461E-02
RMM:  82    -0.412316215876E+03   -0.69684E-05   -0.66350E-08  4676   0.507E-04    0.519E-02
RMM:  83    -0.412316216816E+03   -0.94053E-06   -0.93280E-09  2831   0.329E-04
   1 F= -.41231622E+03 E0= -.41231622E+03  d E =0.000000E+00  mag=   103.9526
