 vasp.5.4.4.18Apr17-6-g9f103f2a35 (build Sep 06 2021 19:49:22) complex          
  
 executed on             LinuxIFC date 2022.01.03  16:21:25
 running on   72 total cores
 distrk:  each k-point on   72 cores,    1 groups
 distr:  one band on NCORES_PER_BAND=  24 cores,    3 groups


--------------------------------------------------------------------------------------------------------


 INCAR:
 POTCAR:    PAW_PBE Ni 02Aug2007                  
 POTCAR:    PAW_PBE Fe 06Sep2000                  

 ----------------------------------------------------------------------------- 
|                                                                             |
|           W    W    AA    RRRRR   N    N  II  N    N   GGGG   !!!           |
|           W    W   A  A   R    R  NN   N  II  NN   N  G    G  !!!           |
|           W    W  A    A  R    R  N N  N  II  N N  N  G       !!!           |
|           W WW W  AAAAAA  RRRRR   N  N N  II  N  N N  G  GGG   !            |
|           WW  WW  A    A  R   R   N   NN  II  N   NN  G    G                |
|           W    W  A    A  R    R  N    N  II  N    N   GGGG   !!!           |
|                                                                             |
|      For optimal performance we recommend to set                            |
|        NCORE= 4 - approx SQRT( number of cores)                             |
|      NCORE specifies how many cores store one orbital (NPAR=cpu/NCORE).     |
|      This setting can  greatly improve the performance of VASP for DFT.     |
|      The default,   NCORE=1            might be grossly inefficient         |
|      on modern multi-core architectures or massively parallel machines.     |
|      Do your own testing !!!!                                               |
|      Unfortunately you need to use the default for GW and RPA calculations. |
|      (for HF NCORE is supported but not extensively tested yet)             |
|                                                                             |
 ----------------------------------------------------------------------------- 

 POTCAR:    PAW_PBE Ni 02Aug2007                  
   VRHFIN =Ni:                                                                  
   LEXCH  = PE                                                                  
   EATOM  =  1077.6739 eV,   79.2068 Ry                                         
                                                                                
   TITEL  = PAW_PBE Ni 02Aug2007                                                
   LULTRA =        F    use ultrasoft PP ?                                      
   IUNSCR =        1    unscreen: 0-lin 1-nonlin 2-no                           
   RPACOR =    2.000    partial core radius                                     
   POMASS =   58.690; ZVAL   =   10.000    mass and valenz                      
   RCORE  =    2.300    outmost cutoff radius                                   
   RWIGS  =    2.430; RWIGS  =    1.286    wigner-seitz radius (au A)           
   ENMAX  =  269.532; ENMIN  =  202.149 eV                                      
   RCLOC  =    1.201    cutoff for local pot                                    
   LCOR   =        T    correct aug charges                                     
   LPAW   =        T    paw PP                                                  
   EAUG   =  544.565                                                            
   DEXC   =    0.000                                                            
   RMAX   =    2.357    core radius for proj-oper                               
   RAUG   =    1.300    factor for augmentation sphere                          
   RDEP   =    2.390    radius for radial grids                                 
   RDEPT  =    1.838    core radius for aug-charge                              
                                                                                
   Atomic configuration                                                         
    9 entries                                                                   
     n  l   j            E        occ.                                          
     1  0  0.50     -8206.4253   2.0000                                         
     2  0  0.50      -976.1748   2.0000                                         
     2  1  1.50      -839.0571   6.0000                                         
     3  0  0.50      -105.9991   2.0000                                         
     3  1  1.50       -66.4603   6.0000                                         
     3  2  2.50        -4.6458   9.0000                                         
     4  0  0.50        -4.4926   1.0000                                         
     4  1  1.50        -4.0817   0.0000                                         
     4  3  2.50        -1.3606   0.0000                                         
   Description                                                                  
     l       E           TYP  RCUT    TYP  RCUT                                 
     2     -4.6457903     23  2.300                                             
     2     -6.0063729     23  2.300                                             
     0     -4.4925590     23  2.300                                             
     0      5.0102601     23  2.300                                             
     1     -2.7211652     23  2.300                                             
     1     16.5183231     23  2.300                                             
  local pseudopotential read in
  partial core-charges read in
  partial kinetic energy density read in
  atomic valenz-charges read in
  non local Contribution for L=           2  read in
    real space projection operators read in
  non local Contribution for L=           2  read in
    real space projection operators read in
  non local Contribution for L=           0  read in
    real space projection operators read in
  non local Contribution for L=           0  read in
    real space projection operators read in
  non local Contribution for L=           1  read in
    real space projection operators read in
  non local Contribution for L=           1  read in
    real space projection operators read in
    PAW grid and wavefunctions read in
 
   number of l-projection  operators is LMAX  =           6
   number of lm-projection operators is LMMAX =          18
 
 POTCAR:    PAW_PBE Fe 06Sep2000                  
   VRHFIN =Fe:  d7 s1                                                           
   LEXCH  = PE                                                                  
   EATOM  =   594.3153 eV,   43.6809 Ry                                         
                                                                                
   TITEL  = PAW_PBE Fe 06Sep2000                                                
   LULTRA =        F    use ultrasoft PP ?                                      
   IUNSCR =        1    unscreen: 0-lin 1-nonlin 2-no                           
   RPACOR =    2.000    partial core radius                                     
   POMASS =   55.847; ZVAL   =    8.000    mass and valenz                      
   RCORE  =    2.300    outmost cutoff radius                                   
   RWIGS  =    2.460; RWIGS  =    1.302    wigner-seitz radius (au A)           
   ENMAX  =  267.882; ENMIN  =  200.911 eV                                      
   RCLOC  =    1.701    cutoff for local pot                                    
   LCOR   =        T    correct aug charges                                     
   LPAW   =        T    paw PP                                                  
   EAUG   =  511.368                                                            
   DEXC   =    0.000                                                            
   RMAX   =    2.356    core radius for proj-oper                               
   RAUG   =    1.300    factor for augmentation sphere                          
   RDEP   =    2.442    radius for radial grids                                 
   RDEPT  =    1.890    core radius for aug-charge                              
                                                                                
   Atomic configuration                                                         
    9 entries                                                                   
     n  l   j            E        occ.                                          
     1  0  0.50     -6993.8440   2.0000                                         
     2  0  0.50      -814.6047   2.0000                                         
     2  1  1.50      -693.3689   6.0000                                         
     3  0  0.50       -89.4732   2.0000                                         
     3  1  1.50       -55.6373   6.0000                                         
     3  2  2.50        -3.8151   7.0000                                         
     4  0  0.50        -4.2551   1.0000                                         
     4  1  1.50        -3.4015   0.0000                                         
     4  3  2.50        -1.3606   0.0000                                         
   Description                                                                  
     l       E           TYP  RCUT    TYP  RCUT                                 
     2     -3.8151135     23  2.300                                             
     2     -5.1756961     23  2.300                                             
     0     -4.2550963     23  2.300                                             
     0      7.2035603     23  2.300                                             
     1     -2.7211652     23  2.300                                             
     1     18.4316424     23  2.300                                             
  local pseudopotential read in
  partial core-charges read in
  partial kinetic energy density read in
  atomic valenz-charges read in
  non local Contribution for L=           2  read in
    real space projection operators read in
  non local Contribution for L=           2  read in
    real space projection operators read in
  non local Contribution for L=           0  read in
    real space projection operators read in
  non local Contribution for L=           0  read in
    real space projection operators read in
  non local Contribution for L=           1  read in
    real space projection operators read in
  non local Contribution for L=           1  read in
    real space projection operators read in
    PAW grid and wavefunctions read in
 
   number of l-projection  operators is LMAX  =           6
   number of lm-projection operators is LMMAX =          18
 
 Optimization of the real space projectors (new method)

 maximal supplied QI-value         = 16.25
 optimisation between [QCUT,QGAM] = [ 11.54, 23.24] = [ 37.28,151.24] Ry 
 Optimized for a Real-space Cutoff    1.45 Angstroem

   l    n(q)    QCUT    max X(q) W(low)/X(q) W(high)/X(q)  e(spline) 
   2      9    11.539    60.317    0.19E-03    0.47E-04    0.16E-06
   2      9    11.539    55.921    0.19E-03    0.48E-04    0.16E-06
   0     10    11.539    51.690    0.80E-04    0.50E-04    0.24E-06
   0     10    11.539    30.015    0.73E-04    0.45E-04    0.22E-06
   1     10    11.539    18.849    0.87E-04    0.16E-03    0.71E-07
   1     10    11.539    14.624    0.73E-04    0.13E-03    0.64E-07
 Optimization of the real space projectors (new method)

 maximal supplied QI-value         = 16.25
 optimisation between [QCUT,QGAM] = [ 11.54, 23.24] = [ 37.28,151.24] Ry 
 Optimized for a Real-space Cutoff    1.53 Angstroem

   l    n(q)    QCUT    max X(q) W(low)/X(q) W(high)/X(q)  e(spline) 
   2     10    11.539    80.901    0.11E-03    0.14E-03    0.21E-06
   2     10    11.539    75.754    0.11E-03    0.14E-03    0.22E-06
   0     11    11.539    58.752    0.52E-04    0.18E-04    0.33E-06
   0     11    11.539    30.679    0.44E-04    0.16E-04    0.30E-06
   1     10    11.539    17.977    0.53E-04    0.29E-04    0.13E-06
   1     10    11.539    13.559    0.44E-04    0.25E-04    0.11E-06
  PAW_PBE Ni 02Aug2007                  :
 energy of atom  1       EATOM=-1077.6739
 kinetic energy error for atom=    0.0030 (will be added to EATOM!!)
  PAW_PBE Fe 06Sep2000                  :
 energy of atom  2       EATOM= -594.3153
 kinetic energy error for atom=    0.0026 (will be added to EATOM!!)
 
 
 POSCAR: POSCAR                                  
  positions in direct lattice
  velocities in cartesian coordinates
 exchange correlation table for  LEXCH =        8
   RHO(1)=    0.500       N(1)  =     2000
   RHO(2)=  100.500       N(2)  =     4000
 


--------------------------------------------------------------------------------------------------------


 ion  position               nearest neighbor table
   1  0.999  0.001  0.094-  28 2.50  37 2.51   9 2.52  60 2.53   3 2.53   7 2.53  25 2.54  63 2.54
                            35 2.54
   2  0.002  0.000  0.383-  40 2.46  34 2.48  42 2.48   4 2.50  10 2.51  29 2.52   8 2.53  26 2.54
                            36 2.55
   3  0.248  0.999  0.096-  51 2.47  38 2.48  60 2.49   5 2.51  11 2.52   9 2.52  25 2.53   1 2.53
                            61 2.56
   4  0.249  0.999  0.384-  40 2.44  52 2.47  39 2.47  32 2.48   2 2.50  14 2.50  26 2.53  10 2.54
                             6 2.57
   5  0.499  0.002  0.095-  38 2.49  35 2.51   3 2.51  41 2.52  12 2.53  51 2.54  53 2.54  61 2.55
                            62 2.57
   6  0.502  0.998  0.383-  33 2.44  16 2.45  39 2.48  14 2.48  36 2.49  52 2.52  13 2.53  54 2.55
                             4 2.57
   7  0.998  0.251  0.096-  37 2.48  43 2.49  35 2.50  17 2.50  12 2.53  45 2.53   1 2.53   9 2.55
                            15 2.55
   8  0.000  0.250  0.383-  24 2.46  42 2.47  49 2.48  44 2.51  10 2.51  36 2.51  18 2.52   2 2.53
                            13 2.54
   9  0.249  0.249  0.095-  37 2.48  38 2.48   1 2.52  43 2.52   3 2.52  48 2.54  11 2.54   7 2.55
                            46 2.55
  10  0.249  0.251  0.385-  49 2.46  40 2.47   8 2.51   2 2.51  22 2.52  47 2.53  44 2.54   4 2.54
                            39 2.55
  11  0.334  0.165  0.192-  38 2.48  48 2.50  21 2.51  14 2.51  61 2.52   3 2.52  40 2.52  22 2.53
                            41 2.54  60 2.54  37 2.54   9 2.54
  12  0.749  0.253  0.097-  41 2.47  19 2.49  17 2.51  35 2.51  23 2.51   7 2.53   5 2.53  38 2.55
                            15 2.55
  13  0.750  0.251  0.384-  50 2.43  16 2.49  24 2.49  18 2.51  39 2.51  20 2.52  36 2.52   6 2.53
                             8 2.54
  14  0.418  0.084  0.289-   6 2.48  39 2.49  40 2.49  61 2.49   4 2.50  22 2.50  11 2.51  32 2.52
                            16 2.53  41 2.53  33 2.55  50 2.56
  15  0.832  0.166  0.194-  16 2.48  45 2.48  41 2.49  42 2.49  35 2.51  62 2.51  24 2.51  23 2.52
                            37 2.54  12 2.55   7 2.55  63 2.55
  16  0.669  0.084  0.290-   6 2.45  62 2.48  15 2.48  13 2.49  42 2.50  64 2.52  36 2.52  14 2.53
                            24 2.53  41 2.53  50 2.53  33 2.55
  17  0.999  0.499  0.097-  45 2.48   7 2.50  43 2.51  12 2.51  27 2.52  51 2.52  25 2.53  19 2.53
                            23 2.54
  18  0.999  0.499  0.384-  56 2.42  24 2.46  44 2.49  31 2.49  13 2.51  26 2.51   8 2.52  20 2.53
                            52 2.55
  19  0.748  0.499  0.096-  46 2.48  12 2.49  58 2.49  21 2.52  25 2.52  28 2.53  17 2.53  23 2.56
                            38 2.57
  20  0.750  0.500  0.385-  50 2.45  47 2.49  59 2.49  31 2.50  26 2.51  29 2.51  13 2.52  18 2.53
                            39 2.59
  21  0.583  0.413  0.193-  48 2.47  41 2.49  58 2.49  22 2.50  23 2.50  11 2.51  19 2.52  38 2.54
                            46 2.54  59 2.56  50 2.56  57 2.56
  22  0.421  0.333  0.289-  21 2.50  47 2.50  48 2.50  14 2.50  40 2.51  59 2.52  10 2.52  50 2.52
                            39 2.53  30 2.53  11 2.53  49 2.54
  23  0.831  0.415  0.194-  45 2.45  58 2.47  41 2.47  50 2.49  21 2.50  31 2.51  24 2.51  12 2.51
                            15 2.52  27 2.53  17 2.54  19 2.56
  24  0.919  0.334  0.290-   8 2.46  18 2.46  45 2.46  13 2.49  50 2.50  42 2.50  23 2.51  15 2.51
                            56 2.52  16 2.53  49 2.54  31 2.55
  25  0.998  0.749  0.096-  60 2.47  51 2.48  28 2.48  58 2.51  19 2.52   3 2.53  17 2.53  27 2.53
                             1 2.54
  26  0.999  0.748  0.383-  31 2.44  34 2.48  52 2.48  32 2.49  29 2.50  20 2.51  18 2.51   4 2.53
                             2 2.54
  27  0.082  0.666  0.193-  45 2.49  51 2.50  58 2.50  31 2.50  32 2.51  60 2.51  17 2.52  25 2.53
                            23 2.53  61 2.54  55 2.54  56 2.55
  28  0.753  0.752  0.095-  25 2.48   1 2.50  63 2.51  19 2.53  46 2.54  57 2.54  58 2.55  53 2.57
                            35 2.58
  29  0.752  0.750  0.384-  64 2.44  59 2.47  26 2.50  20 2.51  34 2.51   2 2.52  47 2.54  36 2.55
                            54 2.56
  30  0.417  0.582  0.292-  49 2.46  54 2.48  47 2.48  33 2.51  55 2.51  59 2.51  64 2.53  22 2.53
                            48 2.56  56 2.56  57 2.57  44 2.60
  31  0.916  0.585  0.289-  26 2.44  58 2.49  50 2.49  18 2.49  20 2.50  27 2.50  34 2.51  23 2.51
                            59 2.51  56 2.52  32 2.53  24 2.55
  32  0.168  0.834  0.289-   4 2.48  61 2.48  26 2.49  56 2.50  27 2.51  40 2.51  34 2.51  52 2.52
                            14 2.52  33 2.53  31 2.53  60 2.54
  33  0.416  0.830  0.291-   6 2.44  56 2.50  62 2.51  64 2.51  30 2.51  55 2.51  54 2.52  52 2.53
                            32 2.53  61 2.53  14 2.55  16 2.55
  34  0.920  0.835  0.288-   2 2.48  26 2.48  63 2.50  31 2.51  32 2.51  29 2.51  60 2.51  59 2.54
                            40 2.54  42 2.54  58 2.55  64 2.56
  35  0.749  0.005  0.097-   7 2.50  15 2.51  12 2.51   5 2.51   1 2.54  63 2.55  62 2.55  53 2.55
                            28 2.58
  36  0.751  0.002  0.387-  64 2.48   6 2.49   8 2.51  16 2.52  13 2.52  42 2.54   2 2.55  29 2.55
                            54 2.60
  37  0.085  0.169  0.190-   9 2.48   7 2.48   1 2.51  48 2.53  15 2.54  45 2.54  11 2.54  63 2.55
                            60 2.56  42 2.57  40 2.62  49 2.62
  38  0.493  0.245  0.095-   9 2.48   3 2.48  11 2.48   5 2.49  46 2.52  21 2.54  41 2.54  12 2.55
                            19 2.57
  39  0.496  0.241  0.386-   4 2.47   6 2.48  14 2.49  13 2.51  22 2.53  50 2.54  10 2.55  47 2.57
                            20 2.59
  40  0.172  0.085  0.291-   4 2.44   2 2.46  10 2.47  14 2.49  22 2.51  32 2.51  11 2.52  34 2.54
                            49 2.57  42 2.58  60 2.60  37 2.62
  41  0.588  0.169  0.192-  12 2.47  23 2.47  15 2.49  21 2.49  62 2.51   5 2.52  16 2.53  14 2.53
                            11 2.54  38 2.54  61 2.56  50 2.57
  42  0.917  0.085  0.289-   8 2.47   2 2.48  15 2.49  16 2.50  24 2.50  36 2.54  64 2.54  34 2.54
                            63 2.54  37 2.57  49 2.58  40 2.58
  43  0.246  0.497  0.097-   7 2.49  17 2.51   9 2.52  45 2.53  55 2.54  48 2.54  53 2.55  46 2.58
                            51 2.59
  44  0.245  0.499  0.392-  18 2.49  54 2.49   8 2.51  10 2.54  49 2.55  56 2.55  52 2.56  30 2.60
                            47 2.61
  45  0.074  0.415  0.193-  23 2.45  24 2.46  17 2.48  15 2.48  27 2.49   7 2.53  43 2.53  37 2.54
                            55 2.55  49 2.58  56 2.59  48 2.67
  46  0.503  0.500  0.095-  19 2.48  38 2.52  48 2.53  28 2.54  21 2.54   9 2.55  53 2.55  57 2.55
                            43 2.58
  47  0.502  0.498  0.385-  30 2.48  20 2.49  59 2.49  22 2.50  54 2.50  10 2.53  29 2.54  39 2.57
                            44 2.61
  48  0.339  0.415  0.193-  21 2.47  11 2.50  22 2.50  57 2.52  37 2.53  46 2.53  55 2.54  43 2.54
                             9 2.54  49 2.55  30 2.56  45 2.67
  49  0.173  0.340  0.291-  30 2.46  10 2.46   8 2.48  56 2.52  24 2.54  22 2.54  48 2.55  44 2.55
                            40 2.57  42 2.58  45 2.58  37 2.62
  50  0.672  0.336  0.292-  13 2.43  20 2.45  31 2.49  23 2.49  24 2.50  22 2.52  16 2.53  39 2.54
                            59 2.54  14 2.56  21 2.56  41 2.57
  51  0.245  0.753  0.097-   3 2.47  25 2.48  27 2.50  61 2.51  17 2.52   5 2.54  53 2.57  43 2.59
                            55 2.60
  52  0.247  0.754  0.387-   4 2.47  26 2.48  56 2.50  32 2.52   6 2.52  33 2.53  18 2.55  44 2.56
                            54 2.57
  53  0.498  0.750  0.096-  57 2.53   5 2.54  46 2.55  35 2.55  43 2.55  55 2.56  62 2.57  28 2.57
                            51 2.57
  54  0.496  0.742  0.388-  30 2.48  44 2.49  47 2.50  64 2.51  33 2.52   6 2.55  29 2.56  52 2.57
                            36 2.60
  55  0.332  0.663  0.195-  33 2.51  30 2.51  56 2.53  57 2.54  48 2.54  43 2.54  27 2.54  61 2.55
                            45 2.55  62 2.56  53 2.56  51 2.60
  56  0.166  0.585  0.293-  18 2.42  52 2.50  32 2.50  33 2.50  24 2.52  31 2.52  49 2.52  55 2.53
                            27 2.55  44 2.55  30 2.56  45 2.59
  57  0.586  0.668  0.193-  63 2.50  59 2.52  48 2.52  58 2.52  53 2.53  55 2.54  28 2.54  62 2.55
                            46 2.55  21 2.56  30 2.57  64 2.57
  58  0.831  0.659  0.192-  23 2.47  31 2.49  19 2.49  21 2.49  27 2.50  25 2.51  59 2.52  57 2.52
                            28 2.55  34 2.55  60 2.56  63 2.57
  59  0.668  0.585  0.290-  29 2.47  47 2.49  20 2.49  31 2.51  30 2.51  64 2.52  58 2.52  57 2.52
                            22 2.52  34 2.54  50 2.54  21 2.56
  60  0.082  0.914  0.191-  25 2.47   3 2.49  63 2.51  27 2.51  34 2.51   1 2.53  61 2.53  11 2.54
                            32 2.54  58 2.56  37 2.56  40 2.60
  61  0.334  0.916  0.194-  32 2.48  14 2.49  62 2.49  51 2.51  11 2.52  33 2.53  60 2.53  27 2.54
                             5 2.55  55 2.55   3 2.56  41 2.56
  62  0.582  0.919  0.195-  16 2.48  61 2.49  41 2.51  33 2.51  15 2.51  35 2.55  57 2.55  64 2.55
                            55 2.56  53 2.57  63 2.57   5 2.57
  63  0.834  0.914  0.192-  57 2.50  34 2.50  60 2.51  28 2.51   1 2.54  42 2.54  35 2.55  15 2.55
                            37 2.55  62 2.57  58 2.57  64 2.59
  64  0.667  0.834  0.293-  29 2.44  36 2.48  33 2.51  54 2.51  16 2.52  59 2.52  30 2.53  42 2.54
                            62 2.55  34 2.56  57 2.57  63 2.59
 

IMPORTANT INFORMATION: All symmetrisations will be switched off!
NOSYMM: (Re-)initialisation of all symmetry stuff for point group C_1.

 
 

Automatic generation of k-mesh.
 generate k-points for:    3    3    1
Space group operators:
 irot       det(A)        alpha          n_x          n_y          n_z        tau_x        tau_y        tau_z
    1     1.000000     0.000001     1.000000     0.000000     0.000000     0.000000     0.000000     0.000000
 
 Subroutine IBZKPT returns following result:
 ===========================================
 
 Found      5 irreducible k-points:
 
 Following reciprocal coordinates:
            Coordinates               Weight
  0.000000  0.000000  0.000000      1.000000
  0.333333  0.000000  0.000000      2.000000
  0.000000  0.333333  0.000000      2.000000
  0.333333  0.333333  0.000000      2.000000
 -0.333333  0.333333  0.000000      2.000000
 
 Following cartesian coordinates:
            Coordinates               Weight
  0.000000  0.000000  0.000000      1.000000
  0.033002  0.019054  0.000000      2.000000
  0.000000  0.038108  0.000000      2.000000
  0.033002  0.057162  0.000000      2.000000
 -0.033002  0.019054  0.000000      2.000000
 
 TETIRR: Found     24 inequivalent tetrahedra from       54


--------------------------------------------------------------------------------------------------------




 Dimension of arrays:
   k-points           NKPTS =      5   k-points in BZ     NKDIM =      5   number of bands    NBANDS=    411
   number of dos      NEDOS =    301   number of ions     NIONS =     64
   non local maximal  LDIM  =      6   non local SUM 2l+1 LMDIM =     18
   total plane-waves  NPLWV = ******
   max r-space proj   IRMAX =   8293   max aug-charges    IRDMAX=  19624
   dimension x,y,z NGX =    80 NGY =   80 NGZ =  160
   dimension x,y,z NGXF=   160 NGYF=  160 NGZF=  320
   support grid    NGXF=   160 NGYF=  160 NGZF=  320
   ions per type =              34  30
   NGX,Y,Z   is equivalent  to a cutoff of  13.17, 13.17, 12.52 a.u.
   NGXF,Y,Z  is equivalent  to a cutoff of  26.34, 26.34, 25.03 a.u.

 SYSTEM =  SQS-NiFe                                
 POSCAR =  POSCAR                                  

 Startparameter for this run:
   NWRITE =      2    write-flag & timer
   PREC   = accura    normal or accurate (medium, high low for compatibility)
   ISTART =      0    job   : 0-new  1-cont  2-samecut
   ICHARG =      2    charge: 1-file 2-atom 10-const
   ISPIN  =      2    spin polarized calculation?
   LNONCOLLINEAR =      F non collinear calculations
   LSORBIT =      F    spin-orbit coupling
   INIWAV =      1    electr: 0-lowe 1-rand  2-diag
   LASPH  =      F    aspherical Exc in radial PAW
   METAGGA=      F    non-selfconsistent MetaGGA calc.

 Electronic Relaxation 1
   ENCUT  =  520.0 eV  38.22 Ry    6.18 a.u.  18.78 18.78 39.52*2*pi/ulx,y,z
   ENINI  =  520.0     initial cutoff
   ENAUG  =  544.6 eV  augmentation charge cutoff
   NELM   =    200;   NELMIN=  2; NELMDL= -5     # of ELM steps 
   EDIFF  = 0.1E-05   stopping-criterion for ELM
   LREAL  =      T    real-space projection
   NLSPLINE    = F    spline interpolate recip. space projectors
   LCOMPAT=      F    compatible to vasp.4.4
   GGA_COMPAT  = T    GGA compatible to vasp.4.4-vasp.4.6
   LMAXPAW     = -100 max onsite density
   LMAXMIX     =    2 max onsite mixed and CHGCAR
   VOSKOWN=      0    Vosko Wilk Nusair interpolation
   ROPT   =   -0.00025  -0.00025
 Ionic relaxation
   EDIFFG = -.2E-01   stopping-criterion for IOM
   NSW    =      0    number of steps for IOM
   NBLOCK =      1;   KBLOCK =      1    inner block; outer block 
   IBRION =     -1    ionic relax: 0-MD 1-quasi-New 2-CG
   NFREE  =      0    steps in history (QN), initial steepest desc. (CG)
   ISIF   =      2    stress and relaxation
   IWAVPR =     10    prediction:  0-non 1-charg 2-wave 3-comb
   ISYM   =      0    0-nonsym 1-usesym 2-fastsym
   LCORR  =      T    Harris-Foulkes like correction to forces

   POTIM  = 0.5000    time-step for ionic-motion
   TEIN   =    0.0    initial temperature
   TEBEG  =    0.0;   TEEND  =   0.0 temperature during run
   SMASS  =  -3.00    Nose mass-parameter (am)
   estimated Nose-frequenzy (Omega)   =  0.10E-29 period in steps =****** mass=  -0.233E-26a.u.
   SCALEE = 1.0000    scale energy and forces
   NPACO  =    256;   APACO  = 16.0  distance and # of slots for P.C.
   PSTRESS=    0.0 pullay stress

  Mass of Ions in am
   POMASS =  58.69 55.85
  Ionic Valenz
   ZVAL   =  10.00  8.00
  Atomic Wigner-Seitz radii
   RWIGS  =  -1.00 -1.00
  virtual crystal weights 
   VCA    =   1.00  1.00
   NELECT =     580.0000    total number of electrons
   NUPDOWN=      -1.0000    fix difference up-down

 DOS related values:
   EMIN   =  10.00;   EMAX   =-10.00  energy-range for DOS
   EFERMI =   0.00
   ISMEAR =    -5;   SIGMA  =   0.20  broadening in eV -4-tet -1-fermi 0-gaus

 Electronic relaxation 2 (details)
   IALGO  =     68    algorithm
   LDIAG  =      T    sub-space diagonalisation (order eigenvalues)
   LSUBROT=      F    optimize rotation matrix (better conditioning)
   TURBO    =      0    0=normal 1=particle mesh
   IRESTART =      0    0=no restart 2=restart with 2 vectors
   NREBOOT  =      0    no. of reboots
   NMIN     =      0    reboot dimension
   EREF     =   0.00    reference energy to select bands
   IMIX   =      4    mixing-type and parameters
     AMIX     =   0.40;   BMIX     =  1.00
     AMIX_MAG =   1.60;   BMIX_MAG =  1.00
     AMIN     =   0.10
     WC   =   100.;   INIMIX=   1;  MIXPRE=   1;  MAXMIX= -45

 Intra band minimization:
   WEIMIN = 0.0000     energy-eigenvalue tresh-hold
   EBREAK =  0.61E-09  absolut break condition
   DEPER  =   0.30     relativ break condition  

   TIME   =   0.40     timestep for ELM

  volume/ion in A,a.u.               =      29.34       197.98
  Fermi-wavevector in a.u.,A,eV,Ry     =   1.106657  2.091279 16.662916  1.224690
  Thomas-Fermi vector in A             =   2.243161
 
 Write flags
   LWAVE        =      F    write WAVECAR
   LDOWNSAMPLE  =      F    k-point downsampling of WAVECAR
   LCHARG       =      T    write CHGCAR
   LVTOT        =      F    write LOCPOT, total local potential
   LVHAR        =      F    write LOCPOT, Hartree potential only
   LELF         =      F    write electronic localiz. function (ELF)
   LORBIT       =     11    0 simple, 1 ext, 2 COOP (PROOUT), +10 PAW based schemes


 Dipole corrections
   LMONO  =      F    monopole corrections only (constant potential shift)
   LDIPOL =      T    correct potential (dipole corrections)
   IDIPOL =      3    1-x, 2-y, 3-z, 4-all directions 
   EPSILON=  1.0000000 bulk dielectric constant

 Exchange correlation treatment:
   GGA     =    --    GGA type
   LEXCH   =     8    internal setting for exchange type
   VOSKOWN=      0    Vosko Wilk Nusair interpolation
   LHFCALC =     F    Hartree Fock is set to
   LHFONE  =     F    Hartree Fock one center treatment
   AEXX    =    0.0000 exact exchange contribution

 Linear response parameters
   LEPSILON=     F    determine dielectric tensor
   LRPA    =     F    only Hartree local field effects (RPA)
   LNABLA  =     F    use nabla operator in PAW spheres
   LVEL    =     F    velocity operator in full k-point grid
   LINTERFAST=   F  fast interpolation
   KINTER  =     0    interpolate to denser k-point grid
   CSHIFT  =0.1000    complex shift for real part using Kramers Kronig
   OMEGAMAX=  -1.0    maximum frequency
   DEG_THRESHOLD= 0.2000000E-02 threshold for treating states as degnerate
   RTIME   =   -0.100 relaxation time in fs
  (WPLASMAI=    0.000 imaginary part of plasma frequency in eV, 0.658/RTIME)
   DFIELD  = 0.0000000 0.0000000 0.0000000 field for delta impulse in time
 
 Orbital magnetization related:
   ORBITALMAG=     F  switch on orbital magnetization
   LCHIMAG   =     F  perturbation theory with respect to B field
   DQ        =  0.001000  dq finite difference perturbation B field
   LLRAUG    =     F  two centre corrections for induced B field



--------------------------------------------------------------------------------------------------------


 Static calculation
 charge density and potential will be updated during run
 spin polarized calculation
 RMM-DIIS sequential band-by-band and
  variant of blocked Davidson during initial phase
 perform sub-space diagonalisation
    before iterative eigenvector-optimisation
 modified Broyden-mixing scheme, WC =      100.0
 initial mixing is a Kerker type mixing with AMIX =  0.4000 and BMIX =      1.0000
 Hartree-type preconditioning will be used
 using additional bands          121
 real space projection scheme for non local part
 use partial core corrections
 calculate Harris-corrections to forces 
   (improved forces if not selfconsistent)
 use gradient corrections 
 use of overlap-Matrix (Vanderbilt PP)
 Fermi weights with tetrahedron method with Bloechl corrections


--------------------------------------------------------------------------------------------------------


  energy-cutoff  :      520.00
  volume of cell :     1877.64
      direct lattice vectors                 reciprocal lattice vectors
    10.100310000  0.000000000  0.000000000     0.099006862  0.057161638  0.000000000
    -5.050155000  8.747125050  0.000000000     0.000000000  0.114323277  0.000000000
     0.000000000  0.000000000 21.252660910     0.000000000  0.000000000  0.047052932

  length of vectors
    10.100310000 10.100310003 21.252660910     0.114323277  0.114323277  0.047052932


 
 k-points in units of 2pi/SCALE and weight: read from INCAR                         
   0.00000000  0.00000000  0.00000000       0.111
   0.03300229  0.01905388  0.00000000       0.222
   0.00000000  0.03810776  0.00000000       0.222
   0.03300229  0.05716164  0.00000000       0.222
  -0.03300229  0.01905388  0.00000000       0.222
 
 k-points in reciprocal lattice and weights: read from INCAR                         
   0.00000000  0.00000000  0.00000000       0.111
   0.33333333  0.00000000  0.00000000       0.222
   0.00000000  0.33333333  0.00000000       0.222
   0.33333333  0.33333333  0.00000000       0.222
  -0.33333333  0.33333333  0.00000000       0.222
 
 position of ions in fractional coordinates (direct lattice) 
   0.99904300  0.00064200  0.09410586
   0.00195388  0.00049582  0.38263438
   0.24849100  0.99862800  0.09563755
   0.24882230  0.99892072  0.38363891
   0.49902500  0.00192700  0.09538843
   0.50246233  0.99824220  0.38255863
   0.99813900  0.25067400  0.09552521
   0.00010919  0.24981806  0.38349260
   0.24921500  0.24886200  0.09476883
   0.24904143  0.25065165  0.38470360
   0.33446800  0.16514600  0.19222469
   0.74893500  0.25278100  0.09675772
   0.74976383  0.25122302  0.38426045
   0.41848793  0.08401433  0.28886138
   0.83203200  0.16588400  0.19407448
   0.66863160  0.08377378  0.28958192
   0.99908600  0.49910800  0.09662298
   0.99899694  0.49882697  0.38385858
   0.74816900  0.49871100  0.09562882
   0.74953608  0.50019719  0.38513136
   0.58310200  0.41320400  0.19269936
   0.42077520  0.33299548  0.28940857
   0.83119700  0.41475900  0.19429042
   0.91890744  0.33408592  0.28994110
   0.99765800  0.74896900  0.09614336
   0.99864459  0.74754668  0.38272096
   0.08195100  0.66570400  0.19334166
   0.75346500  0.75172800  0.09521148
   0.75238709  0.75014569  0.38421377
   0.41737179  0.58207228  0.29170006
   0.91615226  0.58491842  0.28937747
   0.16828067  0.83445393  0.28874549
   0.41644189  0.83013181  0.29119500
   0.92009313  0.83491829  0.28817985
   0.74918200  0.00453800  0.09669603
   0.75076015  0.00194954  0.38687471
   0.08475800  0.16932700  0.18974338
   0.49319000  0.24544000  0.09526096
   0.49603617  0.24059949  0.38642687
   0.17243779  0.08481553  0.29050527
   0.58776100  0.16931300  0.19204658
   0.91732955  0.08535549  0.28923505
   0.24596400  0.49669300  0.09728245
   0.24538932  0.49945367  0.39157246
   0.07438400  0.41509600  0.19330907
   0.50297300  0.49962100  0.09454619
   0.50230352  0.49806800  0.38546788
   0.33917200  0.41514500  0.19285128
   0.17281644  0.33982342  0.29116224
   0.67221219  0.33629568  0.29166867
   0.24490500  0.75270000  0.09701936
   0.24740871  0.75424745  0.38744251
   0.49840300  0.74988300  0.09618992
   0.49550496  0.74235524  0.38774554
   0.33208500  0.66262100  0.19522695
   0.16555908  0.58538305  0.29270611
   0.58579400  0.66826100  0.19270140
   0.83088100  0.65877500  0.19245024
   0.66762000  0.58517049  0.28994464
   0.08235500  0.91427100  0.19050529
   0.33394400  0.91584300  0.19411435
   0.58231600  0.91865200  0.19488936
   0.83419400  0.91449400  0.19236584
   0.66677887  0.83392042  0.29275936
 
 position of ions in cartesian coordinates  (Angst):
  10.08740180  0.00561565  1.99999993
   0.01723085  0.00433700  8.13199868
  -2.53339006  8.73512399  2.03255242
  -2.53152208  8.73768448  8.15334760
   5.03057555  0.01685571  2.02725796
   0.03374742  8.73174939  8.13038875
   8.81557077  2.19267682  2.03016490
  -1.26051704  2.18518982  8.15023815
   1.26035708  2.17682703  2.01408981
   1.24956595  2.19248131  8.17597518
   2.54421759  1.44455271  4.08528616
   6.28789244  2.21110702  2.05635901
   6.30413193  2.19747916  8.16655711
   3.80257244  0.73488385  6.13907287
   7.56604122  1.45100809  4.12459911
   6.33031581  0.73277975  6.15438635
   7.57050555  4.36576009  2.05349543
   7.57102529  4.36330188  8.15801623
   5.03817098  4.36228748  2.03236688
   5.04447341  4.37528734  8.18506611
   3.80276671  3.61434706  4.09537416
   2.56828119  2.91275313  6.15070218
   6.30075013  3.62794884  4.12918841
   7.59406434  2.92229136  6.16201996
   6.29424553  6.55132550  2.04330223
   6.31139338  6.53888428  8.13383887
  -2.53417788  5.82299613  4.10902474
   3.81388716  6.57545882  2.02349730
   3.81099089  6.56161812  8.16556500
   1.27602928  5.09145902  6.19940256
   6.29949314  5.11635458  6.15004120
  -2.51443480  7.29907287  6.13661004
   0.01389791  7.26126674  6.18866864
   5.07675909  7.30313472  6.12458867
   7.54405284  0.03969445  2.05504794
   7.57306479  0.01705284  8.22211699
   0.00095448  1.48112444  4.03255172
   3.74186185  2.14689437  2.02454888
   3.79505441  2.10455382  8.21259932
   1.31334358  0.74189203  6.17400995
   5.08151141  1.48100198  4.08150084
   8.83425433  0.74661516  6.14701434
  -0.02406399  4.34463578  2.06751092
  -0.04381022  4.36878370  8.32195677
  -1.34499768  3.63089662  4.10833212
   2.55701973  4.37024736  2.00935812
   2.55810067  4.35666304  8.19221813
   1.32919575  3.63132523  4.09860286
   0.02933868  2.97247797  6.18797235
   5.09120614  2.94162039  6.19873525
  -1.32763525  6.58396103  2.06191956
  -1.31016189  6.59749678  8.23418421
   1.24699942  6.55932037  2.04429175
   1.25574468  6.49347415  8.24062458
   0.00782269  5.79602875  4.14909217
  -1.28407711  5.12041872  6.22078380
   2.54187937  5.84536253  4.09541751
   5.06523981  5.76238730  4.09007969
   3.78796729  5.11855944  6.16209502
  -3.78539923  7.99724277  4.04874433
  -1.25221118  8.01099325  4.12544646
   1.24223713  8.03556392  4.14191748
   3.80728155  7.99919338  4.08828597
   2.52324591  7.29440619  6.22191532
 


--------------------------------------------------------------------------------------------------------


 k-point  1 :   0.0000 0.0000 0.0000  plane waves:   50641
 k-point  2 :   0.3333 0.0000 0.0000  plane waves:   50572
 k-point  3 :   0.0000 0.3333 0.0000  plane waves:   50572
 k-point  4 :   0.3333 0.3333 0.0000  plane waves:   50583
 k-point  5 :  -0.3333 0.3333 0.0000  plane waves:   50572

 maximum and minimum number of plane-waves per node :      2130     2087

 maximum number of plane-waves:     50641
 maximum index in each direction: 
   IXMAX=   19   IYMAX=   18   IZMAX=   39
   IXMIN=  -19   IYMIN=  -19   IZMIN=  -39


 real space projection operators:
  total allocation   :      65775.94 KBytes
  max/ min on nodes  :       3277.41       2431.83


 parallel 3D FFT for wavefunctions:
    minimum data exchange during FFTs selected (reduces bandwidth)
 parallel 3D FFT for charge:
    minimum data exchange during FFTs selected (reduces bandwidth)


 total amount of memory used by VASP MPI-rank0   113842. kBytes
=======================================================================

   base      :      30000. kBytes
   nonlr-proj:      13018. kBytes
   fftplans  :       6403. kBytes
   grid      :      16455. kBytes
   one-center:         93. kBytes
   wavefun   :      47873. kBytes
 
     INWAV:  cpu time    0.0010: real time    0.0001
 Broyden mixing: mesh for mixing (old mesh)
   NGX = 37   NGY = 37   NGZ = 79
  (NGX  =160   NGY  =160   NGZ  =320)
  gives a total of 108151 points

 initial charge density was supplied:
 charge density of overlapping atoms calculated
 number of electron     580.0000000 magnetization     124.0000000
 keeping initial charge density in first step


--------------------------------------------------------------------------------------------------------


 Maximum index for non-local projection operator          762
 Maximum index for augmentation-charges         1123 (set IRDMAX)


--------------------------------------------------------------------------------------------------------


 First call to EWALD:  gamma=   0.144
 Maximum number of real-space cells 4x 4x 2
 Maximum number of reciprocal cells 2x 2x 4

    FEWALD:  cpu time    0.0050: real time    0.0042


--------------------------------------- Iteration      1(   1)  ---------------------------------------


    POTLOK:  cpu time    0.2470: real time    0.2500
    SETDIJ:  cpu time    0.0170: real time    0.0194
     EDDAV:  cpu time   25.1802: real time   25.5145
 BZINTS: Fermi energy: 11.933202;580.000000 electrons
         Band energy:4163.588160;  BLOECHL correction: -0.017343
       DOS:  cpu time    0.0380: real time    0.0378
    --------------------------------------------
      LOOP:  cpu time   25.4821: real time   25.8219

 eigenvalue-minimisations  :  8220
 total energy-change (2. order) : 0.4790591E+04  (-0.2444419E+05)
 number of electron     580.0000000 magnetization     124.0000000
 augmentation part      580.0000000 magnetization     124.0000000

 DIPCOR: dipole corrections for dipol
 direction  3 min pos   237,
 dipolmoment           0.000000      0.000000     -0.000031 electrons x Angstroem
 Tr[quadrupol]    -10055.687204

 energy correction for charged system         0.000000 eV
 dipol+quadrupol energy correction           -0.000000 eV
 added-field ion interaction          0.000150 eV  (added to PSCEN)


 Free energy of the ion-electron system (eV)
  ---------------------------------------------------
  alpha Z        PSCENC =      1336.21311195
  Ewald energy   TEWEN  =    188215.90441694
  -Hartree energ DENC   =   -242100.79334582
  -exchange      EXHF   =         0.00000000
  -V(xc)+E(xc)   XCENC  =      1209.74363605
  PAW double counting   =     49349.10590813   -51853.36283059
  entropy T*S    EENTRO =         0.00000000
  eigenvalues    EBANDS =      4163.58816034
  atomic energy  EATOM  =     54470.19168079
  Solvation  Ediel_sol  =         0.00000000
  ---------------------------------------------------
  free energy    TOTEN  =      4790.59073780 eV

  energy without entropy =     4790.59073780  energy(sigma->0) =     4790.59073780


--------------------------------------------------------------------------------------------------------




--------------------------------------- Iteration      1(   2)  ---------------------------------------


     EDDAV:  cpu time   24.3653: real time   24.5021
 BZINTS: Fermi energy:  2.040552;580.000000 electrons
         Band energy:-597.715029;  BLOECHL correction: -0.006232
       DOS:  cpu time    0.0430: real time    0.0434
    --------------------------------------------
      LOOP:  cpu time   24.4093: real time   24.5456

 eigenvalue-minimisations  :  8220
 total energy-change (2. order) :-0.4761303E+04  (-0.4455767E+04)
 number of electron     580.0000000 magnetization     124.0000000
 augmentation part      580.0000000 magnetization     124.0000000

 DIPCOR: dipole corrections for dipol
 direction  3 min pos   237,
 dipolmoment           0.000000      0.000000     -0.000031 electrons x Angstroem
 Tr[quadrupol]    -10055.687204

 energy correction for charged system         0.000000 eV
 dipol+quadrupol energy correction           -0.000000 eV
 added-field ion interaction          0.000150 eV  (added to PSCEN)


 Free energy of the ion-electron system (eV)
  ---------------------------------------------------
  alpha Z        PSCENC =      1336.21311195
  Ewald energy   TEWEN  =    188215.90441694
  -Hartree energ DENC   =   -242100.79334582
  -exchange      EXHF   =         0.00000000
  -V(xc)+E(xc)   XCENC  =      1209.74363605
  PAW double counting   =     49349.10590813   -51853.36283059
  entropy T*S    EENTRO =         0.00000000
  eigenvalues    EBANDS =      -597.71502898
  atomic energy  EATOM  =     54470.19168079
  Solvation  Ediel_sol  =         0.00000000
  ---------------------------------------------------
  free energy    TOTEN  =        29.28754848 eV

  energy without entropy =       29.28754848  energy(sigma->0) =       29.28754848


--------------------------------------------------------------------------------------------------------




--------------------------------------- Iteration      1(   3)  ---------------------------------------


     EDDAV:  cpu time   24.8202: real time   24.9208
 BZINTS: Fermi energy:  0.755504;580.000000 electrons
         Band energy:***********;  BLOECHL correction: -0.003539
       DOS:  cpu time    0.0430: real time    0.0424
    --------------------------------------------
      LOOP:  cpu time   24.8622: real time   24.9632

 eigenvalue-minimisations  :  8478
 total energy-change (2. order) :-0.4787266E+03  (-0.4109892E+03)
 number of electron     580.0000000 magnetization     124.0000000
 augmentation part      580.0000000 magnetization     124.0000000

 DIPCOR: dipole corrections for dipol
 direction  3 min pos   237,
 dipolmoment           0.000000      0.000000     -0.000031 electrons x Angstroem
 Tr[quadrupol]    -10055.687204

 energy correction for charged system         0.000000 eV
 dipol+quadrupol energy correction           -0.000000 eV
 added-field ion interaction          0.000150 eV  (added to PSCEN)


 Free energy of the ion-electron system (eV)
  ---------------------------------------------------
  alpha Z        PSCENC =      1336.21311195
  Ewald energy   TEWEN  =    188215.90441694
  -Hartree energ DENC   =   -242100.79334582
  -exchange      EXHF   =         0.00000000
  -V(xc)+E(xc)   XCENC  =      1209.74363605
  PAW double counting   =     49349.10590813   -51853.36283059
  entropy T*S    EENTRO =         0.00000000
  eigenvalues    EBANDS =     -1076.44159529
  atomic energy  EATOM  =     54470.19168079
  Solvation  Ediel_sol  =         0.00000000
  ---------------------------------------------------
  free energy    TOTEN  =      -449.43901783 eV

  energy without entropy =     -449.43901783  energy(sigma->0) =     -449.43901783


--------------------------------------------------------------------------------------------------------




--------------------------------------- Iteration      1(   4)  ---------------------------------------


     EDDAV:  cpu time   25.7401: real time   25.8915
 BZINTS: Fermi energy:  0.713185;580.000000 electrons
         Band energy:***********;  BLOECHL correction: -0.004308
       DOS:  cpu time    0.0400: real time    0.0398
    --------------------------------------------
      LOOP:  cpu time   25.7801: real time   25.9313

 eigenvalue-minimisations  :  8799
 total energy-change (2. order) :-0.2248563E+02  (-0.2179490E+02)
 number of electron     580.0000000 magnetization     124.0000000
 augmentation part      580.0000000 magnetization     124.0000000

 DIPCOR: dipole corrections for dipol
 direction  3 min pos   237,
 dipolmoment           0.000000      0.000000     -0.000031 electrons x Angstroem
 Tr[quadrupol]    -10055.687204

 energy correction for charged system         0.000000 eV
 dipol+quadrupol energy correction           -0.000000 eV
 added-field ion interaction          0.000150 eV  (added to PSCEN)


 Free energy of the ion-electron system (eV)
  ---------------------------------------------------
  alpha Z        PSCENC =      1336.21311195
  Ewald energy   TEWEN  =    188215.90441694
  -Hartree energ DENC   =   -242100.79334582
  -exchange      EXHF   =         0.00000000
  -V(xc)+E(xc)   XCENC  =      1209.74363605
  PAW double counting   =     49349.10590813   -51853.36283059
  entropy T*S    EENTRO =         0.00000000
  eigenvalues    EBANDS =     -1098.92722372
  atomic energy  EATOM  =     54470.19168079
  Solvation  Ediel_sol  =         0.00000000
  ---------------------------------------------------
  free energy    TOTEN  =      -471.92464626 eV

  energy without entropy =     -471.92464626  energy(sigma->0) =     -471.92464626


--------------------------------------------------------------------------------------------------------




--------------------------------------- Iteration      1(   5)  ---------------------------------------


     EDDAV:  cpu time   27.2039: real time   27.4992
 BZINTS: Fermi energy:  0.711972;580.000000 electrons
         Band energy:***********;  BLOECHL correction: -0.004331
       DOS:  cpu time    0.0400: real time    0.0400
    CHARGE:  cpu time    0.7989: real time    0.8020
    MIXING:  cpu time    0.0200: real time    0.0197
    --------------------------------------------
      LOOP:  cpu time   28.0627: real time   28.3610

 eigenvalue-minimisations  :  9321
 total energy-change (2. order) :-0.4529153E+00  (-0.4516775E+00)
 number of electron     580.0000040 magnetization     121.2062679
 augmentation part      300.6579062 magnetization      94.4871822

 DIPCOR: dipole corrections for dipol
 direction  3 min pos   237,
 dipolmoment           0.000000      0.000000     -0.000031 electrons x Angstroem
 Tr[quadrupol]    -10055.687204

 energy correction for charged system         0.000000 eV
 dipol+quadrupol energy correction           -0.000000 eV
 added-field ion interaction          0.000150 eV  (added to PSCEN)


 Broyden mixing:
  rms(total) = 0.80613E+01    rms(broyden)= 0.80611E+01
  rms(prec ) = 0.85132E+01
  weight for this iteration     100.00

 Free energy of the ion-electron system (eV)
  ---------------------------------------------------
  alpha Z        PSCENC =      1336.21311195
  Ewald energy   TEWEN  =    188215.90441694
  -Hartree energ DENC   =   -242100.79334582
  -exchange      EXHF   =         0.00000000
  -V(xc)+E(xc)   XCENC  =      1209.74363605
  PAW double counting   =     49349.10590813   -51853.36283059
  entropy T*S    EENTRO =         0.00000000
  eigenvalues    EBANDS =     -1099.38013903
  atomic energy  EATOM  =     54470.19168079
  Solvation  Ediel_sol  =         0.00000000
  ---------------------------------------------------
  free energy    TOTEN  =      -472.37756158 eV

  energy without entropy =     -472.37756158  energy(sigma->0) =     -472.37756158


--------------------------------------------------------------------------------------------------------




--------------------------------------- Iteration      1(   6)  ---------------------------------------


    POTLOK:  cpu time    0.2500: real time    0.2507
    SETDIJ:  cpu time    0.0180: real time    0.0180
    EDDIAG:  cpu time    3.5625: real time    3.5767
  RMM-DIIS:  cpu time   16.2685: real time   16.3463
    ORTHCH:  cpu time    0.6619: real time    0.6645
 BZINTS: Fermi energy: -0.922301;580.000000 electrons
         Band energy:***********;  BLOECHL correction: -0.012231
       DOS:  cpu time    0.0450: real time    0.0469
    CHARGE:  cpu time    0.7589: real time    0.7613
    MIXING:  cpu time    0.0100: real time    0.0098
    --------------------------------------------
      LOOP:  cpu time   21.5747: real time   21.6742

 eigenvalue-minimisations  :  8820
 total energy-change (2. order) :-0.9776099E+02  (-0.8000317E+02)
 number of electron     580.0000060 magnetization     119.4684329
 augmentation part      353.8042944 magnetization     102.6494626

 DIPCOR: dipole corrections for dipol
 direction  3 min pos   226,
 dipolmoment           0.000000      0.000000      0.088043 electrons x Angstroem
 Tr[quadrupol]    -10066.444946

 energy correction for charged system         0.000000 eV
 dipol+quadrupol energy correction           -0.000374 eV
 added-field ion interaction         -4.028568 eV  (added to PSCEN)


 Broyden mixing:
  rms(total) = 0.16934E+02    rms(broyden)= 0.16934E+02
  rms(prec ) = 0.19154E+02
  weight for this iteration     100.00

 eigenvalues of (default mixing * dielectric matrix)
  average eigenvalue GAMMA=   0.2045
  0.2045

 Free energy of the ion-electron system (eV)
  ---------------------------------------------------
  alpha Z        PSCENC =      1332.18402030
  Ewald energy   TEWEN  =    188215.90441694
  -Hartree energ DENC   =   -241117.45215007
  -exchange      EXHF   =         0.00000000
  -V(xc)+E(xc)   XCENC  =      1150.69584039
  PAW double counting   =     52365.22711046   -54654.75516832
  entropy T*S    EENTRO =         0.00000000
  eigenvalues    EBANDS =     -2332.13430190
  atomic energy  EATOM  =     54470.19168079
  Solvation  Ediel_sol  =         0.00000000
  ---------------------------------------------------
  free energy    TOTEN  =      -570.13855142 eV

  energy without entropy =     -570.13855142  energy(sigma->0) =     -570.13855142


--------------------------------------------------------------------------------------------------------




--------------------------------------- Iteration      1(   7)  ---------------------------------------


    POTLOK:  cpu time    0.2540: real time    0.2568
    SETDIJ:  cpu time    0.0190: real time    0.0179
    EDDIAG:  cpu time    3.6474: real time    3.6714
  RMM-DIIS:  cpu time   15.9706: real time   16.1193
    ORTHCH:  cpu time    0.6319: real time    0.6373
 BZINTS: Fermi energy: -1.529252;580.000000 electrons
         Band energy:***********;  BLOECHL correction: -0.006217
       DOS:  cpu time    0.0440: real time    0.0442
    CHARGE:  cpu time    0.7809: real time    0.7857
    MIXING:  cpu time    0.0050: real time    0.0047
    --------------------------------------------
      LOOP:  cpu time   21.3528: real time   21.5373

 eigenvalue-minimisations  :  8661
 total energy-change (2. order) : 0.6841137E+02  (-0.2591248E+02)
 number of electron     580.0000034 magnetization     116.9439202
 augmentation part      350.2008903 magnetization      97.2720061

 DIPCOR: dipole corrections for dipol
 direction  3 min pos   233,
 dipolmoment           0.000000      0.000000      0.324287 electrons x Angstroem
 Tr[quadrupol]    -10055.266898

 energy correction for charged system         0.000000 eV
 dipol+quadrupol energy correction           -0.005068 eV
 added-field ion interaction         -6.411042 eV  (added to PSCEN)


 Broyden mixing:
  rms(total) = 0.13918E+02    rms(broyden)= 0.13918E+02
  rms(prec ) = 0.16217E+02
  weight for this iteration     100.00

 eigenvalues of (default mixing * dielectric matrix)
  average eigenvalue GAMMA=   0.2274
  0.3165  0.1384

 Free energy of the ion-electron system (eV)
  ---------------------------------------------------
  alpha Z        PSCENC =      1329.79685237
  Ewald energy   TEWEN  =    188215.90441694
  -Hartree energ DENC   =   -240964.95776989
  -exchange      EXHF   =         0.00000000
  -V(xc)+E(xc)   XCENC  =      1156.38709671
  PAW double counting   =     53280.77042817   -55647.07874347
  entropy T*S    EENTRO =         0.00000000
  eigenvalues    EBANDS =     -2342.74113811
  atomic energy  EATOM  =     54470.19168079
  Solvation  Ediel_sol  =         0.00000000
  ---------------------------------------------------
  free energy    TOTEN  =      -501.72717650 eV

  energy without entropy =     -501.72717650  energy(sigma->0) =     -501.72717650


--------------------------------------------------------------------------------------------------------




--------------------------------------- Iteration      1(   8)  ---------------------------------------


    POTLOK:  cpu time    0.2430: real time    0.2457
    SETDIJ:  cpu time    0.0180: real time    0.0184
    EDDIAG:  cpu time    3.6055: real time    3.6368
  RMM-DIIS:  cpu time   16.0166: real time   16.1541
    ORTHCH:  cpu time    0.6329: real time    0.6384
 BZINTS: Fermi energy: -0.252864;580.000000 electrons
         Band energy:***********;  BLOECHL correction: -0.005196
       DOS:  cpu time    0.0420: real time    0.0423
    CHARGE:  cpu time    0.7829: real time    0.7859
    MIXING:  cpu time    0.0060: real time    0.0051
    --------------------------------------------
      LOOP:  cpu time   21.3468: real time   21.5268

 eigenvalue-minimisations  :  8664
 total energy-change (2. order) :-0.1411084E+02  (-0.1087170E+02)
 number of electron     580.0000039 magnetization     116.0509600
 augmentation part      335.3895281 magnetization      94.6238369

 DIPCOR: dipole corrections for dipol
 direction  3 min pos   242,
 dipolmoment           0.000000      0.000000     -1.495707 electrons x Angstroem
 Tr[quadrupol]    -10062.285012

 energy correction for charged system         0.000000 eV
 dipol+quadrupol energy correction           -0.107804 eV
 added-field ion interaction        -20.405273 eV  (added to PSCEN)


 Broyden mixing:
  rms(total) = 0.16743E+02    rms(broyden)= 0.16743E+02
  rms(prec ) = 0.22281E+02
  weight for this iteration     100.00

 eigenvalues of (default mixing * dielectric matrix)
  average eigenvalue GAMMA=   0.1917
  0.2421  0.2421  0.0910

 Free energy of the ion-electron system (eV)
  ---------------------------------------------------
  alpha Z        PSCENC =      1315.69988472
  Ewald energy   TEWEN  =    188215.90441694
  -Hartree energ DENC   =   -241410.03082949
  -exchange      EXHF   =         0.00000000
  -V(xc)+E(xc)   XCENC  =      1164.23566191
  PAW double counting   =     54542.25968240   -56999.53553905
  entropy T*S    EENTRO =         0.00000000
  eigenvalues    EBANDS =     -1814.56297782
  atomic energy  EATOM  =     54470.19168079
  Solvation  Ediel_sol  =         0.00000000
  ---------------------------------------------------
  free energy    TOTEN  =      -515.83801960 eV

  energy without entropy =     -515.83801960  energy(sigma->0) =     -515.83801960


--------------------------------------------------------------------------------------------------------




--------------------------------------- Iteration      1(   9)  ---------------------------------------


    POTLOK:  cpu time    0.2430: real time    0.2468
    SETDIJ:  cpu time    0.0180: real time    0.0181
    EDDIAG:  cpu time    3.5435: real time    3.5707
  RMM-DIIS:  cpu time   16.3355: real time   16.5370
    ORTHCH:  cpu time    0.6489: real time    0.6541
 BZINTS: Fermi energy: -0.179503;580.000000 electrons
         Band energy:***********;  BLOECHL correction: -0.005141
       DOS:  cpu time    0.0420: real time    0.0425
    CHARGE:  cpu time    0.7619: real time    0.7663
    MIXING:  cpu time    0.0050: real time    0.0052
    --------------------------------------------
      LOOP:  cpu time   21.5977: real time   21.8408

 eigenvalue-minimisations  :  8840
 total energy-change (2. order) : 0.6097473E+02  (-0.4801920E+01)
 number of electron     580.0000054 magnetization     114.8301475
 augmentation part      334.1021519 magnetization      91.7667205

 DIPCOR: dipole corrections for dipol
 direction  3 min pos   233,
 dipolmoment           0.000000      0.000000      1.285094 electrons x Angstroem
 Tr[quadrupol]    -10065.140715

 energy correction for charged system         0.000000 eV
 dipol+quadrupol energy correction           -0.079581 eV
 added-field ion interaction        -25.405833 eV  (added to PSCEN)


 Broyden mixing:
  rms(total) = 0.12866E+02    rms(broyden)= 0.12866E+02
  rms(prec ) = 0.16904E+02
  weight for this iteration     100.00

 eigenvalues of (default mixing * dielectric matrix)
  average eigenvalue GAMMA=   0.2311
  0.3830  0.3830  0.1031  0.0555

 Free energy of the ion-electron system (eV)
  ---------------------------------------------------
  alpha Z        PSCENC =      1310.72754676
  Ewald energy   TEWEN  =    188215.90441694
  -Hartree energ DENC   =   -241487.90039489
  -exchange      EXHF   =         0.00000000
  -V(xc)+E(xc)   XCENC  =      1164.39607268
  PAW double counting   =     54816.73997404   -57283.70879099
  entropy T*S    EENTRO =         0.00000000
  eigenvalues    EBANDS =     -1661.21379779
  atomic energy  EATOM  =     54470.19168079
  Solvation  Ediel_sol  =         0.00000000
  ---------------------------------------------------
  free energy    TOTEN  =      -454.86329245 eV

  energy without entropy =     -454.86329245  energy(sigma->0) =     -454.86329245


--------------------------------------------------------------------------------------------------------




--------------------------------------- Iteration      1(  10)  ---------------------------------------


    POTLOK:  cpu time    0.2420: real time    0.2452
    SETDIJ:  cpu time    0.0190: real time    0.0186
    EDDIAG:  cpu time    3.6314: real time    3.6711
  RMM-DIIS:  cpu time   15.9836: real time   16.0786
    ORTHCH:  cpu time    0.6319: real time    0.6358
 BZINTS: Fermi energy: -0.003298;580.000000 electrons
         Band energy:***********;  BLOECHL correction: -0.003185
       DOS:  cpu time    0.0430: real time    0.0428
    CHARGE:  cpu time    0.8009: real time    0.8048
    MIXING:  cpu time    0.0060: real time    0.0049
    --------------------------------------------
      LOOP:  cpu time   21.3578: real time   21.5019

 eigenvalue-minimisations  :  8706
 total energy-change (2. order) : 0.1233240E+02  (-0.6531954E+01)
 number of electron     580.0000045 magnetization     112.3394041
 augmentation part      337.2146135 magnetization      84.5015720

 DIPCOR: dipole corrections for dipol
 direction  3 min pos   244,
 dipolmoment           0.000000      0.000000     -0.977581 electrons x Angstroem
 Tr[quadrupol]    -10067.175751

 energy correction for charged system         0.000000 eV
 dipol+quadrupol energy correction           -0.046052 eV
 added-field ion interaction        -20.595176 eV  (added to PSCEN)


 Broyden mixing:
  rms(total) = 0.97117E+01    rms(broyden)= 0.97114E+01
  rms(prec ) = 0.12472E+02
  weight for this iteration     100.00

 eigenvalues of (default mixing * dielectric matrix)
  average eigenvalue GAMMA=   0.2983
  0.6175  0.6175  0.1042  0.1042  0.0480

 Free energy of the ion-electron system (eV)
  ---------------------------------------------------
  alpha Z        PSCENC =      1315.57173346
  Ewald energy   TEWEN  =    188215.90441694
  -Hartree energ DENC   =   -241501.77474428
  -exchange      EXHF   =         0.00000000
  -V(xc)+E(xc)   XCENC  =      1165.18526227
  PAW double counting   =     55121.28794592   -57593.97572367
  entropy T*S    EENTRO =         0.00000000
  eigenvalues    EBANDS =     -1634.92146827
  atomic energy  EATOM  =     54470.19168079
  Solvation  Ediel_sol  =         0.00000000
  ---------------------------------------------------
  free energy    TOTEN  =      -442.53089684 eV

  energy without entropy =     -442.53089684  energy(sigma->0) =     -442.53089684


--------------------------------------------------------------------------------------------------------




--------------------------------------- Iteration      1(  11)  ---------------------------------------


    POTLOK:  cpu time    0.2420: real time    0.2438
    SETDIJ:  cpu time    0.0190: real time    0.0185
    EDDIAG:  cpu time    3.6095: real time    3.6247
  RMM-DIIS:  cpu time   15.7876: real time   15.8739
    ORTHCH:  cpu time    0.6739: real time    0.6769
 BZINTS: Fermi energy:  0.309528;580.000000 electrons
         Band energy:***********;  BLOECHL correction: -0.013252
       DOS:  cpu time    0.0420: real time    0.0425
    CHARGE:  cpu time    0.7569: real time    0.7600
    MIXING:  cpu time    0.0050: real time    0.0050
    --------------------------------------------
      LOOP:  cpu time   21.1358: real time   21.2453

 eigenvalue-minimisations  :  8647
 total energy-change (2. order) :-0.7327319E+02  (-0.8778343E+01)
 number of electron     580.0000038 magnetization     108.6785230
 augmentation part      336.3371497 magnetization      84.2830641

 DIPCOR: dipole corrections for dipol
 direction  3 min pos   233,
 dipolmoment           0.000000      0.000000      0.984093 electrons x Angstroem
 Tr[quadrupol]    -10068.959888

 energy correction for charged system         0.000000 eV
 dipol+quadrupol energy correction           -0.046667 eV
 added-field ion interaction        -19.455149 eV  (added to PSCEN)


 Broyden mixing:
  rms(total) = 0.13905E+02    rms(broyden)= 0.13905E+02
  rms(prec ) = 0.17805E+02
  weight for this iteration     100.00

 eigenvalues of (default mixing * dielectric matrix)
  average eigenvalue GAMMA=   0.3109
  0.7493  0.7493  0.1126  0.1044  0.1044  0.0456

 Free energy of the ion-electron system (eV)
  ---------------------------------------------------
  alpha Z        PSCENC =      1316.71114476
  Ewald energy   TEWEN  =    188215.90441694
  -Hartree energ DENC   =   -241599.80789405
  -exchange      EXHF   =         0.00000000
  -V(xc)+E(xc)   XCENC  =      1171.28854377
  PAW double counting   =     55881.62857887   -58394.42667483
  entropy T*S    EENTRO =         0.00000000
  eigenvalues    EBANDS =     -1577.29387861
  atomic energy  EATOM  =     54470.19168079
  Solvation  Ediel_sol  =         0.00000000
  ---------------------------------------------------
  free energy    TOTEN  =      -515.80408236 eV

  energy without entropy =     -515.80408236  energy(sigma->0) =     -515.80408236


--------------------------------------------------------------------------------------------------------




--------------------------------------- Iteration      1(  12)  ---------------------------------------


    POTLOK:  cpu time    0.2420: real time    0.2442
    SETDIJ:  cpu time    0.0200: real time    0.0186
    EDDIAG:  cpu time    4.2664: real time    4.2806
  RMM-DIIS:  cpu time   15.3517: real time   15.4652
    ORTHCH:  cpu time    0.6769: real time    0.6812
 BZINTS: Fermi energy:  0.099786;580.000000 electrons
         Band energy:***********;  BLOECHL correction: -0.004142
       DOS:  cpu time    0.0420: real time    0.0420
    CHARGE:  cpu time    0.7759: real time    0.7763
    MIXING:  cpu time    0.0050: real time    0.0052
    --------------------------------------------
      LOOP:  cpu time   21.3797: real time   21.5132

 eigenvalue-minimisations  :  8460
 total energy-change (2. order) : 0.1238283E+03  (-0.5283871E+01)
 number of electron     580.0000048 magnetization     107.7962367
 augmentation part      334.8426791 magnetization      78.5039977

 DIPCOR: dipole corrections for dipol
 direction  3 min pos   245,
 dipolmoment           0.000000      0.000000     -0.303064 electrons x Angstroem
 Tr[quadrupol]    -10071.446400

 energy correction for charged system         0.000000 eV
 dipol+quadrupol energy correction           -0.004426 eV
 added-field ion interaction         -7.509921 eV  (added to PSCEN)


 Broyden mixing:
  rms(total) = 0.76299E+01    rms(broyden)= 0.76296E+01
  rms(prec ) = 0.86720E+01
  weight for this iteration     100.00

 eigenvalues of (default mixing * dielectric matrix)
  average eigenvalue GAMMA=   0.3021
  0.9235  0.6145  0.1683  0.1683  0.0974  0.0974  0.0454

 Free energy of the ion-electron system (eV)
  ---------------------------------------------------
  alpha Z        PSCENC =      1328.69861441
  Ewald energy   TEWEN  =    188215.90441694
  -Hartree energ DENC   =   -241667.12540120
  -exchange      EXHF   =         0.00000000
  -V(xc)+E(xc)   XCENC  =      1180.87341080
  PAW double counting   =     56793.22482698   -59346.31366356
  entropy T*S    EENTRO =         0.00000000
  eigenvalues    EBANDS =     -1367.42965760
  atomic energy  EATOM  =     54470.19168079
  Solvation  Ediel_sol  =         0.00000000
  ---------------------------------------------------
  free energy    TOTEN  =      -391.97577244 eV

  energy without entropy =     -391.97577244  energy(sigma->0) =     -391.97577244


--------------------------------------------------------------------------------------------------------




--------------------------------------- Iteration      1(  13)  ---------------------------------------


    POTLOK:  cpu time    0.2420: real time    0.2448
    SETDIJ:  cpu time    0.0190: real time    0.0183
    EDDIAG:  cpu time    3.6414: real time    3.6610
  RMM-DIIS:  cpu time   15.5246: real time   15.6409
    ORTHCH:  cpu time    0.6339: real time    0.6385
 BZINTS: Fermi energy:  0.020634;580.000000 electrons
         Band energy:***********;  BLOECHL correction: -0.002297
       DOS:  cpu time    0.0420: real time    0.0418
    CHARGE:  cpu time    0.7509: real time    0.7555
    MIXING:  cpu time    0.0060: real time    0.0056
    --------------------------------------------
      LOOP:  cpu time   20.8598: real time   21.0064

 eigenvalue-minimisations  :  8544
 total energy-change (2. order) : 0.1613165E+02  (-0.2404112E+01)
 number of electron     580.0000048 magnetization     107.1743863
 augmentation part      336.4018625 magnetization      76.7458038

 DIPCOR: dipole corrections for dipol
 direction  3 min pos   233,
 dipolmoment           0.000000      0.000000      0.142033 electrons x Angstroem
 Tr[quadrupol]    -10071.028260

 energy correction for charged system         0.000000 eV
 dipol+quadrupol energy correction           -0.000972 eV
 added-field ion interaction         -2.807937 eV  (added to PSCEN)


 Broyden mixing:
  rms(total) = 0.58479E+01    rms(broyden)= 0.58477E+01
  rms(prec ) = 0.66732E+01
  weight for this iteration     100.00

 eigenvalues of (default mixing * dielectric matrix)
  average eigenvalue GAMMA=   0.2975
  1.0644  0.3936  0.3936  0.1821  0.0454  0.0960  0.0960  0.1088

 Free energy of the ion-electron system (eV)
  ---------------------------------------------------
  alpha Z        PSCENC =      1333.40405194
  Ewald energy   TEWEN  =    188215.90441694
  -Hartree energ DENC   =   -241647.43310129
  -exchange      EXHF   =         0.00000000
  -V(xc)+E(xc)   XCENC  =      1180.03672711
  PAW double counting   =     56987.53010165   -59546.20635377
  entropy T*S    EENTRO =         0.00000000
  eigenvalues    EBANDS =     -1369.27164147
  atomic energy  EATOM  =     54470.19168079
  Solvation  Ediel_sol  =         0.00000000
  ---------------------------------------------------
  free energy    TOTEN  =      -375.84411809 eV

  energy without entropy =     -375.84411809  energy(sigma->0) =     -375.84411809


--------------------------------------------------------------------------------------------------------




--------------------------------------- Iteration      1(  14)  ---------------------------------------


    POTLOK:  cpu time    0.2410: real time    0.2456
    SETDIJ:  cpu time    0.0190: real time    0.0188
    EDDIAG:  cpu time    3.6444: real time    3.6715
  RMM-DIIS:  cpu time   15.5276: real time   15.6737
    ORTHCH:  cpu time    0.6319: real time    0.6376
 BZINTS: Fermi energy:  0.067840;580.000000 electrons
         Band energy:***********;  BLOECHL correction: -0.011162
       DOS:  cpu time    0.0450: real time    0.0449
    CHARGE:  cpu time    0.7799: real time    0.7840
    MIXING:  cpu time    0.0060: real time    0.0054
    --------------------------------------------
      LOOP:  cpu time   20.8948: real time   21.0816

 eigenvalue-minimisations  :  8555
 total energy-change (2. order) :-0.3079295E+01  (-0.1202567E+01)
 number of electron     580.0000040 magnetization     106.7463095
 augmentation part      335.3173954 magnetization      77.6059228

 DIPCOR: dipole corrections for dipol
 direction  3 min pos   244,
 dipolmoment           0.000000      0.000000     -0.230661 electrons x Angstroem
 Tr[quadrupol]    -10070.990071

 energy correction for charged system         0.000000 eV
 dipol+quadrupol energy correction           -0.002564 eV
 added-field ion interaction         -4.859457 eV  (added to PSCEN)


 Broyden mixing:
  rms(total) = 0.63477E+01    rms(broyden)= 0.63476E+01
  rms(prec ) = 0.71840E+01
  weight for this iteration     100.00

 eigenvalues of (default mixing * dielectric matrix)
  average eigenvalue GAMMA=   0.2833
  1.0965  0.4108  0.4108  0.1895  0.1216  0.0976  0.0976  0.0453  0.0799

 Free energy of the ion-electron system (eV)
  ---------------------------------------------------
  alpha Z        PSCENC =      1331.35094036
  Ewald energy   TEWEN  =    188215.90441694
  -Hartree energ DENC   =   -241676.48291233
  -exchange      EXHF   =         0.00000000
  -V(xc)+E(xc)   XCENC  =      1177.61963555
  PAW double counting   =     57165.67015742   -59734.69277106
  entropy T*S    EENTRO =         0.00000000
  eigenvalues    EBANDS =     -1328.48456083
  atomic energy  EATOM  =     54470.19168079
  Solvation  Ediel_sol  =         0.00000000
  ---------------------------------------------------
  free energy    TOTEN  =      -378.92341316 eV

  energy without entropy =     -378.92341316  energy(sigma->0) =     -378.92341316


--------------------------------------------------------------------------------------------------------




--------------------------------------- Iteration      1(  15)  ---------------------------------------


    POTLOK:  cpu time    0.2430: real time    0.2448
    SETDIJ:  cpu time    0.0190: real time    0.0184
    EDDIAG:  cpu time    3.6314: real time    3.6513
  RMM-DIIS:  cpu time   15.5976: real time   15.7531
    ORTHCH:  cpu time    0.6809: real time    0.6853
 BZINTS: Fermi energy:  0.030645;580.000000 electrons
         Band energy:***********;  BLOECHL correction: -0.001570
       DOS:  cpu time    0.0430: real time    0.0427
    CHARGE:  cpu time    0.7489: real time    0.7533
    MIXING:  cpu time    0.0060: real time    0.0059
    --------------------------------------------
      LOOP:  cpu time   20.9698: real time   21.1547

 eigenvalue-minimisations  :  8574
 total energy-change (2. order) : 0.2329727E+01  (-0.9062237E+00)
 number of electron     580.0000046 magnetization     106.5892211
 augmentation part      335.5989170 magnetization      76.0826050

 DIPCOR: dipole corrections for dipol
 direction  3 min pos   233,
 dipolmoment           0.000000      0.000000      0.074222 electrons x Angstroem
 Tr[quadrupol]    -10071.407916

 energy correction for charged system         0.000000 eV
 dipol+quadrupol energy correction           -0.000265 eV
 added-field ion interaction         -1.467337 eV  (added to PSCEN)


 Broyden mixing:
  rms(total) = 0.38363E+01    rms(broyden)= 0.38362E+01
  rms(prec ) = 0.41915E+01
  weight for this iteration     100.00

 eigenvalues of (default mixing * dielectric matrix)
  average eigenvalue GAMMA=   0.2800
  1.1001  0.4103  0.4103  0.3012  0.0454  0.1346  0.1030  0.1030  0.1081  0.0836

 Free energy of the ion-electron system (eV)
  ---------------------------------------------------
  alpha Z        PSCENC =      1334.74535932
  Ewald energy   TEWEN  =    188215.90441694
  -Hartree energ DENC   =   -241697.30248399
  -exchange      EXHF   =         0.00000000
  -V(xc)+E(xc)   XCENC  =      1176.65295477
  PAW double counting   =     57272.07425597   -59844.69441661
  entropy T*S    EENTRO =         0.00000000
  eigenvalues    EBANDS =     -1304.16545381
  atomic energy  EATOM  =     54470.19168079
  Solvation  Ediel_sol  =         0.00000000
  ---------------------------------------------------
  free energy    TOTEN  =      -376.59368663 eV

  energy without entropy =     -376.59368663  energy(sigma->0) =     -376.59368663


--------------------------------------------------------------------------------------------------------




--------------------------------------- Iteration      1(  16)  ---------------------------------------


    POTLOK:  cpu time    0.2440: real time    0.2449
    SETDIJ:  cpu time    0.0180: real time    0.0185
    EDDIAG:  cpu time    3.6624: real time    3.6893
  RMM-DIIS:  cpu time   15.4297: real time   15.5210
    ORTHCH:  cpu time    0.6319: real time    0.6340
 BZINTS: Fermi energy:  0.089057;580.000000 electrons
         Band energy:***********;  BLOECHL correction: -0.005262
       DOS:  cpu time    0.0400: real time    0.0404
    CHARGE:  cpu time    0.7519: real time    0.7537
    MIXING:  cpu time    0.0060: real time    0.0058
    --------------------------------------------
      LOOP:  cpu time   20.7838: real time   20.9076

 eigenvalue-minimisations  :  8510
 total energy-change (2. order) :-0.4729189E+01  (-0.5017088E+00)
 number of electron     580.0000046 magnetization     106.2196284
 augmentation part      334.8361462 magnetization      77.5020746

 DIPCOR: dipole corrections for dipol
 direction  3 min pos   227,
 dipolmoment           0.000000      0.000000      0.245161 electrons x Angstroem
 Tr[quadrupol]    -10071.810681

 energy correction for charged system         0.000000 eV
 dipol+quadrupol energy correction           -0.002896 eV
 added-field ion interaction        -10.307666 eV  (added to PSCEN)


 Broyden mixing:
  rms(total) = 0.35786E+01    rms(broyden)= 0.35785E+01
  rms(prec ) = 0.39815E+01
  weight for this iteration     100.00

 eigenvalues of (default mixing * dielectric matrix)
  average eigenvalue GAMMA=   0.3024
  1.1298  0.5250  0.5250  0.3762  0.1677  0.1677  0.1158  0.0974  0.0974  0.0453
  0.0791

 Free energy of the ion-electron system (eV)
  ---------------------------------------------------
  alpha Z        PSCENC =      1325.90239879
  Ewald energy   TEWEN  =    188215.90441694
  -Hartree energ DENC   =   -241726.59318595
  -exchange      EXHF   =         0.00000000
  -V(xc)+E(xc)   XCENC  =      1176.08147025
  PAW double counting   =     57389.28219832   -59966.49821970
  entropy T*S    EENTRO =         0.00000000
  eigenvalues    EBANDS =     -1265.59363545
  atomic energy  EATOM  =     54470.19168079
  Solvation  Ediel_sol  =         0.00000000
  ---------------------------------------------------
  free energy    TOTEN  =      -381.32287601 eV

  energy without entropy =     -381.32287601  energy(sigma->0) =     -381.32287601


--------------------------------------------------------------------------------------------------------




--------------------------------------- Iteration      1(  17)  ---------------------------------------


    POTLOK:  cpu time    0.2770: real time    0.2775
    SETDIJ:  cpu time    0.0190: real time    0.0185
    EDDIAG:  cpu time    3.6124: real time    3.6243
  RMM-DIIS:  cpu time   15.5986: real time   15.6903
    ORTHCH:  cpu time    0.6349: real time    0.6370
 BZINTS: Fermi energy:  0.137236;580.000000 electrons
         Band energy:***********;  BLOECHL correction: -0.004766
       DOS:  cpu time    0.0420: real time    0.0424
    CHARGE:  cpu time    0.7729: real time    0.7745
    MIXING:  cpu time    0.0060: real time    0.0058
    --------------------------------------------
      LOOP:  cpu time   20.9628: real time   21.0703

 eigenvalue-minimisations  :  8518
 total energy-change (2. order) :-0.5129893E+01  (-0.4768031E+00)
 number of electron     580.0000048 magnetization     105.8006994
 augmentation part      334.9185604 magnetization      77.7052656

 DIPCOR: dipole corrections for dipol
 direction  3 min pos   224,
 dipolmoment           0.000000      0.000000      0.317559 electrons x Angstroem
 Tr[quadrupol]    -10072.582865

 energy correction for charged system         0.000000 eV
 dipol+quadrupol energy correction           -0.004859 eV
 added-field ion interaction        -16.888382 eV  (added to PSCEN)


 Broyden mixing:
  rms(total) = 0.36081E+01    rms(broyden)= 0.36081E+01
  rms(prec ) = 0.40292E+01
  weight for this iteration     100.00

 eigenvalues of (default mixing * dielectric matrix)
  average eigenvalue GAMMA=   0.3209
  1.1760  0.6530  0.6530  0.3720  0.2961  0.1686  0.0454  0.0986  0.0986  0.1191
  0.0912  0.0798

 Free energy of the ion-electron system (eV)
  ---------------------------------------------------
  alpha Z        PSCENC =      1319.31972044
  Ewald energy   TEWEN  =    188215.90441694
  -Hartree energ DENC   =   -241756.43280362
  -exchange      EXHF   =         0.00000000
  -V(xc)+E(xc)   XCENC  =      1175.34312036
  PAW double counting   =     57558.55750106   -60138.95223450
  entropy T*S    EENTRO =         0.00000000
  eigenvalues    EBANDS =     -1230.38417064
  atomic energy  EATOM  =     54470.19168079
  Solvation  Ediel_sol  =         0.00000000
  ---------------------------------------------------
  free energy    TOTEN  =      -386.45276918 eV

  energy without entropy =     -386.45276918  energy(sigma->0) =     -386.45276918


--------------------------------------------------------------------------------------------------------




--------------------------------------- Iteration      1(  18)  ---------------------------------------


    POTLOK:  cpu time    0.2450: real time    0.2459
    SETDIJ:  cpu time    0.0190: real time    0.0183
[...]
   -.104E+03 -.382E+02 0.272E+04   0.104E+03 0.382E+02 -.271E+04   -.224E+00 0.802E-01 -.113E+01   -.654E-03 0.264E-02 -.943E-01
   -.820E+02 -.232E+02 -.272E+04   0.823E+02 0.235E+02 0.271E+04   -.297E+00 -.245E+00 0.836E+00   0.129E-01 -.490E-03 -.962E-01
   0.812E+02 -.308E+01 0.273E+04   -.815E+02 0.297E+01 -.273E+04   0.236E+00 0.108E+00 -.118E+01   -.646E-02 0.319E-02 -.935E-01
   0.934E+02 0.310E+02 -.272E+04   -.939E+02 -.312E+02 0.272E+04   0.538E+00 0.256E+00 0.150E+01   -.760E-02 0.109E-02 -.934E-01
   0.871E+02 -.566E+02 0.924E+03   -.872E+02 0.569E+02 -.924E+03   0.160E+00 -.297E+00 -.434E+00   -.849E-02 0.730E-02 -.325E+00
   0.524E+02 -.567E+02 -.882E+03   -.524E+02 0.568E+02 0.882E+03   -.458E-01 -.180E+00 0.154E+00   -.106E-01 0.465E-02 -.324E+00
   0.583E+01 0.467E+01 0.884E+03   -.578E+01 -.470E+01 -.883E+03   -.548E-01 0.214E-03 -.316E+00   0.199E-03 0.264E-02 -.329E+00
   -.990E+02 0.158E+02 -.849E+03   0.992E+02 -.157E+02 0.849E+03   -.201E+00 -.663E-01 0.248E+00   0.109E-01 0.136E-02 -.329E+00
   -.154E+02 -.182E+02 0.269E+04   0.153E+02 0.183E+02 -.269E+04   0.497E-01 -.193E-01 -.152E+01   -.103E-02 -.236E-02 -.935E-01
   -.109E+02 -.152E+02 -.272E+04   0.108E+02 0.153E+02 0.272E+04   0.481E-01 -.807E-01 0.125E+01   -.118E-02 0.317E-02 -.987E-01
   -.109E+03 -.324E+02 0.926E+03   0.109E+03 0.326E+02 -.925E+03   -.242E+00 -.109E+00 -.475E+00   0.646E-02 -.418E-03 -.327E+00
   0.135E+03 -.714E+01 0.266E+04   -.136E+03 0.701E+01 -.265E+04   0.613E+00 0.785E-04 -.156E+01   -.104E-01 -.303E-02 -.895E-01
   0.116E+03 -.517E+01 -.268E+04   -.116E+03 0.506E+01 0.267E+04   0.699E+00 0.130E+00 0.109E+01   -.691E-02 -.211E-02 -.999E-01
   0.125E+02 -.957E+01 -.881E+03   -.124E+02 0.963E+01 0.881E+03   -.959E-01 -.239E-01 0.492E+00   -.390E-02 -.186E-02 -.325E+00
   0.221E+02 -.802E+00 -.837E+03   -.222E+02 0.825E+00 0.837E+03   0.113E+00 -.152E-01 0.342E+00   0.974E-03 -.107E-02 -.334E+00
   -.390E+02 -.812E+01 -.807E+03   0.390E+02 0.810E+01 0.807E+03   0.169E-01 0.263E-01 0.313E+00   0.923E-02 0.346E-02 -.330E+00
   -.666E+02 0.828E+02 -.857E+03   0.666E+02 -.830E+02 0.857E+03   0.339E-02 0.260E+00 0.456E+00   0.387E-02 -.931E-02 -.326E+00
   0.107E+03 -.560E+02 -.749E+03   -.107E+03 0.560E+02 0.749E+03   0.218E+00 -.268E-02 0.487E+00   -.815E-02 0.392E-02 -.332E+00
   0.207E+02 0.834E+02 0.213E+04   -.210E+02 -.837E+02 -.212E+04   0.281E+00 0.376E+00 -.286E+01   -.301E-02 -.878E-02 -.749E-01
   -.553E+01 0.540E+02 -.218E+04   0.529E+01 -.544E+02 0.217E+04   0.241E+00 0.322E+00 0.339E+01   0.270E-02 -.293E-02 -.710E-01
   -.128E+00 -.147E+02 0.702E+03   0.205E+00 0.146E+02 -.701E+03   -.144E+00 -.908E-02 -.105E+01   0.748E-03 0.206E-02 -.249E+00
   0.113E+02 -.231E+02 0.218E+04   -.112E+02 0.230E+02 -.218E+04   0.882E-01 0.106E+00 -.266E+01   -.330E-02 0.492E-02 -.732E-01
   0.232E+02 -.497E+02 -.220E+04   -.231E+02 0.498E+02 0.220E+04   -.131E+00 -.139E-01 0.289E+01   -.878E-02 -.629E-03 -.721E-01
   0.784E+02 -.457E+02 -.636E+03   -.788E+02 0.458E+02 0.636E+03   0.398E+00 -.104E+00 0.513E+00   -.638E-03 0.761E-02 -.256E+00
   0.204E+02 0.613E+02 0.753E+03   -.206E+02 -.615E+02 -.752E+03   0.180E+00 0.230E+00 -.279E+00   -.847E-03 -.276E-03 -.258E+00
   -.401E+02 0.293E+02 -.642E+03   0.402E+02 -.295E+02 0.642E+03   -.119E+00 0.302E+00 0.390E+00   0.383E-02 0.284E-03 -.261E+00
   -.636E+02 -.762E+02 0.210E+04   0.639E+02 0.770E+02 -.210E+04   -.375E+00 -.633E+00 -.258E+01   0.609E-02 0.713E-02 -.729E-01
   -.492E+02 -.396E+02 -.220E+04   0.496E+02 0.405E+02 0.220E+04   -.440E+00 -.880E+00 0.321E+01   0.280E-02 -.400E-02 -.661E-01
   -.153E+03 -.246E+02 0.709E+03   0.153E+03 0.248E+02 -.708E+03   -.670E+00 -.234E+00 -.534E+00   0.428E-02 0.459E-02 -.255E+00
   0.849E+02 -.457E+02 0.215E+04   -.852E+02 0.458E+02 -.215E+04   0.402E+00 -.872E-01 -.287E+01   -.803E-03 0.557E-02 -.679E-01
   0.398E+02 -.118E+02 -.216E+04   -.402E+02 0.121E+02 0.216E+04   0.312E+00 -.334E+00 0.233E+01   -.680E-02 -.135E-02 -.795E-01
   0.725E+02 -.667E+02 0.750E+03   -.730E+02 0.671E+02 -.749E+03   0.567E+00 -.431E+00 0.570E-01   0.203E-02 0.768E-02 -.253E+00
   -.139E+02 -.128E+02 -.654E+03   0.138E+02 0.127E+02 0.654E+03   0.132E+00 0.626E-01 0.733E+00   0.616E-02 0.528E-02 -.253E+00
   0.632E+02 0.630E+01 -.727E+03   -.634E+02 -.619E+01 0.727E+03   0.217E+00 -.936E-01 0.779E-01   -.660E-02 0.441E-03 -.261E+00
   -.118E+03 0.297E+02 0.213E+04   0.118E+03 -.299E+02 -.213E+04   -.518E+00 0.187E-02 -.245E+01   0.466E-02 -.914E-03 -.733E-01
   -.780E+02 0.399E+02 -.220E+04   0.785E+02 -.402E+02 0.220E+04   -.529E+00 0.330E+00 0.279E+01   0.693E-02 -.188E-02 -.717E-01
   0.160E+02 0.343E+02 0.210E+04   -.164E+02 -.347E+02 -.210E+04   0.368E+00 0.268E+00 -.281E+01   0.543E-02 -.488E-03 -.716E-01
   -.785E+01 0.189E+02 -.218E+04   0.763E+01 -.193E+02 0.218E+04   0.211E+00 0.427E+00 0.244E+01   -.182E-02 -.460E-02 -.759E-01
   -.600E+02 0.178E+02 0.756E+03   0.600E+02 -.178E+02 -.756E+03   -.101E+00 -.733E-01 0.345E+00   0.601E-02 -.264E-03 -.257E+00
   -.111E+03 0.176E+02 -.720E+03   0.112E+03 -.177E+02 0.720E+03   -.538E+00 0.123E+00 0.190E+00   0.131E-01 -.867E-03 -.258E+00
   0.614E+02 -.311E+02 0.748E+03   -.615E+02 0.313E+02 -.747E+03   0.133E+00 -.163E+00 -.618E+00   -.460E-02 -.577E-03 -.260E+00
   0.926E+02 -.651E+02 0.725E+03   -.930E+02 0.652E+02 -.725E+03   0.242E+00 -.231E+00 -.688E+00   -.715E-02 0.428E-03 -.260E+00
   0.784E+02 -.247E+02 -.669E+03   -.787E+02 0.248E+02 0.668E+03   0.252E+00 -.969E-01 0.445E+00   -.103E-01 0.888E-03 -.263E+00
   0.431E+02 -.395E+02 0.741E+03   -.434E+02 0.397E+02 -.740E+03   0.349E+00 -.189E+00 -.504E+00   -.149E-02 -.122E-02 -.255E+00
   -.597E+02 0.381E+02 0.757E+03   0.600E+02 -.384E+02 -.757E+03   -.385E+00 0.374E+00 -.216E+00   0.307E-02 -.618E-02 -.258E+00
   -.302E+02 0.939E+02 0.747E+03   0.306E+02 -.944E+02 -.747E+03   -.313E+00 0.478E+00 -.124E+00   0.406E-02 -.960E-02 -.262E+00
   0.462E+02 0.139E+02 0.716E+03   -.465E+02 -.140E+02 -.715E+03   0.275E+00 0.363E-01 -.665E+00   -.564E-02 -.499E-02 -.259E+00
   0.273E+01 0.187E+02 -.695E+03   -.261E+01 -.184E+02 0.694E+03   -.871E-01 -.274E+00 0.469E+00   -.335E-02 -.621E-02 -.261E+00
 -----------------------------------------------------------------------------------------------
   -.101E+01 -.142E+00 0.134E+02   -.413E-12 0.497E-13 0.568E-11   0.101E+01 0.139E+00 -.137E+01   -.209E-02 0.137E-02 -.120E+02
 
 
 POSITION                                       TOTAL-FORCE (eV/Angst)
 -----------------------------------------------------------------------------------
     10.08740      0.00562      2.00000         0.026573      0.028569      0.258109
      0.01723      0.00434      8.13200         0.000106      0.001786      0.022395
     -2.53339      8.73512      2.03255        -0.088827     -0.084559      0.254294
     -2.53152      8.73768      8.15335         0.026977      0.016564     -0.006451
      5.03058      0.01686      2.02726         0.017847     -0.055804      0.384204
      0.03375      8.73175      8.13039        -0.011685     -0.012085      0.004282
      8.81557      2.19268      2.03016         0.112336     -0.080584      0.299368
     -1.26052      2.18519      8.15024         0.009583      0.008253      0.006550
      1.26036      2.17683      2.01409        -0.192613      0.105531      0.273080
      1.24957      2.19248      8.17598        -0.016924      0.017666     -0.004345
      2.54422      1.44455      4.08529         0.042170      0.056473     -0.051662
      6.28789      2.21111      2.05636        -0.029782      0.057870      0.280665
      6.30413      2.19748      8.16656        -0.000685      0.004603      0.001262
      3.80257      0.73488      6.13907        -0.003562      0.023059     -0.025287
      7.56604      1.45101      4.12460        -0.010817     -0.070723     -0.360729
      6.33032      0.73278      6.15439        -0.021117      0.003004      0.002679
      7.57051      4.36576      2.05350        -0.002290      0.056725      0.313639
      7.57103      4.36330      8.15802         0.015118     -0.001086      0.016225
      5.03817      4.36229      2.03237        -0.074353      0.004704      0.274483
      5.04447      4.37529      8.18507        -0.009964     -0.000802      0.011640
      3.80277      3.61435      4.09537        -0.018673      0.018138     -0.073614
      2.56828      2.91275      6.15070        -0.005847     -0.006611     -0.016642
      6.30075      3.62795      4.12919        -0.005325     -0.029951     -0.162792
      7.59406      2.92229      6.16202         0.002363      0.007492      0.014525
      6.29425      6.55133      2.04330        -0.099701      0.056948      0.181415
      6.31139      6.53888      8.13384        -0.007457      0.003134      0.033687
     -2.53418      5.82300      4.10902         0.109797      0.037084     -0.087234
      3.81389      6.57546      2.02350         0.013929     -0.124710      0.202291
      3.81099      6.56162      8.16556         0.006374      0.012344      0.021549
      1.27603      5.09146      6.19940        -0.000440      0.029977     -0.028928
      6.29949      5.11635      6.15004        -0.001551      0.006291     -0.006622
     -2.51443      7.29907      6.13661         0.011322      0.003983     -0.020725
      0.01390      7.26127      6.18867         0.002863      0.007928     -0.007493
      5.07676      7.30313      6.12459         0.006739      0.000346      0.001822
      7.54405      0.03969      2.05505         0.024234      0.066845      0.151903
      7.57306      0.01705      8.22212         0.003675     -0.037032     -0.003791
      0.00095      1.48112      4.03255        -0.066182     -0.038168     -0.259234
      3.74186      2.14689      2.02455         0.228273      0.023144      0.025138
      3.79505      2.10455      8.21260         0.001470      0.035119     -0.006388
      1.31334      0.74189      6.17401         0.016515     -0.003970      0.000430
      5.08151      1.48100      4.08150        -0.000391      0.046172     -0.315037
      8.83425      0.74662      6.14701        -0.004585      0.030605      0.019567
     -0.02406      4.34464      2.06751        -0.051736      0.131138     -0.180128
     -0.04381      4.36878      8.32196        -0.005370      0.014498     -0.007046
     -1.34500      3.63090      4.10833         0.065003     -0.011204     -0.213811
      2.55702      4.37025      2.00936         0.092520      0.047803      0.093715
      2.55810      4.35666      8.19222        -0.008097      0.012739     -0.024103
      1.32920      3.63133      4.09860         0.070349     -0.073256     -0.015748
      0.02934      2.97248      6.18797         0.005291      0.014491      0.004026
      5.09121      2.94162      6.19874         0.003540      0.012232     -0.009617
     -1.32764      6.58396      2.06192         0.101722     -0.186023      0.029263
     -1.31016      6.59750      8.23418        -0.020406      0.016184      0.013040
      1.24700      6.55932      2.04429        -0.072502     -0.136843      0.067287
      1.25574      6.49347      8.24062        -0.015467     -0.017505     -0.022079
      0.00782      5.79603      4.14909        -0.067353     -0.038656     -0.012749
     -1.28408      5.12042      6.22078         0.018682      0.011329     -0.003725
      2.54188      5.84536      4.09542        -0.015639      0.020541     -0.133525
      5.06524      5.76239      4.09008        -0.163365     -0.092488     -0.301204
      3.78797      5.11856      6.16210        -0.002163     -0.001660     -0.010855
     -3.78540      7.99724      4.04874         0.060952      0.076148     -0.258497
     -1.25221      8.01099      4.12545        -0.069284      0.022648     -0.206755
      1.24224      8.03556      4.14192         0.089622     -0.052275     -0.158003
      3.80728      7.99919      4.08829        -0.042794      0.001067     -0.253682
      2.52325      7.29441      6.22192         0.021004      0.004819     -0.014033
 -----------------------------------------------------------------------------------
    total drift:                               -0.001224     -0.001820      0.032300


--------------------------------------------------------------------------------------------------------



  FREE ENERGIE OF THE ION-ELECTRON SYSTEM (eV)
  ---------------------------------------------------
  free  energy   TOTEN  =      -412.31621682 eV

  energy  without entropy=     -412.31621682  energy(sigma->0) =     -412.31621682
 


--------------------------------------------------------------------------------------------------------


    POTLOK:  cpu time    0.2670: real time    0.2700


--------------------------------------------------------------------------------------------------------


     LOOP+:  cpu time 1710.5420: real time 1724.8659
    4ORBIT:  cpu time    0.0000: real time    0.0000
 


 total charge     
 
# of ion       s       p       d       tot
------------------------------------------
    1        0.492   0.371   8.308   9.171
    2        0.495   0.384   8.314   9.192
    3        0.499   0.385   8.319   9.203
    4        0.500   0.386   8.333   9.219
    5        0.503   0.394   8.308   9.205
    6        0.501   0.405   8.314   9.220
    7        0.496   0.377   8.316   9.189
    8        0.503   0.393   8.321   9.217
    9        0.498   0.387   8.311   9.196
   10        0.502   0.394   8.314   9.210
   11        0.506   0.507   8.319   9.331
   12        0.490   0.375   8.318   9.183
   13        0.498   0.386   8.321   9.205
   14        0.503   0.504   8.316   9.322
   15        0.511   0.513   8.326   9.349
   16        0.508   0.511   8.323   9.342
   17        0.490   0.373   8.320   9.183
   18        0.500   0.394   8.312   9.207
   19        0.489   0.372   8.312   9.173
   20        0.501   0.385   8.318   9.204
   21        0.513   0.519   8.317   9.349
   22        0.508   0.515   8.313   9.336
   23        0.504   0.501   8.331   9.336
   24        0.506   0.510   8.333   9.349
   25        0.495   0.378   8.313   9.186
   26        0.487   0.378   8.318   9.184
   27        0.506   0.508   8.324   9.338
   28        0.497   0.380   8.315   9.191
   29        0.504   0.391   8.322   9.216
   30        0.517   0.530   8.313   9.361
   31        0.503   0.498   8.337   9.337
   32        0.503   0.504   8.327   9.333
   33        0.509   0.514   8.321   9.345
   34        0.505   0.504   8.332   9.341
   35        0.458   0.380   6.136   6.974
   36        0.463   0.379   6.138   6.981
   37        0.466   0.488   6.188   7.143
   38        0.463   0.388   6.128   6.979
   39        0.461   0.385   6.114   6.960
   40        0.470   0.496   6.160   7.127
   41        0.473   0.498   6.187   7.159
   42        0.471   0.502   6.191   7.164
   43        0.466   0.391   6.151   7.009
   44        0.465   0.380   6.147   6.992
   45        0.473   0.501   6.181   7.156
   46        0.464   0.385   6.147   6.996
   47        0.464   0.395   6.155   7.014
   48        0.470   0.494   6.200   7.164
   49        0.471   0.499   6.193   7.164
   50        0.471   0.502   6.170   7.143
   51        0.462   0.388   6.138   6.989
   52        0.466   0.391   6.132   6.990
   53        0.462   0.386   6.154   7.002
   54        0.467   0.394   6.156   7.017
   55        0.473   0.504   6.205   7.182
   56        0.471   0.503   6.195   7.169
   57        0.476   0.502   6.224   7.202
   58        0.471   0.497   6.185   7.153
   59        0.475   0.501   6.209   7.185
   60        0.468   0.491   6.182   7.142
   61        0.471   0.495   6.188   7.154
   62        0.477   0.506   6.210   7.194
   63        0.471   0.501   6.201   7.173
   64        0.475   0.507   6.213   7.195
--------------------------------------------------
tot         31.101  28.454 468.038 527.594
 


 magnetization (x)
 
# of ion       s       p       d       tot
------------------------------------------
    1       -0.022  -0.029   0.723   0.672
    2       -0.018  -0.029   0.728   0.682
    3       -0.020  -0.032   0.686   0.633
    4       -0.018  -0.025   0.658   0.615
    5       -0.029  -0.044   0.729   0.657
    6       -0.021  -0.041   0.714   0.652
    7       -0.020  -0.027   0.702   0.654
    8       -0.018  -0.026   0.721   0.676
    9       -0.025  -0.038   0.714   0.650
   10       -0.023  -0.035   0.741   0.682
   11       -0.023  -0.050   0.751   0.678
   12       -0.019  -0.028   0.663   0.617
   13       -0.019  -0.029   0.701   0.654
   14       -0.019  -0.045   0.765   0.701
   15       -0.024  -0.048   0.732   0.660
   16       -0.021  -0.044   0.739   0.674
   17       -0.019  -0.028   0.651   0.605
   18       -0.018  -0.031   0.727   0.678
   19       -0.017  -0.027   0.696   0.652
   20       -0.022  -0.029   0.718   0.667
   21       -0.028  -0.059   0.762   0.675
   22       -0.022  -0.055   0.794   0.717
   23       -0.017  -0.037   0.694   0.641
   24       -0.017  -0.039   0.708   0.652
   25       -0.019  -0.026   0.705   0.660
   26       -0.012  -0.024   0.673   0.637
   27       -0.024  -0.048   0.721   0.649
   28       -0.027  -0.034   0.694   0.634
   29       -0.026  -0.033   0.695   0.636
   30       -0.030  -0.071   0.789   0.688
   31       -0.017  -0.032   0.674   0.626
   32       -0.019  -0.042   0.717   0.657
   33       -0.024  -0.055   0.748   0.669
   34       -0.023  -0.045   0.683   0.615
   35        0.009  -0.009   2.824   2.824
   36        0.008  -0.006   2.851   2.853
   37       -0.007  -0.028   2.682   2.647
   38        0.012  -0.008   2.854   2.859
   39        0.014  -0.009   2.908   2.913
   40        0.003  -0.016   2.794   2.781
   41       -0.002  -0.021   2.710   2.688
   42       -0.003  -0.027   2.700   2.670
   43       -0.003  -0.025   2.788   2.760
   44        0.001  -0.018   2.821   2.804
   45       -0.004  -0.028   2.718   2.686
   46        0.002  -0.015   2.795   2.782
   47        0.006  -0.017   2.795   2.783
   48       -0.006  -0.033   2.660   2.621
   49       -0.005  -0.031   2.698   2.662
   50        0.004  -0.019   2.774   2.759
   51        0.005  -0.019   2.815   2.801
   52        0.008  -0.015   2.851   2.844
   53       -0.004  -0.027   2.770   2.739
   54        0.000  -0.024   2.791   2.767
   55       -0.013  -0.048   2.635   2.575
   56       -0.002  -0.028   2.696   2.665
   57       -0.014  -0.042   2.562   2.505
   58        0.001  -0.019   2.706   2.688
   59       -0.002  -0.020   2.652   2.629
   60       -0.002  -0.019   2.717   2.697
   61       -0.002  -0.022   2.707   2.683
   62       -0.011  -0.041   2.622   2.570
   63       -0.007  -0.036   2.648   2.605
   64       -0.008  -0.037   2.622   2.578
--------------------------------------------------
tot         -0.743  -1.989 106.484 103.752
 
 BZINTS: Fermi energy:  0.041743;580.000000 electrons
         Band energy:***********;  BLOECHL correction: -0.006735

 total amount of memory used by VASP MPI-rank0   113842. kBytes
=======================================================================

   base      :      30000. kBytes
   nonlr-proj:      13018. kBytes
   fftplans  :       6403. kBytes
   grid      :      16455. kBytes
   one-center:         93. kBytes
   wavefun   :      47873. kBytes
 
  
  
 General timing and accounting informations for this job:
 ========================================================
  
                  Total CPU time used (sec):     1817.601
                            User time (sec):     1754.259
                          System time (sec):       63.341
                         Elapsed time (sec):     1845.743
  
                   Maximum memory used (kb):      164452.
                   Average memory used (kb):           0.
  
                          Minor page faults:       385151
                          Major page faults:            0
                 Voluntary context switches:         8583
