  70  70   1   0
  0.2799384E+02  0.9929500E-09  0.9929500E-09  0.2108055E-08  0.5000000E-15
  1.000000000000000E-004
  CAR 
 SQS-NiFe                                
      4.15698984    -23.31433786  301     -0.48240467      1.00000000
    -23.314  0.0000E+00  0.0000E+00  0.0000E+00  0.0000E+00
    -23.223  0.0000E+00  0.0000E+00  0.0000E+00  0.0000E+00
    -23.131  0.0000E+00  0.0000E+00  0.0000E+00  0.0000E+00
    -23.040  0.0000E+00  0.0000E+00  0.0000E+00  0.0000E+00
    -22.948 -0.2665E-29  0.0000E+00 -0.2440E-30  0.0000E+00
    -22.856 -0.3613E-26  0.0000E+00 -0.3311E-27  0.0000E+00
    -22.765 -0.3211E-23 -0.3748E-28 -0.2943E-24 -0.3432E-29
    -22.673 -0.1868E-20 -0.4364E-25 -0.1714E-21 -0.4000E-26
    -22.582 -0.7112E-18 -0.3330E-22 -0.6530E-19 -0.3054E-23
    -22.490 -0.1709E-15 -0.1664E-19 -0.1572E-16 -0.1527E-20
    -22.399 -0.2782E-13 -0.5437E-17 -0.2563E-14 -0.4994E-18
    -22.307 -0.2929E-11 -0.1124E-14 -0.2708E-12 -0.1035E-15
    -22.215 -0.2003E-09 -0.1561E-12 -0.1861E-10 -0.1440E-13
    -22.124 -0.8858E-08 -0.1408E-10 -0.8298E-09 -0.1304E-11
    -22.032 -0.2519E-06 -0.8234E-09 -0.2390E-07 -0.7670E-10
    -21.941 -0.4563E-05 -0.3110E-07 -0.4417E-06 -0.2924E-08
    -21.849 -0.5175E-04 -0.7529E-06 -0.5181E-05 -0.7187E-07
    -21.758 -0.3554E-03 -0.1155E-04 -0.3773E-04 -0.1130E-05
    -21.666 -0.1360E-02 -0.1100E-03 -0.1623E-03 -0.1120E-04
    -21.574 -0.2050E-02 -0.6209E-03 -0.3500E-03 -0.6805E-04
    -21.483  0.3795E-02 -0.1832E-02 -0.2505E-05 -0.2358E-03
    -21.391  0.2201E-01 -0.1186E-02  0.2013E-02 -0.3444E-03
    -21.300  0.3994E-01  0.9049E-02  0.5670E-02  0.4842E-03
    -21.208  0.3586E-01  0.2983E-01  0.8954E-02  0.3216E-02
    -21.117  0.1516E-01  0.4152E-01  0.1034E-01  0.7018E-02
    -21.025  0.6711E-03  0.2906E-01  0.1040E-01  0.9679E-02
    -20.933 -0.2118E-02  0.8425E-02  0.1021E-01  0.1045E-01
    -20.842 -0.9557E-03 -0.1327E-02  0.1012E-01  0.1033E-01
    -20.750 -0.2042E-03 -0.1787E-02  0.1010E-01  0.1017E-01
    -20.659 -0.2522E-04 -0.5883E-03  0.1010E-01  0.1011E-01
    -20.567 -0.1921E-05 -0.1020E-03  0.1010E-01  0.1010E-01
    -20.476 -0.3919E-06 -0.1055E-04  0.1010E-01  0.1010E-01
    -20.384 -0.6276E-05 -0.1337E-05  0.1010E-01  0.1010E-01
    -20.292 -0.8289E-04 -0.1208E-04  0.1009E-01  0.1010E-01
    -20.201 -0.6770E-03 -0.1385E-03  0.1003E-01  0.1009E-01
    -20.109 -0.3236E-02 -0.9786E-03  0.9734E-02  0.9998E-02
    -20.018 -0.7603E-02 -0.3972E-02  0.9038E-02  0.9634E-02
    -19.926  0.3442E-03 -0.7188E-02  0.9070E-02  0.8976E-02
    -19.835  0.4935E-01  0.6669E-02  0.1359E-01  0.9586E-02
    -19.743  0.1284E+00  0.6151E-01  0.2534E-01  0.1522E-01
    -19.651  0.1583E+00  0.1335E+00  0.3984E-01  0.2744E-01
    -19.560  0.1021E+00  0.1490E+00  0.4919E-01  0.4108E-01
    -19.468  0.2785E-01  0.9061E-01  0.5174E-01  0.4938E-01
    -19.377 -0.4783E-02  0.2414E-01  0.5130E-01  0.5159E-01
    -19.285 -0.6162E-02 -0.4045E-02  0.5074E-01  0.5122E-01
    -19.194 -0.2102E-02 -0.5429E-02  0.5055E-01  0.5072E-01
    -19.102 -0.3897E-03 -0.1938E-02  0.5051E-01  0.5054E-01
    -19.010 -0.4407E-04 -0.3798E-03  0.5051E-01  0.5051E-01
    -18.919 -0.3163E-05 -0.4556E-04  0.5051E-01  0.5051E-01
    -18.827 -0.1465E-06 -0.3468E-05  0.5051E-01  0.5051E-01
    -18.736 -0.4413E-08 -0.1699E-06  0.5051E-01  0.5051E-01
    -18.644 -0.8680E-10 -0.5394E-08  0.5051E-01  0.5051E-01
    -18.553 -0.1117E-11 -0.1113E-09  0.5051E-01  0.5051E-01
    -18.461 -0.9435E-14 -0.1498E-11  0.5051E-01  0.5051E-01
    -18.369 -0.4899E-16 -0.1316E-13  0.5051E-01  0.5051E-01
    -18.278  0.0000E+00 -0.7348E-16  0.5051E-01  0.5051E-01
    -18.186  0.0000E+00  0.0000E+00  0.5051E-01  0.5051E-01
    -18.095  0.0000E+00  0.0000E+00  0.5051E-01  0.5051E-01
    -18.003  0.0000E+00  0.0000E+00  0.5051E-01  0.5051E-01
    -17.912  0.0000E+00  0.0000E+00  0.5051E-01  0.5051E-01
    -17.820  0.0000E+00  0.0000E+00  0.5051E-01  0.5051E-01
    -17.729  0.0000E+00  0.0000E+00  0.5051E-01  0.5051E-01
    -17.637  0.0000E+00  0.0000E+00  0.5051E-01  0.5051E-01
    -17.545  0.0000E+00  0.0000E+00  0.5051E-01  0.5051E-01
    -17.454  0.0000E+00  0.0000E+00  0.5051E-01  0.5051E-01
    -17.362  0.0000E+00  0.0000E+00  0.5051E-01  0.5051E-01
    -17.271  0.0000E+00  0.0000E+00  0.5051E-01  0.5051E-01
    -17.179  0.0000E+00  0.0000E+00  0.5051E-01  0.5051E-01
    -17.088  0.0000E+00  0.0000E+00  0.5051E-01  0.5051E-01
    -16.996  0.0000E+00  0.0000E+00  0.5051E-01  0.5051E-01
    -16.904  0.0000E+00  0.0000E+00  0.5051E-01  0.5051E-01
    -16.813  0.0000E+00  0.0000E+00  0.5051E-01  0.5051E-01
    -16.721  0.0000E+00  0.0000E+00  0.5051E-01  0.5051E-01
    -16.630  0.0000E+00  0.0000E+00  0.5051E-01  0.5051E-01
    -16.538  0.0000E+00  0.0000E+00  0.5051E-01  0.5051E-01
    -16.447  0.0000E+00  0.0000E+00  0.5051E-01  0.5051E-01
    -16.355  0.0000E+00  0.0000E+00  0.5051E-01  0.5051E-01
    -16.263  0.0000E+00  0.0000E+00  0.5051E-01  0.5051E-01
    -16.172  0.0000E+00  0.0000E+00  0.5051E-01  0.5051E-01
    -16.080  0.0000E+00  0.0000E+00  0.5051E-01  0.5051E-01
    -15.989  0.0000E+00  0.0000E+00  0.5051E-01  0.5051E-01
    -15.897  0.0000E+00  0.0000E+00  0.5051E-01  0.5051E-01
    -15.806  0.0000E+00  0.0000E+00  0.5051E-01  0.5051E-01
    -15.714  0.0000E+00  0.0000E+00  0.5051E-01  0.5051E-01
    -15.622  0.0000E+00  0.0000E+00  0.5051E-01  0.5051E-01
    -15.531  0.0000E+00  0.0000E+00  0.5051E-01  0.5051E-01
    -15.439  0.0000E+00  0.0000E+00  0.5051E-01  0.5051E-01
    -15.348  0.0000E+00  0.0000E+00  0.5051E-01  0.5051E-01
    -15.256  0.0000E+00  0.0000E+00  0.5051E-01  0.5051E-01
    -15.165  0.0000E+00  0.0000E+00  0.5051E-01  0.5051E-01
    -15.073  0.0000E+00  0.0000E+00  0.5051E-01  0.5051E-01
    -14.981  0.0000E+00  0.0000E+00  0.5051E-01  0.5051E-01
    -14.890  0.0000E+00  0.0000E+00  0.5051E-01  0.5051E-01
    -14.798  0.0000E+00  0.0000E+00  0.5051E-01  0.5051E-01
    -14.707  0.0000E+00  0.0000E+00  0.5051E-01  0.5051E-01
    -14.615  0.0000E+00  0.0000E+00  0.5051E-01  0.5051E-01
    -14.524  0.0000E+00  0.0000E+00  0.5051E-01  0.5051E-01
    -14.432  0.0000E+00  0.0000E+00  0.5051E-01  0.5051E-01
    -14.340  0.0000E+00  0.0000E+00  0.5051E-01  0.5051E-01
    -14.249  0.0000E+00  0.0000E+00  0.5051E-01  0.5051E-01
    -14.157  0.0000E+00  0.0000E+00  0.5051E-01  0.5051E-01
    -14.066  0.0000E+00  0.0000E+00  0.5051E-01  0.5051E-01
    -13.974  0.0000E+00  0.0000E+00  0.5051E-01  0.5051E-01
    -13.883  0.0000E+00  0.0000E+00  0.5051E-01  0.5051E-01
    -13.791  0.0000E+00  0.0000E+00  0.5051E-01  0.5051E-01
    -13.699  0.0000E+00  0.0000E+00  0.5051E-01  0.5051E-01
    -13.608  0.0000E+00  0.0000E+00  0.5051E-01  0.5051E-01
    -13.516  0.0000E+00  0.0000E+00  0.5051E-01  0.5051E-01
    -13.425  0.0000E+00  0.0000E+00  0.5051E-01  0.5051E-01
    -13.333  0.0000E+00  0.0000E+00  0.5051E-01  0.5051E-01
    -13.242  0.0000E+00  0.0000E+00  0.5051E-01  0.5051E-01
    -13.150  0.0000E+00  0.0000E+00  0.5051E-01  0.5051E-01
    -13.058  0.0000E+00  0.0000E+00  0.5051E-01  0.5051E-01
    -12.967  0.0000E+00  0.0000E+00  0.5051E-01  0.5051E-01
    -12.875  0.0000E+00  0.0000E+00  0.5051E-01  0.5051E-01
    -12.784  0.0000E+00  0.0000E+00  0.5051E-01  0.5051E-01
    -12.692  0.0000E+00  0.0000E+00  0.5051E-01  0.5051E-01
    -12.601  0.0000E+00  0.0000E+00  0.5051E-01  0.5051E-01
    -12.509  0.0000E+00  0.0000E+00  0.5051E-01  0.5051E-01
    -12.417  0.0000E+00  0.0000E+00  0.5051E-01  0.5051E-01
    -12.326  0.0000E+00  0.0000E+00  0.5051E-01  0.5051E-01
    -12.234  0.0000E+00  0.0000E+00  0.5051E-01  0.5051E-01
    -12.143  0.0000E+00  0.0000E+00  0.5051E-01  0.5051E-01
    -12.051  0.0000E+00  0.0000E+00  0.5051E-01  0.5051E-01
    -11.960  0.0000E+00  0.0000E+00  0.5051E-01  0.5051E-01
    -11.868  0.0000E+00  0.0000E+00  0.5051E-01  0.5051E-01
    -11.776  0.0000E+00  0.0000E+00  0.5051E-01  0.5051E-01
    -11.685  0.0000E+00  0.0000E+00  0.5051E-01  0.5051E-01
    -11.593  0.0000E+00  0.0000E+00  0.5051E-01  0.5051E-01
    -11.502  0.0000E+00  0.0000E+00  0.5051E-01  0.5051E-01
    -11.410  0.0000E+00  0.0000E+00  0.5051E-01  0.5051E-01
    -11.319 -0.3255E-29  0.0000E+00  0.5051E-01  0.5051E-01
    -11.227 -0.4363E-26  0.0000E+00  0.5051E-01  0.5051E-01
    -11.135 -0.3832E-23 -0.7455E-31  0.5051E-01  0.5051E-01
    -11.044 -0.2204E-20 -0.1236E-27  0.5051E-01  0.5051E-01
    -10.952 -0.8296E-18 -0.1342E-24  0.5051E-01  0.5051E-01
    -10.861 -0.1980E-15 -0.9551E-22  0.5051E-01  0.5051E-01
    -10.769 -0.3170E-13 -0.4449E-19  0.5051E-01  0.5051E-01
    -10.678 -0.3299E-11 -0.1355E-16  0.5051E-01  0.5051E-01
    -10.586 -0.2230E-09 -0.2614E-14  0.5051E-01  0.5051E-01
    -10.494 -0.9746E-08 -0.3377E-12  0.5051E-01  0.5051E-01
    -10.403 -0.2739E-06 -0.2836E-10  0.5051E-01  0.5051E-01
    -10.311 -0.4900E-05 -0.1544E-08  0.5050E-01  0.5051E-01
    -10.220 -0.5485E-04 -0.5421E-07  0.5050E-01  0.5051E-01
    -10.128 -0.3714E-03 -0.1219E-05  0.5047E-01  0.5050E-01
    -10.037 -0.1396E-02 -0.1732E-04  0.5034E-01  0.5050E-01
     -9.945 -0.2020E-02 -0.1519E-03  0.5015E-01  0.5049E-01
     -9.853  0.4122E-02 -0.7804E-03  0.5053E-01  0.5042E-01
     -9.762  0.2260E-01 -0.2007E-02  0.5260E-01  0.5023E-01
     -9.670  0.4017E-01 -0.3884E-03  0.5628E-01  0.5020E-01
     -9.579  0.3542E-01  0.1203E-01  0.5952E-01  0.5130E-01
     -9.487  0.1462E-01  0.3309E-01  0.6086E-01  0.5433E-01
     -9.396  0.4712E-03  0.4106E-01  0.6090E-01  0.5809E-01
     -9.304 -0.2105E-02  0.2551E-01  0.6071E-01  0.6043E-01
     -9.212 -0.9248E-03  0.5880E-02  0.6063E-01  0.6096E-01
     -9.121 -0.1945E-03 -0.1799E-02  0.6061E-01  0.6080E-01
     -9.029 -0.2376E-04 -0.1573E-02  0.6061E-01  0.6066E-01
     -8.938 -0.2823E-05 -0.4585E-03  0.6061E-01  0.6061E-01
     -8.846 -0.1063E-04 -0.7270E-04  0.6060E-01  0.6061E-01
     -8.755 -0.6471E-04 -0.7648E-05  0.6060E-01  0.6061E-01
     -8.663 -0.2306E-03 -0.8268E-05  0.6058E-01  0.6061E-01
     -8.571 -0.4125E-03 -0.5166E-04  0.6054E-01  0.6060E-01
     -8.480 -0.3534E-04 -0.1984E-03  0.6054E-01  0.6058E-01
     -8.388  0.1912E-02 -0.3920E-03  0.6071E-01  0.6055E-01
     -8.297  0.7274E-02 -0.1293E-03  0.6138E-01  0.6053E-01
     -8.205  0.1738E-01  0.1486E-02  0.6297E-01  0.6067E-01
     -8.114  0.2599E-01  0.6040E-02  0.6535E-01  0.6122E-01
     -8.022  0.2317E-01  0.1541E-01  0.6747E-01  0.6263E-01
     -7.930  0.1321E-01  0.2511E-01  0.6868E-01  0.6493E-01
     -7.839  0.1002E-01  0.2448E-01  0.6960E-01  0.6718E-01
     -7.747  0.1848E-01  0.1459E-01  0.7129E-01  0.6851E-01
     -7.656  0.3154E-01  0.8907E-02  0.7418E-01  0.6933E-01
     -7.564  0.3492E-01  0.1430E-01  0.7738E-01  0.7064E-01
     -7.473  0.2453E-01  0.2712E-01  0.7962E-01  0.7312E-01
     -7.381  0.1496E-01  0.3526E-01  0.8099E-01  0.7635E-01
     -7.289  0.1552E-01  0.2854E-01  0.8242E-01  0.7896E-01
     -7.198  0.2156E-01  0.1639E-01  0.8439E-01  0.8046E-01
     -7.106  0.3197E-01  0.1317E-01  0.8732E-01  0.8167E-01
     -7.015  0.5098E-01  0.1670E-01  0.9199E-01  0.8320E-01
     -6.923  0.7518E-01  0.1911E-01  0.9887E-01  0.8495E-01
     -6.832  0.9684E-01  0.2379E-01  0.1077E+00  0.8713E-01
     -6.740  0.1114E+00  0.3912E-01  0.1179E+00  0.9071E-01
     -6.648  0.1139E+00  0.6005E-01  0.1284E+00  0.9621E-01
     -6.557  0.1118E+00  0.7429E-01  0.1386E+00  0.1030E+00
     -6.465  0.1358E+00  0.8225E-01  0.1510E+00  0.1105E+00
     -6.374  0.1927E+00  0.9107E-01  0.1687E+00  0.1189E+00
     -6.282  0.2314E+00  0.9677E-01  0.1899E+00  0.1277E+00
     -6.191  0.2148E+00  0.9268E-01  0.2095E+00  0.1362E+00
     -6.099  0.1732E+00  0.9165E-01  0.2254E+00  0.1446E+00
     -6.007  0.1472E+00  0.1187E+00  0.2389E+00  0.1555E+00
     -5.916  0.1393E+00  0.1692E+00  0.2516E+00  0.1710E+00
     -5.824  0.1332E+00  0.2012E+00  0.2638E+00  0.1894E+00
     -5.733  0.1190E+00  0.1862E+00  0.2747E+00  0.2065E+00
     -5.641  0.1029E+00  0.1459E+00  0.2841E+00  0.2198E+00
     -5.550  0.9971E-01  0.1247E+00  0.2933E+00  0.2312E+00
     -5.458  0.1087E+00  0.1332E+00  0.3032E+00  0.2434E+00
     -5.366  0.1176E+00  0.1435E+00  0.3140E+00  0.2566E+00
     -5.275  0.1355E+00  0.1335E+00  0.3264E+00  0.2688E+00
     -5.183  0.1890E+00  0.1120E+00  0.3437E+00  0.2791E+00
     -5.092  0.2753E+00  0.9647E-01  0.3689E+00  0.2879E+00
     -5.000  0.3529E+00  0.8621E-01  0.4012E+00  0.2958E+00
     -4.909  0.3895E+00  0.7439E-01  0.4369E+00  0.3026E+00
     -4.817  0.3911E+00  0.6595E-01  0.4727E+00  0.3087E+00
     -4.725  0.3862E+00  0.6515E-01  0.5081E+00  0.3146E+00
     -4.634  0.4103E+00  0.6833E-01  0.5456E+00  0.3209E+00
     -4.542  0.4845E+00  0.7381E-01  0.5900E+00  0.3276E+00
     -4.451  0.5593E+00  0.8254E-01  0.6412E+00  0.3352E+00
     -4.359  0.5607E+00  0.1003E+00  0.6926E+00  0.3444E+00
     -4.268  0.5032E+00  0.1261E+00  0.7387E+00  0.3559E+00
     -4.176  0.4516E+00  0.1403E+00  0.7800E+00  0.3688E+00
     -4.084  0.4274E+00  0.1372E+00  0.8191E+00  0.3813E+00
     -3.993  0.4377E+00  0.1373E+00  0.8592E+00  0.3939E+00
     -3.901  0.5166E+00  0.1479E+00  0.9065E+00  0.4074E+00
     -3.810  0.6686E+00  0.1540E+00  0.9678E+00  0.4216E+00
     -3.718  0.8232E+00  0.1569E+00  0.1043E+01  0.4359E+00
     -3.627  0.9063E+00  0.1782E+00  0.1126E+01  0.4522E+00
     -3.535  0.9064E+00  0.2153E+00  0.1209E+01  0.4720E+00
     -3.443  0.8474E+00  0.2311E+00  0.1287E+01  0.4931E+00
     -3.352  0.7798E+00  0.2116E+00  0.1358E+01  0.5125E+00
     -3.260  0.7662E+00  0.2006E+00  0.1428E+01  0.5309E+00
     -3.169  0.8024E+00  0.2390E+00  0.1502E+01  0.5527E+00
     -3.077  0.8273E+00  0.3077E+00  0.1578E+01  0.5809E+00
     -2.986  0.8210E+00  0.3614E+00  0.1653E+01  0.6140E+00
     -2.894  0.7886E+00  0.3841E+00  0.1725E+01  0.6492E+00
     -2.802  0.7196E+00  0.3830E+00  0.1791E+01  0.6843E+00
     -2.711  0.6282E+00  0.3606E+00  0.1848E+01  0.7173E+00
     -2.619  0.5433E+00  0.3312E+00  0.1898E+01  0.7476E+00
     -2.528  0.4754E+00  0.3163E+00  0.1942E+01  0.7766E+00
     -2.436  0.4391E+00  0.3098E+00  0.1982E+01  0.8049E+00
     -2.345  0.4546E+00  0.2963E+00  0.2023E+01  0.8321E+00
     -2.253  0.5281E+00  0.2901E+00  0.2072E+01  0.8586E+00
     -2.161  0.6423E+00  0.3288E+00  0.2131E+01  0.8887E+00
     -2.070  0.7543E+00  0.4235E+00  0.2200E+01  0.9275E+00
     -1.978  0.8456E+00  0.5325E+00  0.2277E+01  0.9763E+00
     -1.887  0.9604E+00  0.6120E+00  0.2365E+01  0.1032E+01
     -1.795  0.1129E+01  0.6782E+00  0.2468E+01  0.1094E+01
     -1.704  0.1305E+01  0.7622E+00  0.2588E+01  0.1164E+01
     -1.612  0.1417E+01  0.8236E+00  0.2718E+01  0.1240E+01
     -1.520  0.1428E+01  0.8016E+00  0.2848E+01  0.1313E+01
     -1.429  0.1312E+01  0.7269E+00  0.2969E+01  0.1380E+01
     -1.337  0.1073E+01  0.6864E+00  0.3067E+01  0.1442E+01
     -1.246  0.8093E+00  0.6985E+00  0.3141E+01  0.1506E+01
     -1.154  0.6348E+00  0.7047E+00  0.3199E+01  0.1571E+01
     -1.063  0.5623E+00  0.6680E+00  0.3250E+01  0.1632E+01
     -0.971  0.5418E+00  0.6184E+00  0.3300E+01  0.1689E+01
     -0.879  0.5410E+00  0.5944E+00  0.3350E+01  0.1743E+01
     -0.788  0.5489E+00  0.5880E+00  0.3400E+01  0.1797E+01
     -0.696  0.5406E+00  0.5667E+00  0.3449E+01  0.1849E+01
     -0.605  0.4910E+00  0.5073E+00  0.3494E+01  0.1895E+01
     -0.513  0.4032E+00  0.4101E+00  0.3531E+01  0.1933E+01
     -0.422  0.2970E+00  0.3104E+00  0.3558E+01  0.1961E+01
     -0.330  0.2037E+00  0.2620E+00  0.3577E+01  0.1985E+01
     -0.238  0.1589E+00  0.2854E+00  0.3592E+01  0.2011E+01
     -0.147  0.1637E+00  0.3377E+00  0.3607E+01  0.2042E+01
     -0.055  0.1660E+00  0.3559E+00  0.3622E+01  0.2075E+01
      0.036  0.1188E+00  0.3353E+00  0.3633E+01  0.2106E+01
      0.128  0.4725E-01  0.3250E+00  0.3637E+01  0.2135E+01
      0.219  0.3209E-02  0.3592E+00  0.3637E+01  0.2168E+01
      0.311 -0.6421E-02  0.4348E+00  0.3637E+01  0.2208E+01
      0.403 -0.3468E-02  0.5177E+00  0.3636E+01  0.2256E+01
      0.494 -0.9171E-03  0.5692E+00  0.3636E+01  0.2308E+01
      0.586 -0.1465E-03  0.5953E+00  0.3636E+01  0.2362E+01
      0.677 -0.1494E-04  0.6400E+00  0.3636E+01  0.2421E+01
      0.769 -0.9926E-06  0.7252E+00  0.3636E+01  0.2487E+01
      0.860 -0.4332E-07  0.8293E+00  0.3636E+01  0.2563E+01
      0.952 -0.1246E-08  0.9217E+00  0.3636E+01  0.2648E+01
      1.044 -0.2364E-10  0.9778E+00  0.3636E+01  0.2737E+01
      1.135 -0.2960E-12  0.9975E+00  0.3636E+01  0.2828E+01
      1.227 -0.2444E-14  0.1019E+01  0.3636E+01  0.2922E+01
      1.318 -0.8164E-17  0.1074E+01  0.3636E+01  0.3020E+01
      1.410  0.0000E+00  0.1154E+01  0.3636E+01  0.3126E+01
      1.501  0.0000E+00  0.1198E+01  0.3636E+01  0.3236E+01
      1.593  0.0000E+00  0.1121E+01  0.3636E+01  0.3338E+01
      1.685  0.0000E+00  0.9453E+00  0.3636E+01  0.3425E+01
      1.776  0.0000E+00  0.7721E+00  0.3636E+01  0.3495E+01
      1.868  0.0000E+00  0.6296E+00  0.3636E+01  0.3553E+01
      1.959  0.0000E+00  0.4760E+00  0.3636E+01  0.3597E+01
      2.051  0.0000E+00  0.2974E+00  0.3636E+01  0.3624E+01
      2.142  0.0000E+00  0.1307E+00  0.3636E+01  0.3636E+01
      2.234  0.0000E+00  0.2637E-01  0.3636E+01  0.3638E+01
      2.326  0.0000E+00 -0.8496E-02  0.3636E+01  0.3638E+01
      2.417  0.0000E+00 -0.8784E-02  0.3636E+01  0.3637E+01
      2.509  0.0000E+00 -0.3555E-02  0.3636E+01  0.3636E+01
      2.600  0.0000E+00 -0.9109E-03  0.3636E+01  0.3636E+01
      2.692  0.0000E+00 -0.1583E-03  0.3636E+01  0.3636E+01
      2.783  0.0000E+00 -0.1858E-04  0.3636E+01  0.3636E+01
      2.875  0.0000E+00 -0.1450E-05  0.3636E+01  0.3636E+01
      2.967  0.0000E+00 -0.7433E-07  0.3636E+01  0.3636E+01
      3.058  0.0000E+00 -0.2491E-08  0.3636E+01  0.3636E+01
      3.150  0.0000E+00 -0.5445E-10  0.3636E+01  0.3636E+01
      3.241  0.0000E+00 -0.7765E-12  0.3636E+01  0.3636E+01
      3.333  0.0000E+00 -0.7220E-14  0.3636E+01  0.3636E+01
      3.424  0.0000E+00 -0.4354E-16  0.3636E+01  0.3636E+01
      3.516  0.0000E+00  0.0000E+00  0.3636E+01  0.3636E+01
      3.608  0.0000E+00  0.0000E+00  0.3636E+01  0.3636E+01
      3.699  0.0000E+00  0.0000E+00  0.3636E+01  0.3636E+01
      3.791  0.0000E+00  0.0000E+00  0.3636E+01  0.3636E+01
      3.882  0.0000E+00  0.0000E+00  0.3636E+01  0.3636E+01
      3.974  0.0000E+00  0.0000E+00  0.3636E+01  0.3636E+01
      4.065  0.0000E+00  0.0000E+00  0.3636E+01  0.3636E+01
      4.157  0.0000E+00  0.0000E+00  0.3636E+01  0.3636E+01
      4.15698984    -23.31433786  301     -0.48240467      1.00000000
    -23.314  0.0000E+00  0.0000E+00  0.0000E+00  0.0000E+00  0.0000E+00  0.0000E+00
    -23.223  0.0000E+00  0.0000E+00  0.0000E+00  0.0000E+00  0.0000E+00  0.0000E+00
    -23.131  0.0000E+00  0.0000E+00  0.0000E+00  0.0000E+00  0.0000E+00  0.0000E+00
    -23.040  0.0000E+00  0.0000E+00  0.0000E+00  0.0000E+00  0.0000E+00  0.0000E+00
    -22.948 -0.5298E-40  0.0000E+00 -0.7286E-40  0.0000E+00 -0.1747E-38  0.0000E+00
    -22.856 -0.7183E-37  0.0000E+00 -0.9878E-37  0.0000E+00 -0.2369E-35  0.0000E+00
    -22.765 -0.6383E-34 -0.7361E-39 -0.8777E-34 -0.9678E-39 -0.2105E-32 -0.2399E-37
    -22.673 -0.3714E-31 -0.8571E-36 -0.5107E-31 -0.1127E-35 -0.1225E-29 -0.2793E-34
    -22.582 -0.1414E-28 -0.6540E-33 -0.1944E-28 -0.8599E-33 -0.4663E-27 -0.2131E-31
    -22.490 -0.3398E-26 -0.3267E-30 -0.4672E-26 -0.4296E-30 -0.1120E-24 -0.1065E-28
    -22.399 -0.5531E-24 -0.1068E-27 -0.7604E-24 -0.1404E-27 -0.1824E-22 -0.3479E-26
    -22.307 -0.5823E-22 -0.2208E-25 -0.8007E-22 -0.2903E-25 -0.1920E-20 -0.7195E-24
    -22.215 -0.3982E-20 -0.3066E-23 -0.5475E-20 -0.4030E-23 -0.1313E-18 -0.9990E-22
    -22.124 -0.1761E-18 -0.2765E-21 -0.2422E-18 -0.3635E-21 -0.5807E-17 -0.9009E-20
    -22.032 -0.5009E-17 -0.1617E-19 -0.6887E-17 -0.2126E-19 -0.1652E-15 -0.5269E-18
    -21.941 -0.9072E-16 -0.6107E-18 -0.1247E-15 -0.8029E-18 -0.2991E-14 -0.1990E-16
    -21.849 -0.1029E-14 -0.1479E-16 -0.1415E-14 -0.1944E-16 -0.3393E-13 -0.4818E-15
    -21.758 -0.7067E-14 -0.2269E-15 -0.9716E-14 -0.2982E-15 -0.2330E-12 -0.7392E-14
    -21.666 -0.2705E-13 -0.2160E-14 -0.3719E-13 -0.2839E-14 -0.8918E-12 -0.7037E-13
    -21.574 -0.4077E-13 -0.1219E-13 -0.5605E-13 -0.1603E-13 -0.1344E-11 -0.3973E-12
    -21.483  0.7546E-13 -0.3598E-13  0.1038E-12 -0.4729E-13  0.2488E-11 -0.1172E-11
    -21.391  0.4377E-12 -0.2330E-13  0.6017E-12 -0.3062E-13  0.1443E-10 -0.7591E-12
    -21.300  0.7941E-12  0.1777E-12  0.1092E-11  0.2336E-12  0.2618E-10  0.5791E-11
    -21.208  0.7130E-12  0.5859E-12  0.9802E-12  0.7702E-12  0.2351E-10  0.1909E-10
    -21.117  0.3015E-12  0.8154E-12  0.4145E-12  0.1072E-11  0.9940E-11  0.2657E-10
    -21.025  0.1335E-13  0.5707E-12  0.1834E-13  0.7502E-12  0.4399E-12  0.1859E-10
    -20.933 -0.4212E-13  0.1655E-12 -0.5791E-13  0.2175E-12 -0.1389E-11  0.5391E-11
    -20.842 -0.1900E-13 -0.2606E-13 -0.2613E-13 -0.3426E-13 -0.6265E-12 -0.8492E-12
    -20.750 -0.4060E-14 -0.3509E-13 -0.5582E-14 -0.4613E-13 -0.1339E-12 -0.1143E-11
    -20.659 -0.5017E-15 -0.1155E-13 -0.6895E-15 -0.1519E-13 -0.1653E-13 -0.3764E-12
    -20.567 -0.5367E-16 -0.2005E-14 -0.6324E-16 -0.2635E-14 -0.1262E-14 -0.6530E-13
    -20.476 -0.5033E-15 -0.2303E-15 -0.3558E-15 -0.2897E-15 -0.3628E-15 -0.6759E-14
    -20.384 -0.1027E-13 -0.7061E-15 -0.7265E-14 -0.5452E-15 -0.6298E-14 -0.1093E-14
    -20.292 -0.1326E-12 -0.1312E-13 -0.9423E-13 -0.9958E-14 -0.8288E-13 -0.1195E-13
    -20.201 -0.1051E-11 -0.1574E-12 -0.7511E-12 -0.1190E-12 -0.6746E-12 -0.1359E-12
    -20.109 -0.4813E-11 -0.1165E-11 -0.3464E-11 -0.8768E-12 -0.3216E-11 -0.9517E-12
    -20.018 -0.1035E-10 -0.4977E-11 -0.7557E-11 -0.3725E-11 -0.7542E-11 -0.3825E-11
    -19.926  0.4201E-11 -0.9707E-11  0.2624E-11 -0.7201E-11  0.3306E-12 -0.6828E-11
    -19.835  0.7606E-10  0.6946E-11  0.5451E-10  0.5351E-11  0.4889E-10  0.6601E-11
    -19.743  0.1770E-09  0.7855E-10  0.1289E-09  0.5871E-10  0.1275E-09  0.5906E-10
    -19.651  0.1968E-09  0.1734E-09  0.1455E-09  0.1291E-09  0.1581E-09  0.1279E-09
    -19.560  0.1102E-09  0.1884E-09  0.8326E-10  0.1403E-09  0.1030E-09  0.1435E-09
    -19.468  0.2088E-10  0.1047E-09  0.1684E-10  0.7857E-10  0.2875E-10  0.8848E-10
    -19.377 -0.9254E-11  0.2032E-10 -0.6533E-11  0.1577E-10 -0.4496E-11  0.2445E-10
    -19.285 -0.6764E-11 -0.8473E-11 -0.5100E-11 -0.6081E-11 -0.6201E-11 -0.3527E-11
    -19.194 -0.1890E-11 -0.6436E-11 -0.1469E-11 -0.4816E-11 -0.2152E-11 -0.5287E-11
    -19.102 -0.2984E-12 -0.1852E-11 -0.2385E-12 -0.1418E-11 -0.4043E-12 -0.1936E-11
    -19.010 -0.2919E-13 -0.3025E-12 -0.2399E-13 -0.2375E-12 -0.4622E-13 -0.3855E-12
    -18.919 -0.1836E-14 -0.3076E-13 -0.1551E-14 -0.2479E-13 -0.3348E-14 -0.4679E-13
    -18.827 -0.7573E-16 -0.2020E-14 -0.6565E-16 -0.1673E-14 -0.1562E-15 -0.3593E-14
    -18.736 -0.2066E-17 -0.8709E-16 -0.1834E-17 -0.7407E-16 -0.4736E-17 -0.1771E-15
    -18.644 -0.3746E-19 -0.2485E-17 -0.3395E-19 -0.2166E-17 -0.9362E-19 -0.5647E-17
    -18.553 -0.4516E-21 -0.4708E-19 -0.4163E-21 -0.4192E-19 -0.1209E-20 -0.1169E-18
    -18.461 -0.3639E-23 -0.5920E-21 -0.3397E-23 -0.5367E-21 -0.1024E-22 -0.1577E-20
    -18.369 -0.1632E-25 -0.4939E-23 -0.1587E-25 -0.4539E-23 -0.5366E-25 -0.1387E-22
    -18.278  0.0000E+00 -0.2370E-25  0.0000E+00 -0.2282E-25  0.0000E+00 -0.7776E-25
    -18.186  0.0000E+00  0.0000E+00  0.0000E+00  0.0000E+00  0.0000E+00  0.0000E+00
    -18.095  0.0000E+00  0.0000E+00  0.0000E+00  0.0000E+00  0.0000E+00  0.0000E+00
    -18.003  0.0000E+00  0.0000E+00  0.0000E+00  0.0000E+00  0.0000E+00  0.0000E+00
    -17.912  0.0000E+00  0.0000E+00  0.0000E+00  0.0000E+00  0.0000E+00  0.0000E+00
    -17.820  0.0000E+00  0.0000E+00  0.0000E+00  0.0000E+00  0.0000E+00  0.0000E+00
    -17.729  0.0000E+00  0.0000E+00  0.0000E+00  0.0000E+00  0.0000E+00  0.0000E+00
    -17.637  0.0000E+00  0.0000E+00  0.0000E+00  0.0000E+00  0.0000E+00  0.0000E+00
    -17.545  0.0000E+00  0.0000E+00  0.0000E+00  0.0000E+00  0.0000E+00  0.0000E+00
    -17.454  0.0000E+00  0.0000E+00  0.0000E+00  0.0000E+00  0.0000E+00  0.0000E+00
    -17.362  0.0000E+00  0.0000E+00  0.0000E+00  0.0000E+00  0.0000E+00  0.0000E+00
    -17.271  0.0000E+00  0.0000E+00  0.0000E+00  0.0000E+00  0.0000E+00  0.0000E+00
    -17.179  0.0000E+00  0.0000E+00  0.0000E+00  0.0000E+00  0.0000E+00  0.0000E+00
    -17.088  0.0000E+00  0.0000E+00  0.0000E+00  0.0000E+00  0.0000E+00  0.0000E+00
    -16.996  0.0000E+00  0.0000E+00  0.0000E+00  0.0000E+00  0.0000E+00  0.0000E+00
    -16.904  0.0000E+00  0.0000E+00  0.0000E+00  0.0000E+00  0.0000E+00  0.0000E+00
    -16.813  0.0000E+00  0.0000E+00  0.0000E+00  0.0000E+00  0.0000E+00  0.0000E+00
    -16.721  0.0000E+00  0.0000E+00  0.0000E+00  0.0000E+00  0.0000E+00  0.0000E+00
    -16.630  0.0000E+00  0.0000E+00  0.0000E+00  0.0000E+00  0.0000E+00  0.0000E+00
    -16.538  0.0000E+00  0.0000E+00  0.0000E+00  0.0000E+00  0.0000E+00  0.0000E+00
    -16.447  0.0000E+00  0.0000E+00  0.0000E+00  0.0000E+00  0.0000E+00  0.0000E+00
    -16.355  0.0000E+00  0.0000E+00  0.0000E+00  0.0000E+00  0.0000E+00  0.0000E+00
    -16.263  0.0000E+00  0.0000E+00  0.0000E+00  0.0000E+00  0.0000E+00  0.0000E+00
    -16.172  0.0000E+00  0.0000E+00  0.0000E+00  0.0000E+00  0.0000E+00  0.0000E+00
    -16.080  0.0000E+00  0.0000E+00  0.0000E+00  0.0000E+00  0.0000E+00  0.0000E+00
    -15.989  0.0000E+00  0.0000E+00  0.0000E+00  0.0000E+00  0.0000E+00  0.0000E+00
    -15.897  0.0000E+00  0.0000E+00  0.0000E+00  0.0000E+00  0.0000E+00  0.0000E+00
    -15.806  0.0000E+00  0.0000E+00  0.0000E+00  0.0000E+00  0.0000E+00  0.0000E+00
    -15.714  0.0000E+00  0.0000E+00  0.0000E+00  0.0000E+00  0.0000E+00  0.0000E+00
    -15.622  0.0000E+00  0.0000E+00  0.0000E+00  0.0000E+00  0.0000E+00  0.0000E+00
    -15.531  0.0000E+00  0.0000E+00  0.0000E+00  0.0000E+00  0.0000E+00  0.0000E+00
    -15.439  0.0000E+00  0.0000E+00  0.0000E+00  0.0000E+00  0.0000E+00  0.0000E+00
    -15.348  0.0000E+00  0.0000E+00  0.0000E+00  0.0000E+00  0.0000E+00  0.0000E+00
    -15.256  0.0000E+00  0.0000E+00  0.0000E+00  0.0000E+00  0.0000E+00  0.0000E+00
    -15.165  0.0000E+00  0.0000E+00  0.0000E+00  0.0000E+00  0.0000E+00  0.0000E+00
    -15.073  0.0000E+00  0.0000E+00  0.0000E+00  0.0000E+00  0.0000E+00  0.0000E+00
    -14.981  0.0000E+00  0.0000E+00  0.0000E+00  0.0000E+00  0.0000E+00  0.0000E+00
    -14.890  0.0000E+00  0.0000E+00  0.0000E+00  0.0000E+00  0.0000E+00  0.0000E+00
    -14.798  0.0000E+00  0.0000E+00  0.0000E+00  0.0000E+00  0.0000E+00  0.0000E+00
    -14.707  0.0000E+00  0.0000E+00  0.0000E+00  0.0000E+00  0.0000E+00  0.0000E+00
    -14.615  0.0000E+00  0.0000E+00  0.0000E+00  0.0000E+00  0.0000E+00  0.0000E+00
    -14.524  0.0000E+00  0.0000E+00  0.0000E+00  0.0000E+00  0.0000E+00  0.0000E+00
    -14.432  0.0000E+00  0.0000E+00  0.0000E+00  0.0000E+00  0.0000E+00  0.0000E+00
    -14.340  0.0000E+00  0.0000E+00  0.0000E+00  0.0000E+00  0.0000E+00  0.0000E+00
    -14.249  0.0000E+00  0.0000E+00  0.0000E+00  0.0000E+00  0.0000E+00  0.0000E+00
    -14.157  0.0000E+00  0.0000E+00  0.0000E+00  0.0000E+00  0.0000E+00  0.0000E+00
    -14.066  0.0000E+00  0.0000E+00  0.0000E+00  0.0000E+00  0.0000E+00  0.0000E+00
    -13.974  0.0000E+00  0.0000E+00  0.0000E+00  0.0000E+00  0.0000E+00  0.0000E+00
    -13.883  0.0000E+00  0.0000E+00  0.0000E+00  0.0000E+00  0.0000E+00  0.0000E+00
    -13.791  0.0000E+00  0.0000E+00  0.0000E+00  0.0000E+00  0.0000E+00  0.0000E+00
    -13.699  0.0000E+00  0.0000E+00  0.0000E+00  0.0000E+00  0.0000E+00  0.0000E+00
    -13.608  0.0000E+00  0.0000E+00  0.0000E+00  0.0000E+00  0.0000E+00  0.0000E+00
    -13.516  0.0000E+00  0.0000E+00  0.0000E+00  0.0000E+00  0.0000E+00  0.0000E+00
    -13.425  0.0000E+00  0.0000E+00  0.0000E+00  0.0000E+00  0.0000E+00  0.0000E+00
    -13.333  0.0000E+00  0.0000E+00  0.0000E+00  0.0000E+00  0.0000E+00  0.0000E+00
    -13.242  0.0000E+00  0.0000E+00  0.0000E+00  0.0000E+00  0.0000E+00  0.0000E+00
    -13.150  0.0000E+00  0.0000E+00  0.0000E+00  0.0000E+00  0.0000E+00  0.0000E+00
    -13.058  0.0000E+00  0.0000E+00  0.0000E+00  0.0000E+00  0.0000E+00  0.0000E+00
    -12.967  0.0000E+00  0.0000E+00  0.0000E+00  0.0000E+00  0.0000E+00  0.0000E+00
    -12.875  0.0000E+00  0.0000E+00  0.0000E+00  0.0000E+00  0.0000E+00  0.0000E+00
    -12.784  0.0000E+00  0.0000E+00  0.0000E+00  0.0000E+00  0.0000E+00  0.0000E+00
    -12.692  0.0000E+00  0.0000E+00  0.0000E+00  0.0000E+00  0.0000E+00  0.0000E+00
    -12.601  0.0000E+00  0.0000E+00  0.0000E+00  0.0000E+00  0.0000E+00  0.0000E+00
    -12.509  0.0000E+00  0.0000E+00  0.0000E+00  0.0000E+00  0.0000E+00  0.0000E+00
    -12.417  0.0000E+00  0.0000E+00  0.0000E+00  0.0000E+00  0.0000E+00  0.0000E+00
    -12.326  0.0000E+00  0.0000E+00  0.0000E+00  0.0000E+00  0.0000E+00  0.0000E+00
    -12.234  0.0000E+00  0.0000E+00  0.0000E+00  0.0000E+00  0.0000E+00  0.0000E+00
    -12.143  0.0000E+00  0.0000E+00  0.0000E+00  0.0000E+00  0.0000E+00  0.0000E+00
    -12.051  0.0000E+00  0.0000E+00  0.0000E+00  0.0000E+00  0.0000E+00  0.0000E+00
    -11.960  0.0000E+00  0.0000E+00  0.0000E+00  0.0000E+00  0.0000E+00  0.0000E+00
    -11.868  0.0000E+00  0.0000E+00  0.0000E+00  0.0000E+00  0.0000E+00  0.0000E+00
    -11.776  0.0000E+00  0.0000E+00  0.0000E+00  0.0000E+00  0.0000E+00  0.0000E+00
    -11.685  0.0000E+00  0.0000E+00  0.0000E+00  0.0000E+00  0.0000E+00  0.0000E+00
    -11.593  0.0000E+00  0.0000E+00  0.0000E+00  0.0000E+00  0.0000E+00  0.0000E+00
    -11.502  0.0000E+00  0.0000E+00  0.0000E+00  0.0000E+00  0.0000E+00  0.0000E+00
    -11.410  0.0000E+00  0.0000E+00  0.0000E+00  0.0000E+00  0.0000E+00  0.0000E+00
    -11.319 -0.4665E-33  0.0000E+00 -0.1153E-33  0.0000E+00 -0.2212E-34  0.0000E+00
    -11.227 -0.6234E-30  0.0000E+00 -0.1543E-30  0.0000E+00 -0.2967E-31  0.0000E+00
    -11.135 -0.5461E-27 -0.1161E-34 -0.1353E-27 -0.3074E-35 -0.2610E-28 -0.4190E-36
    -11.044 -0.3132E-24 -0.1919E-31 -0.7773E-25 -0.5087E-32 -0.1503E-25 -0.6951E-33
    -10.952 -0.1176E-21 -0.2079E-28 -0.2921E-22 -0.5518E-29 -0.5661E-23 -0.7560E-30
    -10.861 -0.2801E-19 -0.1476E-25 -0.6964E-20 -0.3921E-26 -0.1352E-20 -0.5385E-27
    -10.769 -0.4466E-17 -0.6855E-23 -0.1112E-17 -0.1823E-23 -0.2168E-18 -0.2511E-24