       N       E                     dE             d eps       ncg     rms          rms(c)
DAV:   1    -0.534185145762E+03   -0.53419E+03   -0.10519E+03  7902   0.393E+01    0.572E+00
RMM:   2    -0.541532328005E+03   -0.73472E+01   -0.70149E+01  7376   0.197E+01    0.948E+00
RMM:   3    -0.543191733803E+03   -0.16594E+01   -0.18209E+01  8689   0.440E+00    0.788E+00
RMM:   4    -0.543188421076E+03    0.33127E-02   -0.42580E+00  8788   0.198E+00    0.405E+00
RMM:   5    -0.543556621798E+03   -0.36820E+00   -0.19883E+00  8766   0.129E+00    0.677E+00
RMM:   6    -0.543269991904E+03    0.28663E+00   -0.71281E-01  7921   0.111E+00    0.251E+00
RMM:   7    -0.543297188249E+03   -0.27196E-01   -0.46158E-01  8269   0.671E-01    0.236E+00
RMM:   8    -0.543314538897E+03   -0.17351E-01   -0.27786E-01  7900   0.483E-01    0.169E+00
RMM:   9    -0.543343931645E+03   -0.29393E-01   -0.22818E-01  7766   0.476E-01    0.169E+00
RMM:  10    -0.543356560306E+03   -0.12629E-01   -0.18649E-01  7599   0.457E-01    0.811E-01
RMM:  11    -0.543385229111E+03   -0.28669E-01   -0.19300E-01  7891   0.384E-01    0.102E+00
RMM:  12    -0.543409691064E+03   -0.24462E-01   -0.19394E-01  7735   0.281E-01    0.618E-01
RMM:  13    -0.543440160916E+03   -0.30470E-01   -0.19237E-01  8390   0.177E-01    0.628E-01
RMM:  14    -0.543472202193E+03   -0.32041E-01   -0.16619E-01  7792   0.146E-01    0.459E-01
RMM:  15    -0.543502796807E+03   -0.30595E-01   -0.13046E-01  7775   0.136E-01    0.442E-01
RMM:  16    -0.543541114334E+03   -0.38318E-01   -0.93184E-02  7676   0.130E-01    0.297E-01
RMM:  17    -0.543577707434E+03   -0.36593E-01   -0.63834E-02  7634   0.131E-01    0.358E-01
RMM:  18    -0.543612338125E+03   -0.34631E-01   -0.42703E-02  7537   0.112E-01    0.214E-01
RMM:  19    -0.543632332503E+03   -0.19994E-01   -0.29250E-02  7656   0.926E-02    0.240E-01
RMM:  20    -0.543655598943E+03   -0.23266E-01   -0.20121E-02  7696   0.755E-02    0.142E-01
RMM:  21    -0.543662606695E+03   -0.70078E-02   -0.13761E-02  7856   0.617E-02    0.147E-01
RMM:  22    -0.543667917932E+03   -0.53112E-02   -0.88477E-03  7724   0.465E-02    0.732E-02
RMM:  23    -0.543669839815E+03   -0.19219E-02   -0.57679E-03  7903   0.369E-02    0.886E-02
RMM:  24    -0.543671185033E+03   -0.13452E-02   -0.36839E-03  7566   0.303E-02    0.399E-02
RMM:  25    -0.543671705836E+03   -0.52080E-03   -0.24568E-03  7507   0.235E-02    0.587E-02
RMM:  26    -0.543671715216E+03   -0.93799E-05   -0.16361E-03  6119   0.186E-02    0.272E-02
RMM:  27    -0.543671715111E+03    0.10428E-06   -0.11235E-03  5575   0.139E-02    0.340E-02
RMM:  28    -0.543671732040E+03   -0.16928E-04   -0.76755E-04  5042   0.132E-02    0.334E-02
RMM:  29    -0.543671797578E+03   -0.65539E-04   -0.54707E-04  4679   0.798E-03    0.224E-02
RMM:  30    -0.543671860487E+03   -0.62909E-04   -0.38605E-04  4521   0.739E-03    0.152E-02
RMM:  31    -0.543671940434E+03   -0.79946E-04   -0.27721E-04  4515   0.534E-03    0.111E-02
RMM:  32    -0.543672036868E+03   -0.96434E-04   -0.19184E-04  4521   0.500E-03    0.106E-02
RMM:  33    -0.543672149688E+03   -0.11282E-03   -0.13008E-04  4557   0.547E-03    0.793E-03
RMM:  34    -0.543672264171E+03   -0.11448E-03   -0.85423E-05  4521   0.522E-03    0.821E-03
RMM:  35    -0.543672334163E+03   -0.69992E-04   -0.48609E-05  4315   0.452E-03    0.612E-03
RMM:  36    -0.543672391787E+03   -0.57624E-04   -0.19985E-05  4127   0.348E-03    0.591E-03
RMM:  37    -0.543672515924E+03   -0.12414E-03   -0.48160E-06  4333   0.330E-03    0.461E-03
RMM:  38    -0.543672571010E+03   -0.55086E-04    0.14266E-05  3892   0.301E-03    0.375E-03
RMM:  39    -0.543672658830E+03   -0.87820E-04    0.23292E-05  4070   0.296E-03    0.358E-03
RMM:  40    -0.543672715528E+03   -0.56699E-04    0.32953E-05  4012   0.294E-03    0.329E-03
RMM:  41    -0.543672741193E+03   -0.25665E-04    0.39801E-05  3801   0.275E-03    0.259E-03
RMM:  42    -0.543672755514E+03   -0.14321E-04    0.45084E-05  3215   0.229E-03    0.195E-03
RMM:  43    -0.543672759526E+03   -0.40115E-05    0.47789E-05  3237   0.228E-03
   1 F= -.55708732E+03 E0= -.55711310E+03  d E =-.557087E+03  mag=   158.0894
       N       E                     dE             d eps       ncg     rms          rms(c)
DAV:   1    -0.543669275634E+03    0.34799E-02   -0.81003E-01  7488   0.147E+00    0.437E-01
RMM:   2    -0.543676189699E+03   -0.69141E-02   -0.38239E-02  8138   0.417E-01    0.618E-01
RMM:   3    -0.543689158544E+03   -0.12969E-01   -0.19670E-02  7622   0.296E-01    0.140E+00
RMM:   4    -0.543676807951E+03    0.12351E-01   -0.84055E-03  7399   0.205E-01    0.696E-01
RMM:   5    -0.543673870292E+03    0.29377E-02   -0.24810E-03  7313   0.146E-01    0.154E-01
RMM:   6    -0.543673866600E+03    0.36921E-05   -0.78888E-04  7691   0.542E-02    0.149E-01
RMM:   7    -0.543673750269E+03    0.11633E-03   -0.39644E-04  7709   0.403E-02    0.103E-01
RMM:   8    -0.543673826025E+03   -0.75755E-04   -0.56553E-04  7332   0.612E-02    0.185E-01
RMM:   9    -0.543673609026E+03    0.21700E-03   -0.22530E-04  7247   0.447E-02    0.638E-02
RMM:  10    -0.543673581686E+03    0.27341E-04   -0.93286E-05  6930   0.223E-02    0.445E-02
RMM:  11    -0.543673547291E+03    0.34395E-04   -0.29734E-05  5158   0.141E-02    0.275E-02
RMM:  12    -0.543673532023E+03    0.15268E-04   -0.88561E-06  4507   0.109E-02    0.166E-02
RMM:  13    -0.543673503848E+03    0.28175E-04    0.10942E-06  4231   0.630E-03    0.136E-02
RMM:  14    -0.543673485984E+03    0.17864E-04    0.38523E-06  4064   0.608E-03    0.133E-02
RMM:  15    -0.543673453004E+03    0.32981E-04    0.38038E-06  4010   0.562E-03    0.108E-02
RMM:  16    -0.543673430850E+03    0.22153E-04    0.36935E-06  3953   0.518E-03    0.120E-02
RMM:  17    -0.543673425938E+03    0.49127E-05    0.40568E-06  3922   0.501E-03
   2 F= -.55708895E+03 E0= -.55711557E+03  d E =-.162920E-02  mag=   158.1133
       N       E                     dE             d eps       ncg     rms          rms(c)
DAV:   1    -0.543671972247E+03    0.14586E-02   -0.21890E-01  7380   0.767E-01    0.227E-01
RMM:   2    -0.543673901390E+03   -0.19291E-02   -0.10552E-02  8178   0.216E-01    0.321E-01
RMM:   3    -0.543677523224E+03   -0.36218E-02   -0.53363E-03  7616   0.154E-01    0.734E-01
RMM:   4    -0.543674075620E+03    0.34476E-02   -0.23071E-03  7358   0.107E-01    0.361E-01
RMM:   5    -0.543673309610E+03    0.76601E-03   -0.68037E-04  7277   0.755E-02    0.800E-02
RMM:   6    -0.543673314566E+03   -0.49553E-05   -0.22377E-04  7546   0.279E-02    0.770E-02
RMM:   7    -0.543673300424E+03    0.14141E-04   -0.11720E-04  6975   0.211E-02    0.542E-02
RMM:   8    -0.543673330831E+03   -0.30407E-04   -0.15853E-04  7240   0.324E-02    0.961E-02
RMM:   9    -0.543673281983E+03    0.48848E-04   -0.62789E-05  6328   0.233E-02    0.332E-02
RMM:  10    -0.543673277402E+03    0.45814E-05   -0.24489E-05  4399   0.123E-02
   3 F= -.55708930E+03 E0= -.55711593E+03  d E =-.198020E-02  mag=   158.1269
       N       E                     dE             d eps       ncg     rms          rms(c)
DAV:   1    -0.543672216406E+03    0.10656E-02   -0.29971E-01  7254   0.883E-01    0.260E-01
RMM:   2    -0.543674508826E+03   -0.22924E-02   -0.13352E-02  8234   0.246E-01    0.358E-01
RMM:   3    -0.543679863674E+03   -0.53548E-02   -0.72846E-03  7660   0.176E-01    0.882E-01
RMM:   4    -0.543674725644E+03    0.51380E-02   -0.31556E-03  7342   0.127E-01    0.413E-01
RMM:   5    -0.543673684840E+03    0.10408E-02   -0.93295E-04  7306   0.835E-02    0.738E-02
RMM:   6    -0.543673683106E+03    0.17331E-05   -0.32665E-04  7623   0.331E-02    0.848E-02
RMM:   7    -0.543673615217E+03    0.67889E-04   -0.12098E-04  7028   0.214E-02    0.399E-02
RMM:   8    -0.543673629194E+03   -0.13976E-04   -0.16072E-04  7364   0.311E-02    0.101E-01
RMM:   9    -0.543673564990E+03    0.64204E-04   -0.68707E-05  6626   0.247E-02    0.325E-02
RMM:  10    -0.543673562822E+03    0.21677E-05   -0.25971E-05  4709   0.127E-02
   4 F= -.55709005E+03 E0= -.55711665E+03  d E =-.744430E-03  mag=   158.1462
       N       E                     dE             d eps       ncg     rms          rms(c)
DAV:   1    -0.543673435033E+03    0.12996E-03   -0.79314E-03  7344   0.148E-01    0.465E-02
RMM:   2    -0.543673505059E+03   -0.70026E-04   -0.37934E-04  8023   0.432E-02    0.657E-02
RMM:   3    -0.543673637147E+03   -0.13209E-03   -0.14673E-04  7340   0.315E-02    0.135E-01
RMM:   4    -0.543673522625E+03    0.11452E-03   -0.79772E-05  6692   0.215E-02    0.798E-02
RMM:   5    -0.543673492551E+03    0.30074E-04   -0.14033E-05  4642   0.170E-02    0.208E-02
RMM:   6    -0.543673495740E+03   -0.31888E-05    0.34244E-06  3914   0.835E-03
   5 F= -.55709006E+03 E0= -.55711671E+03  d E =-.752906E-03  mag=   158.1532
       N       E                     dE             d eps       ncg     rms          rms(c)
DAV:   1    -0.543673119028E+03    0.37352E-03   -0.17315E-01  7236   0.686E-01    0.215E-01
RMM:   2    -0.543675498488E+03   -0.23795E-02   -0.75478E-03  8172   0.191E-01    0.459E-01
RMM:   3    -0.543677224094E+03   -0.17256E-02   -0.44683E-03  7635   0.135E-01    0.634E-01
RMM:   4    -0.543674685068E+03    0.25390E-02   -0.20029E-03  7246   0.109E-01    0.316E-01
RMM:   5    -0.543674095102E+03    0.58997E-03   -0.52497E-04  7228   0.688E-02    0.606E-02
RMM:   6    -0.543674116617E+03   -0.21515E-04   -0.18540E-04  7476   0.257E-02    0.633E-02
RMM:   7    -0.543674133175E+03   -0.16559E-04   -0.66792E-05  5851   0.171E-02    0.360E-02
RMM:   8    -0.543674192355E+03   -0.59179E-04   -0.82829E-05  6982   0.236E-02    0.629E-02
RMM:   9    -0.543674223519E+03   -0.31164E-04   -0.30490E-05  4927   0.173E-02    0.251E-02
RMM:  10    -0.543674231111E+03   -0.75919E-05   -0.10036E-05  3942   0.102E-02
   6 F= -.55709100E+03 E0= -.55711769E+03  d E =-.945501E-03  mag=   158.1679
       N       E                     dE             d eps       ncg     rms          rms(c)
DAV:   1    -0.543668943904E+03    0.52796E-02   -0.96735E-01  7218   0.162E+00    0.507E-01
RMM:   2    -0.543680497143E+03   -0.11553E-01   -0.40471E-02  8159   0.445E-01    0.964E-01
RMM:   3    -0.543694732192E+03   -0.14235E-01   -0.26951E-02  7686   0.320E-01    0.161E+00
RMM:   4    -0.543677333067E+03    0.17399E-01   -0.10863E-02  7308   0.252E-01    0.704E-01
RMM:   5    -0.543674396606E+03    0.29365E-02   -0.30005E-03  7325   0.154E-01    0.135E-01
RMM:   6    -0.543674497564E+03   -0.10096E-03   -0.11590E-03  7857   0.567E-02    0.157E-01
RMM:   7    -0.543674381893E+03    0.11567E-03   -0.37758E-04  7596   0.405E-02    0.749E-02
RMM:   8    -0.543674520027E+03   -0.13813E-03   -0.39679E-04  7380   0.477E-02    0.146E-01
RMM:   9    -0.543674441569E+03    0.78458E-04   -0.17476E-04  7200   0.380E-02    0.413E-02
RMM:  10    -0.543674434724E+03    0.68452E-05   -0.79536E-05  6451   0.187E-02
   7 F= -.55709170E+03 E0= -.55711841E+03  d E =-.164466E-02  mag=   158.1893
       N       E                     dE             d eps       ncg     rms          rms(c)
DAV:   1    -0.543673785137E+03    0.65643E-03   -0.16069E-01  7236   0.653E-01    0.198E-01
RMM:   2    -0.543674989553E+03   -0.12044E-02   -0.63577E-03  8150   0.168E-01    0.232E-01
RMM:   3    -0.543678899858E+03   -0.39103E-02   -0.49983E-03  7740   0.131E-01    0.740E-01
RMM:   4    -0.543675010603E+03    0.38893E-02   -0.16000E-03  7224   0.969E-02    0.245E-01
RMM:   5    -0.543674666603E+03    0.34400E-03   -0.50811E-04  7316   0.586E-02    0.438E-02
RMM:   6    -0.543674644064E+03    0.22539E-04   -0.18073E-04  7539   0.187E-02    0.503E-02
RMM:   7    -0.543674583485E+03    0.60579E-04   -0.48199E-05  5419   0.153E-02    0.343E-02
RMM:   8    -0.543674529685E+03    0.53799E-04   -0.58014E-05  6126   0.193E-02    0.524E-02
RMM:   9    -0.543674454371E+03    0.75315E-04   -0.27418E-05  4631   0.168E-02    0.323E-02
RMM:  10    -0.543674459968E+03   -0.55971E-05   -0.15728E-05  4072   0.118E-02
   8 F= -.55709200E+03 E0= -.55711865E+03  d E =-.298689E-03  mag=   158.2034
