 vasp.5.4.4.18Apr17-6-g9f103f2a35 (build Dec 15 2018 21:27:11) complex          
  
 executed on             LinuxIFC date 2022.03.06  11:59:14
 running on   72 total cores
 distrk:  each k-point on   72 cores,    1 groups
 distr:  one band on NCORES_PER_BAND=  24 cores,    3 groups


--------------------------------------------------------------------------------------------------------


 INCAR:
 POTCAR:    PAW_PBE Fe 06Sep2000                  
 POTCAR:    PAW_PBE O 08Apr2002                   
 POTCAR:    PAW_PBE H 15Jun2001                   

 ----------------------------------------------------------------------------- 
|                                                                             |
|           W    W    AA    RRRRR   N    N  II  N    N   GGGG   !!!           |
|           W    W   A  A   R    R  NN   N  II  NN   N  G    G  !!!           |
|           W    W  A    A  R    R  N N  N  II  N N  N  G       !!!           |
|           W WW W  AAAAAA  RRRRR   N  N N  II  N  N N  G  GGG   !            |
|           WW  WW  A    A  R   R   N   NN  II  N   NN  G    G                |
|           W    W  A    A  R    R  N    N  II  N    N   GGGG   !!!           |
|                                                                             |
|      For optimal performance we recommend to set                            |
|        NCORE= 4 - approx SQRT( number of cores)                             |
|      NCORE specifies how many cores store one orbital (NPAR=cpu/NCORE).     |
|      This setting can  greatly improve the performance of VASP for DFT.     |
|      The default,   NCORE=1            might be grossly inefficient         |
|      on modern multi-core architectures or massively parallel machines.     |
|      Do your own testing !!!!                                               |
|      Unfortunately you need to use the default for GW and RPA calculations. |
|      (for HF NCORE is supported but not extensively tested yet)             |
|                                                                             |
 ----------------------------------------------------------------------------- 

 POTCAR:    PAW_PBE Fe 06Sep2000                  
   VRHFIN =Fe:  d7 s1                                                           
   LEXCH  = PE                                                                  
   EATOM  =   594.3153 eV,   43.6809 Ry                                         
                                                                                
   TITEL  = PAW_PBE Fe 06Sep2000                                                
   LULTRA =        F    use ultrasoft PP ?                                      
   IUNSCR =        1    unscreen: 0-lin 1-nonlin 2-no                           
   RPACOR =    2.000    partial core radius                                     
   POMASS =   55.847; ZVAL   =    8.000    mass and valenz                      
   RCORE  =    2.300    outmost cutoff radius                                   
   RWIGS  =    2.460; RWIGS  =    1.302    wigner-seitz radius (au A)           
   ENMAX  =  267.882; ENMIN  =  200.911 eV                                      
   RCLOC  =    1.701    cutoff for local pot                                    
   LCOR   =        T    correct aug charges                                     
   LPAW   =        T    paw PP                                                  
   EAUG   =  511.368                                                            
   DEXC   =    0.000                                                            
   RMAX   =    2.356    core radius for proj-oper                               
   RAUG   =    1.300    factor for augmentation sphere                          
   RDEP   =    2.442    radius for radial grids                                 
   RDEPT  =    1.890    core radius for aug-charge                              
                                                                                
   Atomic configuration                                                         
    9 entries                                                                   
     n  l   j            E        occ.                                          
     1  0  0.50     -6993.8440   2.0000                                         
     2  0  0.50      -814.6047   2.0000                                         
     2  1  1.50      -693.3689   6.0000                                         
     3  0  0.50       -89.4732   2.0000                                         
     3  1  1.50       -55.6373   6.0000                                         
     3  2  2.50        -3.8151   7.0000                                         
     4  0  0.50        -4.2551   1.0000                                         
     4  1  1.50        -3.4015   0.0000                                         
     4  3  2.50        -1.3606   0.0000                                         
   Description                                                                  
     l       E           TYP  RCUT    TYP  RCUT                                 
     2     -3.8151135     23  2.300                                             
     2     -5.1756961     23  2.300                                             
     0     -4.2550963     23  2.300                                             
     0      7.2035603     23  2.300                                             
     1     -2.7211652     23  2.300                                             
     1     18.4316424     23  2.300                                             
  local pseudopotential read in
  partial core-charges read in
  partial kinetic energy density read in
  atomic valenz-charges read in
  non local Contribution for L=           2  read in
    real space projection operators read in
  non local Contribution for L=           2  read in
    real space projection operators read in
  non local Contribution for L=           0  read in
    real space projection operators read in
  non local Contribution for L=           0  read in
    real space projection operators read in
  non local Contribution for L=           1  read in
    real space projection operators read in
  non local Contribution for L=           1  read in
    real space projection operators read in
    PAW grid and wavefunctions read in
 
   number of l-projection  operators is LMAX  =           6
   number of lm-projection operators is LMMAX =          18
 
 POTCAR:    PAW_PBE O 08Apr2002                   
   VRHFIN =O: s2p4                                                              
   LEXCH  = PE                                                                  
   EATOM  =   432.3788 eV,   31.7789 Ry                                         
                                                                                
   TITEL  = PAW_PBE O 08Apr2002                                                 
   LULTRA =        F    use ultrasoft PP ?                                      
   IUNSCR =        1    unscreen: 0-lin 1-nonlin 2-no                           
   RPACOR =    1.200    partial core radius                                     
   POMASS =   16.000; ZVAL   =    6.000    mass and valenz                      
   RCORE  =    1.520    outmost cutoff radius                                   
   RWIGS  =    1.550; RWIGS  =    0.820    wigner-seitz radius (au A)           
   ENMAX  =  400.000; ENMIN  =  300.000 eV                                      
   ICORE  =        2    local potential                                         
   LCOR   =        T    correct aug charges                                     
   LPAW   =        T    paw PP                                                  
   EAUG   =  605.392                                                            
   DEXC   =    0.000                                                            
   RMAX   =    1.553    core radius for proj-oper                               
   RAUG   =    1.300    factor for augmentation sphere                          
   RDEP   =    1.550    radius for radial grids                                 
   RDEPT  =    1.329    core radius for aug-charge                              
                                                                                
   Atomic configuration                                                         
    4 entries                                                                   
     n  l   j            E        occ.                                          
     1  0  0.50      -514.6923   2.0000                                         
     2  0  0.50       -23.9615   2.0000                                         
     2  1  0.50        -9.0305   4.0000                                         
     3  2  1.50        -9.5241   0.0000                                         
   Description                                                                  
     l       E           TYP  RCUT    TYP  RCUT                                 
     0    -23.9615318     23  1.200                                             
     0     -9.5240782     23  1.200                                             
     1     -9.0304911     23  1.520                                             
     1      8.1634956     23  1.520                                             
     2     -9.5240782      7  1.500                                             
  local pseudopotential read in
  partial core-charges read in
  partial kinetic energy density read in
  kinetic energy density of atom read in
  atomic valenz-charges read in
  non local Contribution for L=           0  read in
    real space projection operators read in
  non local Contribution for L=           0  read in
    real space projection operators read in
  non local Contribution for L=           1  read in
    real space projection operators read in
  non local Contribution for L=           1  read in
    real space projection operators read in
    PAW grid and wavefunctions read in
 
   number of l-projection  operators is LMAX  =           4
   number of lm-projection operators is LMMAX =           8
 
 POTCAR:    PAW_PBE H 15Jun2001                   
   VRHFIN =H: ultrasoft test                                                    
   LEXCH  = PE                                                                  
   EATOM  =    12.4884 eV,    0.9179 Ry                                         
                                                                                
   TITEL  = PAW_PBE H 15Jun2001                                                 
   LULTRA =        F    use ultrasoft PP ?                                      
   IUNSCR =        0    unscreen: 0-lin 1-nonlin 2-no                           
   RPACOR =    0.000    partial core radius                                     
   POMASS =    1.000; ZVAL   =    1.000    mass and valenz                      
   RCORE  =    1.100    outmost cutoff radius                                   
   RWIGS  =    0.700; RWIGS  =    0.370    wigner-seitz radius (au A)           
   ENMAX  =  250.000; ENMIN  =  200.000 eV                                      
   RCLOC  =    0.701    cutoff for local pot                                    
   LCOR   =        T    correct aug charges                                     
   LPAW   =        T    paw PP                                                  
   EAUG   =  400.000                                                            
   RMAX   =    1.123    core radius for proj-oper                               
   RAUG   =    1.200    factor for augmentation sphere                          
   RDEP   =    1.112    radius for radial grids                                 
   RDEPT  =    0.926    core radius for aug-charge                              
                                                                                
   Atomic configuration                                                         
    2 entries                                                                   
     n  l   j            E        occ.                                          
     1  0  0.50        -6.4927   1.0000                                         
     2  1  0.50        -3.4015   0.0000                                         
   Description                                                                  
     l       E           TYP  RCUT    TYP  RCUT                                 
     0     -6.4927494     23  1.100                                             
     0      6.8029130     23  1.100                                             
     1     -4.0817478     23  1.100                                             
  local pseudopotential read in
  atomic valenz-charges read in
  non local Contribution for L=           0  read in
    real space projection operators read in
  non local Contribution for L=           0  read in
    real space projection operators read in
  non local Contribution for L=           1  read in
    real space projection operators read in
    PAW grid and wavefunctions read in
 
   number of l-projection  operators is LMAX  =           3
   number of lm-projection operators is LMMAX =           5
 
 Optimization of the real space projectors (new method)

 maximal supplied QI-value         = 16.25
 optimisation between [QCUT,QGAM] = [ 11.54, 23.24] = [ 37.28,151.24] Ry 
 Optimized for a Real-space Cutoff    1.53 Angstroem

   l    n(q)    QCUT    max X(q) W(low)/X(q) W(high)/X(q)  e(spline) 
   2     10    11.539    80.901    0.11E-03    0.14E-03    0.21E-06
   2     10    11.539    75.754    0.11E-03    0.14E-03    0.22E-06
   0     11    11.539    58.752    0.52E-04    0.18E-04    0.33E-06
   0     11    11.539    30.679    0.44E-04    0.16E-04    0.30E-06
   1     10    11.539    17.977    0.53E-04    0.29E-04    0.13E-06
   1     10    11.539    13.559    0.44E-04    0.25E-04    0.11E-06
 Optimization of the real space projectors (new method)

 maximal supplied QI-value         = 24.76
 optimisation between [QCUT,QGAM] = [ 11.64, 23.27] = [ 37.91,151.63] Ry 
 Optimized for a Real-space Cutoff    1.14 Angstroem

   l    n(q)    QCUT    max X(q) W(low)/X(q) W(high)/X(q)  e(spline) 
   0      8    11.635    20.381    0.10E-03    0.33E-03    0.24E-06
   0      8    11.635    15.268    0.11E-03    0.35E-03    0.26E-06
   1      7    11.635     5.964    0.24E-03    0.31E-03    0.30E-06
   1      7    11.635     5.382    0.22E-03    0.25E-03    0.26E-06
 Optimization of the real space projectors (new method)

 maximal supplied QI-value         = 34.20
 optimisation between [QCUT,QGAM] = [ 11.63, 23.26] = [ 37.87,151.49] Ry 
 Optimized for a Real-space Cutoff    1.21 Angstroem

   l    n(q)    QCUT    max X(q) W(low)/X(q) W(high)/X(q)  e(spline) 
   0      8    11.629    19.460    0.17E-03    0.34E-03    0.21E-06
   0      8    11.629    12.209    0.16E-03    0.33E-03    0.21E-06
   1      8    11.629     4.655    0.18E-03    0.16E-03    0.26E-06
  PAW_PBE Fe 06Sep2000                  :
 energy of atom  1       EATOM= -594.3153
 kinetic energy error for atom=    0.0026 (will be added to EATOM!!)
  PAW_PBE O 08Apr2002                   :
 energy of atom  2       EATOM= -432.3788
 kinetic energy error for atom=    0.0208 (will be added to EATOM!!)
  PAW_PBE H 15Jun2001                   :
 energy of atom  3       EATOM=  -12.4884
 kinetic energy error for atom=    0.0014 (will be added to EATOM!!)
 
 
 POSCAR: POSCAR                                  
  positions in direct lattice
  velocities in cartesian coordinates
 exchange correlation table for  LEXCH =        8
   RHO(1)=    0.500       N(1)  =     2000
   RHO(2)=  100.500       N(2)  =     4000

 VTST: version 3.2, (02/03/18)

 CHAIN: initializing optimizer
 
 OPT: Using VASP Conjugate-Gradient optimizer
 CHAIN: Read ICHAIN            0
 
 POSCAR: POSCAR                                  
  positions in direct lattice
  velocities in cartesian coordinates
 


--------------------------------------------------------------------------------------------------------


 ion  position               nearest neighbor table
   1  0.087  0.163  0.095-   5 2.48  13 2.48  17 2.48  49 2.48  31 2.48   3 2.48  29 2.87  53 2.87
                            15 2.87  19 2.87
   2  0.088  0.161  0.285-  32 2.38   3 2.44  31 2.46   4 2.46  50 2.47  14 2.47   6 2.49  18 2.49
                            20 2.82  15 2.83  54 2.84  19 2.85  16 2.87  30 2.89
   3  0.212  0.038  0.191-   2 2.44  54 2.44  15 2.48   7 2.48  51 2.48  19 2.48  53 2.48   1 2.48
                             6 2.83  50 2.85  31 2.87  55 2.87  49 2.87   5 2.87
   4  0.205  0.030  0.381-  65 1.87  16 2.41  52 2.42  54 2.46   2 2.46  20 2.54   8 2.55  50 2.77
                            32 2.87  56 2.87   6 2.95
   5  0.337  0.163  0.095-   1 2.48   9 2.48  21 2.48  53 2.48   7 2.48  19 2.48  17 2.87  57 2.87
                             3 2.87  23 2.87
   6  0.338  0.163  0.285-   7 2.44  19 2.44  20 2.45   8 2.45  22 2.48  10 2.48  54 2.49   2 2.49
                            24 2.81  23 2.83   3 2.83  58 2.85  18 2.85   4 2.95
   7  0.462  0.038  0.191-   6 2.44  58 2.44  11 2.48   3 2.48  55 2.48  23 2.48  57 2.48   5 2.48
                            10 2.84  54 2.85  19 2.87  59 2.87  53 2.87   9 2.87
   8  0.460  0.036  0.380-  65 1.88  12 2.43  58 2.45  56 2.45   6 2.45  24 2.48   4 2.55  54 2.83
                            60 2.84  20 2.85  10 2.86
   9  0.587  0.163  0.095-   5 2.48  13 2.48  25 2.48  57 2.48  11 2.48  23 2.48  21 2.87  61 2.87
                             7 2.87  27 2.87
  10  0.588  0.162  0.286-  24 2.42  12 2.44  11 2.46  23 2.46  58 2.47   6 2.48  14 2.49  26 2.49
                             7 2.84  27 2.85  62 2.86   8 2.86  28 2.86  22 2.87
  11  0.712  0.038  0.191-  62 2.44  10 2.46  15 2.48   7 2.48  59 2.48  27 2.48  61 2.48   9 2.48
                            14 2.84  58 2.84  23 2.87  63 2.87  57 2.87  13 2.87
  12  0.707  0.029  0.379-  66 1.85  60 2.38  62 2.43   8 2.43  10 2.44  16 2.54  28 2.57  58 2.74
                            64 2.85  24 2.88  14 2.92
  13  0.837  0.163  0.095-   1 2.48   9 2.48  29 2.48  61 2.48  15 2.48  27 2.48  49 2.87  25 2.87
                            11 2.87  31 2.87
  14  0.838  0.163  0.285-  28 2.44  15 2.44  27 2.45  16 2.47   2 2.47  30 2.48  62 2.49  10 2.49
                            32 2.78  31 2.83  11 2.84  50 2.86  26 2.87  12 2.92
  15  0.962  0.038  0.191-  14 2.44  50 2.46   3 2.48  11 2.48  31 2.48  63 2.48  13 2.48  49 2.48
                             2 2.83  62 2.84  27 2.87  51 2.87   1 2.87  61 2.87
  16  0.961  0.033  0.380-  66 1.86   4 2.41  50 2.43  64 2.44  14 2.47  12 2.54  32 2.55  62 2.82
                            52 2.82  28 2.83   2 2.87
  17  0.087  0.413  0.095-  21 2.48  29 2.48   1 2.48  33 2.48  19 2.48  47 2.48  45 2.87   5 2.87
                            31 2.87  35 2.87
  18  0.088  0.411  0.285-  48 2.42  19 2.44  20 2.45  47 2.46  22 2.47  34 2.48   2 2.49  30 2.49
                            36 2.74  32 2.75  31 2.84  35 2.84   6 2.85  46 2.88
  19  0.212  0.288  0.191-   6 2.44  18 2.44  23 2.48  31 2.48   3 2.48  35 2.48   5 2.48  17 2.48
                            22 2.84   2 2.85   7 2.87  47 2.87  21 2.87   1 2.87
  20  0.211  0.285  0.380-  65 1.87  36 2.43  18 2.45  32 2.45   6 2.45  24 2.49   4 2.54   2 2.82
                            48 2.84   8 2.85  22 2.85
  21  0.337  0.413  0.095-  17 2.48  25 2.48   5 2.48  37 2.48  35 2.48  23 2.48   9 2.87  33 2.87
                            19 2.87  39 2.87
  22  0.337  0.413  0.286-  24 2.43  36 2.43  35 2.46  23 2.46  18 2.47   6 2.48  38 2.49  26 2.49
                            19 2.84  39 2.85  20 2.85  34 2.86  40 2.86  10 2.87
  23  0.462  0.288  0.191-  10 2.46  22 2.46  19 2.48  27 2.48   7 2.48  39 2.48  21 2.48   9 2.48
                             6 2.83  35 2.87  11 2.87  25 2.87   5 2.87  26 2.87
  24  0.461  0.285  0.378-  69 2.02  10 2.42  22 2.43   8 2.48  20 2.49  28 2.55  40 2.55   6 2.81
                            26 2.82  12 2.88  36 2.89
  25  0.587  0.413  0.095-  21 2.48  29 2.48   9 2.48  41 2.48  39 2.48  27 2.48  13 2.87  37 2.87
                            23 2.87  43 2.87
  26  0.588  0.413  0.287-  30 2.47  42 2.47  40 2.48  28 2.48  27 2.48  39 2.48  10 2.49  22 2.49
                            44 2.78  24 2.82  43 2.86  23 2.87  14 2.87  38 2.87
  27  0.712  0.288  0.191-  14 2.45  26 2.48  23 2.48  31 2.48  11 2.48  43 2.48  25 2.48  13 2.48
                            30 2.83  10 2.85  39 2.87  15 2.87   9 2.87  29 2.87
  28  0.718  0.283  0.381-  66 1.90  69 2.05  14 2.44  32 2.46  26 2.48  44 2.48  24 2.55  12 2.57
                            16 2.83  30 2.85  10 2.86  40 2.98
  29  0.837  0.413  0.095-  17 2.48  25 2.48  13 2.48  45 2.48  43 2.48  31 2.48   1 2.87  41 2.87
                            27 2.87  47 2.87
  30  0.837  0.413  0.285-  32 2.38  43 2.44  44 2.44  31 2.45  26 2.47  46 2.48  14 2.48  18 2.49
                            48 2.81  47 2.83  27 2.83  42 2.85  28 2.85   2 2.89
  31  0.962  0.288  0.191-  30 2.45   2 2.46  27 2.48  19 2.48  15 2.48  47 2.48   1 2.48  29 2.48
                            14 2.83  18 2.84  43 2.87   3 2.87  17 2.87  13 2.87
  32  0.964  0.288  0.375-   2 2.38  30 2.38  48 2.43  20 2.45  28 2.46  16 2.55  18 2.75  14 2.78
                            44 2.87   4 2.87
  33  0.087  0.663  0.095-  37 2.48  45 2.48  17 2.48  49 2.48  35 2.48  63 2.48  61 2.87  21 2.87
                            47 2.87  51 2.87
  34  0.087  0.661  0.285-  64 2.40  36 2.43  35 2.44  63 2.45  46 2.48  18 2.48  38 2.49  50 2.49
                            52 2.82  47 2.83  48 2.84  51 2.84  22 2.86  62 2.88
  35  0.212  0.538  0.191-  34 2.44  22 2.46  39 2.48  47 2.48  19 2.48  51 2.48  21 2.48  33 2.48
                            38 2.84  18 2.84  23 2.87  63 2.87  37 2.87  17 2.87
  36  0.204  0.531  0.379-  68 1.85  48 2.38  34 2.43  20 2.43  22 2.43  52 2.54  40 2.57  18 2.74
                            64 2.86  24 2.89  38 2.92
  37  0.337  0.663  0.095-  33 2.48  41 2.48  21 2.48  53 2.48  51 2.48  39 2.48  25 2.87  49 2.87
                            35 2.87  55 2.87
  38  0.337  0.663  0.285-  40 2.44  51 2.45  39 2.45  52 2.47  54 2.48  42 2.49  34 2.49  22 2.49
                            56 2.78  55 2.83  35 2.84  50 2.86  26 2.87  36 2.92
  39  0.462  0.538  0.191-  38 2.45  26 2.48  35 2.48  43 2.48  23 2.48  55 2.48  37 2.48  25 2.48
                            42 2.83  22 2.85  51 2.87  27 2.87  21 2.87  41 2.87
  40  0.458  0.543  0.381-  68 1.90  69 2.05  38 2.44  56 2.46  26 2.48  44 2.48  24 2.55  36 2.57
                            52 2.83  42 2.85  22 2.86  28 2.98
  41  0.587  0.663  0.095-  37 2.48  45 2.48  25 2.48  57 2.48  55 2.48  43 2.48  29 2.87  53 2.87
                            39 2.87  59 2.87
  42  0.588  0.662  0.285-  56 2.38  43 2.44  44 2.45  55 2.45  26 2.47  46 2.48  38 2.49  58 2.49
                            60 2.81  59 2.83  39 2.83  30 2.85  40 2.85  54 2.89
  43  0.712  0.538  0.191-  30 2.44  42 2.44  39 2.48  47 2.48  27 2.48  59 2.48  41 2.48  29 2.48
                            46 2.83  26 2.86  55 2.87  31 2.87  25 2.87  45 2.87
  44  0.711  0.535  0.379-  67 1.94  30 2.44  42 2.45  28 2.48  40 2.48  48 2.50  60 2.51  26 2.78
                            32 2.87  56 2.87  46 2.87
  45  0.837  0.663  0.095-  33 2.48  41 2.48  29 2.48  61 2.48  59 2.48  47 2.48  17 2.87  57 2.87
                            43 2.87  63 2.87
  46  0.837  0.663  0.284-  59 2.43  47 2.43  60 2.47  48 2.47  34 2.48  62 2.48  42 2.48  30 2.48
                            64 2.80  63 2.82  43 2.83  44 2.87  58 2.88  18 2.88
  47  0.962  0.538  0.191-  46 2.43  18 2.46  43 2.48  35 2.48  31 2.48  63 2.48  17 2.48  45 2.48
                            34 2.83  30 2.83  59 2.87  19 2.87  33 2.87  29 2.87
  48  0.963  0.533  0.379-  67 1.86  36 2.38  18 2.42  32 2.43  46 2.47  44 2.50  64 2.52  30 2.81
                            34 2.84  20 2.84  60 2.93
  49  0.087  0.913  0.095-  53 2.48  61 2.48   1 2.48  33 2.48  15 2.48  51 2.48  37 2.87  13 2.87
                             3 2.87  63 2.87
  50  0.087  0.912  0.286-  16 2.43  52 2.43  15 2.46  51 2.46   2 2.47  54 2.47  62 2.49  34 2.49
                             4 2.77  64 2.78  63 2.84   3 2.85  14 2.86  38 2.86
  51  0.212  0.788  0.191-  38 2.45  50 2.46  55 2.48  63 2.48   3 2.48  35 2.48  49 2.48  37 2.48
                            54 2.83  34 2.84  39 2.87  15 2.87  53 2.87  33 2.87
  52  0.207  0.786  0.380-  68 1.86   4 2.42  50 2.43  64 2.44  38 2.47  36 2.54  56 2.55  34 2.82
                            16 2.82  40 2.83  54 2.87
  53  0.337  0.913  0.095-  49 2.48  57 2.48   5 2.48  37 2.48  55 2.48   3 2.48  41 2.87   1 2.87
                             7 2.87  51 2.87
  54  0.335  0.913  0.285-  56 2.38   3 2.44  55 2.46   4 2.46  50 2.47  38 2.48   6 2.49  58 2.49
                             8 2.83  51 2.83   2 2.84   7 2.85  52 2.87  42 2.89
  55  0.462  0.788  0.191-  42 2.45  54 2.46  51 2.48  59 2.48   7 2.48  39 2.48  41 2.48  53 2.48
                            38 2.83  58 2.84  43 2.87   3 2.87  37 2.87  57 2.87
  56  0.463  0.789  0.375-  42 2.38  54 2.38  60 2.43   8 2.45  40 2.46  52 2.55  58 2.75  38 2.78
                             4 2.87  44 2.87
  57  0.587  0.913  0.095-  53 2.48  61 2.48   9 2.48  41 2.48  59 2.48   7 2.48  45 2.87   5 2.87
                            11 2.87  55 2.87
  58  0.586  0.914  0.285-  60 2.42   7 2.44   8 2.45  59 2.46  10 2.47  62 2.48  54 2.49  42 2.49
                            12 2.74  56 2.75  55 2.84  11 2.84   6 2.85  46 2.88
  59  0.712  0.788  0.191-  46 2.43  58 2.46  55 2.48  63 2.48  11 2.48  43 2.48  45 2.48  57 2.48
                            62 2.83  42 2.83  47 2.87   7 2.87  41 2.87  61 2.87
  60  0.708  0.789  0.379-  67 1.86  12 2.38  58 2.42  56 2.43  46 2.47  44 2.51  64 2.52  42 2.81
                             8 2.84  62 2.84  48 2.93
  61  0.837  0.913  0.095-  49 2.48  57 2.48  13 2.48  45 2.48  11 2.48  63 2.48   9 2.87  33 2.87
                            59 2.87  15 2.87
  62  0.836  0.913  0.285-  64 2.40  12 2.43  11 2.44  63 2.45  46 2.48  58 2.48  50 2.49  14 2.49
                            16 2.82  59 2.83  15 2.84  60 2.84  10 2.86  34 2.88
  63  0.962  0.788  0.191-  62 2.45  34 2.45  59 2.48  51 2.48  47 2.48  15 2.48  61 2.48  33 2.48
                            46 2.82  50 2.84  35 2.87  11 2.87  49 2.87  45 2.87
  64  0.962  0.788  0.376-  62 2.40  34 2.40  52 2.44  16 2.44  60 2.52  48 2.52  50 2.78  46 2.80
                            12 2.85  36 2.86
  65  0.300  0.126  0.431-   4 1.87  20 1.87   8 1.88
  66  0.802  0.117  0.431-  12 1.85  16 1.86  28 1.90
  67  0.811  0.636  0.429-  48 1.86  60 1.86  44 1.94
  68  0.291  0.627  0.431-  36 1.85  52 1.86  40 1.90
  69  0.554  0.379  0.442-  70 0.97  24 2.02  28 2.05  40 2.05
  70  0.550  0.375  0.488-  69 0.97
 

IMPORTANT INFORMATION: All symmetrisations will be switched off!
NOSYMM: (Re-)initialisation of all symmetry stuff for point group C_1.

 
 

Automatic generation of k-mesh.
 generate k-points for:    3    3    1
Space group operators:
 irot       det(A)        alpha          n_x          n_y          n_z        tau_x        tau_y        tau_z
    1     1.000000     0.000001     1.000000     0.000000     0.000000     0.000000     0.000000     0.000000
 
 Subroutine IBZKPT returns following result:
 ===========================================
 
 Found      5 irreducible k-points:
 
 Following reciprocal coordinates:
            Coordinates               Weight
  0.000000  0.000000  0.000000      1.000000
  0.333333  0.000000  0.000000      2.000000
  0.000000  0.333333  0.000000      2.000000
  0.333333  0.333333  0.000000      2.000000
 -0.333333  0.333333  0.000000      2.000000
 
 Following cartesian coordinates:
            Coordinates               Weight
  0.000000  0.000000  0.000000      1.000000
  0.033570 -0.011869  0.000000      2.000000
  0.000000  0.035606  0.000000      2.000000
  0.033570  0.023738  0.000000      2.000000
 -0.033570  0.047475  0.000000      2.000000
 


--------------------------------------------------------------------------------------------------------




 Dimension of arrays:
   k-points           NKPTS =      5   k-points in BZ     NKDIM =      5   number of bands    NBANDS=    360
   number of dos      NEDOS =    301   number of ions     NIONS =     70
   non local maximal  LDIM  =      6   non local SUM 2l+1 LMDIM =     18
   total plane-waves  NPLWV = ******
   max r-space proj   IRMAX =   7948   max aug-charges    IRDMAX=  18812
   dimension x,y,z NGX =    80 NGY =   80 NGZ =  160
   dimension x,y,z NGXF=   160 NGYF=  160 NGZF=  320
   support grid    NGXF=   160 NGYF=  160 NGZF=  320
   ions per type =              64   5   1
   NGX,Y,Z   is equivalent  to a cutoff of  13.39, 13.39, 12.62 a.u.
   NGXF,Y,Z  is equivalent  to a cutoff of  26.79, 26.79, 25.24 a.u.

 SYSTEM =  SQS-NiFe                                
 POSCAR =  POSCAR                                  

 Startparameter for this run:
   NWRITE =      2    write-flag & timer
   PREC   = accura    normal or accurate (medium, high low for compatibility)
   ISTART =      1    job   : 0-new  1-cont  2-samecut
   ICHARG =      1    charge: 1-file 2-atom 10-const
   ISPIN  =      2    spin polarized calculation?
   LNONCOLLINEAR =      F non collinear calculations
   LSORBIT =      F    spin-orbit coupling
   INIWAV =      1    electr: 0-lowe 1-rand  2-diag
   LASPH  =      F    aspherical Exc in radial PAW
   METAGGA=      F    non-selfconsistent MetaGGA calc.

 Electronic Relaxation 1
   ENCUT  =  520.0 eV  38.22 Ry    6.18 a.u.  18.46 18.46 39.20*2*pi/ulx,y,z
   ENINI  =  520.0     initial cutoff
   ENAUG  =  605.4 eV  augmentation charge cutoff
   NELM   =    200;   NELMIN=  2; NELMDL=  0     # of ELM steps 
   EDIFF  = 0.1E-04   stopping-criterion for ELM
   LREAL  =      T    real-space projection
   NLSPLINE    = F    spline interpolate recip. space projectors
   LCOMPAT=      F    compatible to vasp.4.4
   GGA_COMPAT  = T    GGA compatible to vasp.4.4-vasp.4.6
   LMAXPAW     = -100 max onsite density
   LMAXMIX     =    2 max onsite mixed and CHGCAR
   VOSKOWN=      0    Vosko Wilk Nusair interpolation
   ROPT   =   -0.00025  -0.00025  -0.00025
 Ionic relaxation
   EDIFFG = -.5E-01   stopping-criterion for IOM
   NSW    =     99    number of steps for IOM
   NBLOCK =      1;   KBLOCK =     99    inner block; outer block 
   IBRION =      2    ionic relax: 0-MD 1-quasi-New 2-CG
   NFREE  =      1    steps in history (QN), initial steepest desc. (CG)
   ISIF   =      2    stress and relaxation
   IWAVPR =     11    prediction:  0-non 1-charg 2-wave 3-comb
   ISYM   =      0    0-nonsym 1-usesym 2-fastsym
   LCORR  =      T    Harris-Foulkes like correction to forces

   POTIM  = 0.5000    time-step for ionic-motion
   TEIN   =    0.0    initial temperature
   TEBEG  =    0.0;   TEEND  =   0.0 temperature during run
   SMASS  =  -3.00    Nose mass-parameter (am)
   estimated Nose-frequenzy (Omega)   =  0.10E-29 period in steps =****** mass=  -0.225E-26a.u.
   SCALEE = 1.0000    scale energy and forces
   NPACO  =    256;   APACO  = 16.0  distance and # of slots for P.C.
   PSTRESS=    0.0 pullay stress

  Mass of Ions in am
   POMASS =  55.85 16.00  1.00
  Ionic Valenz
   ZVAL   =   8.00  6.00  1.00
  Atomic Wigner-Seitz radii
   RWIGS  =  -1.00 -1.00 -1.00
  virtual crystal weights 
   VCA    =   1.00  1.00  1.00
   NELECT =     543.0000    total number of electrons
   NUPDOWN=      -1.0000    fix difference up-down

 DOS related values:
   EMIN   =  10.00;   EMAX   =-10.00  energy-range for DOS
   EFERMI =   0.00
   ISMEAR =     1;   SIGMA  =   0.20  broadening in eV -4-tet -1-fermi 0-gaus

 Electronic relaxation 2 (details)
   IALGO  =     68    algorithm
   LDIAG  =      T    sub-space diagonalisation (order eigenvalues)
   LSUBROT=      F    optimize rotation matrix (better conditioning)
   TURBO    =      0    0=normal 1=particle mesh
   IRESTART =      0    0=no restart 2=restart with 2 vectors
   NREBOOT  =      0    no. of reboots
   NMIN     =      0    reboot dimension
   EREF     =   0.00    reference energy to select bands
   IMIX   =      4    mixing-type and parameters
     AMIX     =   0.40;   BMIX     =  1.00
     AMIX_MAG =   1.60;   BMIX_MAG =  1.00
     AMIN     =   0.10
     WC   =   100.;   INIMIX=   1;  MIXPRE=   1;  MAXMIX= -45

 Intra band minimization:
   WEIMIN = 0.0010     energy-eigenvalue tresh-hold
   EBREAK =  0.69E-08  absolut break condition
   DEPER  =   0.30     relativ break condition  

   TIME   =   0.40     timestep for ELM

  volume/ion in A,a.u.               =      27.99       188.91
  Fermi-wavevector in a.u.,A,eV,Ry     =   1.067304  2.016911 15.498899  1.139137
  Thomas-Fermi vector in A             =   2.202916
 
 Write flags
   LWAVE        =      T    write WAVECAR
   LDOWNSAMPLE  =      F    k-point downsampling of WAVECAR
   LCHARG       =      T    write CHGCAR
   LVTOT        =      F    write LOCPOT, total local potential
   LVHAR        =      F    write LOCPOT, Hartree potential only
   LELF         =      F    write electronic localiz. function (ELF)
   LORBIT       =     10    0 simple, 1 ext, 2 COOP (PROOUT), +10 PAW based schemes


 Dipole corrections
   LMONO  =      F    monopole corrections only (constant potential shift)
   LDIPOL =      T    correct potential (dipole corrections)
   IDIPOL =      3    1-x, 2-y, 3-z, 4-all directions 
   EPSILON=  1.0000000 bulk dielectric constant

 Exchange correlation treatment:
   GGA     =    --    GGA type
   LEXCH   =     8    internal setting for exchange type
   VOSKOWN=      0    Vosko Wilk Nusair interpolation
   LHFCALC =     F    Hartree Fock is set to
   LHFONE  =     F    Hartree Fock one center treatment
   AEXX    =    0.0000 exact exchange contribution

 Linear response parameters
   LEPSILON=     F    determine dielectric tensor
   LRPA    =     F    only Hartree local field effects (RPA)
   LNABLA  =     F    use nabla operator in PAW spheres
   LVEL    =     F    velocity operator in full k-point grid
   LINTERFAST=   F  fast interpolation
   KINTER  =     0    interpolate to denser k-point grid
   CSHIFT  =0.1000    complex shift for real part using Kramers Kronig
   OMEGAMAX=  -1.0    maximum frequency
   DEG_THRESHOLD= 0.2000000E-02 threshold for treating states as degnerate
   RTIME   =   -0.100 relaxation time in fs
  (WPLASMAI=    0.000 imaginary part of plasma frequency in eV, 0.658/RTIME)
   DFIELD  = 0.0000000 0.0000000 0.0000000 field for delta impulse in time
 
 Orbital magnetization related:
   ORBITALMAG=     F  switch on orbital magnetization
   LCHIMAG   =     F  perturbation theory with respect to B field
   DQ        =  0.001000  dq finite difference perturbation B field
   LLRAUG    =     F  two centre corrections for induced B field



--------------------------------------------------------------------------------------------------------


 conjugate gradient relaxation of ions
   using selective dynamics as specified on POSCAR
 charge density and potential will be updated during run
 spin polarized calculation
 RMM-DIIS sequential band-by-band and
  variant of blocked Davidson during initial phase
 perform sub-space diagonalisation
    before iterative eigenvector-optimisation
 modified Broyden-mixing scheme, WC =      100.0
 initial mixing is a Kerker type mixing with AMIX =  0.4000 and BMIX =      1.0000
 Hartree-type preconditioning will be used
 using additional bands           88
 real space projection scheme for non local part
 use partial core corrections
 calculate Harris-corrections to forces 
   (improved forces if not selfconsistent)
 use gradient corrections 
 use of overlap-Matrix (Vanderbilt PP)
 Methfessel and Paxton  Order N= 1 SIGMA  =   0.20


--------------------------------------------------------------------------------------------------------


  energy-cutoff  :      520.00
  volume of cell :     1959.57
      direct lattice vectors                 reciprocal lattice vectors
     9.929500000  0.000000000  0.000000000     0.100710006 -0.035606363  0.000000000
     3.309833230  9.361622420  0.000000000     0.000000000  0.106819091  0.000000000
     0.000000000  0.000000000 21.080550000     0.000000000  0.000000000  0.047437092

  length of vectors
     9.929500000  9.929500005 21.080550000     0.106819091  0.106819091  0.047437092


 
 old parameters found on file WAVECAR:
  energy-cutoff  :      520.00
  volume of cell :     1959.57
      direct lattice vectors                 reciprocal lattice vectors
     9.929500000  0.000000000  0.000000000     0.100710006 -0.035606363  0.000000000
     3.309833230  9.361622420  0.000000000     0.000000000  0.106819091  0.000000000
     0.000000000  0.000000000 21.080550000     0.000000000  0.000000000  0.047437092

  length of vectors

 
 k-points in units of 2pi/SCALE and weight: read from INCAR                         
   0.00000000  0.00000000  0.00000000       0.111
   0.03357000 -0.01186879  0.00000000       0.222
   0.00000000  0.03560636  0.00000000       0.222
   0.03357000  0.02373758  0.00000000       0.222
  -0.03357000  0.04747515  0.00000000       0.222
 
 k-points in reciprocal lattice and weights: read from INCAR                         
   0.00000000  0.00000000  0.00000000       0.111
   0.33333333  0.00000000  0.00000000       0.222
   0.00000000  0.33333333  0.00000000       0.222
   0.33333333  0.33333333  0.00000000       0.222
  -0.33333333  0.33333333  0.00000000       0.222
 
 position of ions in fractional coordinates (direct lattice) 
   0.08738900  0.16261100  0.09487400
   0.08797430  0.16057319  0.28516474
   0.21238900  0.03761100  0.19102200
   0.20525252  0.03045142  0.38052777
   0.33738900  0.16261100  0.09487400
   0.33770945  0.16282026  0.28479482
   0.46238900  0.03761100  0.19102200
   0.45966740  0.03617632  0.37958542
   0.58738900  0.16261100  0.09487400
   0.58758028  0.16226127  0.28572388
   0.71238900  0.03761100  0.19102200
   0.70658992  0.02904303  0.37854257
   0.83738900  0.16261100  0.09487400
   0.83805065  0.16271092  0.28507052
   0.96238900  0.03761100  0.19102200
   0.96142382  0.03289583  0.37972928
   0.08738900  0.41261100  0.09487400
   0.08823402  0.41129304  0.28537308
   0.21238900  0.28761100  0.19102200
   0.21102813  0.28461454  0.37950206
   0.33738900  0.41261100  0.09487400
   0.33703443  0.41253200  0.28584812
   0.46238900  0.28761100  0.19102200
   0.46118918  0.28543697  0.37840871
   0.58738900  0.41261100  0.09487400
   0.58785946  0.41305017  0.28693807
   0.71238900  0.28761100  0.19102200
   0.71822001  0.28325258  0.38075120
   0.83738900  0.41261100  0.09487400
   0.83673276  0.41329439  0.28499033
   0.96238900  0.28761100  0.19102200
   0.96358499  0.28833124  0.37477139
   0.08738900  0.66261100  0.09487400
   0.08734857  0.66141565  0.28513431
   0.21238900  0.53761100  0.19102200
   0.20374096  0.53142589  0.37854918
   0.33738900  0.66261100  0.09487400
   0.33734921  0.66315407  0.28512799
   0.46238900  0.53761100  0.19102200
   0.45812418  0.54323618  0.38076802
   0.58738900  0.66261100  0.09487400
   0.58804038  0.66201841  0.28498206
   0.71238900  0.53761100  0.19102200
   0.71070051  0.53548099  0.37924516
   0.83738900  0.66261100  0.09487400
   0.83746589  0.66290867  0.28427706
   0.96238900  0.53761100  0.19102200
   0.96346001  0.53284381  0.37851557
   0.08738900  0.91261100  0.09487400
   0.08690259  0.91221068  0.28580992
   0.21238900  0.78761100  0.19102200
   0.20737910  0.78646719  0.37976889
   0.33738900  0.91261100  0.09487400
   0.33533639  0.91314777  0.28519478
   0.46238900  0.78761100  0.19102200
   0.46325857  0.78865029  0.37474552
   0.58738900  0.91261100  0.09487400
   0.58609837  0.91364814  0.28538002
   0.71238900  0.78761100  0.19102200
   0.70758346  0.78880535  0.37853132
   0.83738900  0.91261100  0.09487400
   0.83618084  0.91279639  0.28506110
   0.96238900  0.78761100  0.19102200
   0.96182126  0.78750920  0.37635688
   0.30049013  0.12568763  0.43081808
   0.80233602  0.11673952  0.43080537
   0.81080516  0.63604547  0.42944053
   0.29146134  0.62736700  0.43065320
   0.55400330  0.37891023  0.44224272
   0.55026009  0.37518281  0.48834620
 
 position of ions in cartesian coordinates  (Angst):
   1.40594437  1.52230278  1.99999610
   1.40501124  1.50322555  6.01142961
   2.23340271  0.35209998  4.02684882
   2.13884400  0.28507474  8.02173462
   3.88831937  1.52230278  1.99999610
   3.89219390  1.52426184  6.00363150
   4.71577771  0.35209998  4.02684882
   4.68400500  0.33866906  8.00186938
   6.37069437  1.52230278  1.99999610
   6.37143609  1.51902873  6.02321645
   7.19815271  0.35209998  4.02684882
   7.11221224  0.27188992  7.97988566
   8.85306937  1.52230278  1.99999610
   8.85996996  1.52323824  6.00944331
   9.68052771  0.35209998  4.02684882
   9.65533752  0.30795836  8.00490212
   2.23340267  3.86270839  1.99999610
   2.23743107  3.85037016  6.01582142
   3.06086102  2.69250559  4.02684882
   3.03743046  2.66445386  8.00011220
   4.71577767  3.86270839  1.99999610
   4.71199547  3.86196886  6.02583562
   5.54323602  2.69250559  4.02684882
   5.52412677  2.67215314  7.97706375
   7.19815267  3.86270839  1.99999610
   7.20427770  3.86681976  6.04881242
   8.02561102  2.69250559  4.02684882
   8.06908442  2.65170375  8.02644470
   9.68052767  3.86270839  1.99999610
   9.67627348  3.86910605  6.00775284
  10.50798602  2.69250559  4.02684882
  10.52224548  2.69924821  7.90038693
   3.06086098  6.20311399  1.99999610
   3.05650315  6.19192357  6.01078813
   3.88831933  5.03291119  4.02684882
   3.78197692  4.97500855  7.98002495
   5.54323598  6.20311399  1.99999610
   5.54463836  6.20819797  6.01065476
   6.37069433  5.03291119  4.02684882
   6.34696523  5.08557201  8.02679925
   8.02561098  6.20311399  1.99999610
   8.03011749  6.19756636  6.00757855
   8.85306933  5.03291119  4.02684882
   8.82925348  5.01297083  7.99469650
  10.50798598  6.20311399  1.99999610
  10.50973468  6.20590069  5.99271682
  11.33544433  5.03291119  4.02684882
  11.33030027  4.98828254  7.97931642
   3.88831929  8.54351960  1.99999610
   3.88216454  8.53977199  6.02503033
   4.71577764  7.37331680  4.02684882
   4.66224599  7.36260886  8.00573697
   6.37069429  8.54351960  1.99999610
   6.35208949  8.54854462  6.01206279
   7.19815264  7.37331680  4.02684882
   7.21022686  7.38304621  7.89984160
   8.85306929  8.54351960  1.99999610
   8.84368670  8.55322894  6.01596783
   9.68052764  7.37331680  4.02684882
   9.63676409  7.38449785  7.97964851
  11.33544429  8.54351960  1.99999610
  11.32406146  8.54525512  6.00924479
  12.16290264  7.37331680  4.02684882
  12.15692829  7.37236375  7.93381006
   3.39972184  1.17664016  9.08188206
   8.35318382  1.09287130  9.08161413
  10.15609431  5.95441753  9.05284258
   4.97054552  5.87317295  9.07840637
   6.75510546  3.54721449  9.32271969
   6.70560009  3.51231980 10.29460641
 


--------------------------------------------------------------------------------------------------------


 k-point  1 :   0.0000 0.0000 0.0000  plane waves:   52797
 k-point  2 :   0.3333 0.0000 0.0000  plane waves:   52741
 k-point  3 :   0.0000 0.3333 0.0000  plane waves:   52741
 k-point  4 :   0.3333 0.3333 0.0000  plane waves:   52754
 k-point  5 :  -0.3333 0.3333 0.0000  plane waves:   52703

 maximum and minimum number of plane-waves per node :      2214     2178

 maximum number of plane-waves:     52797
 maximum index in each direction: 
   IXMAX=   18   IYMAX=   18   IZMAX=   39
   IXMIN=  -18   IYMIN=  -18   IZMIN=  -39


 real space projection operators:
  total allocation   :      69836.53 KBytes
  max/ min on nodes  :       3507.55       2556.71


 parallel 3D FFT for wavefunctions:
    minimum data exchange during FFTs selected (reduces bandwidth)
 parallel 3D FFT for charge:
    minimum data exchange during FFTs selected (reduces bandwidth)


 total amount of memory used by VASP MPI-rank0   111405. kBytes
=======================================================================

   base      :      30000. kBytes
   nonlr-proj:      13674. kBytes
   fftplans  :       6401. kBytes
   grid      :      17692. kBytes
   one-center:         93. kBytes
   wavefun   :      43545. kBytes
 
     INWAV:  cpu time   10.3866: real time   10.5764
 Broyden mixing: mesh for mixing (old mesh)
   NGX = 37   NGY = 37   NGZ = 79
  (NGX  =160   NGY  =160   NGZ  =320)
  gives a total of 108151 points

 initial charge density was supplied:
 number of electron     543.0000214 magnetization     160.1935990
 keeping initial charge density in first step


--------------------------------------------------------------------------------------------------------


 Maximum index for non-local projection operator          802
 Maximum index for augmentation-charges         1214 (set IRDMAX)


--------------------------------------------------------------------------------------------------------


 First call to EWALD:  gamma=   0.142
 Maximum number of real-space cells 4x 4x 2
 Maximum number of reciprocal cells 2x 2x 4

    FEWALD:  cpu time    0.0036: real time    0.0036


--------------------------------------- Iteration      1(   1)  ---------------------------------------


    POTLOK:  cpu time    0.4107: real time    0.4198
    SETDIJ:  cpu time    0.0250: real time    0.0250
     EDDAV:  cpu time   34.3758: real time   34.4016
       DOS:  cpu time    0.0083: real time    0.0082
    CHARGE:  cpu time    1.2028: real time    1.2093
    MIXING:  cpu time    0.0064: real time    0.0064
    --------------------------------------------
      LOOP:  cpu time   36.0291: real time   36.0705

 eigenvalue-minimisations  :  7902
 total energy-change (2. order) :-0.5341851E+03  (-0.1051860E+03)
 number of electron     543.0000216 magnetization     159.8989002
 augmentation part      271.6214614 magnetization     128.2448537

 DIPCOR: dipole corrections for dipol
 direction  3 min pos   242,
 dipolmoment           0.000000      0.000000     -0.008956 electrons x Angstroem
 Tr[quadrupol]     -8929.430265

 energy correction for charged system         0.000000 eV
 dipol+quadrupol energy correction           -0.000004 eV
 added-field ion interaction         -0.041753 eV  (added to PSCEN)


 Broyden mixing:
  rms(total) = 0.57180E+00    rms(broyden)= 0.57177E+00
  rms(prec ) = 0.57814E+00
  weight for this iteration     100.00

 Free energy of the ion-electron system (eV)
  ---------------------------------------------------
  alpha Z        PSCENC =      1564.84471583
  Ewald energy   TEWEN  =    149059.93402034
  -Hartree energ DENC   =   -189516.89951185
  -exchange      EXHF   =         0.00000000
  -V(xc)+E(xc)   XCENC  =       423.54197421
  PAW double counting   =     47614.01808465   -48205.34329554
  entropy T*S    EENTRO =         0.13845478
  eigenvalues    EBANDS =     -1684.70805671
  atomic energy  EATOM  =     40210.28846851
  Solvation  Ediel_sol  =         0.00000000
  ---------------------------------------------------
  free energy    TOTEN  =      -534.18514576 eV

  energy without entropy =     -534.32360054  energy(sigma->0) =     -534.23129736


--------------------------------------------------------------------------------------------------------




--------------------------------------- Iteration      1(   2)  ---------------------------------------


    POTLOK:  cpu time    0.4081: real time    0.4199
    SETDIJ:  cpu time    0.0245: real time    0.0245
    EDDIAG:  cpu time    4.8894: real time    4.8952
  RMM-DIIS:  cpu time   17.5682: real time   17.5765
    ORTHCH:  cpu time    1.2950: real time    1.2952
       DOS:  cpu time    0.0084: real time    0.0083
    CHARGE:  cpu time    1.2072: real time    1.2077
    MIXING:  cpu time    0.0065: real time    0.0065
    --------------------------------------------
      LOOP:  cpu time   25.4072: real time   25.4339

 eigenvalue-minimisations  :  7376
 total energy-change (2. order) :-0.7347182E+01  (-0.7014909E+01)
 number of electron     543.0000215 magnetization     159.7993658
 augmentation part      269.3049843 magnetization     127.5670392

 DIPCOR: dipole corrections for dipol
 direction  3 min pos   234,
 dipolmoment           0.000000      0.000000     -0.020442 electrons x Angstroem
 Tr[quadrupol]     -8929.258713

 energy correction for charged system         0.000000 eV
 dipol+quadrupol energy correction           -0.000019 eV
 added-field ion interaction          0.444936 eV  (added to PSCEN)


 Broyden mixing:
  rms(total) = 0.94825E+00    rms(broyden)= 0.94823E+00
  rms(prec ) = 0.98770E+00
  weight for this iteration     100.00

 eigenvalues of (default mixing * dielectric matrix)
  average eigenvalue GAMMA=   0.3446
  0.3446

 Free energy of the ion-electron system (eV)
  ---------------------------------------------------
  alpha Z        PSCENC =      1565.33138937
  Ewald energy   TEWEN  =    149059.93402034
  -Hartree energ DENC   =   -189536.11780952
  -exchange      EXHF   =         0.00000000
  -V(xc)+E(xc)   XCENC  =       422.86919503
  PAW double counting   =     47782.58812238   -48382.88549491
  entropy T*S    EENTRO =         0.11114424
  eigenvalues    EBANDS =     -1663.65136344
  atomic energy  EATOM  =     40210.28846851
  Solvation  Ediel_sol  =         0.00000000
  ---------------------------------------------------
  free energy    TOTEN  =      -541.53232801 eV

  energy without entropy =     -541.64347225  energy(sigma->0) =     -541.56937609


--------------------------------------------------------------------------------------------------------




--------------------------------------- Iteration      1(   3)  ---------------------------------------


    POTLOK:  cpu time    0.4089: real time    0.4202
    SETDIJ:  cpu time    0.0246: real time    0.0246
    EDDIAG:  cpu time    4.8668: real time    4.8752
  RMM-DIIS:  cpu time   20.5357: real time   20.5491
    ORTHCH:  cpu time    1.2993: real time    1.2996
       DOS:  cpu time    0.0082: real time    0.0082
    CHARGE:  cpu time    1.2054: real time    1.2055
    MIXING:  cpu time    0.0065: real time    0.0065
    --------------------------------------------
      LOOP:  cpu time   28.3553: real time   28.3888

 eigenvalue-minimisations  :  8689
 total energy-change (2. order) :-0.1659406E+01  (-0.1820907E+01)
 number of electron     543.0000212 magnetization     159.7291016
 augmentation part      269.0784913 magnetization     128.0017889

 DIPCOR: dipole corrections for dipol
 direction  3 min pos   245,
 dipolmoment           0.000000      0.000000      0.017994 electrons x Angstroem
 Tr[quadrupol]     -8929.839212

 energy correction for charged system         0.000000 eV
 dipol+quadrupol energy correction           -0.000015 eV
 added-field ion interaction          0.262226 eV  (added to PSCEN)


 Broyden mixing:
  rms(total) = 0.78752E+00    rms(broyden)= 0.78748E+00
  rms(prec ) = 0.88917E+00
  weight for this iteration     100.00

 eigenvalues of (default mixing * dielectric matrix)
  average eigenvalue GAMMA=   0.2254
  0.2855  0.1654

 Free energy of the ion-electron system (eV)
  ---------------------------------------------------
  alpha Z        PSCENC =      1565.14868336
  Ewald energy   TEWEN  =    149059.93402034
  -Hartree energ DENC   =   -189542.84010642
  -exchange      EXHF   =         0.00000000
  -V(xc)+E(xc)   XCENC  =       422.37611265
  PAW double counting   =     47752.79341025   -48349.38439591
  entropy T*S    EENTRO =         0.08783478
  eigenvalues    EBANDS =     -1661.59576137
  atomic energy  EATOM  =     40210.28846851
  Solvation  Ediel_sol  =         0.00000000
  ---------------------------------------------------
  free energy    TOTEN  =      -543.19173380 eV

  energy without entropy =     -543.27956858  energy(sigma->0) =     -543.22101206


--------------------------------------------------------------------------------------------------------




--------------------------------------- Iteration      1(   4)  ---------------------------------------


    POTLOK:  cpu time    0.4095: real time    0.4225
    SETDIJ:  cpu time    0.0245: real time    0.0245
    EDDIAG:  cpu time    4.8779: real time    4.8802
  RMM-DIIS:  cpu time   20.6987: real time   20.7182
    ORTHCH:  cpu time    1.3043: real time    1.3045
       DOS:  cpu time    0.0084: real time    0.0084
    CHARGE:  cpu time    1.2061: real time    1.2063
    MIXING:  cpu time    0.0066: real time    0.0066
    --------------------------------------------
      LOOP:  cpu time   28.5359: real time   28.5712

 eigenvalue-minimisations  :  8788
 total energy-change (2. order) : 0.3312727E-02  (-0.4257966E+00)
 number of electron     543.0000213 magnetization     159.6888965
 augmentation part      269.3821641 magnetization     127.1397703

 DIPCOR: dipole corrections for dipol
 direction  3 min pos   240,
 dipolmoment           0.000000      0.000000     -0.044515 electrons x Angstroem
 Tr[quadrupol]     -8929.349822

 energy correction for charged system         0.000000 eV
 dipol+quadrupol energy correction           -0.000092 eV
 added-field ion interaction          0.086579 eV  (added to PSCEN)


 Broyden mixing:
  rms(total) = 0.40506E+00    rms(broyden)= 0.40503E+00
  rms(prec ) = 0.45603E+00
  weight for this iteration     100.00

 eigenvalues of (default mixing * dielectric matrix)
  average eigenvalue GAMMA=   0.3327
  0.4283  0.4283  0.1415

 Free energy of the ion-electron system (eV)
  ---------------------------------------------------
  alpha Z        PSCENC =      1564.97295949
  Ewald energy   TEWEN  =    149059.93402034
  -Hartree energ DENC   =   -189526.07219048
  -exchange      EXHF   =         0.00000000
  -V(xc)+E(xc)   XCENC  =       421.94686163
  PAW double counting   =     47735.03084760   -48330.25107595
  entropy T*S    EENTRO =         0.07926641
  eigenvalues    EBANDS =     -1679.11757863
  atomic energy  EATOM  =     40210.28846851
  Solvation  Ediel_sol  =         0.00000000
  ---------------------------------------------------
  free energy    TOTEN  =      -543.18842108 eV

  energy without entropy =     -543.26768748  energy(sigma->0) =     -543.21484321


--------------------------------------------------------------------------------------------------------




--------------------------------------- Iteration      1(   5)  ---------------------------------------


    POTLOK:  cpu time    0.4119: real time    0.4253
    SETDIJ:  cpu time    0.0247: real time    0.0247
    EDDIAG:  cpu time    4.8822: real time    4.8842
  RMM-DIIS:  cpu time   20.5723: real time   20.5933
    ORTHCH:  cpu time    1.2973: real time    1.2975
       DOS:  cpu time    0.0083: real time    0.0083
    CHARGE:  cpu time    1.2046: real time    1.2048
    MIXING:  cpu time    0.0067: real time    0.0067
    --------------------------------------------
      LOOP:  cpu time   28.4088: real time   28.4447

 eigenvalue-minimisations  :  8766
 total energy-change (2. order) :-0.3682007E+00  (-0.1988262E+00)
 number of electron     543.0000215 magnetization     159.5962609
 augmentation part      269.2846987 magnetization     127.8175445

 DIPCOR: dipole corrections for dipol
 direction  3 min pos   243,
 dipolmoment           0.000000      0.000000      0.107003 electrons x Angstroem
 Tr[quadrupol]     -8929.400888

 energy correction for charged system         0.000000 eV
 dipol+quadrupol energy correction           -0.000529 eV
 added-field ion interaction          0.852344 eV  (added to PSCEN)


 Broyden mixing:
  rms(total) = 0.67704E+00    rms(broyden)= 0.67701E+00
  rms(prec ) = 0.93622E+00
  weight for this iteration     100.00

 eigenvalues of (default mixing * dielectric matrix)
  average eigenvalue GAMMA=   0.3329
  0.5538  0.5538  0.1541  0.0700

 Free energy of the ion-electron system (eV)
  ---------------------------------------------------
  alpha Z        PSCENC =      1565.73828807
  Ewald energy   TEWEN  =    149059.93402034
  -Hartree energ DENC   =   -189524.01539112
  -exchange      EXHF   =         0.00000000
  -V(xc)+E(xc)   XCENC  =       421.94527874
  PAW double counting   =     47715.70593890   -48309.75801965
  entropy T*S    EENTRO =         0.14195960
  eigenvalues    EBANDS =     -1683.53716521
  atomic energy  EATOM  =     40210.28846851
  Solvation  Ediel_sol  =         0.00000000
  ---------------------------------------------------
  free energy    TOTEN  =      -543.55662180 eV

  energy without entropy =     -543.69858140  energy(sigma->0) =     -543.60394166


--------------------------------------------------------------------------------------------------------




--------------------------------------- Iteration      1(   6)  ---------------------------------------


    POTLOK:  cpu time    0.4103: real time    0.4245
    SETDIJ:  cpu time    0.0245: real time    0.0245
    EDDIAG:  cpu time    4.8846: real time    4.8859
  RMM-DIIS:  cpu time   18.7218: real time   18.7402
    ORTHCH:  cpu time    1.3006: real time    1.3009
       DOS:  cpu time    0.0081: real time    0.0081
    CHARGE:  cpu time    1.2056: real time    1.2058
    MIXING:  cpu time    0.0070: real time    0.0070
    --------------------------------------------
      LOOP:  cpu time   26.5615: real time   26.5968

 eigenvalue-minimisations  :  7921
 total energy-change (2. order) : 0.2866299E+00  (-0.7128117E-01)
 number of electron     543.0000214 magnetization     159.5273308
 augmentation part      269.7047063 magnetization     127.1853395

 DIPCOR: dipole corrections for dipol
 direction  3 min pos   241,
 dipolmoment           0.000000      0.000000     -0.011958 electrons x Angstroem
 Tr[quadrupol]     -8929.359948

 energy correction for charged system         0.000000 eV
 dipol+quadrupol energy correction           -0.000007 eV
 added-field ion interaction         -0.016246 eV  (added to PSCEN)


 Broyden mixing:
  rms(total) = 0.25132E+00    rms(broyden)= 0.25129E+00
  rms(prec ) = 0.25968E+00
  weight for this iteration     100.00

 eigenvalues of (default mixing * dielectric matrix)
  average eigenvalue GAMMA=   0.3623
  0.6160  0.6160  0.3659  0.1447  0.0689

 Free energy of the ion-electron system (eV)
  ---------------------------------------------------
  alpha Z        PSCENC =      1564.87021991
  Ewald energy   TEWEN  =    149059.93402034
  -Hartree energ DENC   =   -189517.79496650
  -exchange      EXHF   =         0.00000000
  -V(xc)+E(xc)   XCENC  =       421.72148224
  PAW double counting   =     47681.08562885   -48273.32521683
  entropy T*S    EENTRO =         0.08209909
  eigenvalues    EBANDS =     -1690.13172753
  atomic energy  EATOM  =     40210.28846851
  Solvation  Ediel_sol  =         0.00000000
  ---------------------------------------------------
  free energy    TOTEN  =      -543.26999190 eV

  energy without entropy =     -543.35209100  energy(sigma->0) =     -543.29735827


--------------------------------------------------------------------------------------------------------




--------------------------------------- Iteration      1(   7)  ---------------------------------------


    POTLOK:  cpu time    0.4101: real time    0.4242
    SETDIJ:  cpu time    0.0249: real time    0.0249
    EDDIAG:  cpu time    4.8391: real time    4.8404
  RMM-DIIS:  cpu time   19.5436: real time   19.5641
    ORTHCH:  cpu time    1.2974: real time    1.2976
       DOS:  cpu time    0.0084: real time    0.0084
    CHARGE:  cpu time    1.2039: real time    1.2041
    MIXING:  cpu time    0.0070: real time    0.0070
    --------------------------------------------
      LOOP:  cpu time   27.3345: real time   27.3707

 eigenvalue-minimisations  :  8269
 total energy-change (2. order) :-0.2719635E-01  (-0.4615752E-01)
 number of electron     543.0000214 magnetization     159.4204398
 augmentation part      269.8165738 magnetization     127.0307382

 DIPCOR: dipole corrections for dipol
 direction  3 min pos   236,
 dipolmoment           0.000000      0.000000     -0.013738 electrons x Angstroem
 Tr[quadrupol]     -8929.365286

 energy correction for charged system         0.000000 eV
 dipol+quadrupol energy correction           -0.000009 eV
 added-field ion interaction          0.208251 eV  (added to PSCEN)


 Broyden mixing:
  rms(total) = 0.23565E+00    rms(broyden)= 0.23564E+00
  rms(prec ) = 0.24451E+00
  weight for this iteration     100.00

 eigenvalues of (default mixing * dielectric matrix)
  average eigenvalue GAMMA=   0.4251
  0.8327  0.8327  0.4862  0.1820  0.1478  0.0693

 Free energy of the ion-electron system (eV)
  ---------------------------------------------------
  alpha Z        PSCENC =      1565.09471491
  Ewald energy   TEWEN  =    149059.93402034
  -Hartree energ DENC   =   -189516.58673955
  -exchange      EXHF   =         0.00000000
  -V(xc)+E(xc)   XCENC  =       421.73559944
  PAW double counting   =     47662.49043406   -48254.28225027
  entropy T*S    EENTRO =         0.08160904
  eigenvalues    EBANDS =     -1692.05304472
  atomic energy  EATOM  =     40210.28846851
  Solvation  Ediel_sol  =         0.00000000
  ---------------------------------------------------
  free energy    TOTEN  =      -543.29718825 eV

  energy without entropy =     -543.37879729  energy(sigma->0) =     -543.32439126


--------------------------------------------------------------------------------------------------------




--------------------------------------- Iteration      1(   8)  ---------------------------------------


    POTLOK:  cpu time    0.4122: real time    0.4241
    SETDIJ:  cpu time    0.0246: real time    0.0245
    EDDIAG:  cpu time    4.8350: real time    4.8374
  RMM-DIIS:  cpu time   18.7195: real time   18.7393
    ORTHCH:  cpu time    1.3029: real time    1.3031
       DOS:  cpu time    0.0080: real time    0.0080
    CHARGE:  cpu time    1.2054: real time    1.2056
    MIXING:  cpu time    0.0073: real time    0.0073
    --------------------------------------------
      LOOP:  cpu time   26.5147: real time   26.5493

 eigenvalue-minimisations  :  7900
 total energy-change (2. order) :-0.1735065E-01  (-0.2778635E-01)
 number of electron     543.0000214 magnetization     159.2679208
 augmentation part      269.8417766 magnetization     126.9157173

 DIPCOR: dipole corrections for dipol
 direction  3 min pos   237,
 dipolmoment           0.000000      0.000000     -0.010060 electrons x Angstroem
 Tr[quadrupol]     -8929.466420

 energy correction for charged system         0.000000 eV
 dipol+quadrupol energy correction           -0.000005 eV
 added-field ion interaction          0.119268 eV  (added to PSCEN)


 Broyden mixing:
  rms(total) = 0.16944E+00    rms(broyden)= 0.16944E+00
  rms(prec ) = 0.17500E+00
  weight for this iteration     100.00

 eigenvalues of (default mixing * dielectric matrix)
  average eigenvalue GAMMA=   0.4744
  1.0105  1.0105  0.4538  0.4538  0.0693  0.1454  0.1774

 Free energy of the ion-electron system (eV)
  ---------------------------------------------------
  alpha Z        PSCENC =      1565.00573597
  Ewald energy   TEWEN  =    149059.93402034
  -Hartree energ DENC   =   -189519.00226516
  -exchange      EXHF   =         0.00000000
  -V(xc)+E(xc)   XCENC  =       421.84447981
  PAW double counting   =     47637.59738691   -48229.02377538
  entropy T*S    EENTRO =         0.08112164
  eigenvalues    EBANDS =     -1690.03971155
  atomic energy  EATOM  =     40210.28846851
  Solvation  Ediel_sol  =         0.00000000
  ---------------------------------------------------
  free energy    TOTEN  =      -543.31453890 eV

  energy without entropy =     -543.39566054  energy(sigma->0) =     -543.34157944


--------------------------------------------------------------------------------------------------------




--------------------------------------- Iteration      1(   9)  ---------------------------------------


    POTLOK:  cpu time    0.4087: real time    0.4215
    SETDIJ:  cpu time    0.0246: real time    0.0246
    EDDIAG:  cpu time    5.5491: real time    5.8753
  RMM-DIIS:  cpu time   18.9978: real time   19.0173
    ORTHCH:  cpu time    1.2950: real time    1.2960
       DOS:  cpu time    0.0078: real time    0.0078
    CHARGE:  cpu time    1.2038: real time    1.2041
    MIXING:  cpu time    0.0074: real time    0.0074
    --------------------------------------------
      LOOP:  cpu time   27.4942: real time   27.8539

 eigenvalue-minimisations  :  7766
 total energy-change (2. order) :-0.2939275E-01  (-0.2281849E-01)
 number of electron     543.0000214 magnetization     159.0650084
 augmentation part      269.9125798 magnetization     126.7719904

 DIPCOR: dipole corrections for dipol
 direction  3 min pos   240,
 dipolmoment           0.000000      0.000000     -0.004674 electrons x Angstroem
 Tr[quadrupol]     -8929.527097

 energy correction for charged system         0.000000 eV
 dipol+quadrupol energy correction           -0.000001 eV
 added-field ion interaction          0.009091 eV  (added to PSCEN)


 Broyden mixing:
  rms(total) = 0.16895E+00    rms(broyden)= 0.16895E+00
  rms(prec ) = 0.18325E+00
  weight for this iteration     100.00

 eigenvalues of (default mixing * dielectric matrix)
  average eigenvalue GAMMA=   0.4913
  1.1422  1.1422  0.5353  0.5353  0.0693  0.1451  0.1804  0.1804

 Free energy of the ion-electron system (eV)
  ---------------------------------------------------
  alpha Z        PSCENC =      1564.89556236
  Ewald energy   TEWEN  =    149059.93402034
  -Hartree energ DENC   =   -189519.86826963
  -exchange      EXHF   =         0.00000000
  -V(xc)+E(xc)   XCENC  =       421.88288268
  PAW double counting   =     47606.68516301   -48197.34071616
  entropy T*S    EENTRO =         0.08235153
  eigenvalues    EBANDS =     -1689.90339431
  atomic energy  EATOM  =     40210.28846851
  Solvation  Ediel_sol  =         0.00000000
  ---------------------------------------------------
  free energy    TOTEN  =      -543.34393165 eV

  energy without entropy =     -543.42628318  energy(sigma->0) =     -543.37138216


--------------------------------------------------------------------------------------------------------




--------------------------------------- Iteration      1(  10)  ---------------------------------------


    POTLOK:  cpu time    0.4108: real time    0.4240
    SETDIJ:  cpu time    0.0247: real time    0.0247
    EDDIAG:  cpu time    4.8450: real time    4.8461
  RMM-DIIS:  cpu time   17.9474: real time   17.9628
    ORTHCH:  cpu time    1.2963: real time    1.2965
       DOS:  cpu time    0.0086: real time    0.0086
    CHARGE:  cpu time    1.2035: real time    1.2083
    MIXING:  cpu time    0.0075: real time    0.0075
    --------------------------------------------
      LOOP:  cpu time   25.7438: real time   25.7785

 eigenvalue-minimisations  :  7599
 total energy-change (2. order) :-0.1262866E-01  (-0.1864888E-01)
 number of electron     543.0000214 magnetization     158.8904248
 augmentation part      270.0255504 magnetization     126.6177328

 DIPCOR: dipole corrections for dipol
 direction  3 min pos   241,
 dipolmoment           0.000000      0.000000      0.002781 electrons x Angstroem
 Tr[quadrupol]     -8929.570443

 energy correction for charged system         0.000000 eV
 dipol+quadrupol energy correction           -0.000000 eV
 added-field ion interaction          0.003778 eV  (added to PSCEN)


 Broyden mixing:
  rms(total) = 0.81142E-01    rms(broyden)= 0.81138E-01
  rms(prec ) = 0.97200E-01
  weight for this iteration     100.00

 eigenvalues of (default mixing * dielectric matrix)
  average eigenvalue GAMMA=   0.5342
  1.2280  1.2280  0.6185  0.6185  0.5579  0.0693  0.1846  0.1451  0.1581

 Free energy of the ion-electron system (eV)
  ---------------------------------------------------
  alpha Z        PSCENC =      1564.89025026
  Ewald energy   TEWEN  =    149059.93402034
  -Hartree energ DENC   =   -189519.88215433
  -exchange      EXHF   =         0.00000000
  -V(xc)+E(xc)   XCENC  =       421.86693603
  PAW double counting   =     47569.19896640   -48158.83756822
  entropy T*S    EENTRO =         0.08263205
  eigenvalues    EBANDS =     -1690.89811137
  atomic energy  EATOM  =     40210.28846851
  Solvation  Ediel_sol  =         0.00000000
  ---------------------------------------------------
  free energy    TOTEN  =      -543.35656031 eV

  energy without entropy =     -543.43919236  energy(sigma->0) =     -543.38410432


--------------------------------------------------------------------------------------------------------




--------------------------------------- Iteration      1(  11)  ---------------------------------------


    POTLOK:  cpu time    0.4116: real time    0.4258
    SETDIJ:  cpu time    0.0248: real time    0.0248
    EDDIAG:  cpu time    4.8385: real time    4.8407
  RMM-DIIS:  cpu time   18.6794: real time   18.6863
    ORTHCH:  cpu time    1.3003: real time    1.3070
       DOS:  cpu time    0.0085: real time    0.0085
    CHARGE:  cpu time    1.2089: real time    1.2091
    MIXING:  cpu time    0.0079: real time    0.0079
    --------------------------------------------
      LOOP:  cpu time   26.4799: real time   26.5100

 eigenvalue-minimisations  :  7891
 total energy-change (2. order) :-0.2866881E-01  (-0.1930015E-01)
 number of electron     543.0000214 magnetization     158.7282961
 augmentation part      270.1055657 magnetization     126.4735046

 DIPCOR: dipole corrections for dipol
 direction  3 min pos   242,
 dipolmoment           0.000000      0.000000      0.000467 electrons x Angstroem
 Tr[quadrupol]     -8929.618239

 energy correction for charged system         0.000000 eV
 dipol+quadrupol energy correction           -0.000000 eV
 added-field ion interaction          0.002177 eV  (added to PSCEN)


 Broyden mixing:
  rms(total) = 0.10189E+00    rms(broyden)= 0.10189E+00
  rms(prec ) = 0.11550E+00
  weight for this iteration     100.00

 eigenvalues of (default mixing * dielectric matrix)
  average eigenvalue GAMMA=   0.5828
  2.2035  0.8131  0.8131  0.6362  0.6362  0.0693  0.1795  0.1795  0.1486  0.1486

 Free energy of the ion-electron system (eV)
  ---------------------------------------------------
  alpha Z        PSCENC =      1564.88864883
  Ewald energy   TEWEN  =    149059.93402034
  -Hartree energ DENC   =   -189520.39107265
  -exchange      EXHF   =         0.00000000
  -V(xc)+E(xc)   XCENC  =       421.79073728
  PAW double counting   =     47546.52186093   -48135.46751496
  entropy T*S    EENTRO =         0.07796372
  eigenvalues    EBANDS =     -1691.02834111
  atomic energy  EATOM  =     40210.28846851
  Solvation  Ediel_sol  =         0.00000000
  ---------------------------------------------------
  free energy    TOTEN  =      -543.38522911 eV

  energy without entropy =     -543.46319283  energy(sigma->0) =     -543.41121702


--------------------------------------------------------------------------------------------------------




--------------------------------------- Iteration      1(  12)  ---------------------------------------


    POTLOK:  cpu time    0.4105: real time    0.4227
    SETDIJ:  cpu time    0.0244: real time    0.0244
    EDDIAG:  cpu time    4.8664: real time    4.8727
  RMM-DIIS:  cpu time   18.3881: real time   18.3971
    ORTHCH:  cpu time    1.2926: real time    1.2929
       DOS:  cpu time    0.0084: real time    0.0084
    CHARGE:  cpu time    1.2035: real time    1.2046
    MIXING:  cpu time    0.0081: real time    0.0081
    --------------------------------------------
      LOOP:  cpu time   26.2020: real time   26.2307

 eigenvalue-minimisations  :  7735
 total energy-change (2. order) :-0.2446195E-01  (-0.1939351E-01)
 number of electron     543.0000214 magnetization     158.6717244
 augmentation part      270.1670416 magnetization     126.4109854

 DIPCOR: dipole corrections for dipol
 direction  3 min pos   242,
 dipolmoment           0.000000      0.000000     -0.000331 electrons x Angstroem
 Tr[quadrupol]     -8929.637604

 energy correction for charged system         0.000000 eV
 dipol+quadrupol energy correction           -0.000000 eV
 added-field ion interaction         -0.001543 eV  (added to PSCEN)


 Broyden mixing:
  rms(total) = 0.61785E-01    rms(broyden)= 0.61783E-01
  rms(prec ) = 0.68113E-01
  weight for this iteration     100.00

 eigenvalues of (default mixing * dielectric matrix)
  average eigenvalue GAMMA=   0.5887
  2.3769  0.8763  0.8763  0.6027  0.6027  0.4131  0.0693  0.1942  0.1698  0.1445
  0.1505

 Free energy of the ion-electron system (eV)
  ---------------------------------------------------
  alpha Z        PSCENC =      1564.88492908
  Ewald energy   TEWEN  =    149059.93402034
  -Hartree energ DENC   =   -189520.40991061
  -exchange      EXHF   =         0.00000000
  -V(xc)+E(xc)   XCENC  =       421.71163396
  PAW double counting   =     47530.40910357   -48118.83863263
  entropy T*S    EENTRO =         0.07597757
  eigenvalues    EBANDS =     -1691.46528087
  atomic energy  EATOM  =     40210.28846851
  Solvation  Ediel_sol  =         0.00000000
  ---------------------------------------------------
  free energy    TOTEN  =      -543.40969106 eV

  energy without entropy =     -543.48566864  energy(sigma->0) =     -543.43501692


--------------------------------------------------------------------------------------------------------




--------------------------------------- Iteration      1(  13)  ---------------------------------------


    POTLOK:  cpu time    0.4272: real time    0.4277
    SETDIJ:  cpu time    0.0245: real time    0.0245
    EDDIAG:  cpu time    4.8630: real time    4.8726
  RMM-DIIS:  cpu time   19.8000: real time   19.8140
    ORTHCH:  cpu time    1.2978: real time    1.2981
       DOS:  cpu time    0.0085: real time    0.0084
    CHARGE:  cpu time    1.2033: real time    1.2040
    MIXING:  cpu time    0.0083: real time    0.0083
    --------------------------------------------
      LOOP:  cpu time   27.6325: real time   27.6576

 eigenvalue-minimisations  :  8390
 total energy-change (2. order) :-0.3046985E-01  (-0.1923743E-01)
 number of electron     543.0000214 magnetization     158.6151167
 augmentation part      270.1782043 magnetization     126.3523932

 DIPCOR: dipole corrections for dipol
 direction  3 min pos   242,
 dipolmoment           0.000000      0.000000     -0.000006 electrons x Angstroem
 Tr[quadrupol]     -8929.638851

 energy correction for charged system         0.000000 eV
 dipol+quadrupol energy correction           -0.000000 eV
 added-field ion interaction         -0.000026 eV  (added to PSCEN)


 Broyden mixing:
  rms(total) = 0.62820E-01    rms(broyden)= 0.62819E-01
  rms(prec ) = 0.68465E-01
  weight for this iteration     100.00

 eigenvalues of (default mixing * dielectric matrix)
  average eigenvalue GAMMA=   0.5842
  2.4424  0.9335  0.9335  0.6179  0.6179  0.5729  0.0693  0.1827  0.1827  0.1688
  0.1458  0.1429

 Free energy of the ion-electron system (eV)
  ---------------------------------------------------
  alpha Z        PSCENC =      1564.88644598
  Ewald energy   TEWEN  =    149059.93402034
  -Hartree energ DENC   =   -189520.67388089
  -exchange      EXHF   =         0.00000000
  -V(xc)+E(xc)   XCENC  =       421.70519277
  PAW double counting   =     47530.92096694   -48119.33143135
  entropy T*S    EENTRO =         0.07633532
  eigenvalues    EBANDS =     -1691.24627854
  atomic energy  EATOM  =     40210.28846851
  Solvation  Ediel_sol  =         0.00000000
  ---------------------------------------------------
  free energy    TOTEN  =      -543.44016092 eV

  energy without entropy =     -543.51649624  energy(sigma->0) =     -543.46560602


--------------------------------------------------------------------------------------------------------




--------------------------------------- Iteration      1(  14)  ---------------------------------------


    POTLOK:  cpu time    0.4101: real time    0.4247
    SETDIJ:  cpu time    0.0245: real time    0.0245
    EDDIAG:  cpu time    4.8736: real time    4.8820
  RMM-DIIS:  cpu time   18.4160: real time   18.4294
    ORTHCH:  cpu time    1.2930: real time    1.2935
       DOS:  cpu time    0.0083: real time    0.0083
    CHARGE:  cpu time    1.2037: real time    1.2039
    MIXING:  cpu time    0.0084: real time    0.0083
    --------------------------------------------
      LOOP:  cpu time   26.2375: real time   26.2746

 eigenvalue-minimisations  :  7792
 total energy-change (2. order) :-0.3204128E-01  (-0.1661916E-01)
 number of electron     543.0000214 magnetization     158.5744398
 augmentation part      270.1588830 magnetization     126.3123298

 DIPCOR: dipole corrections for dipol
 direction  3 min pos   241,
 dipolmoment           0.000000      0.000000      0.000412 electrons x Angstroem
 Tr[quadrupol]     -8929.639451

 energy correction for charged system         0.000000 eV
 dipol+quadrupol energy correction           -0.000000 eV
 added-field ion interaction          0.000560 eV  (added to PSCEN)


 Broyden mixing:
  rms(total) = 0.45905E-01    rms(broyden)= 0.45904E-01
  rms(prec ) = 0.49570E-01
  weight for this iteration     100.00

 eigenvalues of (default mixing * dielectric matrix)
  average eigenvalue GAMMA=   0.5696
  2.4325  0.9353  0.9353  0.6123  0.6123  0.5677  0.4216  0.0693  0.1975  0.1763
  0.1539  0.1456  0.1456

 Free energy of the ion-electron system (eV)
  ---------------------------------------------------
  alpha Z        PSCENC =      1564.88703251
  Ewald energy   TEWEN  =    149059.93402034
  -Hartree energ DENC   =   -189521.22025613
  -exchange      EXHF   =         0.00000000
  -V(xc)+E(xc)   XCENC  =       421.72561671
  PAW double counting   =     47535.29349598   -48123.79098685
  entropy T*S    EENTRO =         0.07686846
  eigenvalues    EBANDS =     -1690.66646172
  atomic energy  EATOM  =     40210.28846851
  Solvation  Ediel_sol  =         0.00000000
  ---------------------------------------------------
  free energy    TOTEN  =      -543.47220219 eV

  energy without entropy =     -543.54907065  energy(sigma->0) =     -543.49782501


--------------------------------------------------------------------------------------------------------




--------------------------------------- Iteration      1(  15)  ---------------------------------------


    POTLOK:  cpu time    0.4094: real time    0.4228
    SETDIJ:  cpu time    0.0244: real time    0.0247
    EDDIAG:  cpu time    4.8490: real time    4.8502
  RMM-DIIS:  cpu time   18.3709: real time   18.3902
    ORTHCH:  cpu time    1.2957: real time    1.2959
       DOS:  cpu time    0.0084: real time    0.0084
    CHARGE:  cpu time    1.2020: real time    1.2030
    MIXING:  cpu time    0.0087: real time    0.0087
    --------------------------------------------
      LOOP:  cpu time   26.1685: real time   26.2039

 eigenvalue-minimisations  :  7775
 total energy-change (2. order) :-0.3059461E-01  (-0.1304627E-01)
 number of electron     543.0000214 magnetization     158.5151659
 augmentation part      270.1408208 magnetization     126.2548317

 DIPCOR: dipole corrections for dipol
 direction  3 min pos   241,
 dipolmoment           0.000000      0.000000      0.000975 electrons x Angstroem
 Tr[quadrupol]     -8929.638172

 energy correction for charged system         0.000000 eV
 dipol+quadrupol energy correction           -0.000000 eV
 added-field ion interaction          0.001325 eV  (added to PSCEN)


 Broyden mixing:
  rms(total) = 0.44236E-01    rms(broyden)= 0.44235E-01
  rms(prec ) = 0.48133E-01
  weight for this iteration     100.00

 eigenvalues of (default mixing * dielectric matrix)
  average eigenvalue GAMMA=   0.5788
[...]
   -.320E+00 0.223E+01 0.749E+03   0.307E+00 -.232E+01 -.749E+03   0.619E-01 0.233E-01 -.417E+00   0.137E-01 -.686E-04 -.772E-01
   -.649E+02 -.440E+02 -.160E+04   0.657E+02 0.450E+02 0.159E+04   -.773E+00 -.960E+00 0.311E+01   0.178E-01 -.169E-01 -.438E-02
   0.231E+00 -.178E+00 0.192E+04   -.256E+00 0.137E+00 -.192E+04   0.333E-01 0.367E-01 -.337E+01   0.407E-02 0.193E-02 -.170E-01
   -.129E+01 -.638E+01 -.445E+03   0.125E+01 0.611E+01 0.444E+03   0.362E-01 0.261E+00 0.599E+00   0.993E-02 0.789E-02 -.715E-01
   0.129E+01 0.954E+00 0.752E+03   -.126E+01 -.927E+00 -.752E+03   -.744E-01 -.531E-01 -.451E+00   0.715E-02 0.924E-03 -.674E-01
   0.388E+02 0.276E+02 -.166E+04   -.394E+02 -.280E+02 0.166E+04   0.578E+00 0.404E+00 0.409E+01   -.663E-02 -.127E-01 -.127E-01
   -.157E+00 -.114E+00 0.192E+04   0.172E+00 0.124E+00 -.192E+04   -.202E-01 -.143E-01 -.333E+01   -.966E-03 -.151E-03 -.162E-01
   -.454E+01 -.323E+01 -.439E+03   0.466E+01 0.330E+01 0.438E+03   -.102E+00 -.727E-01 0.109E+01   -.154E-01 0.665E-02 -.658E-01
   -.175E+01 0.201E+01 0.750E+03   0.177E+01 -.211E+01 -.750E+03   0.527E-01 0.399E-01 -.454E+00   -.132E-01 -.650E-02 -.794E-01
   -.793E+02 0.630E+02 -.167E+04   0.807E+02 -.644E+02 0.167E+04   -.141E+01 0.137E+01 0.253E+01   -.174E-01 -.641E-03 -.642E-02
   -.270E-03 -.242E-01 0.192E+04   0.518E-01 0.586E-01 -.192E+04   -.440E-01 -.313E-01 -.337E+01   -.274E-03 0.191E-02 -.220E-01
   0.556E+00 0.256E+00 -.465E+03   -.345E+00 -.133E+00 0.465E+03   -.204E+00 -.145E+00 -.664E-01   -.798E-02 0.214E-01 -.655E-01
   0.137E+01 -.189E+01 0.748E+03   -.143E+01 0.187E+01 -.748E+03   0.222E-01 0.493E-01 -.377E+00   0.583E-02 0.106E-01 -.851E-01
   0.252E+02 -.117E+03 -.168E+04   -.259E+02 0.119E+03 0.168E+04   0.653E+00 -.186E+01 0.246E+01   0.721E-03 0.156E-01 -.182E-02
   0.163E+00 -.706E-01 0.192E+04   -.188E+00 0.707E-01 -.192E+04   0.314E-01 0.112E-01 -.336E+01   0.851E-03 0.329E-04 -.180E-01
   0.193E+01 -.281E+01 -.457E+03   -.220E+01 0.294E+01 0.456E+03   0.257E+00 -.147E+00 0.649E+00   0.196E-01 0.113E-01 -.723E-01
   0.155E+00 -.183E+01 0.748E+03   -.121E+00 0.185E+01 -.748E+03   -.469E-01 -.153E-01 -.520E+00   0.118E-01 0.820E-02 -.698E-01
   -.743E+01 -.257E+02 -.170E+04   0.870E+01 0.260E+02 0.170E+04   -.129E+01 -.335E+00 0.454E+01   0.222E-01 0.872E-02 -.133E-01
   0.160E+00 -.130E+00 0.192E+04   -.128E+00 0.159E+00 -.192E+04   -.266E-01 -.256E-01 -.342E+01   0.915E-04 -.957E-03 -.126E-01
   0.444E+01 0.273E+01 -.455E+03   -.426E+01 -.256E+01 0.456E+03   -.193E+00 -.191E+00 -.201E+00   0.799E-02 0.703E-02 -.528E-01
   0.124E+01 -.235E+01 0.750E+03   -.134E+01 0.239E+01 -.750E+03   0.551E-01 0.354E-01 -.453E+00   -.735E-02 0.284E-02 -.697E-01
   0.329E+02 -.958E+02 -.167E+04   -.337E+02 0.975E+02 0.167E+04   0.820E+00 -.179E+01 0.253E+01   0.403E-02 0.322E-01 -.979E-02
   -.304E+00 -.191E+00 0.192E+04   0.269E+00 0.149E+00 -.192E+04   0.408E-01 0.283E-01 -.336E+01   -.667E-03 -.884E-03 -.202E-01
   -.436E+01 0.320E+01 -.449E+03   0.417E+01 -.319E+01 0.449E+03   0.211E+00 -.289E-01 0.621E+00   -.192E-01 0.199E-01 -.455E-01
   -.210E+01 -.156E+01 0.748E+03   0.215E+01 0.159E+01 -.748E+03   -.409E-02 -.349E-02 -.565E+00   -.105E-01 0.554E-02 -.792E-01
   -.112E+02 -.800E+01 -.171E+04   0.130E+02 0.920E+01 0.171E+04   -.172E+01 -.122E+01 0.498E+01   -.278E-01 0.282E-01 -.508E-02
   0.748E+01 0.525E+01 -.170E+04   -.617E+01 -.432E+01 0.173E+04   -.130E+01 -.918E+00 -.248E+02   0.162E-01 -.274E-02 0.148E-01
   -.382E+02 0.332E+02 -.170E+04   0.388E+02 -.320E+02 0.172E+04   -.528E+00 -.121E+01 -.252E+02   -.155E-01 0.594E-02 -.145E-01
   -.236E+02 -.167E+02 -.170E+04   0.252E+02 0.178E+02 0.173E+04   -.157E+01 -.111E+01 -.246E+02   0.246E-02 0.158E-01 0.134E-01
   0.185E+02 -.471E+02 -.170E+04   -.172E+02 0.472E+02 0.173E+04   -.133E+01 -.935E-01 -.252E+02   0.197E-01 0.131E-02 0.286E-01
   -.115E+02 -.813E+01 -.165E+04   0.148E+02 0.105E+02 0.162E+04   -.332E+01 -.241E+01 0.209E+02   0.169E-01 -.165E-01 0.398E-02
   0.374E+01 0.277E+01 -.341E+03   -.416E+01 -.307E+01 0.349E+03   0.412E+00 0.304E+00 -.820E+01   0.127E-02 -.162E-02 0.193E-02
 -----------------------------------------------------------------------------------------------
   0.110E+02 0.783E+01 0.901E+02   -.329E-12 -.716E-12 0.455E-12   -.110E+02 -.784E+01 -.875E+02   0.260E-01 -.156E-02 -.255E+01
 
 
 POSITION                                       TOTAL-FORCE (eV/Angst)
 -----------------------------------------------------------------------------------
      1.40594      1.52230      2.00000         0.013290      0.003327      0.323418
      1.40558      1.50247      6.00700        -0.001533      0.006856      0.016979
      2.23340      0.35210      4.02685        -0.033961     -0.025176     -0.382160
      2.14182      0.28647      8.02430        -0.008795     -0.006429     -0.001968
      3.88832      1.52230      2.00000        -0.008569     -0.006023      0.294261
      3.89013      1.52301      6.00104         0.000459      0.002002      0.008848
      4.71578      0.35210      4.02685         0.045983     -0.048270     -0.346783
      4.68098      0.33341      8.00008         0.033829     -0.013459     -0.019646
      6.37069      1.52230      2.00000         0.002454      0.001029      0.328686
      6.37075      1.51903      6.01932        -0.003966     -0.010092      0.013842
      7.19815      0.35210      4.02685        -0.046913      0.020978     -0.359897
      7.11385      0.27015      7.98453         0.008887     -0.009588      0.006487
      8.85307      1.52230      2.00000        -0.001901     -0.006685      0.331190
      8.85654      1.52351      6.00614         0.003031     -0.009176      0.006643
      9.68053      0.35210      4.02685         0.027018     -0.047154     -0.242828
      9.65391      0.30617      8.00380         0.020727     -0.010431     -0.011242
      2.23340      3.86271      2.00000         0.004341      0.004610      0.374109
      2.24098      3.85404      6.01434        -0.013888     -0.001218      0.020851
      3.06086      2.69251      4.02685        -0.028658      0.057710     -0.345971
      3.03315      2.66496      8.00036        -0.006761      0.039600     -0.021679
      4.71578      3.86271      2.00000         0.001853      0.002073      0.328569
      4.71331      3.86341      6.01883        -0.014234     -0.000585      0.018880
      5.54324      2.69251      4.02685         0.024690      0.015431     -0.297197
      5.51793      2.67410      7.97118        -0.002143     -0.003166      0.000662
      7.19815      3.86271      2.00000         0.006572      0.004507      0.368485
      7.20597      3.86794      6.04389        -0.011892     -0.008194      0.003668
      8.02561      2.69251      4.02685        -0.040334      0.079441     -0.268521
      8.05658      2.64822      8.02436         0.011071      0.005923     -0.018155
      9.68053      3.86271      2.00000         0.002144      0.012246      0.326002
      9.67560      3.86638      6.00438         0.000391      0.000956      0.015584
     10.50799      2.69251      4.02685         0.014108     -0.007069     -0.384014
     10.52085      2.69286      7.90106        -0.011888      0.001480     -0.005143
      3.06086      6.20311      2.00000        -0.011548      0.009469      0.316816
      3.05858      6.19345      6.00453        -0.001511     -0.008492      0.014085
      3.88832      5.03291      4.02685         0.005004     -0.052158     -0.361250
      3.78331      4.98028      7.98393        -0.020132      0.000274     -0.003089
      5.54324      6.20311      2.00000        -0.006828      0.000309      0.331072
      5.54551      6.20544      6.00584        -0.008648      0.006391      0.009143
      6.37069      5.03291      4.02685         0.062317     -0.065997     -0.269724
      6.33862      5.07570      8.02429         0.014461      0.010421     -0.017668
      8.02561      6.20311      2.00000         0.012406     -0.002223      0.326058
      8.02714      6.19677      6.00453         0.002774      0.000609      0.013284
      8.85307      5.03291      4.02685        -0.033911     -0.024209     -0.375462
      8.82436      5.01325      7.99420        -0.026716     -0.022212     -0.006016
     10.50799      6.20311      2.00000        -0.005841     -0.004268      0.282049
     10.50726      6.20237      5.99084         0.002887      0.003326      0.008234
     11.33544      5.03291      4.02685         0.061149     -0.072918     -0.351919
     11.32435      4.99133      7.98088         0.000483     -0.013762      0.006166
      3.88832      8.54352      2.00000         0.007267      0.005133      0.330215
      3.88540      8.54114      6.02207        -0.001631     -0.001745      0.004847
      4.71578      7.37332      4.02685        -0.035150      0.040139     -0.243708
      4.66389      7.36201      8.00406        -0.006651      0.032741     -0.016837
      6.37069      8.54352      2.00000         0.007605      0.011528      0.323466
      6.35200      8.54903      6.00681         0.004397     -0.001687      0.018016
      7.19815      7.37332      4.02685        -0.001311      0.013787     -0.384971
      7.20151      7.38422      7.90147         0.003514     -0.011017     -0.007172
      8.85307      8.54352      2.00000         0.005876      0.002443      0.374309
      8.84732      8.55253      6.01438        -0.004468     -0.008242      0.018244
      9.68053      7.37332      4.02685        -0.047927      0.080362     -0.352473
      9.63713      7.37672      7.98065        -0.010847      0.002176      0.008627
     11.33544      8.54352      2.00000         0.005136     -0.014252      0.316872
     11.32573      8.54440      6.00479        -0.008505      0.000929      0.010638
     12.16290      7.37332      4.02685         0.038968      0.027330     -0.377260
     12.15481      7.36766      7.92649         0.010437      0.006322     -0.014702
      3.41337      1.18538      9.08713         0.021736      0.016473      0.009605
      8.36798      1.10201      9.08495         0.008227      0.004776     -0.007026
     10.14790      5.94865      9.06451        -0.036161     -0.025204     -0.008078
      4.98336      5.88362      9.08445         0.015206      0.012722      0.007534
      6.75642      3.54957      9.32146        -0.008640     -0.006665      0.007722
      6.70561      3.51209     10.29413         0.001164      0.001938     -0.021603
 -----------------------------------------------------------------------------------
    total drift:                               -0.002797     -0.010339      0.001657


--------------------------------------------------------------------------------------------------------



  FREE ENERGIE OF THE ION-ELECTRON SYSTEM (eV)
  ---------------------------------------------------
  free  energy   TOTEN  =      -557.09199967 eV

  energy  without entropy=     -557.17193774  energy(sigma->0) =     -557.11864570
 
 d Force = 0.5783567E-03[ 0.514E-03, 0.642E-03]  d Energy = 0.2986889E-03 0.280E-03
 d Force =-0.4275663E+01[-0.427E+01,-0.428E+01]  d Ewald  =-0.4275662E+01-0.676E-06


--------------------------------------------------------------------------------------------------------


    POTLOK:  cpu time    0.4408: real time    0.4409


--------------------------------------------------------------------------------------------------------


 stress matrix after NEB project (eV)
    -39.45487      2.74882     -0.11220
      2.74882    -41.38831     -0.04634
     -0.11220     -0.04634    -11.14381
  FORCES: max atom, RMS     0.045649    0.016241
  FORCE total and by dimension    0.135878    0.039600
  Stress total and by dimension   58.386686   41.388311
 Conjugate gradient step on ions:
 trial-energy change:   -0.000299  1 .order   -0.000578   -0.000642   -0.000514
  (g-gl).g = 0.127E-02      g.g   = 0.126E-02  gl.gl    = 0.258E-02
 g(Force)  = 0.126E-02   g(Stress)= 0.000E+00 ortho     =-0.154E-03
 gamma     =   0.49069
 trial     =   0.54355
 opt step  =   2.17420  (harmonic =   2.72733) maximal distance =0.00699200
 next E    =  -557.093313   (d E  =  -0.00161)


--------------------------------------------------------------------------------------------------------


  
 reached required accuracy - stopping structural energy minimisation
 writing wavefunctions
     LOOP+:  cpu time  298.5288: real time  319.6543
    4ORBIT:  cpu time    0.0000: real time    0.0000
 


 total charge     
 
# of ion       s       p       d       tot
------------------------------------------
    1        0.465   0.376   6.198   7.038
    2        0.478   0.528   6.252   7.258
    3        0.475   0.514   6.237   7.225
    4        0.466   0.496   6.246   7.208
    5        0.466   0.376   6.194   7.036
    6        0.475   0.522   6.242   7.239
    7        0.473   0.511   6.239   7.224
    8        0.473   0.502   6.251   7.226
    9        0.465   0.376   6.198   7.038
   10        0.476   0.522   6.245   7.243
   11        0.473   0.512   6.233   7.219
   12        0.476   0.510   6.263   7.248
   13        0.466   0.375   6.197   7.038
   14        0.477   0.523   6.240   7.240
   15        0.473   0.510   6.238   7.222
   16        0.475   0.509   6.247   7.232
   17        0.465   0.374   6.199   7.039
   18        0.486   0.538   6.236   7.260
   19        0.473   0.511   6.239   7.224
   20        0.473   0.501   6.252   7.226
   21        0.465   0.376   6.197   7.038
   22        0.476   0.522   6.245   7.243
   23        0.472   0.509   6.233   7.215
   24        0.433   0.430   6.217   7.080
   25        0.466   0.375   6.198   7.039
   26        0.479   0.522   6.222   7.223
   27        0.471   0.509   6.234   7.215
   28        0.435   0.522   6.249   7.205
   29        0.465   0.376   6.197   7.038
   30        0.478   0.529   6.255   7.263
   31        0.474   0.511   6.234   7.218
   32        0.473   0.407   6.228   7.107
   33        0.465   0.376   6.197   7.038
   34        0.479   0.529   6.253   7.261
   35        0.473   0.512   6.234   7.219
   36        0.476   0.511   6.265   7.252
   37        0.466   0.375   6.197   7.038
   38        0.477   0.523   6.240   7.240
   39        0.471   0.509   6.234   7.215
   40        0.435   0.521   6.250   7.206
   41        0.465   0.376   6.197   7.038
   42        0.478   0.529   6.255   7.263
   43        0.475   0.513   6.236   7.224
   44        0.447   0.466   6.237   7.150
   45        0.466   0.376   6.194   7.036
   46        0.476   0.521   6.246   7.243
   47        0.473   0.513   6.239   7.224
   48        0.479   0.513   6.262   7.254
   49        0.467   0.374   6.197   7.038
   50        0.485   0.536   6.237   7.258
   51        0.473   0.510   6.238   7.222
   52        0.475   0.509   6.248   7.233
   53        0.465   0.376   6.198   7.038
   54        0.478   0.528   6.253   7.258
   55        0.474   0.511   6.234   7.218
   56        0.473   0.407   6.228   7.108
   57        0.465   0.374   6.199   7.039
   58        0.486   0.538   6.236   7.260
   59        0.473   0.513   6.239   7.224
   60        0.479   0.513   6.261   7.254
   61        0.465   0.376   6.197   7.038
   62        0.479   0.529   6.252   7.260
   63        0.474   0.512   6.235   7.222
   64        0.459   0.395   6.224   7.077
   65        1.578   3.375   0.000   4.952
   66        1.579   3.375   0.000   4.955
   67        1.577   3.370   0.000   4.947
   68        1.579   3.376   0.000   4.955
   69        1.547   3.557   0.000   5.104
   70        0.604   0.119   0.000   0.724
--------------------------------------------------
tot         38.575  47.511 398.765 484.850
 


 magnetization (x)
 
# of ion       s       p       d       tot
------------------------------------------
    1       -0.005  -0.014   2.672   2.653
    2       -0.016  -0.053   2.429   2.360
    3       -0.015  -0.055   2.465   2.395
    4       -0.004  -0.019   2.237   2.215
    5       -0.004  -0.014   2.693   2.675
    6       -0.017  -0.057   2.528   2.454
    7       -0.016  -0.059   2.446   2.371
    8       -0.000  -0.010   2.313   2.303
    9       -0.005  -0.014   2.677   2.658
   10       -0.014  -0.053   2.462   2.395
   11       -0.015  -0.057   2.487   2.415
   12       -0.005  -0.021   2.134   2.109
   13       -0.005  -0.015   2.690   2.670
   14       -0.015  -0.055   2.452   2.382
   15       -0.016  -0.059   2.427   2.352
   16        0.001  -0.009   2.264   2.255
   17       -0.005  -0.016   2.671   2.650
   18       -0.010  -0.056   2.327   2.262
   19       -0.016  -0.059   2.446   2.371
   20       -0.000  -0.010   2.314   2.303
   21       -0.005  -0.014   2.677   2.658
   22       -0.014  -0.053   2.461   2.395
   23       -0.015  -0.057   2.461   2.388
   24       -0.007  -0.006   2.860   2.846
   25       -0.005  -0.014   2.671   2.651
   26       -0.009  -0.056   2.402   2.337
   27       -0.017  -0.059   2.458   2.382
   28       -0.003  -0.009   2.257   2.245
   29       -0.005  -0.014   2.677   2.658
   30       -0.015  -0.053   2.416   2.348
   31       -0.015  -0.056   2.462   2.391
   32       -0.005  -0.012   2.750   2.733
   33       -0.005  -0.014   2.677   2.658
   34       -0.015  -0.053   2.427   2.359
   35       -0.015  -0.057   2.487   2.415
   36       -0.005  -0.021   2.128   2.102
   37       -0.005  -0.015   2.690   2.670
   38       -0.015  -0.055   2.452   2.382
   39       -0.017  -0.059   2.458   2.382
   40       -0.003  -0.009   2.257   2.245
   41       -0.005  -0.014   2.677   2.658
   42       -0.015  -0.053   2.416   2.348
   43       -0.015  -0.057   2.471   2.399
   44       -0.004  -0.018   2.448   2.426
   45       -0.003  -0.014   2.699   2.682
   46       -0.016  -0.057   2.520   2.447
   47       -0.017  -0.059   2.444   2.368
   48       -0.001  -0.013   2.252   2.238
   49       -0.004  -0.016   2.687   2.667
   50       -0.010  -0.055   2.298   2.233
   51       -0.016  -0.059   2.427   2.352
   52        0.001  -0.009   2.263   2.255
   53       -0.005  -0.014   2.672   2.653
   54       -0.016  -0.053   2.428   2.360
   55       -0.015  -0.056   2.462   2.391
   56       -0.005  -0.012   2.749   2.732
   57       -0.005  -0.016   2.671   2.650
   58       -0.010  -0.056   2.327   2.261
   59       -0.017  -0.059   2.444   2.368
   60       -0.001  -0.014   2.252   2.237
   61       -0.005  -0.014   2.676   2.658
   62       -0.015  -0.053   2.428   2.359
   63       -0.015  -0.056   2.452   2.382
   64       -0.005  -0.010   2.772   2.758
   65        0.003   0.029   0.000   0.032
   66        0.003   0.007   0.000   0.009
   67        0.003   0.028   0.000   0.031
   68        0.003   0.006   0.000   0.009
   69        0.010   0.066   0.000   0.076
   70        0.006   0.001   0.000   0.007
--------------------------------------------------
tot         -0.568  -2.090 159.197 156.539
 

 total amount of memory used by VASP MPI-rank0   111405. kBytes
=======================================================================

   base      :      30000. kBytes
   nonlr-proj:      13674. kBytes
   fftplans  :       6401. kBytes
   grid      :      17692. kBytes
   one-center:         93. kBytes
   wavefun   :      43545. kBytes
 
  
  
 General timing and accounting informations for this job:
 ========================================================
  
                  Total CPU time used (sec):     3233.403
                            User time (sec):     3115.359
                          System time (sec):      118.044
                         Elapsed time (sec):     3262.426
  
                   Maximum memory used (kb):      351360.
                   Average memory used (kb):           0.
  
                          Minor page faults:     21458841
                          Major page faults:            0
                 Voluntary context switches:         3976
