SQS-NiFe                                
           1
     9.929500    0.000000    0.000000
     3.309833    9.361622    0.000000
     0.000000    0.000000   21.080550
   Fe   O    H 
  64   5   1
Direct configuration=     1
   0.08738900  0.16261100  0.09487400
   0.08797430  0.16057319  0.28516474
   0.21238900  0.03761100  0.19102200
   0.20525252  0.03045142  0.38052777
   0.33738900  0.16261100  0.09487400
   0.33770945  0.16282026  0.28479482
   0.46238900  0.03761100  0.19102200
   0.45966740  0.03617632  0.37958542
   0.58738900  0.16261100  0.09487400
   0.58758028  0.16226127  0.28572388
   0.71238900  0.03761100  0.19102200
   0.70658992  0.02904303  0.37854257
   0.83738900  0.16261100  0.09487400
   0.83805065  0.16271092  0.28507052
   0.96238900  0.03761100  0.19102200
   0.96142382  0.03289583  0.37972928
   0.08738900  0.41261100  0.09487400
   0.08823402  0.41129304  0.28537308
   0.21238900  0.28761100  0.19102200
   0.21102813  0.28461454  0.37950206
   0.33738900  0.41261100  0.09487400
   0.33703443  0.41253200  0.28584812
   0.46238900  0.28761100  0.19102200
   0.46118918  0.28543697  0.37840871
   0.58738900  0.41261100  0.09487400
   0.58785946  0.41305017  0.28693807
   0.71238900  0.28761100  0.19102200
   0.71822001  0.28325258  0.38075120
   0.83738900  0.41261100  0.09487400
   0.83673276  0.41329439  0.28499033
   0.96238900  0.28761100  0.19102200
   0.96358499  0.28833124  0.37477139
   0.08738900  0.66261100  0.09487400
   0.08734857  0.66141565  0.28513431
   0.21238900  0.53761100  0.19102200
   0.20374096  0.53142589  0.37854918
   0.33738900  0.66261100  0.09487400
   0.33734921  0.66315407  0.28512799
   0.46238900  0.53761100  0.19102200
   0.45812418  0.54323618  0.38076802
   0.58738900  0.66261100  0.09487400
   0.58804038  0.66201841  0.28498206
   0.71238900  0.53761100  0.19102200
   0.71070051  0.53548099  0.37924516
   0.83738900  0.66261100  0.09487400
   0.83746589  0.66290867  0.28427706
   0.96238900  0.53761100  0.19102200
   0.96346001  0.53284381  0.37851557
   0.08738900  0.91261100  0.09487400
   0.08690259  0.91221068  0.28580992
   0.21238900  0.78761100  0.19102200
   0.20737910  0.78646719  0.37976889
   0.33738900  0.91261100  0.09487400
   0.33533639  0.91314777  0.28519478
   0.46238900  0.78761100  0.19102200
   0.46325857  0.78865029  0.37474552
   0.58738900  0.91261100  0.09487400
   0.58609837  0.91364814  0.28538002
   0.71238900  0.78761100  0.19102200
   0.70758346  0.78880535  0.37853132
   0.83738900  0.91261100  0.09487400
   0.83618084  0.91279639  0.28506110
   0.96238900  0.78761100  0.19102200
   0.96182126  0.78750920  0.37635688
   0.30049013  0.12568763  0.43081808
   0.80233602  0.11673952  0.43080537
   0.81080516  0.63604547  0.42944053
   0.29146134  0.62736700  0.43065320
   0.55400330  0.37891023  0.44224272
   0.55026009  0.37518281  0.48834620
Direct configuration=     2
   0.08738900  0.16261100  0.09487400
   0.08805693  0.16047194  0.28509167
   0.21238900  0.03761100  0.19102200
   0.20519315  0.03034351  0.38047916
   0.33738900  0.16261100  0.09487400
   0.33765612  0.16276680  0.28475025
   0.46238900  0.03761100  0.19102200
   0.45974479  0.03601351  0.37954248
   0.58738900  0.16261100  0.09487400
   0.58759416  0.16224857  0.28566713
   0.71238900  0.03761100  0.19102200
   0.70653344  0.02896510  0.37856070
   0.83738900  0.16261100  0.09487400
   0.83794359  0.16274588  0.28500993
   0.96238900  0.03761100  0.19102200
   0.96136204  0.03290681  0.37975557
   0.08738900  0.41261100  0.09487400
   0.08834773  0.41140249  0.28534460
   0.21238900  0.28761100  0.19102200
   0.21089993  0.28474185  0.37947844
   0.33738900  0.41261100  0.09487400
   0.33704626  0.41259807  0.28576067
   0.46238900  0.28761100  0.19102200
   0.46105312  0.28550463  0.37836444
   0.58738900  0.41261100  0.09487400
   0.58792418  0.41313055  0.28688435
   0.71238900  0.28761100  0.19102200
   0.71792415  0.28317903  0.38076144
   0.83738900  0.41261100  0.09487400
   0.83667114  0.41326244  0.28490723
   0.96238900  0.28761100  0.19102200
   0.96365927  0.28817334  0.37481298
   0.08738900  0.66261100  0.09487400
   0.08737842  0.66143684  0.28505204
   0.21238900  0.53761100  0.19102200
   0.20365720  0.53141181  0.37854251
   0.33738900  0.66261100  0.09487400
   0.33741875  0.66305973  0.28505112
   0.46238900  0.53761100  0.19102200
   0.45808825  0.54291588  0.38075450
   0.58738900  0.66261100  0.09487400
   0.58800457  0.66192535  0.28490913
   0.71238900  0.53761100  0.19102200
   0.71060790  0.53552699  0.37924219
   0.83738900  0.66261100  0.09487400
   0.83743663  0.66281563  0.28425551
   0.96238900  0.53761100  0.19102200
   0.96340465  0.53291460  0.37850381
   0.08738900  0.91261100  0.09487400
   0.08701124  0.91227234  0.28576830
   0.21238900  0.78761100  0.19102200
   0.20742466  0.78651308  0.37975548
   0.33738900  0.91261100  0.09487400
   0.33524867  0.91321878  0.28511774
   0.46238900  0.78761100  0.19102200
   0.46303772  0.78873651  0.37479503
   0.58738900  0.91261100  0.09487400
   0.58620152  0.91369163  0.28534941
   0.71238900  0.78761100  0.19102200
   0.70766616  0.78868521  0.37852154
   0.83738900  0.91261100  0.09487400
   0.83621057  0.91277538  0.28499396
   0.96238900  0.78761100  0.19102200
   0.96178541  0.78737020  0.37630666
   0.30071660  0.12587418  0.43099911
   0.80262294  0.11694740  0.43085985
   0.81069721  0.63597736  0.42960187
   0.29167998  0.62759073  0.43078470
   0.55402366  0.37899508  0.44216465
   0.55026039  0.37516630  0.48839909
Direct configuration=     3
   0.08738900  0.16261100  0.09487400
   0.08809987  0.16041933  0.28505370
   0.21238900  0.03761100  0.19102200
   0.20516230  0.03028744  0.38045390
   0.33738900  0.16261100  0.09487400
   0.33762841  0.16273901  0.28472709
   0.46238900  0.03761100  0.19102200
   0.45978500  0.03592891  0.37952017
   0.58738900  0.16261100  0.09487400
   0.58760137  0.16224197  0.28563765
   0.71238900  0.03761100  0.19102200
   0.70650409  0.02892461  0.37857011
   0.83738900  0.16261100  0.09487400
   0.83788796  0.16276404  0.28497845
   0.96238900  0.03761100  0.19102200
   0.96132993  0.03291252  0.37976923
   0.08738900  0.41261100  0.09487400
   0.08840681  0.41145936  0.28532981
   0.21238900  0.28761100  0.19102200
   0.21083332  0.28480800  0.37946617
   0.33738900  0.41261100  0.09487400
   0.33705242  0.41263241  0.28571523
   0.46238900  0.28761100  0.19102200
   0.46098242  0.28553979  0.37834143
   0.58738900  0.41261100  0.09487400
   0.58795781  0.41317232  0.28685643
   0.71238900  0.28761100  0.19102200
   0.71777042  0.28314082  0.38076676
   0.83738900  0.41261100  0.09487400
   0.83663911  0.41324583  0.28486404
   0.96238900  0.28761100  0.19102200
   0.96369787  0.28809129  0.37483459
   0.08738900  0.66261100  0.09487400
   0.08739392  0.66144785  0.28500930
   0.21238900  0.53761100  0.19102200
   0.20361368  0.53140449  0.37853905
   0.33738900  0.66261100  0.09487400
   0.33745488  0.66301071  0.28501117
   0.46238900  0.53761100  0.19102200
   0.45806957  0.54274945  0.38074748
   0.58738900  0.66261100  0.09487400
   0.58798596  0.66187699  0.28487123
   0.71238900  0.53761100  0.19102200
   0.71055978  0.53555090  0.37924065
   0.83738900  0.66261100  0.09487400
   0.83742142  0.66276728  0.28424431
   0.96238900  0.53761100  0.19102200
   0.96337589  0.53295139  0.37849770
   0.08738900  0.91261100  0.09487400
   0.08706770  0.91230438  0.28574668
   0.21238900  0.78761100  0.19102200
   0.20744833  0.78653693  0.37974851
   0.33738900  0.91261100  0.09487400
   0.33520308  0.91325568  0.28507770
   0.46238900  0.78761100  0.19102200
   0.46292297  0.78878131  0.37482075
   0.58738900  0.91261100  0.09487400
   0.58625513  0.91371423  0.28533350
   0.71238900  0.78761100  0.19102200
   0.70770913  0.78862278  0.37851646
   0.83738900  0.91261100  0.09487400
   0.83622601  0.91276446  0.28495907
   0.96238900  0.78761100  0.19102200
   0.96176679  0.78729797  0.37628056
   0.30083428  0.12597111  0.43109318
   0.80277203  0.11705543  0.43088815
   0.81064112  0.63594198  0.42968571
   0.29179358  0.62770699  0.43085303
   0.55403425  0.37903917  0.44212409
   0.55026054  0.37515772  0.48842657
Direct configuration=     4
   0.08738900  0.16261100  0.09487400
   0.08812452  0.16039032  0.28501370
   0.21238900  0.03761100  0.19102200
   0.20519365  0.03030033  0.38046455
   0.33738900  0.16261100  0.09487400
   0.33760136  0.16271484  0.28470404
   0.46238900  0.03761100  0.19102200
   0.45975513  0.03585184  0.37951157
   0.58738900  0.16261100  0.09487400
   0.58759547  0.16224475  0.28560451
   0.71238900  0.03761100  0.19102200
   0.70652034  0.02889675  0.37859779
   0.83738900  0.16261100  0.09487400
   0.83782782  0.16277737  0.28494929
   0.96238900  0.03761100  0.19102200
   0.96129447  0.03289919  0.37977100
   0.08738900  0.41261100  0.09487400
   0.08845545  0.41152300  0.28531144
   0.21238900  0.28761100  0.19102200
   0.21077729  0.28480451  0.37947204
   0.33738900  0.41261100  0.09487400
   0.33706909  0.41266105  0.28565963
   0.46238900  0.28761100  0.19102200
   0.46087428  0.28556833  0.37829820
   0.58738900  0.41261100  0.09487400
   0.58798624  0.41320295  0.28681916
   0.71238900  0.28761100  0.19102200
   0.71760020  0.28307491  0.38075729
   0.83738900  0.41261100  0.09487400
   0.83663161  0.41320719  0.28482855
   0.96238900  0.28761100  0.19102200
   0.96372468  0.28798790  0.37484663
   0.08738900  0.66261100  0.09487400
   0.08741555  0.66147278  0.28495941
   0.21238900  0.53761100  0.19102200
   0.20360855  0.53147506  0.37856308
   0.33738900  0.66261100  0.09487400
   0.33749217  0.66295877  0.28497148
   0.46238900  0.53761100  0.19102200
   0.45799054  0.54258597  0.38073209
   0.58738900  0.66261100  0.09487400
   0.58794785  0.66185179  0.28483971
   0.71238900  0.53761100  0.19102200
   0.71049771  0.53557401  0.37923898
   0.83738900  0.66261100  0.09487400
   0.83740238  0.66270785  0.28422935
   0.96238900  0.53761100  0.19102200
   0.96327926  0.53300909  0.37850432
   0.08738900  0.91261100  0.09487400
   0.08711664  0.91233193  0.28572144
   0.21238900  0.78761100  0.19102200
   0.20748952  0.78650891  0.37974362
   0.33738900  0.91261100  0.09487400
   0.33518351  0.91327362  0.28503241
   0.46238900  0.78761100  0.19102200
   0.46277926  0.78881279  0.37483951
   0.58738900  0.91261100  0.09487400
   0.58631723  0.91371537  0.28531492
   0.71238900  0.78761100  0.19102200
   0.70776614  0.78850307  0.37851987
   0.83738900  0.91261100  0.09487400
   0.83625727  0.91274972  0.28492201
   0.96238900  0.78761100  0.19102200
   0.96175290  0.78721493  0.37623628
   0.30098583  0.12609933  0.43113975
   0.80294855  0.11719917  0.43091415
   0.81056143  0.63586989  0.42977441
   0.29192729  0.62786557  0.43089973
   0.55403810  0.37907598  0.44224208
   0.55027159  0.37516226  0.48830857
Direct configuration=     5
   0.08738900  0.16261100  0.09487400
   0.08812858  0.16038554  0.28500710
   0.21238900  0.03761100  0.19102200
   0.20519882  0.03030246  0.38046630
   0.33738900  0.16261100  0.09487400
   0.33759690  0.16271085  0.28470024
   0.46238900  0.03761100  0.19102200
   0.45975020  0.03583913  0.37951015
   0.58738900  0.16261100  0.09487400
   0.58759450  0.16224521  0.28559905
   0.71238900  0.03761100  0.19102200
   0.70652302  0.02889215  0.37860235
   0.83738900  0.16261100  0.09487400
   0.83781790  0.16277956  0.28494449
   0.96238900  0.03761100  0.19102200
   0.96128862  0.03289700  0.37977129
   0.08738900  0.41261100  0.09487400
   0.08846347  0.41153349  0.28530842
   0.21238900  0.28761100  0.19102200
   0.21076806  0.28480394  0.37947301
   0.33738900  0.41261100  0.09487400
   0.33707184  0.41266578  0.28565046
   0.46238900  0.28761100  0.19102200
   0.46085645  0.28557303  0.37829107
   0.58738900  0.41261100  0.09487400
   0.58799093  0.41320800  0.28681301
   0.71238900  0.28761100  0.19102200
   0.71757213  0.28306404  0.38075573
   0.83738900  0.41261100  0.09487400
   0.83663037  0.41320082  0.28482270
   0.96238900  0.28761100  0.19102200
   0.96372910  0.28797086  0.37484862
   0.08738900  0.66261100  0.09487400
   0.08741912  0.66147689  0.28495118
   0.21238900  0.53761100  0.19102200
   0.20360770  0.53148669  0.37856704
   0.33738900  0.66261100  0.09487400
   0.33749832  0.66295020  0.28496493
   0.46238900  0.53761100  0.19102200
   0.45797752  0.54255902  0.38072956
   0.58738900  0.66261100  0.09487400
   0.58794157  0.66184764  0.28483451
   0.71238900  0.53761100  0.19102200
   0.71048747  0.53557782  0.37923871
   0.83738900  0.66261100  0.09487400
   0.83739924  0.66269805  0.28422688
   0.96238900  0.53761100  0.19102200
   0.96326333  0.53301860  0.37850542
   0.08738900  0.91261100  0.09487400
   0.08712470  0.91233647  0.28571728
   0.21238900  0.78761100  0.19102200
   0.20749631  0.78650429  0.37974281
   0.33738900  0.91261100  0.09487400
   0.33518028  0.91327657  0.28502495
   0.46238900  0.78761100  0.19102200
   0.46275556  0.78881798  0.37484260
   0.58738900  0.91261100  0.09487400
   0.58632747  0.91371556  0.28531185
   0.71238900  0.78761100  0.19102200
   0.70777554  0.78848334  0.37852043
   0.83738900  0.91261100  0.09487400
   0.83626243  0.91274729  0.28491590
   0.96238900  0.78761100  0.19102200
   0.96175062  0.78720124  0.37622898
   0.30101081  0.12612047  0.43114743
   0.80297766  0.11722287  0.43091843
   0.81054829  0.63585800  0.42978904
   0.29194934  0.62789171  0.43090743
   0.55403873  0.37908204  0.44226154
   0.55027342  0.37516301  0.48828911
Direct configuration=     6
   0.08738900  0.16261100  0.09487400
   0.08811692  0.16040330  0.28498741
   0.21238900  0.03761100  0.19102200
   0.20527917  0.03038178  0.38051127
   0.33738900  0.16261100  0.09487400
   0.33758356  0.16270260  0.28468968
   0.46238900  0.03761100  0.19102200
   0.45967334  0.03579727  0.37951560
   0.58738900  0.16261100  0.09487400
   0.58757597  0.16225376  0.28558020
   0.71238900  0.03761100  0.19102200
   0.70658701  0.02888891  0.37863884
   0.83738900  0.16261100  0.09487400
   0.83778376  0.16277709  0.28493384
   0.96238900  0.03761100  0.19102200
   0.96127884  0.03286147  0.37975459
   0.08738900  0.41261100  0.09487400
   0.08847190  0.41157287  0.28529907
   0.21238900  0.28761100  0.19102200
   0.21073907  0.28474012  0.37949122
   0.33738900  0.41261100  0.09487400
   0.33708949  0.41267222  0.28561193
   0.46238900  0.28761100  0.19102200
   0.46077056  0.28559270  0.37825338
   0.58738900  0.41261100  0.09487400
   0.58799776  0.41320645  0.28678516
   0.71238900  0.28761100  0.19102200
   0.71744781  0.28301265  0.38073743
   0.83738900  0.41261100  0.09487400
   0.83665829  0.41315416  0.28481723
   0.96238900  0.28761100  0.19102200
   0.96372368  0.28789183  0.37484139
   0.08738900  0.66261100  0.09487400
   0.08743726  0.66150542  0.28491881
   0.21238900  0.53761100  0.19102200
   0.20364130  0.53161103  0.37860985
   0.33738900  0.66261100  0.09487400
   0.33751518  0.66292317  0.28494534
   0.46238900  0.53761100  0.19102200
   0.45788453  0.54245975  0.38071661
   0.58738900  0.66261100  0.09487400
   0.58789963  0.66186421  0.28482890
   0.71238900  0.53761100  0.19102200
   0.71043101  0.53557813  0.37923679
   0.83738900  0.66261100  0.09487400
   0.83738445  0.66265530  0.28421548
   0.96238900  0.53761100  0.19102200
   0.96313528  0.53306649  0.37852396
   0.08738900  0.91261100  0.09487400
   0.08714032  0.91234476  0.28570223
   0.21238900  0.78761100  0.19102200
   0.20752853  0.78644899  0.37973799
   0.33738900  0.91261100  0.09487400
   0.33520525  0.91326171  0.28499868
   0.46238900  0.78761100  0.19102200
   0.46264970  0.78881605  0.37484190
   0.58738900  0.91261100  0.09487400
   0.58636933  0.91368800  0.28530311
   0.71238900  0.78761100  0.19102200
   0.70781555  0.78835734  0.37853228
   0.83738900  0.91261100  0.09487400
   0.83629467  0.91273570  0.28489614
   0.96238900  0.78761100  0.19102200
   0.96175032  0.78714930  0.37618131
   0.30113250  0.12623115  0.43112239
   0.80310454  0.11733902  0.43092970
   0.81047457  0.63577028  0.42984010
   0.29204484  0.62803013  0.43090995
   0.55404543  0.37910578  0.44224273
   0.55027242  0.37516094  0.48829995
Direct configuration=     7
   0.08738900  0.16261100  0.09487400
   0.08808937  0.16044528  0.28494085
   0.21238900  0.03761100  0.19102200
   0.20546906  0.03056924  0.38061754
   0.33738900  0.16261100  0.09487400
   0.33755204  0.16268310  0.28466474
   0.46238900  0.03761100  0.19102200
   0.45949169  0.03569835  0.37952846
   0.58738900  0.16261100  0.09487400
   0.58753217  0.16227398  0.28553565
   0.71238900  0.03761100  0.19102200
   0.70673822  0.02888124  0.37872507
   0.83738900  0.16261100  0.09487400
   0.83770308  0.16277123  0.28490867
   0.96238900  0.03761100  0.19102200
   0.96125571  0.03277753  0.37971511
   0.08738900  0.41261100  0.09487400
   0.08849184  0.41166595  0.28527699
   0.21238900  0.28761100  0.19102200
   0.21067057  0.28458931  0.37953426
   0.33738900  0.41261100  0.09487400
   0.33713119  0.41268745  0.28552086
   0.46238900  0.28761100  0.19102200
   0.46056759  0.28563917  0.37816428
   0.58738900  0.41261100  0.09487400
   0.58801391  0.41320277  0.28671935
   0.71238900  0.28761100  0.19102200
   0.71715399  0.28289122  0.38069416
   0.83738900  0.41261100  0.09487400
   0.83672427  0.41304388  0.28480429
   0.96238900  0.28761100  0.19102200
   0.96371088  0.28770507  0.37482433
   0.08738900  0.66261100  0.09487400
   0.08748012  0.66157285  0.28484230
   0.21238900  0.53761100  0.19102200
   0.20372072  0.53190487  0.37871100
   0.33738900  0.66261100  0.09487400
   0.33755502  0.66285927  0.28489904
   0.46238900  0.53761100  0.19102200
   0.45766477  0.54222517  0.38068601
   0.58738900  0.66261100  0.09487400
   0.58780052  0.66190337  0.28481562
   0.71238900  0.53761100  0.19102200
   0.71029756  0.53557888  0.37923225
   0.83738900  0.66261100  0.09487400
   0.83734950  0.66255427  0.28418853
   0.96238900  0.53761100  0.19102200
   0.96283266  0.53317966  0.37856779
   0.08738900  0.91261100  0.09487400
   0.08717721  0.91236434  0.28566665
   0.21238900  0.78761100  0.19102200
   0.20760467  0.78631829  0.37972659
   0.33738900  0.91261100  0.09487400
   0.33526426  0.91322659  0.28493661
   0.46238900  0.78761100  0.19102200
   0.46239954  0.78881147  0.37484025
   0.58738900  0.91261100  0.09487400
   0.58646826  0.91362287  0.28528243
   0.71238900  0.78761100  0.19102200
   0.70791012  0.78805957  0.37856029
   0.83738900  0.91261100  0.09487400
   0.83637088  0.91270833  0.28484943
   0.96238900  0.78761100  0.19102200
   0.96174963  0.78702656  0.37606865
   0.30142006  0.12649272  0.43106323
   0.80340441  0.11761352  0.43095633
   0.81030035  0.63556299  0.42996076
   0.29227052  0.62835724  0.43091591
   0.55406126  0.37916188  0.44219829
   0.55027006  0.37515606  0.48832557
Direct configuration=     8
   0.08738900  0.16261100  0.09487400
   0.08805884  0.16049282  0.28495458
   0.21238900  0.03761100  0.19102200
   0.20550250  0.03060065  0.38064930
   0.33738900  0.16261100  0.09487400
   0.33754578  0.16268706  0.28467204
   0.46238900  0.03761100  0.19102200
   0.45954980  0.03561460  0.37950043
   0.58738900  0.16261100  0.09487400
   0.58751132  0.16226095  0.28553925
   0.71238900  0.03761100  0.19102200
   0.70681724  0.02885685  0.37876288
   0.83738900  0.16261100  0.09487400
   0.83769503  0.16274011  0.28491391
   0.96238900  0.03761100  0.19102200
   0.96134394  0.03270494  0.37967715
   0.08738900  0.41261100  0.09487400
   0.08846056  0.41168515  0.28530289
   0.21238900  0.28761100  0.19102200
   0.21057924  0.28466899  0.37951384
   0.33738900  0.41261100  0.09487400
   0.33711586  0.41268584  0.28551574
   0.46238900  0.28761100  0.19102200
   0.46049547  0.28564506  0.37812983
   0.58738900  0.41261100  0.09487400
   0.58798973  0.41317008  0.28670458
   0.71238900  0.28761100  0.19102200
   0.71708436  0.28288061  0.38065218
   0.83738900  0.41261100  0.09487400
   0.83676164  0.41300368  0.28483031
   0.96238900  0.28761100  0.19102200
   0.96367142  0.28764929  0.37480337
   0.08738900  0.66261100  0.09487400
   0.08750377  0.66157853  0.28483756
   0.21238900  0.53761100  0.19102200
   0.20368742  0.53198899  0.37873425
   0.33738900  0.66261100  0.09487400
   0.33753499  0.66285990  0.28489954
   0.46238900  0.53761100  0.19102200
   0.45763497  0.54218200  0.38064876
   0.58738900  0.66261100  0.09487400
   0.58776916  0.66193334  0.28483757
   0.71238900  0.53761100  0.19102200
   0.71019760  0.53551084  0.37922161
   0.83738900  0.66261100  0.09487400
   0.83734244  0.66253132  0.28418788
   0.96238900  0.53761100  0.19102200
   0.96275266  0.53316955  0.37858987
   0.08738900  0.91261100  0.09487400
   0.08718012  0.91235703  0.28566941
   0.21238900  0.78761100  0.19102200
   0.20756590  0.78640325  0.37968916
   0.33738900  0.91261100  0.09487400
   0.33531053  0.91319953  0.28494538
   0.46238900  0.78761100  0.19102200
   0.46233907  0.78877575  0.37482257
   0.58738900  0.91261100  0.09487400
   0.58648881  0.91357395  0.28530451
   0.71238900  0.78761100  0.19102200
   0.70789775  0.78797453  0.37857899
   0.83738900  0.91261100  0.09487400
   0.83637920  0.91270470  0.28484979
   0.96238900  0.78761100  0.19102200
   0.96177516  0.78700676  0.37600978
   0.30155315  0.12662157  0.43106699
   0.80350096  0.11771554  0.43096382
   0.81018516  0.63542923  0.42999392
   0.29238031  0.62848274  0.43093983
   0.55405192  0.37916208  0.44218286
   0.55026937  0.37515852  0.48832369
