  68  68   1   0
  0.2769228E+02  0.1011163E-08  0.1011163E-08  0.2126643E-08  0.5000000E-15
  1.000000000000000E-004
  CAR 
 SQS-NiFe                                
      4.92111647    -21.64506438  301     -0.28675494      1.00000000
    -21.645  0.0000E+00  0.0000E+00  0.0000E+00  0.0000E+00
    -21.557  0.0000E+00  0.0000E+00  0.0000E+00  0.0000E+00
    -21.468  0.0000E+00  0.0000E+00  0.0000E+00  0.0000E+00
    -21.379  0.0000E+00  0.0000E+00  0.0000E+00  0.0000E+00
    -21.291 -0.1168E-29  0.0000E+00 -0.1034E-30  0.0000E+00
    -21.202 -0.1348E-26 -0.1096E-29 -0.1195E-27 -0.9709E-31
    -21.114 -0.1050E-23 -0.1241E-26 -0.9309E-25 -0.1100E-27
    -21.025 -0.5510E-21 -0.9465E-24 -0.4889E-22 -0.8393E-25
    -20.937 -0.1948E-18 -0.4859E-21 -0.1730E-19 -0.4311E-22
    -20.848 -0.4635E-16 -0.1678E-18 -0.4122E-17 -0.1490E-19
    -20.760 -0.7190E-14 -0.3895E-16 -0.6408E-15 -0.3464E-17
    -20.671 -0.7685E-12 -0.5878E-14 -0.6869E-13 -0.5240E-15
    -20.582 -0.5504E-10 -0.6118E-12 -0.4942E-11 -0.5470E-13
    -20.494 -0.2632E-08 -0.4256E-10 -0.2380E-09 -0.3824E-11
    -20.405 -0.8368E-07 -0.1976E-08 -0.7649E-08 -0.1788E-09
    -20.317 -0.1758E-05 -0.6095E-07 -0.1633E-06 -0.5576E-08
    -20.228 -0.2412E-04 -0.1243E-05 -0.2299E-05 -0.1156E-06
    -20.140 -0.2120E-03 -0.1660E-04 -0.2108E-04 -0.1585E-05
    -20.051 -0.1148E-02 -0.1429E-03 -0.1227E-03 -0.1424E-04
    -19.963 -0.3436E-02 -0.7683E-03 -0.4269E-03 -0.8228E-04
    -19.874 -0.3210E-02 -0.2365E-02 -0.7112E-03 -0.2917E-03
    -19.785  0.1268E-01 -0.2782E-02  0.4120E-03 -0.5381E-03
    -19.697  0.4945E-01  0.6573E-02  0.4791E-02  0.4400E-04
    -19.608  0.7752E-01  0.3294E-01  0.1166E-01  0.2961E-02
    -19.520  0.6940E-01  0.6252E-01  0.1780E-01  0.8497E-02
    -19.431  0.5584E-01  0.6790E-01  0.2275E-01  0.1451E-01
    -19.343  0.6912E-01  0.5156E-01  0.2887E-01  0.1908E-01
    -19.254  0.7677E-01  0.5061E-01  0.3567E-01  0.2356E-01
    -19.166  0.4882E-01  0.7231E-01  0.3999E-01  0.2996E-01
    -19.077  0.1257E-01  0.7490E-01  0.4110E-01  0.3659E-01
    -18.988 -0.3112E-02  0.4229E-01  0.4083E-01  0.4034E-01
    -18.900 -0.3385E-02  0.8479E-02  0.4053E-01  0.4109E-01
    -18.811 -0.1142E-02 -0.3692E-02  0.4043E-01  0.4076E-01
    -18.723 -0.2134E-03 -0.2957E-02  0.4041E-01  0.4050E-01
    -18.634 -0.2461E-04 -0.9027E-03  0.4040E-01  0.4042E-01
    -18.546 -0.1822E-05 -0.1571E-03  0.4040E-01  0.4041E-01
    -18.457 -0.8832E-07 -0.1703E-04  0.4040E-01  0.4040E-01
    -18.369 -0.2833E-08 -0.1193E-05  0.4040E-01  0.4040E-01
    -18.280 -0.6050E-10 -0.5484E-07  0.4040E-01  0.4040E-01
    -18.191 -0.8638E-12 -0.1672E-08  0.4040E-01  0.4040E-01
    -18.103 -0.8293E-14 -0.3399E-10  0.4040E-01  0.4040E-01
    -18.014 -0.5066E-16 -0.4626E-12  0.4040E-01  0.4040E-01
    -17.926  0.0000E+00 -0.4221E-14  0.4040E-01  0.4040E-01
    -17.837  0.0000E+00 -0.2533E-16  0.4040E-01  0.4040E-01
    -17.749  0.0000E+00  0.0000E+00  0.4040E-01  0.4040E-01
    -17.660  0.0000E+00  0.0000E+00  0.4040E-01  0.4040E-01
    -17.572  0.0000E+00  0.0000E+00  0.4040E-01  0.4040E-01
    -17.483  0.0000E+00  0.0000E+00  0.4040E-01  0.4040E-01
    -17.394  0.0000E+00  0.0000E+00  0.4040E-01  0.4040E-01
    -17.306  0.0000E+00  0.0000E+00  0.4040E-01  0.4040E-01
    -17.217  0.0000E+00  0.0000E+00  0.4040E-01  0.4040E-01
    -17.129  0.0000E+00  0.0000E+00  0.4040E-01  0.4040E-01
    -17.040  0.0000E+00  0.0000E+00  0.4040E-01  0.4040E-01
    -16.952  0.0000E+00  0.0000E+00  0.4040E-01  0.4040E-01
    -16.863  0.0000E+00  0.0000E+00  0.4040E-01  0.4040E-01
    -16.775  0.0000E+00  0.0000E+00  0.4040E-01  0.4040E-01
    -16.686  0.0000E+00  0.0000E+00  0.4040E-01  0.4040E-01
    -16.597  0.0000E+00  0.0000E+00  0.4040E-01  0.4040E-01
    -16.509  0.0000E+00  0.0000E+00  0.4040E-01  0.4040E-01
    -16.420  0.0000E+00  0.0000E+00  0.4040E-01  0.4040E-01
    -16.332  0.0000E+00  0.0000E+00  0.4040E-01  0.4040E-01
    -16.243  0.0000E+00  0.0000E+00  0.4040E-01  0.4040E-01
    -16.155  0.0000E+00  0.0000E+00  0.4040E-01  0.4040E-01
    -16.066  0.0000E+00  0.0000E+00  0.4040E-01  0.4040E-01
    -15.978  0.0000E+00  0.0000E+00  0.4040E-01  0.4040E-01
    -15.889  0.0000E+00  0.0000E+00  0.4040E-01  0.4040E-01
    -15.801  0.0000E+00  0.0000E+00  0.4040E-01  0.4040E-01
    -15.712  0.0000E+00  0.0000E+00  0.4040E-01  0.4040E-01
    -15.623  0.0000E+00  0.0000E+00  0.4040E-01  0.4040E-01
    -15.535  0.0000E+00  0.0000E+00  0.4040E-01  0.4040E-01
    -15.446  0.0000E+00  0.0000E+00  0.4040E-01  0.4040E-01
    -15.358  0.0000E+00  0.0000E+00  0.4040E-01  0.4040E-01
    -15.269  0.0000E+00  0.0000E+00  0.4040E-01  0.4040E-01
    -15.181  0.0000E+00  0.0000E+00  0.4040E-01  0.4040E-01
    -15.092  0.0000E+00  0.0000E+00  0.4040E-01  0.4040E-01
    -15.004  0.0000E+00  0.0000E+00  0.4040E-01  0.4040E-01
    -14.915  0.0000E+00  0.0000E+00  0.4040E-01  0.4040E-01
    -14.826  0.0000E+00  0.0000E+00  0.4040E-01  0.4040E-01
    -14.738  0.0000E+00  0.0000E+00  0.4040E-01  0.4040E-01
    -14.649  0.0000E+00  0.0000E+00  0.4040E-01  0.4040E-01
    -14.561  0.0000E+00  0.0000E+00  0.4040E-01  0.4040E-01
    -14.472  0.0000E+00  0.0000E+00  0.4040E-01  0.4040E-01
    -14.384  0.0000E+00  0.0000E+00  0.4040E-01  0.4040E-01
    -14.295  0.0000E+00  0.0000E+00  0.4040E-01  0.4040E-01
    -14.207  0.0000E+00  0.0000E+00  0.4040E-01  0.4040E-01
    -14.118  0.0000E+00  0.0000E+00  0.4040E-01  0.4040E-01
    -14.029  0.0000E+00  0.0000E+00  0.4040E-01  0.4040E-01
    -13.941  0.0000E+00  0.0000E+00  0.4040E-01  0.4040E-01
    -13.852  0.0000E+00  0.0000E+00  0.4040E-01  0.4040E-01
    -13.764  0.0000E+00  0.0000E+00  0.4040E-01  0.4040E-01
    -13.675  0.0000E+00  0.0000E+00  0.4040E-01  0.4040E-01
    -13.587  0.0000E+00  0.0000E+00  0.4040E-01  0.4040E-01
    -13.498  0.0000E+00  0.0000E+00  0.4040E-01  0.4040E-01
    -13.410  0.0000E+00  0.0000E+00  0.4040E-01  0.4040E-01
    -13.321  0.0000E+00  0.0000E+00  0.4040E-01  0.4040E-01
    -13.232  0.0000E+00  0.0000E+00  0.4040E-01  0.4040E-01
    -13.144  0.0000E+00  0.0000E+00  0.4040E-01  0.4040E-01
    -13.055  0.0000E+00  0.0000E+00  0.4040E-01  0.4040E-01
    -12.967  0.0000E+00  0.0000E+00  0.4040E-01  0.4040E-01
    -12.878  0.0000E+00  0.0000E+00  0.4040E-01  0.4040E-01
    -12.790  0.0000E+00  0.0000E+00  0.4040E-01  0.4040E-01
    -12.701  0.0000E+00  0.0000E+00  0.4040E-01  0.4040E-01
    -12.613  0.0000E+00  0.0000E+00  0.4040E-01  0.4040E-01
    -12.524  0.0000E+00  0.0000E+00  0.4040E-01  0.4040E-01
    -12.435  0.0000E+00  0.0000E+00  0.4040E-01  0.4040E-01
    -12.347  0.0000E+00  0.0000E+00  0.4040E-01  0.4040E-01
    -12.258  0.0000E+00  0.0000E+00  0.4040E-01  0.4040E-01
    -12.170  0.0000E+00  0.0000E+00  0.4040E-01  0.4040E-01
    -12.081  0.0000E+00  0.0000E+00  0.4040E-01  0.4040E-01
    -11.993  0.0000E+00  0.0000E+00  0.4040E-01  0.4040E-01
    -11.904  0.0000E+00  0.0000E+00  0.4040E-01  0.4040E-01
    -11.816  0.0000E+00  0.0000E+00  0.4040E-01  0.4040E-01
    -11.727  0.0000E+00  0.0000E+00  0.4040E-01  0.4040E-01
    -11.638  0.0000E+00  0.0000E+00  0.4040E-01  0.4040E-01
    -11.550  0.0000E+00  0.0000E+00  0.4040E-01  0.4040E-01
    -11.461  0.0000E+00  0.0000E+00  0.4040E-01  0.4040E-01
    -11.373  0.0000E+00  0.0000E+00  0.4040E-01  0.4040E-01
    -11.284  0.0000E+00  0.0000E+00  0.4040E-01  0.4040E-01
    -11.196  0.0000E+00  0.0000E+00  0.4040E-01  0.4040E-01
    -11.107  0.0000E+00  0.0000E+00  0.4040E-01  0.4040E-01
    -11.019  0.0000E+00  0.0000E+00  0.4040E-01  0.4040E-01
    -10.930  0.0000E+00  0.0000E+00  0.4040E-01  0.4040E-01
    -10.841  0.0000E+00  0.0000E+00  0.4040E-01  0.4040E-01
    -10.753  0.0000E+00  0.0000E+00  0.4040E-01  0.4040E-01
    -10.664  0.0000E+00  0.0000E+00  0.4040E-01  0.4040E-01
    -10.576  0.0000E+00  0.0000E+00  0.4040E-01  0.4040E-01
    -10.487  0.0000E+00  0.0000E+00  0.4040E-01  0.4040E-01
    -10.399  0.0000E+00  0.0000E+00  0.4040E-01  0.4040E-01
    -10.310  0.0000E+00  0.0000E+00  0.4040E-01  0.4040E-01
    -10.222 -0.1963E-31  0.0000E+00  0.4040E-01  0.4040E-01
    -10.133 -0.2454E-28 -0.6725E-31  0.4040E-01  0.4040E-01
    -10.044 -0.2066E-25 -0.7862E-28  0.4040E-01  0.4040E-01
     -9.956 -0.1171E-22 -0.6193E-25  0.4040E-01  0.4040E-01
     -9.867 -0.4467E-20 -0.3284E-22  0.4040E-01  0.4040E-01
     -9.779 -0.1145E-17 -0.1171E-19  0.4040E-01  0.4040E-01
     -9.690 -0.1909E-15 -0.2808E-17  0.4040E-01  0.4040E-01
     -9.602 -0.2197E-13 -0.4380E-15  0.4040E-01  0.4040E-01
     -9.513 -0.1688E-11 -0.4702E-13  0.4040E-01  0.4040E-01
     -9.425 -0.8652E-10 -0.3375E-11  0.4040E-01  0.4040E-01
     -9.336 -0.2945E-08 -0.1615E-09  0.4040E-01  0.4040E-01
     -9.248 -0.6620E-07 -0.5128E-08  0.4040E-01  0.4040E-01
     -9.159 -0.9730E-06 -0.1074E-06  0.4040E-01  0.4040E-01
     -9.070 -0.9210E-05 -0.1467E-05  0.4040E-01  0.4040E-01
     -8.982 -0.5461E-04 -0.1286E-04  0.4040E-01  0.4040E-01
     -8.893 -0.1918E-03 -0.7012E-04  0.4038E-01  0.4040E-01
     -8.805 -0.3408E-03 -0.2226E-03  0.4035E-01  0.4038E-01
     -8.716 -0.5196E-04 -0.3354E-03  0.4035E-01  0.4035E-01
     -8.628  0.1203E-02  0.9206E-04  0.4045E-01  0.4036E-01
     -8.539  0.4350E-02  0.1552E-02  0.4084E-01  0.4049E-01
     -8.451  0.1208E-01  0.5177E-02  0.4191E-01  0.4095E-01
     -8.362  0.2338E-01  0.1374E-01  0.4398E-01  0.4217E-01
     -8.273  0.2703E-01  0.2474E-01  0.4637E-01  0.4436E-01
     -8.185  0.1675E-01  0.2628E-01  0.4786E-01  0.4669E-01
     -8.096  0.5356E-02  0.1491E-01  0.4833E-01  0.4801E-01
     -8.008  0.7273E-02  0.5093E-02  0.4897E-01  0.4846E-01
     -7.919  0.1981E-01  0.8147E-02  0.5073E-01  0.4918E-01
     -7.831  0.3099E-01  0.1911E-01  0.5347E-01  0.5087E-01
     -7.742  0.3552E-01  0.2887E-01  0.5662E-01  0.5343E-01
     -7.654  0.3251E-01  0.3456E-01  0.5950E-01  0.5649E-01
     -7.565  0.2026E-01  0.3318E-01  0.6129E-01  0.5943E-01
     -7.476  0.4738E-02  0.2132E-01  0.6171E-01  0.6131E-01
     -7.388 -0.3540E-02  0.5675E-02  0.6140E-01  0.6182E-01
     -7.299  0.3102E-02 -0.3608E-02  0.6167E-01  0.6150E-01
     -7.211  0.3078E-01 -0.1828E-02  0.6440E-01  0.6133E-01
     -7.122  0.6816E-01  0.1660E-01  0.7043E-01  0.6280E-01
     -7.034  0.8075E-01  0.5056E-01  0.7759E-01  0.6728E-01
     -6.945  0.5888E-01  0.7562E-01  0.8280E-01  0.7398E-01
     -6.857  0.3873E-01  0.6776E-01  0.8623E-01  0.7998E-01
     -6.768  0.4529E-01  0.4203E-01  0.9024E-01  0.8370E-01
     -6.679  0.6205E-01  0.3205E-01  0.9573E-01  0.8654E-01
     -6.591  0.6886E-01  0.4282E-01  0.1018E+00  0.9033E-01
     -6.502  0.6755E-01  0.5334E-01  0.1078E+00  0.9505E-01
     -6.414  0.6695E-01  0.5102E-01  0.1137E+00  0.9957E-01
     -6.325  0.8016E-01  0.4570E-01  0.1208E+00  0.1036E+00
     -6.237  0.1250E+00  0.5262E-01  0.1319E+00  0.1083E+00
     -6.148  0.1896E+00  0.6843E-01  0.1487E+00  0.1143E+00
     -6.060  0.2310E+00  0.8137E-01  0.1692E+00  0.1215E+00
     -5.971  0.2274E+00  0.9584E-01  0.1893E+00  0.1300E+00
     -5.882  0.1985E+00  0.1187E+00  0.2069E+00  0.1405E+00
     -5.794  0.1687E+00  0.1458E+00  0.2218E+00  0.1534E+00
     -5.705  0.1421E+00  0.1754E+00  0.2344E+00  0.1690E+00
     -5.617  0.1197E+00  0.2037E+00  0.2450E+00  0.1870E+00
     -5.528  0.1075E+00  0.2136E+00  0.2545E+00  0.2059E+00
     -5.440  0.9959E-01  0.1922E+00  0.2633E+00  0.2230E+00
     -5.351  0.9281E-01  0.1525E+00  0.2716E+00  0.2365E+00
     -5.263  0.1138E+00  0.1168E+00  0.2816E+00  0.2468E+00
     -5.174  0.1837E+00  0.9347E-01  0.2979E+00  0.2551E+00
     -5.085  0.2682E+00  0.8272E-01  0.3216E+00  0.2624E+00
     -4.997  0.3128E+00  0.9115E-01  0.3493E+00  0.2705E+00
     -4.908  0.3080E+00  0.1245E+00  0.3766E+00  0.2815E+00
     -4.820  0.2844E+00  0.1668E+00  0.4018E+00  0.2963E+00
     -4.731  0.2785E+00  0.1996E+00  0.4265E+00  0.3139E+00
     -4.643  0.3099E+00  0.2242E+00  0.4539E+00  0.3338E+00
     -4.554  0.3719E+00  0.2387E+00  0.4868E+00  0.3549E+00
     -4.466  0.4504E+00  0.2350E+00  0.5267E+00  0.3757E+00
     -4.377  0.5294E+00  0.2233E+00  0.5736E+00  0.3955E+00
     -4.288  0.5766E+00  0.2272E+00  0.6247E+00  0.4156E+00
     -4.200  0.5748E+00  0.2567E+00  0.6756E+00  0.4384E+00
     -4.111  0.5472E+00  0.2930E+00  0.7240E+00  0.4643E+00
     -4.023  0.5295E+00  0.3083E+00  0.7709E+00  0.4916E+00
     -3.934  0.5368E+00  0.3007E+00  0.8185E+00  0.5182E+00
     -3.846  0.5521E+00  0.2910E+00  0.8673E+00  0.5440E+00
     -3.757  0.5485E+00  0.2962E+00  0.9159E+00  0.5702E+00
     -3.669  0.5285E+00  0.3209E+00  0.9627E+00  0.5987E+00
     -3.580  0.5259E+00  0.3564E+00  0.1009E+01  0.6302E+00
     -3.492  0.5584E+00  0.3852E+00  0.1059E+01  0.6643E+00
     -3.403  0.5969E+00  0.3980E+00  0.1112E+01  0.6996E+00
     -3.314  0.6031E+00  0.4005E+00  0.1165E+01  0.7350E+00
     -3.226  0.5792E+00  0.4007E+00  0.1216E+01  0.7705E+00
     -3.137  0.5679E+00  0.3998E+00  0.1267E+01  0.8059E+00
     -3.049  0.6065E+00  0.4019E+00  0.1320E+01  0.8415E+00
     -2.960  0.6963E+00  0.4144E+00  0.1382E+01  0.8782E+00
     -2.872  0.8030E+00  0.4325E+00  0.1453E+01  0.9165E+00
     -2.783  0.8788E+00  0.4472E+00  0.1531E+01  0.9561E+00
     -2.695  0.9036E+00  0.4641E+00  0.1611E+01  0.9972E+00
     -2.606  0.9023E+00  0.4946E+00  0.1691E+01  0.1041E+01
     -2.517  0.9025E+00  0.5331E+00  0.1771E+01  0.1088E+01
     -2.429  0.9002E+00  0.5573E+00  0.1850E+01  0.1138E+01
     -2.340  0.8805E+00  0.5539E+00  0.1928E+01  0.1187E+01
     -2.252  0.8447E+00  0.5331E+00  0.2003E+01  0.1234E+01
     -2.163  0.8057E+00  0.5181E+00  0.2075E+01  0.1280E+01
     -2.075  0.7784E+00  0.5317E+00  0.2143E+01  0.1327E+01
     -1.986  0.7701E+00  0.5762E+00  0.2212E+01  0.1378E+01
     -1.898  0.7752E+00  0.6221E+00  0.2280E+01  0.1433E+01
     -1.809  0.7857E+00  0.6401E+00  0.2350E+01  0.1490E+01
     -1.720  0.8004E+00  0.6337E+00  0.2421E+01  0.1546E+01
     -1.632  0.8162E+00  0.6240E+00  0.2493E+01  0.1601E+01
     -1.543  0.8210E+00  0.6281E+00  0.2566E+01  0.1657E+01
     -1.455  0.8065E+00  0.6461E+00  0.2637E+01  0.1714E+01
     -1.366  0.7807E+00  0.6594E+00  0.2706E+01  0.1772E+01
     -1.278  0.7565E+00  0.6584E+00  0.2773E+01  0.1831E+01
     -1.189  0.7340E+00  0.6544E+00  0.2838E+01  0.1888E+01
     -1.101  0.7069E+00  0.6517E+00  0.2901E+01  0.1946E+01
     -1.012  0.6711E+00  0.6384E+00  0.2960E+01  0.2003E+01
     -0.923  0.6249E+00  0.6161E+00  0.3016E+01  0.2057E+01
     -0.835  0.5736E+00  0.6071E+00  0.3066E+01  0.2111E+01
     -0.746  0.5265E+00  0.6165E+00  0.3113E+01  0.2166E+01
     -0.658  0.4865E+00  0.6207E+00  0.3156E+01  0.2221E+01
     -0.569  0.4484E+00  0.6061E+00  0.3196E+01  0.2274E+01
     -0.481  0.4113E+00  0.5831E+00  0.3232E+01  0.2326E+01
     -0.392  0.3828E+00  0.5615E+00  0.3266E+01  0.2376E+01
     -0.304  0.3655E+00  0.5441E+00  0.3299E+01  0.2424E+01
     -0.215  0.3551E+00  0.5345E+00  0.3330E+01  0.2471E+01
     -0.126  0.3490E+00  0.5310E+00  0.3361E+01  0.2518E+01
     -0.038  0.3447E+00  0.5266E+00  0.3391E+01  0.2565E+01
      0.051  0.3430E+00  0.5234E+00  0.3422E+01  0.2611E+01
      0.139  0.3462E+00  0.5301E+00  0.3452E+01  0.2658E+01
      0.228  0.3485E+00  0.5459E+00  0.3483E+01  0.2706E+01
      0.316  0.3411E+00  0.5599E+00  0.3514E+01  0.2756E+01
      0.405  0.3197E+00  0.5669E+00  0.3542E+01  0.2806E+01
      0.493  0.2816E+00  0.5718E+00  0.3567E+01  0.2857E+01
      0.582  0.2341E+00  0.5858E+00  0.3587E+01  0.2909E+01
      0.671  0.1958E+00  0.6198E+00  0.3605E+01  0.2964E+01
      0.759  0.1750E+00  0.6655E+00  0.3620E+01  0.3023E+01
      0.848  0.1608E+00  0.6935E+00  0.3635E+01  0.3084E+01
      0.936  0.1478E+00  0.6883E+00  0.3648E+01  0.3145E+01
      1.025  0.1450E+00  0.6698E+00  0.3660E+01  0.3204E+01
      1.113  0.1506E+00  0.6698E+00  0.3674E+01  0.3263E+01
      1.202  0.1478E+00  0.6890E+00  0.3687E+01  0.3325E+01
      1.290  0.1350E+00  0.6936E+00  0.3699E+01  0.3386E+01
      1.379  0.1234E+00  0.6585E+00  0.3710E+01  0.3444E+01
      1.468  0.1081E+00  0.5899E+00  0.3719E+01  0.3496E+01
      1.556  0.8503E-01  0.5057E+00  0.3727E+01  0.3541E+01
      1.645  0.7722E-01  0.4137E+00  0.3734E+01  0.3578E+01
      1.733  0.1032E+00  0.3166E+00  0.3743E+01  0.3606E+01
      1.822  0.1410E+00  0.2327E+00  0.3755E+01  0.3627E+01
      1.910  0.1481E+00  0.1843E+00  0.3768E+01  0.3643E+01
      1.999  0.1136E+00  0.1666E+00  0.3779E+01  0.3658E+01
      2.087  0.6644E-01  0.1581E+00  0.3784E+01  0.3672E+01
      2.176  0.3161E-01  0.1489E+00  0.3787E+01  0.3685E+01
      2.264  0.1084E-01  0.1379E+00  0.3788E+01  0.3697E+01
      2.353  0.4887E-03  0.1276E+00  0.3788E+01  0.3708E+01
      2.442 -0.2069E-02  0.1266E+00  0.3788E+01  0.3720E+01
      2.530 -0.1259E-02  0.1368E+00  0.3788E+01  0.3732E+01
      2.619 -0.3822E-03  0.1470E+00  0.3788E+01  0.3745E+01
      2.707 -0.6975E-04  0.1494E+00  0.3788E+01  0.3758E+01
      2.796 -0.8084E-05  0.1419E+00  0.3788E+01  0.3770E+01
      2.884 -0.6097E-06  0.1151E+00  0.3788E+01  0.3781E+01
      2.973 -0.3031E-07  0.6779E-01  0.3788E+01  0.3787E+01
      3.061 -0.1000E-08  0.2214E-01  0.3788E+01  0.3789E+01
      3.150 -0.2203E-10 -0.9206E-03  0.3788E+01  0.3789E+01
      3.239 -0.3248E-12 -0.4502E-02  0.3788E+01  0.3788E+01
      3.327 -0.3208E-14 -0.2136E-02  0.3788E+01  0.3788E+01
      3.416 -0.2251E-16 -0.5400E-03  0.3788E+01  0.3788E+01
      3.504  0.0000E+00 -0.8418E-04  0.3788E+01  0.3788E+01
      3.593  0.0000E+00 -0.8470E-05  0.3788E+01  0.3788E+01
      3.681  0.0000E+00 -0.5610E-06  0.3788E+01  0.3788E+01
      3.770  0.0000E+00 -0.2471E-07  0.3788E+01  0.3788E+01
      3.858  0.0000E+00 -0.7277E-09  0.3788E+01  0.3788E+01
      3.947  0.0000E+00 -0.1439E-10  0.3788E+01  0.3788E+01
      4.036  0.0000E+00 -0.1912E-12  0.3788E+01  0.3788E+01
      4.124  0.0000E+00 -0.1714E-14  0.3788E+01  0.3788E+01
      4.213  0.0000E+00 -0.1126E-16  0.3788E+01  0.3788E+01
      4.301  0.0000E+00  0.0000E+00  0.3788E+01  0.3788E+01
      4.390  0.0000E+00  0.0000E+00  0.3788E+01  0.3788E+01
      4.478  0.0000E+00  0.0000E+00  0.3788E+01  0.3788E+01
      4.567  0.0000E+00  0.0000E+00  0.3788E+01  0.3788E+01
      4.655  0.0000E+00  0.0000E+00  0.3788E+01  0.3788E+01
      4.744  0.0000E+00  0.0000E+00  0.3788E+01  0.3788E+01
      4.833  0.0000E+00  0.0000E+00  0.3788E+01  0.3788E+01
      4.921  0.0000E+00  0.0000E+00  0.3788E+01  0.3788E+01
      4.92111647    -21.64506438  301     -0.28675494      1.00000000
    -21.645  0.0000E+00  0.0000E+00  0.0000E+00  0.0000E+00  0.0000E+00  0.0000E+00
    -21.557  0.0000E+00  0.0000E+00  0.0000E+00  0.0000E+00  0.0000E+00  0.0000E+00
    -21.468  0.0000E+00  0.0000E+00  0.0000E+00  0.0000E+00  0.0000E+00  0.0000E+00
    -21.379  0.0000E+00  0.0000E+00  0.0000E+00  0.0000E+00  0.0000E+00  0.0000E+00
    -21.291 -0.1006E-38  0.0000E+00 -0.8759E-39  0.0000E+00 -0.5352E-39  0.0000E+00
    -21.202 -0.1163E-35 -0.1391E-38 -0.1014E-35 -0.1277E-38 -0.6205E-36 -0.6275E-39
    -21.114 -0.9073E-33 -0.1575E-35 -0.7925E-33 -0.1446E-35 -0.4854E-33 -0.7103E-36
    -21.025 -0.4772E-30 -0.1201E-32 -0.4174E-30 -0.1103E-32 -0.2560E-30 -0.5417E-33
    -20.937 -0.1691E-27 -0.6163E-30 -0.1481E-27 -0.5660E-30 -0.9097E-28 -0.2781E-30
    -20.848 -0.4034E-25 -0.2128E-27 -0.3540E-25 -0.1954E-27 -0.2177E-25 -0.9602E-28
    -20.760 -0.6275E-23 -0.4939E-25 -0.5516E-23 -0.4536E-25 -0.3396E-23 -0.2229E-25
    -20.671 -0.6726E-21 -0.7450E-23 -0.5923E-21 -0.6841E-23 -0.3652E-21 -0.3363E-23
    -20.582 -0.4832E-19 -0.7749E-21 -0.4263E-19 -0.7115E-21 -0.2632E-19 -0.3498E-21
    -20.494 -0.2318E-17 -0.5385E-19 -0.2049E-17 -0.4945E-19 -0.1267E-17 -0.2433E-19
    -20.405 -0.7398E-16 -0.2495E-17 -0.6552E-16 -0.2291E-17 -0.4057E-16 -0.1128E-17
    -20.317 -0.1560E-14 -0.7675E-16 -0.1384E-14 -0.7045E-16 -0.8582E-15 -0.3474E-16
    -20.228 -0.2149E-13 -0.1557E-14 -0.1911E-13 -0.1429E-14 -0.1187E-13 -0.7064E-15
    -20.140 -0.1898E-12 -0.2062E-13 -0.1692E-12 -0.1892E-13 -0.1052E-12 -0.9390E-14
    -20.051 -0.1033E-11 -0.1750E-12 -0.9231E-12 -0.1604E-12 -0.5751E-12 -0.8021E-13
    -19.963 -0.3116E-11 -0.9149E-12 -0.2795E-11 -0.8375E-12 -0.1745E-11 -0.4246E-12
    -19.874 -0.3012E-11 -0.2654E-11 -0.2733E-11 -0.2422E-11 -0.1716E-11 -0.1266E-11
    -19.785  0.1110E-10 -0.2398E-11  0.9882E-11 -0.2151E-11  0.6169E-11 -0.1307E-11
    -19.697  0.4388E-10  0.9669E-11  0.3938E-10  0.8942E-11  0.2469E-10  0.4093E-11
    -19.608  0.6893E-10  0.3811E-10  0.6213E-10  0.3486E-10  0.3905E-10  0.1788E-10
    -19.520  0.6432E-10  0.6221E-10  0.5811E-10  0.5645E-10  0.3620E-10  0.3129E-10
    -19.431  0.6346E-10  0.5680E-10  0.5676E-10  0.5103E-10  0.3395E-10  0.3112E-10
    -19.343  0.9224E-10  0.4033E-10  0.8142E-10  0.3588E-10  0.4776E-10  0.2334E-10
    -19.254  0.1044E-09  0.5727E-10  0.9160E-10  0.5117E-10  0.5414E-10  0.2954E-10
    -19.166  0.6597E-10  0.9967E-10  0.5766E-10  0.8908E-10  0.3451E-10  0.4875E-10
    -19.077  0.1692E-10  0.1056E-09  0.1467E-10  0.9401E-10  0.8989E-11  0.5168E-10
    -18.988 -0.4147E-11  0.5927E-10 -0.3685E-11  0.5251E-10 -0.2118E-11  0.2934E-10
    -18.900 -0.4517E-11  0.1182E-10 -0.3955E-11  0.1033E-10 -0.2366E-11  0.6005E-11
    -18.811 -0.1522E-11 -0.5103E-11 -0.1327E-11 -0.4578E-11 -0.8033E-12 -0.2474E-11
    -18.723 -0.2843E-12 -0.4078E-11 -0.2472E-12 -0.3615E-11 -0.1508E-12 -0.2024E-11
    -18.634 -0.3275E-13 -0.1242E-11 -0.2841E-13 -0.1096E-11 -0.1744E-13 -0.6220E-12
    -18.546 -0.2423E-14 -0.2156E-12 -0.2098E-14 -0.1897E-12 -0.1295E-14 -0.1087E-12
    -18.457 -0.1174E-15 -0.2335E-13 -0.1014E-15 -0.2048E-13 -0.6296E-16 -0.1183E-13
    -18.369 -0.3763E-17 -0.1632E-14 -0.3246E-17 -0.1429E-14 -0.2024E-17 -0.8307E-15
    -18.280 -0.8033E-19 -0.7496E-16 -0.6919E-19 -0.6549E-16 -0.4331E-19 -0.3829E-16
    -18.191 -0.1147E-20 -0.2283E-17 -0.9862E-21 -0.1991E-17 -0.6197E-21 -0.1170E-17
    -18.103 -0.1100E-22 -0.4637E-19 -0.9455E-23 -0.4038E-19 -0.5956E-23 -0.2383E-19
    -18.014 -0.6703E-25 -0.6305E-21 -0.5709E-25 -0.5484E-21 -0.3691E-25 -0.3248E-21
    -17.926  0.0000E+00 -0.5751E-23  0.0000E+00 -0.4996E-23  0.0000E+00 -0.2966E-23
    -17.837  0.0000E+00 -0.3437E-25  0.0000E+00 -0.2969E-25  0.0000E+00 -0.1797E-25
    -17.749  0.0000E+00  0.0000E+00  0.0000E+00  0.0000E+00  0.0000E+00  0.0000E+00
    -17.660  0.0000E+00  0.0000E+00  0.0000E+00  0.0000E+00  0.0000E+00  0.0000E+00
    -17.572  0.0000E+00  0.0000E+00  0.0000E+00  0.0000E+00  0.0000E+00  0.0000E+00
    -17.483  0.0000E+00  0.0000E+00  0.0000E+00  0.0000E+00  0.0000E+00  0.0000E+00
    -17.394  0.0000E+00  0.0000E+00  0.0000E+00  0.0000E+00  0.0000E+00  0.0000E+00
    -17.306  0.0000E+00  0.0000E+00  0.0000E+00  0.0000E+00  0.0000E+00  0.0000E+00
    -17.217  0.0000E+00  0.0000E+00  0.0000E+00  0.0000E+00  0.0000E+00  0.0000E+00
    -17.129  0.0000E+00  0.0000E+00  0.0000E+00  0.0000E+00  0.0000E+00  0.0000E+00
    -17.040  0.0000E+00  0.0000E+00  0.0000E+00  0.0000E+00  0.0000E+00  0.0000E+00
    -16.952  0.0000E+00  0.0000E+00  0.0000E+00  0.0000E+00  0.0000E+00  0.0000E+00
    -16.863  0.0000E+00  0.0000E+00  0.0000E+00  0.0000E+00  0.0000E+00  0.0000E+00
    -16.775  0.0000E+00  0.0000E+00  0.0000E+00  0.0000E+00  0.0000E+00  0.0000E+00
    -16.686  0.0000E+00  0.0000E+00  0.0000E+00  0.0000E+00  0.0000E+00  0.0000E+00
    -16.597  0.0000E+00  0.0000E+00  0.0000E+00  0.0000E+00  0.0000E+00  0.0000E+00
    -16.509  0.0000E+00  0.0000E+00  0.0000E+00  0.0000E+00  0.0000E+00  0.0000E+00
    -16.420  0.0000E+00  0.0000E+00  0.0000E+00  0.0000E+00  0.0000E+00  0.0000E+00
    -16.332  0.0000E+00  0.0000E+00  0.0000E+00  0.0000E+00  0.0000E+00  0.0000E+00
    -16.243  0.0000E+00  0.0000E+00  0.0000E+00  0.0000E+00  0.0000E+00  0.0000E+00
    -16.155  0.0000E+00  0.0000E+00  0.0000E+00  0.0000E+00  0.0000E+00  0.0000E+00
    -16.066  0.0000E+00  0.0000E+00  0.0000E+00  0.0000E+00  0.0000E+00  0.0000E+00
    -15.978  0.0000E+00  0.0000E+00  0.0000E+00  0.0000E+00  0.0000E+00  0.0000E+00
    -15.889  0.0000E+00  0.0000E+00  0.0000E+00  0.0000E+00  0.0000E+00  0.0000E+00
    -15.801  0.0000E+00  0.0000E+00  0.0000E+00  0.0000E+00  0.0000E+00  0.0000E+00
    -15.712  0.0000E+00  0.0000E+00  0.0000E+00  0.0000E+00  0.0000E+00  0.0000E+00
    -15.623  0.0000E+00  0.0000E+00  0.0000E+00  0.0000E+00  0.0000E+00  0.0000E+00
    -15.535  0.0000E+00  0.0000E+00  0.0000E+00  0.0000E+00  0.0000E+00  0.0000E+00
    -15.446  0.0000E+00  0.0000E+00  0.0000E+00  0.0000E+00  0.0000E+00  0.0000E+00
    -15.358  0.0000E+00  0.0000E+00  0.0000E+00  0.0000E+00  0.0000E+00  0.0000E+00
    -15.269  0.0000E+00  0.0000E+00  0.0000E+00  0.0000E+00  0.0000E+00  0.0000E+00
    -15.181  0.0000E+00  0.0000E+00  0.0000E+00  0.0000E+00  0.0000E+00  0.0000E+00
    -15.092  0.0000E+00  0.0000E+00  0.0000E+00  0.0000E+00  0.0000E+00  0.0000E+00
    -15.004  0.0000E+00  0.0000E+00  0.0000E+00  0.0000E+00  0.0000E+00  0.0000E+00
    -14.915  0.0000E+00  0.0000E+00  0.0000E+00  0.0000E+00  0.0000E+00  0.0000E+00
    -14.826  0.0000E+00  0.0000E+00  0.0000E+00  0.0000E+00  0.0000E+00  0.0000E+00
    -14.738  0.0000E+00  0.0000E+00  0.0000E+00  0.0000E+00  0.0000E+00  0.0000E+00
    -14.649  0.0000E+00  0.0000E+00  0.0000E+00  0.0000E+00  0.0000E+00  0.0000E+00
    -14.561  0.0000E+00  0.0000E+00  0.0000E+00  0.0000E+00  0.0000E+00  0.0000E+00
    -14.472  0.0000E+00  0.0000E+00  0.0000E+00  0.0000E+00  0.0000E+00  0.0000E+00
    -14.384  0.0000E+00  0.0000E+00  0.0000E+00  0.0000E+00  0.0000E+00  0.0000E+00
    -14.295  0.0000E+00  0.0000E+00  0.0000E+00  0.0000E+00  0.0000E+00  0.0000E+00
    -14.207  0.0000E+00  0.0000E+00  0.0000E+00  0.0000E+00  0.0000E+00  0.0000E+00
    -14.118  0.0000E+00  0.0000E+00  0.0000E+00  0.0000E+00  0.0000E+00  0.0000E+00
    -14.029  0.0000E+00  0.0000E+00  0.0000E+00  0.0000E+00  0.0000E+00  0.0000E+00
    -13.941  0.0000E+00  0.0000E+00  0.0000E+00  0.0000E+00  0.0000E+00  0.0000E+00
    -13.852  0.0000E+00  0.0000E+00  0.0000E+00  0.0000E+00  0.0000E+00  0.0000E+00
    -13.764  0.0000E+00  0.0000E+00  0.0000E+00  0.0000E+00  0.0000E+00  0.0000E+00
    -13.675  0.0000E+00  0.0000E+00  0.0000E+00  0.0000E+00  0.0000E+00  0.0000E+00
    -13.587  0.0000E+00  0.0000E+00  0.0000E+00  0.0000E+00  0.0000E+00  0.0000E+00
    -13.498  0.0000E+00  0.0000E+00  0.0000E+00  0.0000E+00  0.0000E+00  0.0000E+00
    -13.410  0.0000E+00  0.0000E+00  0.0000E+00  0.0000E+00  0.0000E+00  0.0000E+00
    -13.321  0.0000E+00  0.0000E+00  0.0000E+00  0.0000E+00  0.0000E+00  0.0000E+00
    -13.232  0.0000E+00  0.0000E+00  0.0000E+00  0.0000E+00  0.0000E+00  0.0000E+00
    -13.144  0.0000E+00  0.0000E+00  0.0000E+00  0.0000E+00  0.0000E+00  0.0000E+00
    -13.055  0.0000E+00  0.0000E+00  0.0000E+00  0.0000E+00  0.0000E+00  0.0000E+00
    -12.967  0.0000E+00  0.0000E+00  0.0000E+00  0.0000E+00  0.0000E+00  0.0000E+00
    -12.878  0.0000E+00  0.0000E+00  0.0000E+00  0.0000E+00  0.0000E+00  0.0000E+00
    -12.790  0.0000E+00  0.0000E+00  0.0000E+00  0.0000E+00  0.0000E+00  0.0000E+00
    -12.701  0.0000E+00  0.0000E+00  0.0000E+00  0.0000E+00  0.0000E+00  0.0000E+00
    -12.613  0.0000E+00  0.0000E+00  0.0000E+00  0.0000E+00  0.0000E+00  0.0000E+00
    -12.524  0.0000E+00  0.0000E+00  0.0000E+00  0.0000E+00  0.0000E+00  0.0000E+00
    -12.435  0.0000E+00  0.0000E+00  0.0000E+00  0.0000E+00  0.0000E+00  0.0000E+00
    -12.347  0.0000E+00  0.0000E+00  0.0000E+00  0.0000E+00  0.0000E+00  0.0000E+00
    -12.258  0.0000E+00  0.0000E+00  0.0000E+00  0.0000E+00  0.0000E+00  0.0000E+00
    -12.170  0.0000E+00  0.0000E+00  0.0000E+00  0.0000E+00  0.0000E+00  0.0000E+00
    -12.081  0.0000E+00  0.0000E+00  0.0000E+00  0.0000E+00  0.0000E+00  0.0000E+00
    -11.993  0.0000E+00  0.0000E+00  0.0000E+00  0.0000E+00  0.0000E+00  0.0000E+00
    -11.904  0.0000E+00  0.0000E+00  0.0000E+00  0.0000E+00  0.0000E+00  0.0000E+00
    -11.816  0.0000E+00  0.0000E+00  0.0000E+00  0.0000E+00  0.0000E+00  0.0000E+00
    -11.727  0.0000E+00  0.0000E+00  0.0000E+00  0.0000E+00  0.0000E+00  0.0000E+00
    -11.638  0.0000E+00  0.0000E+00  0.0000E+00  0.0000E+00  0.0000E+00  0.0000E+00
    -11.550  0.0000E+00  0.0000E+00  0.0000E+00  0.0000E+00  0.0000E+00  0.0000E+00
    -11.461  0.0000E+00  0.0000E+00  0.0000E+00  0.0000E+00  0.0000E+00  0.0000E+00
    -11.373  0.0000E+00  0.0000E+00  0.0000E+00  0.0000E+00  0.0000E+00  0.0000E+00
    -11.284  0.0000E+00  0.0000E+00  0.0000E+00  0.0000E+00  0.0000E+00  0.0000E+00
    -11.196  0.0000E+00  0.0000E+00  0.0000E+00  0.0000E+00  0.0000E+00  0.0000E+00
    -11.107  0.0000E+00  0.0000E+00  0.0000E+00  0.0000E+00  0.0000E+00  0.0000E+00
    -11.019  0.0000E+00  0.0000E+00  0.0000E+00  0.0000E+00  0.0000E+00  0.0000E+00
    -10.930  0.0000E+00  0.0000E+00  0.0000E+00  0.0000E+00  0.0000E+00  0.0000E+00
    -10.841  0.0000E+00  0.0000E+00  0.0000E+00  0.0000E+00  0.0000E+00  0.0000E+00
    -10.753  0.0000E+00  0.0000E+00  0.0000E+00  0.0000E+00  0.0000E+00  0.0000E+00
    -10.664  0.0000E+00  0.0000E+00  0.0000E+00  0.0000E+00  0.0000E+00  0.0000E+00
    -10.576  0.0000E+00  0.0000E+00  0.0000E+00  0.0000E+00  0.0000E+00  0.0000E+00
    -10.487  0.0000E+00  0.0000E+00  0.0000E+00  0.0000E+00  0.0000E+00  0.0000E+00
    -10.399  0.0000E+00  0.0000E+00  0.0000E+00  0.0000E+00  0.0000E+00  0.0000E+00
    -10.310  0.0000E+00  0.0000E+00  0.0000E+00  0.0000E+00  0.0000E+00  0.0000E+00
    -10.222 -0.9596E-32  0.0000E+00 -0.1151E-32  0.0000E+00 -0.3355E-35  0.0000E+00
    -10.133 -0.1199E-28 -0.2832E-31 -0.1439E-29 -0.3836E-32 -0.4193E-32 -0.8894E-35
    -10.044 -0.1010E-25 -0.3311E-28 -0.1212E-26 -0.4485E-29 -0.3531E-29 -0.1040E-31
     -9.956 -0.5725E-23 -0.2608E-25 -0.6869E-24 -0.3533E-26 -0.2002E-26 -0.8192E-29
     -9.867 -0.2183E-20 -0.1383E-22 -0.2620E-21 -0.1873E-23 -0.7634E-24 -0.4343E-26
     -9.779 -0.5598E-18 -0.4932E-20 -0.6716E-19 -0.6681E-21 -0.1957E-21 -0.1549E-23
     -9.690 -0.9330E-16 -0.1183E-17 -0.1119E-16 -0.1602E-18 -0.3263E-19 -0.3714E-21
     -9.602 -0.1074E-13 -0.1845E-15 -0.1288E-14 -0.2499E-16 -0.3756E-17 -0.5794E-19
     -9.513 -0.8252E-12 -0.1980E-13 -0.9901E-13 -0.2683E-14 -0.2888E-15 -0.6222E-17