       N       E                     dE             d eps       ncg     rms          rms(c)
DAV:   1    -0.471520192065E+03   -0.47152E+03   -0.15539E+03  7971   0.489E+01    0.819E+00
RMM:   2    -0.483886949267E+03   -0.12367E+02   -0.12098E+02  7629   0.254E+01    0.131E+01
RMM:   3    -0.487435873335E+03   -0.35489E+01   -0.19062E+01  8147   0.700E+00    0.218E+01
RMM:   4    -0.485003779772E+03    0.24321E+01   -0.31503E+00  7953   0.357E+00    0.546E+00
RMM:   5    -0.485378336770E+03   -0.37456E+00   -0.11083E+00  8247   0.178E+00    0.925E+00
RMM:   6    -0.485324681998E+03    0.53655E-01   -0.45932E-01  7956   0.120E+00    0.857E+00
RMM:   7    -0.485002574241E+03    0.32211E+00   -0.19942E-01  7729   0.104E+00    0.331E+00
RMM:   8    -0.484992510793E+03    0.10063E-01   -0.66763E-02  7981   0.464E-01    0.257E+00
RMM:   9    -0.484996676569E+03   -0.41658E-02   -0.21585E-02  8006   0.277E-01    0.251E+00
RMM:  10    -0.484992252741E+03    0.44238E-02   -0.67254E-03  7784   0.168E-01    0.212E+00
RMM:  11    -0.484992624537E+03   -0.37180E-03   -0.25585E-03  8160   0.902E-02    0.213E+00
RMM:  12    -0.484993260646E+03   -0.63611E-03   -0.12757E-03  7797   0.765E-02    0.221E+00
RMM:  13    -0.484995235703E+03   -0.19751E-02   -0.28872E-03  7532   0.131E-01    0.220E+00
RMM:  14    -0.484997791555E+03   -0.25559E-02   -0.64140E-03  7547   0.198E-01    0.209E+00
RMM:  15    -0.484997728992E+03    0.62564E-04   -0.53828E-03  7555   0.189E-01    0.187E+00
RMM:  16    -0.485000810061E+03   -0.30811E-02   -0.61204E-03  7568   0.184E-01    0.161E+00
RMM:  17    -0.484999468970E+03    0.13411E-02   -0.37826E-03  7572   0.154E-01    0.123E+00
RMM:  18    -0.485000557182E+03   -0.10882E-02   -0.23653E-03  7629   0.114E-01    0.115E+00
RMM:  19    -0.485000789372E+03   -0.23219E-03   -0.34115E-03  7552   0.150E-01    0.781E-01
RMM:  20    -0.485000710876E+03    0.78496E-04   -0.19918E-03  7530   0.110E-01    0.607E-01
RMM:  21    -0.485001005655E+03   -0.29478E-03   -0.25952E-03  7592   0.127E-01    0.413E-01
RMM:  22    -0.485000830780E+03    0.17488E-03   -0.14527E-03  7530   0.953E-02    0.175E-01
RMM:  23    -0.485001818294E+03   -0.98751E-03   -0.76680E-04  7707   0.596E-02    0.231E-01
RMM:  24    -0.485002418368E+03   -0.60007E-03   -0.37559E-04  7510   0.477E-02    0.141E-01
RMM:  25    -0.485003283096E+03   -0.86473E-03   -0.22449E-04  7518   0.335E-02    0.179E-01
RMM:  26    -0.485004417306E+03   -0.11342E-02   -0.13103E-04  7347   0.262E-02    0.132E-01
RMM:  27    -0.485004821480E+03   -0.40417E-03   -0.59867E-05  6437   0.182E-02    0.114E-01
RMM:  28    -0.485006279825E+03   -0.14583E-02   -0.10004E-04  7108   0.195E-02    0.110E-01
RMM:  29    -0.485007063206E+03   -0.78338E-03   -0.56049E-05  5806   0.162E-02    0.797E-02
RMM:  30    -0.485008317478E+03   -0.12543E-02   -0.87436E-05  6523   0.164E-02    0.879E-02
RMM:  31    -0.485009557165E+03   -0.12397E-02   -0.93786E-05  6119   0.162E-02    0.560E-02
RMM:  32    -0.485010135013E+03   -0.57785E-03   -0.44257E-05  5185   0.125E-02    0.580E-02
RMM:  33    -0.485011610340E+03   -0.14753E-02   -0.13791E-04  6520   0.157E-02    0.477E-02
RMM:  34    -0.485011996424E+03   -0.38608E-03   -0.40824E-05  5179   0.105E-02    0.349E-02
RMM:  35    -0.485012688642E+03   -0.69222E-03   -0.70309E-05  5696   0.105E-02    0.290E-02
RMM:  36    -0.485012893765E+03   -0.20512E-03   -0.26881E-05  4917   0.922E-03    0.227E-02
RMM:  37    -0.485013131961E+03   -0.23820E-03   -0.35696E-05  5104   0.756E-03    0.211E-02
RMM:  38    -0.485013181998E+03   -0.50036E-04   -0.17690E-05  4795   0.734E-03    0.158E-02
RMM:  39    -0.485013144705E+03    0.37292E-04   -0.12185E-05  4500   0.548E-03    0.134E-02
RMM:  40    -0.485013124938E+03    0.19767E-04   -0.41913E-06  4039   0.509E-03    0.859E-03
RMM:  41    -0.485013106157E+03    0.18782E-04   -0.22305E-06  3901   0.307E-03    0.855E-03
RMM:  42    -0.485013103097E+03    0.30602E-05   -0.11091E-06  3832   0.291E-03
   1 F= -.49969715E+03 E0= -.49970553E+03  d E =-.499697E+03  mag=    86.3103
       N       E                     dE             d eps       ncg     rms          rms(c)
DAV:   1    -0.485012356403E+03    0.74975E-03   -0.33004E-01  7638   0.958E-01    0.273E-01
RMM:   2    -0.485014879927E+03   -0.25235E-02   -0.11544E-02  7837   0.252E-01    0.475E-01
RMM:   3    -0.485016978714E+03   -0.20988E-02   -0.45313E-03  7564   0.181E-01    0.789E-01
RMM:   4    -0.485018500891E+03   -0.15222E-02   -0.19965E-03  7541   0.110E-01    0.966E-01
RMM:   5    -0.485014039180E+03    0.44617E-02   -0.11974E-03  7502   0.984E-02    0.237E-01
RMM:   6    -0.485013961435E+03    0.77745E-04   -0.26369E-04  7464   0.407E-02    0.136E-01
RMM:   7    -0.485013972712E+03   -0.11277E-04   -0.16166E-04  7480   0.308E-02    0.165E-01
RMM:   8    -0.485013931954E+03    0.40758E-04   -0.11114E-04  7363   0.276E-02    0.146E-01
RMM:   9    -0.485013841533E+03    0.90421E-04   -0.88395E-05  7417   0.265E-02    0.668E-02
RMM:  10    -0.485013900318E+03   -0.58785E-04   -0.11931E-04  7460   0.280E-02    0.132E-01
RMM:  11    -0.485013820067E+03    0.80251E-04   -0.55568E-05  6738   0.228E-02    0.445E-02
RMM:  12    -0.485013820498E+03   -0.43119E-06   -0.10991E-05  3919   0.979E-03
   2 F= -.49969831E+03 E0= -.49970678E+03  d E =-.116882E-02  mag=    86.3069
