 vasp.5.4.4.18Apr17-6-g9f103f2a35 (build Dec 15 2018 21:27:11) complex          
  
 executed on             LinuxIFC date 2022.02.23  04:05:11
 running on   72 total cores
 distrk:  each k-point on   72 cores,    1 groups
 distr:  one band on NCORES_PER_BAND=  24 cores,    3 groups


--------------------------------------------------------------------------------------------------------


 INCAR:
 POTCAR:    PAW_PBE Fe 06Sep2000                  
 POTCAR:    PAW_PBE Ni 02Aug2007                  
 POTCAR:    PAW_PBE O 08Apr2002                   

 ----------------------------------------------------------------------------- 
|                                                                             |
|           W    W    AA    RRRRR   N    N  II  N    N   GGGG   !!!           |
|           W    W   A  A   R    R  NN   N  II  NN   N  G    G  !!!           |
|           W    W  A    A  R    R  N N  N  II  N N  N  G       !!!           |
|           W WW W  AAAAAA  RRRRR   N  N N  II  N  N N  G  GGG   !            |
|           WW  WW  A    A  R   R   N   NN  II  N   NN  G    G                |
|           W    W  A    A  R    R  N    N  II  N    N   GGGG   !!!           |
|                                                                             |
|      For optimal performance we recommend to set                            |
|        NCORE= 4 - approx SQRT( number of cores)                             |
|      NCORE specifies how many cores store one orbital (NPAR=cpu/NCORE).     |
|      This setting can  greatly improve the performance of VASP for DFT.     |
|      The default,   NCORE=1            might be grossly inefficient         |
|      on modern multi-core architectures or massively parallel machines.     |
|      Do your own testing !!!!                                               |
|      Unfortunately you need to use the default for GW and RPA calculations. |
|      (for HF NCORE is supported but not extensively tested yet)             |
|                                                                             |
 ----------------------------------------------------------------------------- 

 POTCAR:    PAW_PBE Fe 06Sep2000                  
   VRHFIN =Fe:  d7 s1                                                           
   LEXCH  = PE                                                                  
   EATOM  =   594.3153 eV,   43.6809 Ry                                         
                                                                                
   TITEL  = PAW_PBE Fe 06Sep2000                                                
   LULTRA =        F    use ultrasoft PP ?                                      
   IUNSCR =        1    unscreen: 0-lin 1-nonlin 2-no                           
   RPACOR =    2.000    partial core radius                                     
   POMASS =   55.847; ZVAL   =    8.000    mass and valenz                      
   RCORE  =    2.300    outmost cutoff radius                                   
   RWIGS  =    2.460; RWIGS  =    1.302    wigner-seitz radius (au A)           
   ENMAX  =  267.882; ENMIN  =  200.911 eV                                      
   RCLOC  =    1.701    cutoff for local pot                                    
   LCOR   =        T    correct aug charges                                     
   LPAW   =        T    paw PP                                                  
   EAUG   =  511.368                                                            
   DEXC   =    0.000                                                            
   RMAX   =    2.356    core radius for proj-oper                               
   RAUG   =    1.300    factor for augmentation sphere                          
   RDEP   =    2.442    radius for radial grids                                 
   RDEPT  =    1.890    core radius for aug-charge                              
                                                                                
   Atomic configuration                                                         
    9 entries                                                                   
     n  l   j            E        occ.                                          
     1  0  0.50     -6993.8440   2.0000                                         
     2  0  0.50      -814.6047   2.0000                                         
     2  1  1.50      -693.3689   6.0000                                         
     3  0  0.50       -89.4732   2.0000                                         
     3  1  1.50       -55.6373   6.0000                                         
     3  2  2.50        -3.8151   7.0000                                         
     4  0  0.50        -4.2551   1.0000                                         
     4  1  1.50        -3.4015   0.0000                                         
     4  3  2.50        -1.3606   0.0000                                         
   Description                                                                  
     l       E           TYP  RCUT    TYP  RCUT                                 
     2     -3.8151135     23  2.300                                             
     2     -5.1756961     23  2.300                                             
     0     -4.2550963     23  2.300                                             
     0      7.2035603     23  2.300                                             
     1     -2.7211652     23  2.300                                             
     1     18.4316424     23  2.300                                             
  local pseudopotential read in
  partial core-charges read in
  partial kinetic energy density read in
  atomic valenz-charges read in
  non local Contribution for L=           2  read in
    real space projection operators read in
  non local Contribution for L=           2  read in
    real space projection operators read in
  non local Contribution for L=           0  read in
    real space projection operators read in
  non local Contribution for L=           0  read in
    real space projection operators read in
  non local Contribution for L=           1  read in
    real space projection operators read in
  non local Contribution for L=           1  read in
    real space projection operators read in
    PAW grid and wavefunctions read in
 
   number of l-projection  operators is LMAX  =           6
   number of lm-projection operators is LMMAX =          18
 
 POTCAR:    PAW_PBE Ni 02Aug2007                  
   VRHFIN =Ni:                                                                  
   LEXCH  = PE                                                                  
   EATOM  =  1077.6739 eV,   79.2068 Ry                                         
                                                                                
   TITEL  = PAW_PBE Ni 02Aug2007                                                
   LULTRA =        F    use ultrasoft PP ?                                      
   IUNSCR =        1    unscreen: 0-lin 1-nonlin 2-no                           
   RPACOR =    2.000    partial core radius                                     
   POMASS =   58.690; ZVAL   =   10.000    mass and valenz                      
   RCORE  =    2.300    outmost cutoff radius                                   
   RWIGS  =    2.430; RWIGS  =    1.286    wigner-seitz radius (au A)           
   ENMAX  =  269.532; ENMIN  =  202.149 eV                                      
   RCLOC  =    1.201    cutoff for local pot                                    
   LCOR   =        T    correct aug charges                                     
   LPAW   =        T    paw PP                                                  
   EAUG   =  544.565                                                            
   DEXC   =    0.000                                                            
   RMAX   =    2.357    core radius for proj-oper                               
   RAUG   =    1.300    factor for augmentation sphere                          
   RDEP   =    2.390    radius for radial grids                                 
   RDEPT  =    1.838    core radius for aug-charge                              
                                                                                
   Atomic configuration                                                         
    9 entries                                                                   
     n  l   j            E        occ.                                          
     1  0  0.50     -8206.4253   2.0000                                         
     2  0  0.50      -976.1748   2.0000                                         
     2  1  1.50      -839.0571   6.0000                                         
     3  0  0.50      -105.9991   2.0000                                         
     3  1  1.50       -66.4603   6.0000                                         
     3  2  2.50        -4.6458   9.0000                                         
     4  0  0.50        -4.4926   1.0000                                         
     4  1  1.50        -4.0817   0.0000                                         
     4  3  2.50        -1.3606   0.0000                                         
   Description                                                                  
     l       E           TYP  RCUT    TYP  RCUT                                 
     2     -4.6457903     23  2.300                                             
     2     -6.0063729     23  2.300                                             
     0     -4.4925590     23  2.300                                             
     0      5.0102601     23  2.300                                             
     1     -2.7211652     23  2.300                                             
     1     16.5183231     23  2.300                                             
  local pseudopotential read in
  partial core-charges read in
  partial kinetic energy density read in
  atomic valenz-charges read in
  non local Contribution for L=           2  read in
    real space projection operators read in
  non local Contribution for L=           2  read in
    real space projection operators read in
  non local Contribution for L=           0  read in
    real space projection operators read in
  non local Contribution for L=           0  read in
    real space projection operators read in
  non local Contribution for L=           1  read in
    real space projection operators read in
  non local Contribution for L=           1  read in
    real space projection operators read in
    PAW grid and wavefunctions read in
 
   number of l-projection  operators is LMAX  =           6
   number of lm-projection operators is LMMAX =          18
 
 POTCAR:    PAW_PBE O 08Apr2002                   
   VRHFIN =O: s2p4                                                              
   LEXCH  = PE                                                                  
   EATOM  =   432.3788 eV,   31.7789 Ry                                         
                                                                                
   TITEL  = PAW_PBE O 08Apr2002                                                 
   LULTRA =        F    use ultrasoft PP ?                                      
   IUNSCR =        1    unscreen: 0-lin 1-nonlin 2-no                           
   RPACOR =    1.200    partial core radius                                     
   POMASS =   16.000; ZVAL   =    6.000    mass and valenz                      
   RCORE  =    1.520    outmost cutoff radius                                   
   RWIGS  =    1.550; RWIGS  =    0.820    wigner-seitz radius (au A)           
   ENMAX  =  400.000; ENMIN  =  300.000 eV                                      
   ICORE  =        2    local potential                                         
   LCOR   =        T    correct aug charges                                     
   LPAW   =        T    paw PP                                                  
   EAUG   =  605.392                                                            
   DEXC   =    0.000                                                            
   RMAX   =    1.553    core radius for proj-oper                               
   RAUG   =    1.300    factor for augmentation sphere                          
   RDEP   =    1.550    radius for radial grids                                 
   RDEPT  =    1.329    core radius for aug-charge                              
                                                                                
   Atomic configuration                                                         
    4 entries                                                                   
     n  l   j            E        occ.                                          
     1  0  0.50      -514.6923   2.0000                                         
     2  0  0.50       -23.9615   2.0000                                         
     2  1  0.50        -9.0305   4.0000                                         
     3  2  1.50        -9.5241   0.0000                                         
   Description                                                                  
     l       E           TYP  RCUT    TYP  RCUT                                 
     0    -23.9615318     23  1.200                                             
     0     -9.5240782     23  1.200                                             
     1     -9.0304911     23  1.520                                             
     1      8.1634956     23  1.520                                             
     2     -9.5240782      7  1.500                                             
  local pseudopotential read in
  partial core-charges read in
  partial kinetic energy density read in
  kinetic energy density of atom read in
  atomic valenz-charges read in
  non local Contribution for L=           0  read in
    real space projection operators read in
  non local Contribution for L=           0  read in
    real space projection operators read in
  non local Contribution for L=           1  read in
    real space projection operators read in
  non local Contribution for L=           1  read in
    real space projection operators read in
    PAW grid and wavefunctions read in
 
   number of l-projection  operators is LMAX  =           4
   number of lm-projection operators is LMMAX =           8
 
 Optimization of the real space projectors (new method)

 maximal supplied QI-value         = 16.25
 optimisation between [QCUT,QGAM] = [ 11.54, 23.24] = [ 37.28,151.24] Ry 
 Optimized for a Real-space Cutoff    1.53 Angstroem

   l    n(q)    QCUT    max X(q) W(low)/X(q) W(high)/X(q)  e(spline) 
   2     10    11.539    80.901    0.11E-03    0.14E-03    0.21E-06
   2     10    11.539    75.754    0.11E-03    0.14E-03    0.22E-06
   0     11    11.539    58.752    0.52E-04    0.18E-04    0.33E-06
   0     11    11.539    30.679    0.44E-04    0.16E-04    0.30E-06
   1     10    11.539    17.977    0.53E-04    0.29E-04    0.13E-06
   1     10    11.539    13.559    0.44E-04    0.25E-04    0.11E-06
 Optimization of the real space projectors (new method)

 maximal supplied QI-value         = 16.25
 optimisation between [QCUT,QGAM] = [ 11.54, 23.24] = [ 37.28,151.24] Ry 
 Optimized for a Real-space Cutoff    1.45 Angstroem

   l    n(q)    QCUT    max X(q) W(low)/X(q) W(high)/X(q)  e(spline) 
   2      9    11.539    60.317    0.19E-03    0.47E-04    0.16E-06
   2      9    11.539    55.921    0.19E-03    0.48E-04    0.16E-06
   0     10    11.539    51.690    0.80E-04    0.50E-04    0.24E-06
   0     10    11.539    30.015    0.73E-04    0.45E-04    0.22E-06
   1     10    11.539    18.849    0.87E-04    0.16E-03    0.71E-07
   1     10    11.539    14.624    0.73E-04    0.13E-03    0.64E-07
 Optimization of the real space projectors (new method)

 maximal supplied QI-value         = 24.76
 optimisation between [QCUT,QGAM] = [ 11.64, 23.27] = [ 37.91,151.63] Ry 
 Optimized for a Real-space Cutoff    1.14 Angstroem

   l    n(q)    QCUT    max X(q) W(low)/X(q) W(high)/X(q)  e(spline) 
   0      8    11.635    20.381    0.10E-03    0.33E-03    0.24E-06
   0      8    11.635    15.268    0.11E-03    0.35E-03    0.26E-06
   1      7    11.635     5.964    0.24E-03    0.31E-03    0.30E-06
   1      7    11.635     5.382    0.22E-03    0.25E-03    0.26E-06
  PAW_PBE Fe 06Sep2000                  :
 energy of atom  1       EATOM= -594.3153
 kinetic energy error for atom=    0.0026 (will be added to EATOM!!)
  PAW_PBE Ni 02Aug2007                  :
 energy of atom  2       EATOM=-1077.6739
 kinetic energy error for atom=    0.0030 (will be added to EATOM!!)
  PAW_PBE O 08Apr2002                   :
 energy of atom  3       EATOM= -432.3788
 kinetic energy error for atom=    0.0208 (will be added to EATOM!!)
 
 
 POSCAR: POSCAR                                  
  positions in direct lattice
  velocities in cartesian coordinates
 exchange correlation table for  LEXCH =        8
   RHO(1)=    0.500       N(1)  =     2000
   RHO(2)=  100.500       N(2)  =     4000

 VTST: version 3.2, (02/03/18)

 CHAIN: initializing optimizer
 
 OPT: Using VASP Conjugate-Gradient optimizer
 CHAIN: Read ICHAIN            0
 
 POSCAR: POSCAR                                  
  positions in direct lattice
  velocities in cartesian coordinates
 


--------------------------------------------------------------------------------------------------------


 ion  position               nearest neighbor table
   1  0.002  0.999  0.097-   9 2.45  29 2.50  49 2.51  64 2.51  44 2.53   7 2.53  51 2.54  38 2.55
                             5 2.60
   2  0.001  0.003  0.381-  11 2.38  57 2.46   8 2.49   6 2.51  52 2.51  48 2.52  30 2.53  39 2.55
                            50 2.57
   3  0.499  0.996  0.096-   5 2.47  62 2.50  34 2.52  31 2.52  49 2.53  45 2.55  55 2.55  12 2.56
                            53 2.58
   4  0.504  0.001  0.379-  15 2.41  13 2.43  63 2.48  56 2.52   6 2.52  54 2.52  32 2.53  35 2.53
                            50 2.54
   5  0.743  0.996  0.094-   3 2.47  34 2.47  62 2.52  38 2.53  55 2.54  64 2.58  14 2.58  51 2.59
                             1 2.60
   6  0.749  0.996  0.388-  68 1.81  35 2.46  39 2.50   2 2.51   4 2.52  47 2.54  56 2.57  15 2.58
                            52 2.60  57 2.61
   7  0.249  0.253  0.097-  22 2.43   9 2.44  51 2.49  18 2.52  20 2.53   1 2.53  53 2.54  10 2.55
                            49 2.58
   8  0.249  0.247  0.385-  66 1.81   2 2.49  21 2.50  11 2.50  52 2.50  19 2.51  50 2.53  54 2.55
                            59 2.55  26 2.55
   9  0.089  0.161  0.191-  10 2.41   7 2.44   1 2.45  44 2.47  51 2.52  59 2.53  57 2.53  64 2.54
                            11 2.55  22 2.55  58 2.62  14 2.68
  10  0.330  0.166  0.195-   9 2.41  26 2.45  13 2.48  22 2.48  45 2.48  44 2.49  11 2.51   7 2.55
                            12 2.57  49 2.58  53 2.59  25 2.59
  11  0.162  0.075  0.291-   2 2.38  44 2.49   8 2.50  57 2.51  10 2.51  46 2.52  13 2.52  50 2.54
                             9 2.55  48 2.55  59 2.56  26 2.60
  12  0.583  0.166  0.194-  14 2.45  15 2.47  13 2.49  28 2.50  27 2.50  62 2.52  45 2.54  55 2.55
                             3 2.56  10 2.57  53 2.58  25 2.58
  13  0.414  0.082  0.289-   4 2.43  10 2.48  45 2.48  12 2.49  11 2.52  54 2.53  63 2.54  28 2.55
                            50 2.55  15 2.56  26 2.56  46 2.58
  14  0.827  0.167  0.193-  60 2.43  15 2.45  12 2.45  57 2.51  62 2.51  55 2.51  27 2.53  58 2.56
                            51 2.56   5 2.58  64 2.59   9 2.68
  15  0.667  0.082  0.288-   4 2.41  14 2.45  47 2.47  12 2.47  62 2.50  60 2.52  28 2.52  57 2.52
                            56 2.53  63 2.55  13 2.56   6 2.58
  16  0.003  0.511  0.095-  31 2.44  29 2.45  23 2.48  33 2.51  58 2.57  18 2.58  27 2.59  55 2.60
                            51 2.63
  17  0.000  0.503  0.374-  37 2.39  43 2.41  60 2.41  24 2.53  30 2.53  56 2.55  32 2.55  52 2.56
                            19 2.57
  18  0.256  0.506  0.097-  36 2.40  31 2.45  34 2.47  22 2.47  20 2.48   7 2.52  58 2.53  51 2.58
                            16 2.58
  19  0.249  0.495  0.383-  67 1.85  52 2.46  21 2.49  59 2.51   8 2.51  61 2.53  37 2.56  17 2.57
                            35 2.60  32 2.61
  20  0.500  0.503  0.098-  22 2.41  40 2.43  34 2.48  18 2.48  38 2.50  25 2.53   7 2.53  53 2.54
                            23 2.58
  21  0.495  0.495  0.377-  26 2.37  42 2.44  61 2.44  19 2.49   8 2.50  54 2.52  35 2.55  24 2.56
                            39 2.57
  22  0.339  0.416  0.189-  20 2.41   7 2.43  40 2.46  18 2.47  25 2.48  10 2.48  26 2.48  61 2.52
                            36 2.53   9 2.55  59 2.55  58 2.60
  23  0.757  0.508  0.096-  29 2.40  41 2.46  16 2.48  27 2.48  38 2.48  25 2.56  55 2.57  20 2.58
                            53 2.60
  24  0.745  0.491  0.387-  65 1.86  54 2.45  56 2.46  28 2.49  17 2.53  21 2.56  39 2.59  43 2.59
                            30 2.63  42 2.64
  25  0.586  0.422  0.194-  42 2.41  40 2.45  41 2.46  27 2.46  26 2.46  22 2.48  20 2.53  28 2.53
                            23 2.56  53 2.58  12 2.58  10 2.59
  26  0.416  0.336  0.287-  21 2.37  10 2.45  25 2.46  22 2.48  59 2.49  61 2.52  42 2.52   8 2.55
                            13 2.56  28 2.57  54 2.59  11 2.60
  27  0.827  0.417  0.192-  41 2.45  25 2.46  23 2.48  43 2.48  60 2.50  28 2.50  12 2.50  55 2.51
                            14 2.53  58 2.59  16 2.59  33 2.60
  28  0.668  0.332  0.290-  56 2.48  24 2.49  12 2.50  54 2.50  27 2.50  60 2.50  43 2.51  15 2.52
                            25 2.53  13 2.55  26 2.57  42 2.58
  29  0.992  0.747  0.096-  23 2.40  16 2.45  38 2.48  41 2.50   1 2.50  33 2.54  44 2.56  49 2.57
                            31 2.63
  30  0.003  0.754  0.386-  65 1.87  46 2.45  50 2.49  32 2.52   2 2.53  39 2.53  17 2.53  48 2.56
                            43 2.59  24 2.63
  31  0.251  0.746  0.097-  16 2.44  36 2.44  18 2.45  33 2.49  34 2.52   3 2.52  45 2.55  49 2.56
                            29 2.63
  32  0.251  0.754  0.386-  67 1.87  50 2.47  46 2.47  30 2.52   4 2.53  63 2.55  17 2.55  35 2.59
                            19 2.61  37 2.61
  33  0.086  0.671  0.192-  37 2.48  45 2.48  44 2.48  31 2.49  46 2.50  16 2.51  36 2.52  43 2.52
                            41 2.52  29 2.54  58 2.55  27 2.60
  34  0.502  0.749  0.098-  18 2.47   5 2.47  40 2.48  36 2.48  20 2.48  62 2.49  38 2.49  31 2.52
                             3 2.52
  35  0.506  0.752  0.385-  67 1.87   6 2.46  47 2.46  39 2.48   4 2.53  21 2.55  61 2.57  63 2.57
                            32 2.59  19 2.60
  36  0.330  0.661  0.190-  18 2.40  31 2.44  37 2.47  61 2.47  34 2.48  58 2.49  33 2.52  63 2.52
                            22 2.53  40 2.53  62 2.56  45 2.62
  37  0.169  0.583  0.285-  17 2.39  58 2.45  36 2.47  33 2.48  61 2.48  63 2.49  46 2.50  59 2.54
                            60 2.55  19 2.56  32 2.61  43 2.63
  38  0.748  0.749  0.094-  29 2.48  23 2.48  34 2.49  20 2.50   5 2.53  40 2.54  64 2.55   1 2.55
                            41 2.58
  39  0.750  0.749  0.381-  65 1.86  48 2.42  35 2.48  42 2.49  47 2.49   6 2.50  30 2.53   2 2.55
                            21 2.57  24 2.59
  40  0.580  0.661  0.192-  20 2.43  25 2.45  42 2.45  22 2.46  34 2.48  61 2.48  36 2.53  38 2.54
                            41 2.54  62 2.56  64 2.57  47 2.57
  41  0.832  0.662  0.193-  43 2.39  27 2.45  42 2.45  25 2.46  23 2.46  48 2.47  29 2.50  33 2.52
                            40 2.54  64 2.54  44 2.57  38 2.58
  42  0.665  0.585  0.286-  25 2.41  48 2.44  21 2.44  40 2.45  41 2.45  43 2.47  39 2.49  26 2.52
                            61 2.53  47 2.54  28 2.58  24 2.64
  43  0.910  0.586  0.286-  41 2.39  17 2.41  48 2.45  42 2.47  27 2.48  46 2.49  28 2.51  33 2.52
                            24 2.59  30 2.59  60 2.60  37 2.63
  44  0.086  0.916  0.194-  45 2.43   9 2.47  33 2.48  11 2.49  10 2.49  46 2.52   1 2.53  49 2.53
                            64 2.54  48 2.54  29 2.56  41 2.57
  45  0.327  0.919  0.193-  44 2.43  33 2.48  10 2.48  13 2.48  49 2.49  63 2.51  12 2.54  31 2.55
                            46 2.55   3 2.55  62 2.59  36 2.62
  46  0.161  0.826  0.291-  30 2.45  32 2.47  43 2.49  37 2.50  33 2.50  11 2.52  44 2.52  63 2.54
                            45 2.55  50 2.56  48 2.57  13 2.58
  47  0.663  0.835  0.288-  35 2.46  15 2.47  62 2.48  39 2.49  63 2.49  48 2.51  61 2.53  64 2.54
                             6 2.54  57 2.54  42 2.54  40 2.57
  48  0.906  0.826  0.288-  39 2.42  42 2.44  43 2.45  64 2.47  41 2.47  47 2.51   2 2.52  44 2.54
                            57 2.54  11 2.55  30 2.56  46 2.57
  49  0.249  0.998  0.096-  45 2.49   1 2.51  44 2.53   3 2.53  53 2.55  31 2.56  29 2.57  10 2.58
                             7 2.58
  50  0.252  0.998  0.388-  66 1.89  32 2.47  30 2.49   8 2.53  54 2.54  11 2.54   4 2.54  13 2.55
                            46 2.56   2 2.57
  51  0.001  0.250  0.097-   7 2.49  58 2.51   9 2.52   1 2.54  55 2.55  14 2.56  18 2.58   5 2.59
                            16 2.63
  52  0.005  0.254  0.382-  68 1.88  19 2.46  59 2.47   8 2.50   2 2.51  57 2.52  60 2.53  56 2.55
                            17 2.56   6 2.60
  53  0.499  0.252  0.095-  55 2.53   7 2.54  20 2.54  49 2.55   3 2.58  25 2.58  12 2.58  10 2.59
                            23 2.60
  54  0.502  0.249  0.385-  66 1.90  24 2.45  28 2.50  56 2.51   4 2.52  21 2.52  13 2.53  50 2.54
                             8 2.55  26 2.59
  55  0.749  0.251  0.096-  14 2.51  27 2.51  53 2.53   5 2.54  51 2.55   3 2.55  12 2.55  23 2.57
                            16 2.60
  56  0.751  0.250  0.385-  68 1.89  24 2.46  28 2.48  54 2.51   4 2.52  15 2.53  17 2.55  52 2.55
                            60 2.56   6 2.57
  57  0.918  0.083  0.287-   2 2.46  64 2.49  14 2.51  11 2.51  52 2.52  15 2.52  59 2.53  60 2.53
                             9 2.53  47 2.54  48 2.54   6 2.61
  58  0.083  0.417  0.192-  37 2.45  60 2.46  36 2.49  59 2.50  51 2.51  18 2.53  33 2.55  14 2.56
                            16 2.57  27 2.59  22 2.60   9 2.62
  59  0.168  0.332  0.287-  52 2.47  26 2.49  58 2.50  19 2.51  61 2.52  57 2.53   9 2.53  37 2.54
                             8 2.55  22 2.55  60 2.56  11 2.56
  60  0.915  0.332  0.285-  17 2.41  14 2.43  58 2.46  27 2.50  28 2.50  15 2.52  52 2.53  57 2.53
                            37 2.55  59 2.56  56 2.56  43 2.60
  61  0.414  0.584  0.286-  21 2.44  36 2.47  40 2.48  37 2.48  63 2.49  59 2.52  26 2.52  22 2.52
                            19 2.53  47 2.53  42 2.53  35 2.57
  62  0.582  0.915  0.192-  63 2.48  47 2.48  34 2.49   3 2.50  15 2.50  14 2.51   5 2.52  12 2.52
                            64 2.55  36 2.56  40 2.56  45 2.59
  63  0.414  0.830  0.286-   4 2.48  62 2.48  37 2.49  47 2.49  61 2.49  45 2.51  36 2.52  13 2.54
                            46 2.54  32 2.55  15 2.55  35 2.57
  64  0.834  0.915  0.192-  48 2.47  57 2.49   1 2.51  47 2.54   9 2.54  44 2.54  41 2.54  38 2.55
                            62 2.55  40 2.57   5 2.58  14 2.59
  65  0.830  0.665  0.437-  39 1.86  24 1.86  30 1.87
  66  0.332  0.173  0.440-   8 1.81  50 1.89  54 1.90
  67  0.334  0.663  0.437-  19 1.85  32 1.87  35 1.87
  68  0.838  0.163  0.437-   6 1.81  52 1.88  56 1.89
 

IMPORTANT INFORMATION: All symmetrisations will be switched off!
NOSYMM: (Re-)initialisation of all symmetry stuff for point group C_1.

 
 

Automatic generation of k-mesh.
 generate k-points for:    3    3    1
Space group operators:
 irot       det(A)        alpha          n_x          n_y          n_z        tau_x        tau_y        tau_z
    1     1.000000     0.000000     1.000000     0.000000     0.000000     0.000000     0.000000     0.000000
 
 Subroutine IBZKPT returns following result:
 ===========================================
 
 Found      5 irreducible k-points:
 
 Following reciprocal coordinates:
            Coordinates               Weight
  0.000000  0.000000  0.000000      1.000000
  0.333333  0.000000  0.000000      2.000000
  0.000000  0.333333  0.000000      2.000000
  0.333333  0.333333  0.000000      2.000000
 -0.333333  0.333333  0.000000      2.000000
 
 Following cartesian coordinates:
            Coordinates               Weight
  0.000000  0.000000  0.000000      1.000000
  0.032965  0.019033  0.000000      2.000000
  0.000000  0.038065  0.000000      2.000000
  0.032965  0.057098  0.000000      2.000000
 -0.032965  0.019033  0.000000      2.000000
 


--------------------------------------------------------------------------------------------------------




 Dimension of arrays:
   k-points           NKPTS =      5   k-points in BZ     NKDIM =      5   number of bands    NBANDS=    375
   number of dos      NEDOS =    301   number of ions     NIONS =     68
   non local maximal  LDIM  =      6   non local SUM 2l+1 LMDIM =     18
   total plane-waves  NPLWV = ******
   max r-space proj   IRMAX =   8269   max aug-charges    IRDMAX=  19568
   dimension x,y,z NGX =    80 NGY =   80 NGZ =  160
   dimension x,y,z NGXF=   160 NGYF=  160 NGZF=  320
   support grid    NGXF=   160 NGYF=  160 NGZF=  320
   ions per type =              48  16   4
   NGX,Y,Z   is equivalent  to a cutoff of  13.15, 13.15, 12.51 a.u.
   NGXF,Y,Z  is equivalent  to a cutoff of  26.31, 26.31, 25.02 a.u.

 SYSTEM =  SQS-NiFe                                
 POSCAR =  POSCAR                                  

 Startparameter for this run:
   NWRITE =      2    write-flag & timer
   PREC   = accura    normal or accurate (medium, high low for compatibility)
   ISTART =      1    job   : 0-new  1-cont  2-samecut
   ICHARG =      1    charge: 1-file 2-atom 10-const
   ISPIN  =      2    spin polarized calculation?
   LNONCOLLINEAR =      F non collinear calculations
   LSORBIT =      F    spin-orbit coupling
   INIWAV =      1    electr: 0-lowe 1-rand  2-diag
   LASPH  =      F    aspherical Exc in radial PAW
   METAGGA=      F    non-selfconsistent MetaGGA calc.

 Electronic Relaxation 1
   ENCUT  =  520.0 eV  38.22 Ry    6.18 a.u.  18.80 18.80 39.54*2*pi/ulx,y,z
   ENINI  =  520.0     initial cutoff
   ENAUG  =  605.4 eV  augmentation charge cutoff
   NELM   =    200;   NELMIN=  2; NELMDL=  0     # of ELM steps 
   EDIFF  = 0.1E-04   stopping-criterion for ELM
   LREAL  =      T    real-space projection
   NLSPLINE    = F    spline interpolate recip. space projectors
   LCOMPAT=      F    compatible to vasp.4.4
   GGA_COMPAT  = T    GGA compatible to vasp.4.4-vasp.4.6
   LMAXPAW     = -100 max onsite density
   LMAXMIX     =    2 max onsite mixed and CHGCAR
   VOSKOWN=      0    Vosko Wilk Nusair interpolation
   ROPT   =   -0.00025  -0.00025  -0.00025
 Ionic relaxation
   EDIFFG = -.5E-01   stopping-criterion for IOM
   NSW    =     99    number of steps for IOM
   NBLOCK =      1;   KBLOCK =     99    inner block; outer block 
   IBRION =      2    ionic relax: 0-MD 1-quasi-New 2-CG
   NFREE  =      1    steps in history (QN), initial steepest desc. (CG)
   ISIF   =      2    stress and relaxation
   IWAVPR =     11    prediction:  0-non 1-charg 2-wave 3-comb
   ISYM   =      0    0-nonsym 1-usesym 2-fastsym
   LCORR  =      T    Harris-Foulkes like correction to forces

   POTIM  = 0.5000    time-step for ionic-motion
   TEIN   =    0.0    initial temperature
   TEBEG  =    0.0;   TEEND  =   0.0 temperature during run
   SMASS  =  -3.00    Nose mass-parameter (am)
   estimated Nose-frequenzy (Omega)   =  0.10E-29 period in steps =****** mass=  -0.234E-26a.u.
   SCALEE = 1.0000    scale energy and forces
   NPACO  =    256;   APACO  = 16.0  distance and # of slots for P.C.
   PSTRESS=    0.0 pullay stress

  Mass of Ions in am
   POMASS =  55.85 58.69 16.00
  Ionic Valenz
   ZVAL   =   8.00 10.00  6.00
  Atomic Wigner-Seitz radii
   RWIGS  =  -1.00 -1.00 -1.00
  virtual crystal weights 
   VCA    =   1.00  1.00  1.00
   NELECT =     568.0000    total number of electrons
   NUPDOWN=      -1.0000    fix difference up-down

 DOS related values:
   EMIN   =  10.00;   EMAX   =-10.00  energy-range for DOS
   EFERMI =   0.00
   ISMEAR =     1;   SIGMA  =   0.20  broadening in eV -4-tet -1-fermi 0-gaus

 Electronic relaxation 2 (details)
   IALGO  =     68    algorithm
   LDIAG  =      T    sub-space diagonalisation (order eigenvalues)
   LSUBROT=      F    optimize rotation matrix (better conditioning)
   TURBO    =      0    0=normal 1=particle mesh
   IRESTART =      0    0=no restart 2=restart with 2 vectors
   NREBOOT  =      0    no. of reboots
   NMIN     =      0    reboot dimension
   EREF     =   0.00    reference energy to select bands
   IMIX   =      4    mixing-type and parameters
     AMIX     =   0.40;   BMIX     =  1.00
     AMIX_MAG =   1.60;   BMIX_MAG =  1.00
     AMIN     =   0.10
     WC   =   100.;   INIMIX=   1;  MIXPRE=   1;  MAXMIX= -45

 Intra band minimization:
   WEIMIN = 0.0010     energy-eigenvalue tresh-hold
   EBREAK =  0.67E-08  absolut break condition
   DEPER  =   0.30     relativ break condition  

   TIME   =   0.40     timestep for ELM

  volume/ion in A,a.u.               =      27.69       186.88
  Fermi-wavevector in a.u.,A,eV,Ry     =   1.097914  2.074757 16.400676  1.205416
  Thomas-Fermi vector in A             =   2.234283
 
 Write flags
   LWAVE        =      T    write WAVECAR
   LDOWNSAMPLE  =      F    k-point downsampling of WAVECAR
   LCHARG       =      T    write CHGCAR
   LVTOT        =      F    write LOCPOT, total local potential
   LVHAR        =      F    write LOCPOT, Hartree potential only
   LELF         =      F    write electronic localiz. function (ELF)
   LORBIT       =     10    0 simple, 1 ext, 2 COOP (PROOUT), +10 PAW based schemes


 Dipole corrections
   LMONO  =      F    monopole corrections only (constant potential shift)
   LDIPOL =      T    correct potential (dipole corrections)
   IDIPOL =      3    1-x, 2-y, 3-z, 4-all directions 
   EPSILON=  1.0000000 bulk dielectric constant

 Exchange correlation treatment:
   GGA     =    --    GGA type
   LEXCH   =     8    internal setting for exchange type
   VOSKOWN=      0    Vosko Wilk Nusair interpolation
   LHFCALC =     F    Hartree Fock is set to
   LHFONE  =     F    Hartree Fock one center treatment
   AEXX    =    0.0000 exact exchange contribution

 Linear response parameters
   LEPSILON=     F    determine dielectric tensor
   LRPA    =     F    only Hartree local field effects (RPA)
   LNABLA  =     F    use nabla operator in PAW spheres
   LVEL    =     F    velocity operator in full k-point grid
   LINTERFAST=   F  fast interpolation
   KINTER  =     0    interpolate to denser k-point grid
   CSHIFT  =0.1000    complex shift for real part using Kramers Kronig
   OMEGAMAX=  -1.0    maximum frequency
   DEG_THRESHOLD= 0.2000000E-02 threshold for treating states as degnerate
   RTIME   =   -0.100 relaxation time in fs
  (WPLASMAI=    0.000 imaginary part of plasma frequency in eV, 0.658/RTIME)
   DFIELD  = 0.0000000 0.0000000 0.0000000 field for delta impulse in time
 
 Orbital magnetization related:
   ORBITALMAG=     F  switch on orbital magnetization
   LCHIMAG   =     F  perturbation theory with respect to B field
   DQ        =  0.001000  dq finite difference perturbation B field
   LLRAUG    =     F  two centre corrections for induced B field



--------------------------------------------------------------------------------------------------------


 conjugate gradient relaxation of ions
   using selective dynamics as specified on POSCAR
 charge density and potential will be updated during run
 spin polarized calculation
 RMM-DIIS sequential band-by-band and
  variant of blocked Davidson during initial phase
 perform sub-space diagonalisation
    before iterative eigenvector-optimisation
 modified Broyden-mixing scheme, WC =      100.0
 initial mixing is a Kerker type mixing with AMIX =  0.4000 and BMIX =      1.0000
 Hartree-type preconditioning will be used
 using additional bands           91
 real space projection scheme for non local part
 use partial core corrections
 calculate Harris-corrections to forces 
   (improved forces if not selfconsistent)
 use gradient corrections 
 use of overlap-Matrix (Vanderbilt PP)
 Methfessel and Paxton  Order N= 1 SIGMA  =   0.20


--------------------------------------------------------------------------------------------------------


  energy-cutoff  :      520.00
  volume of cell :     1883.07
      direct lattice vectors                 reciprocal lattice vectors
    10.111630000  0.000000000  0.000000000     0.098896024  0.057097646  0.000000000
    -5.055815000  8.756928450  0.000000000     0.000000000  0.114195292  0.000000000
     0.000000000  0.000000000 21.266430000     0.000000000  0.000000000  0.047022467

  length of vectors
    10.111630000 10.111629997 21.266430000     0.114195292  0.114195292  0.047022467


 
 old parameters found on file WAVECAR:
  energy-cutoff  :      520.00
  volume of cell :     1883.07
      direct lattice vectors                 reciprocal lattice vectors
    10.111630000  0.000000000  0.000000000     0.098896024  0.057097646  0.000000000
    -5.055815000  8.756928450  0.000000000     0.000000000  0.114195292  0.000000000
     0.000000000  0.000000000 21.266430000     0.000000000  0.000000000  0.047022467

  length of vectors

 
 k-points in units of 2pi/SCALE and weight: read from INCAR                         
   0.00000000  0.00000000  0.00000000       0.111
   0.03296534  0.01903255  0.00000000       0.222
   0.00000000  0.03806510  0.00000000       0.222
   0.03296534  0.05709765  0.00000000       0.222
  -0.03296534  0.01903255  0.00000000       0.222
 
 k-points in reciprocal lattice and weights: read from INCAR                         
   0.00000000  0.00000000  0.00000000       0.111
   0.33333333  0.00000000  0.00000000       0.222
   0.00000000  0.33333333  0.00000000       0.222
   0.33333333  0.33333333  0.00000000       0.222
  -0.33333333  0.33333333  0.00000000       0.222
 
 position of ions in fractional coordinates (direct lattice) 
   0.00194700  0.99920000  0.09682900
   0.00069253  0.00291569  0.38101974
   0.49880600  0.99647600  0.09614500
   0.50358086  0.00090384  0.37905765
   0.74316000  0.99645900  0.09443100
   0.74935475  0.99567030  0.38775900
   0.24913600  0.25322600  0.09681000
   0.24936273  0.24710455  0.38493002
   0.08873200  0.16149400  0.19059200
   0.32962600  0.16609800  0.19506300
   0.16176089  0.07539063  0.29084292
   0.58333000  0.16550300  0.19443700
   0.41421223  0.08158453  0.28876211
   0.82651500  0.16651000  0.19326300
   0.66738038  0.08194925  0.28812855
   0.00320800  0.51090900  0.09451300
   0.00018984  0.50347075  0.37385839
   0.25586900  0.50577700  0.09734600
   0.24938338  0.49534584  0.38344021
   0.49960200  0.50304900  0.09754100
   0.49516983  0.49470777  0.37650213
   0.33859900  0.41583700  0.18939300
   0.75679100  0.50804300  0.09630900
   0.74511302  0.49099022  0.38670586
   0.58633600  0.42229400  0.19423600
   0.41608751  0.33568683  0.28651598
   0.82677100  0.41676200  0.19199500
   0.66810522  0.33188639  0.28971520
   0.99180600  0.74702800  0.09571300
   0.00256483  0.75396026  0.38602161
   0.25104600  0.74563900  0.09703600
   0.25140400  0.75401680  0.38560774
   0.08604600  0.67086900  0.19220200
   0.50153700  0.74905700  0.09752900
   0.50635077  0.75203548  0.38479593
   0.33005900  0.66135600  0.19018600
   0.16851617  0.58298245  0.28515890
   0.74777500  0.74863100  0.09404500
   0.74975721  0.74893704  0.38130725
   0.58008200  0.66096300  0.19152700
   0.83213700  0.66199500  0.19303500
   0.66512797  0.58512143  0.28564799
   0.90985753  0.58572962  0.28578566
   0.08603600  0.91635500  0.19371200
   0.32743000  0.91932200  0.19293700
   0.16063327  0.82593655  0.29097991
   0.66276929  0.83540506  0.28847027
   0.90631555  0.82604412  0.28757115
   0.24916500  0.99813100  0.09559800
   0.25156730  0.99794930  0.38844018
   0.00129700  0.24974200  0.09658600
   0.00525354  0.25373732  0.38171375
   0.49933100  0.25162700  0.09537300
   0.50222875  0.24941591  0.38532325
   0.74944200  0.25071300  0.09573100
   0.75131406  0.25042253  0.38480740
   0.91753598  0.08296930  0.28658594
   0.08260800  0.41708000  0.19225300
   0.16816991  0.33188005  0.28667660
   0.91537542  0.33184043  0.28519806
   0.41389320  0.58378719  0.28566909
   0.58190700  0.91526900  0.19241300
   0.41384882  0.83025739  0.28627448
   0.83399900  0.91457100  0.19240400
   0.82955352  0.66496202  0.43721351
   0.33175190  0.17311414  0.44022184
   0.33369545  0.66292176  0.43673730
   0.83827174  0.16289084  0.43749138
 
 position of ions in cartesian coordinates  (Angst):
  -5.03208300  8.74992291  2.05920715
  -0.00773863  0.02553253  8.10292956
   0.00574341  8.72606903  2.04466091
   5.08745367  0.00791484  8.06120297
   2.47664659  8.72592017  2.00821025
   2.54327313  8.71901356  8.24624955
   1.23890724  2.21748196  2.05880309
   1.27214879  2.16387686  8.18608733
   0.08074137  1.41419140  4.05321143
   2.49329539  1.45450830  4.14829364
   1.25450521  0.66019040  6.18519056
   5.06166458  1.44929793  4.13498085
   3.77588457  0.71442985  6.14093930
   7.51557011  1.45811616  4.11001406
   6.33398328  0.71762368  6.12746556
  -2.55062328  4.47399356  2.00995410
  -2.54353542  4.40885737  7.95063337
   0.03013771  4.42905300  2.07020189
   0.01729553  4.33770807  8.15440432
   2.50846789  4.40516410  2.07434885
   2.50582313  4.33212054  8.00685611
   1.32139286  3.64145486  4.02771298
   5.08381916  4.44889620  2.04814861
   5.05195148  4.29956624  8.22385313
   3.79377235  3.69799834  4.13070630
   2.51015242  2.93958558  6.09317212
   6.25293088  3.64955501  4.08304823
   5.07767657  2.90630535  6.16120807
   6.25193994  6.54167075  2.03547381
  -3.78594894  6.60237603  8.20930158
  -1.23132858  6.52950737  2.06360930
  -1.27006520  6.60287116  8.20050009
  -2.52172424  5.87475183  4.08745038
   1.28426296  6.55943855  2.07409365
   1.31787938  6.58552091  8.18323569
  -0.00625910  5.79144717  4.04457726
  -1.24347822  5.10513561  6.06431175
   3.77628428  6.55570810  2.00000141
   3.79478036  6.55838810  8.10904396
   2.52386790  5.78800570  4.07309554
   5.06733720  5.79704285  4.10516532
   3.76726221  5.12386651  6.07471307
   6.23880205  5.12919241  6.07764081
  -3.76295716  8.02445517  4.11956269
  -1.33707095  8.05043698  4.10308120
  -2.55151822  7.23266723  6.18810384
   2.47802443  7.31558236  6.13473289
   4.98800125  7.23360927  6.11561177
  -2.52690139  8.74056175  2.03302818
  -2.50169162  8.73897063  8.26073582
  -1.24953457  2.18697282  2.05403941
  -1.22972708  2.22195953  8.11768883
   3.77687076  2.20347964  2.02824323
   3.81735054  2.18411729  8.19444988
   6.31052166  2.19547580  2.03585661
   6.33091976  2.19293218  8.18347968
   8.85830697  0.72655620  6.09465989
  -1.27337779  3.65233972  4.08853497
   0.02254784  2.90624982  6.09658787
   7.57821372  2.90590292  6.06514458
   1.23361482  5.11218270  6.07516174
   1.25659754  8.01494515  4.09193760
  -0.01294168  7.27050458  6.08803610
   3.80918753  8.00883281  4.09174620
   5.02621328  5.82302487  9.29797040
   2.47931940  1.51594815  9.36194688
   0.02259515  5.80515840  9.28784317
   7.65274771  1.42642344  9.30387984
 


--------------------------------------------------------------------------------------------------------


 k-point  1 :   0.0000 0.0000 0.0000  plane waves:   50761
 k-point  2 :   0.3333 0.0000 0.0000  plane waves:   50732
 k-point  3 :   0.0000 0.3333 0.0000  plane waves:   50732
 k-point  4 :   0.3333 0.3333 0.0000  plane waves:   50727
 k-point  5 :  -0.3333 0.3333 0.0000  plane waves:   50732

 maximum and minimum number of plane-waves per node :      2133     2094

 maximum number of plane-waves:     50761
 maximum index in each direction: 
   IXMAX=   19   IYMAX=   18   IZMAX=   39
   IXMIN=  -19   IYMIN=  -19   IZMIN=  -39


 real space projection operators:
  total allocation   :      69691.78 KBytes
  max/ min on nodes  :       3472.55       2614.23


 parallel 3D FFT for wavefunctions:
    minimum data exchange during FFTs selected (reduces bandwidth)
 parallel 3D FFT for charge:
    minimum data exchange during FFTs selected (reduces bandwidth)


 total amount of memory used by VASP MPI-rank0   111638. kBytes
=======================================================================

   base      :      30000. kBytes
   nonlr-proj:      13830. kBytes
   fftplans  :       6403. kBytes
   grid      :      17692. kBytes
   one-center:         93. kBytes
   wavefun   :      43620. kBytes
 
     INWAV:  cpu time   10.4370: real time   10.6024
 Broyden mixing: mesh for mixing (old mesh)
   NGX = 37   NGY = 37   NGZ = 79
  (NGX  =160   NGY  =160   NGZ  =320)
  gives a total of 108151 points

 initial charge density was supplied:
 number of electron     568.0000064 magnetization      86.9043415
 keeping initial charge density in first step


--------------------------------------------------------------------------------------------------------


 Maximum index for non-local projection operator          744
 Maximum index for augmentation-charges         1051 (set IRDMAX)


--------------------------------------------------------------------------------------------------------


 First call to EWALD:  gamma=   0.144
 Maximum number of real-space cells 4x 4x 2
 Maximum number of reciprocal cells 2x 2x 4

    FEWALD:  cpu time    0.0035: real time    0.0035


--------------------------------------- Iteration      1(   1)  ---------------------------------------


    POTLOK:  cpu time    0.4141: real time    0.4221
    SETDIJ:  cpu time    0.0249: real time    0.0250
     EDDAV:  cpu time   36.2443: real time   36.2607
       DOS:  cpu time    0.0085: real time    0.0085
    CHARGE:  cpu time    1.2485: real time    1.2489
    MIXING:  cpu time    0.0064: real time    0.0064
    --------------------------------------------
      LOOP:  cpu time   37.9468: real time   37.9717

 eigenvalue-minimisations  :  7971
 total energy-change (2. order) :-0.4715202E+03  (-0.1553894E+03)
 number of electron     568.0000064 magnetization      86.7677924
 augmentation part      302.6309952 magnetization      70.5336032

 DIPCOR: dipole corrections for dipol
 direction  3 min pos   245,
 dipolmoment           0.000000      0.000000      0.218498 electrons x Angstroem
 Tr[quadrupol]     -9877.237513

 energy correction for charged system         0.000000 eV
 dipol+quadrupol energy correction           -0.002294 eV
 added-field ion interaction          3.552783 eV  (added to PSCEN)


 Broyden mixing:
  rms(total) = 0.81902E+00    rms(broyden)= 0.81898E+00
  rms(prec ) = 0.82598E+00
  weight for this iteration     100.00

 Free energy of the ion-electron system (eV)
  ---------------------------------------------------
  alpha Z        PSCENC =      1528.44877043
  Ewald energy   TEWEN  =    174771.12284060
  -Hartree energ DENC   =   -221852.67338283
  -exchange      EXHF   =         0.00000000
  -V(xc)+E(xc)   XCENC  =       801.05656754
  PAW double counting   =     53911.69663429   -55450.87289248
  entropy T*S    EENTRO =         0.01646499
  eigenvalues    EBANDS =     -1679.49052490
  atomic energy  EATOM  =     47499.17533030
  Solvation  Ediel_sol  =         0.00000000
  ---------------------------------------------------
  free energy    TOTEN  =      -471.52019207 eV

  energy without entropy =     -471.53665705  energy(sigma->0) =     -471.52568039


--------------------------------------------------------------------------------------------------------




--------------------------------------- Iteration      1(   2)  ---------------------------------------


    POTLOK:  cpu time    0.4122: real time    0.4259
    SETDIJ:  cpu time    0.0247: real time    0.0247
    EDDIAG:  cpu time    5.1031: real time    5.1114
  RMM-DIIS:  cpu time   18.6297: real time   18.6364
    ORTHCH:  cpu time    1.3603: real time    1.3606
       DOS:  cpu time    0.0087: real time    0.0087
    CHARGE:  cpu time    1.2405: real time    1.2406
    MIXING:  cpu time    0.0064: real time    0.0064
    --------------------------------------------
      LOOP:  cpu time   26.7856: real time   26.8147

 eigenvalue-minimisations  :  7629
 total energy-change (2. order) :-0.1236676E+02  (-0.1209795E+02)
 number of electron     568.0000063 magnetization      86.6726298
 augmentation part      298.5406071 magnetization      70.6039563

 DIPCOR: dipole corrections for dipol
 direction  3 min pos   251,
 dipolmoment           0.000000      0.000000      0.232221 electrons x Angstroem
 Tr[quadrupol]     -9877.722569

 energy correction for charged system         0.000000 eV
 dipol+quadrupol energy correction           -0.002591 eV
 added-field ion interaction          8.830221 eV  (added to PSCEN)


 Broyden mixing:
  rms(total) = 0.13096E+01    rms(broyden)= 0.13096E+01
  rms(prec ) = 0.14032E+01
  weight for this iteration     100.00

 eigenvalues of (default mixing * dielectric matrix)
  average eigenvalue GAMMA=   0.3456
  0.3456

 Free energy of the ion-electron system (eV)
  ---------------------------------------------------
  alpha Z        PSCENC =      1533.72591159
  Ewald energy   TEWEN  =    174771.12284060
  -Hartree energ DENC   =   -221895.50092009
  -exchange      EXHF   =         0.00000000
  -V(xc)+E(xc)   XCENC  =       801.64832237
  PAW double counting   =     54273.08874884   -55832.61964290
  entropy T*S    EENTRO =         0.01576338
  eigenvalues    EBANDS =     -1634.54330335
  atomic energy  EATOM  =     47499.17533030
  Solvation  Ediel_sol  =         0.00000000
  ---------------------------------------------------
  free energy    TOTEN  =      -483.88694927 eV

  energy without entropy =     -483.90271264  energy(sigma->0) =     -483.89220373


--------------------------------------------------------------------------------------------------------




--------------------------------------- Iteration      1(   3)  ---------------------------------------


    POTLOK:  cpu time    0.4099: real time    0.4247
    SETDIJ:  cpu time    0.0247: real time    0.0246
    EDDIAG:  cpu time    5.1067: real time    5.1080
  RMM-DIIS:  cpu time   19.7935: real time   19.8075
    ORTHCH:  cpu time    1.3637: real time    1.3640
       DOS:  cpu time    0.0095: real time    0.0094
    CHARGE:  cpu time    1.2450: real time    1.2452
    MIXING:  cpu time    0.0065: real time    0.0065
    --------------------------------------------
      LOOP:  cpu time   27.9602: real time   27.9900

 eigenvalue-minimisations  :  8147
 total energy-change (2. order) :-0.3548924E+01  (-0.1906238E+01)
 number of electron     568.0000063 magnetization      86.6811149
 augmentation part      300.1086291 magnetization      68.9318294

 DIPCOR: dipole corrections for dipol
 direction  3 min pos   245,
 dipolmoment           0.000000      0.000000      0.183308 electrons x Angstroem
 Tr[quadrupol]     -9877.166496

 energy correction for charged system         0.000000 eV
 dipol+quadrupol energy correction           -0.001615 eV
 added-field ion interaction          2.980587 eV  (added to PSCEN)


 Broyden mixing:
  rms(total) = 0.21839E+01    rms(broyden)= 0.21838E+01
  rms(prec ) = 0.25001E+01
  weight for this iteration     100.00

 eigenvalues of (default mixing * dielectric matrix)
  average eigenvalue GAMMA=   0.2319
  0.3366  0.1272

 Free energy of the ion-electron system (eV)
  ---------------------------------------------------
  alpha Z        PSCENC =      1527.87725432
  Ewald energy   TEWEN  =    174771.12284060
  -Hartree energ DENC   =   -221862.10310254
  -exchange      EXHF   =         0.00000000
  -V(xc)+E(xc)   XCENC  =       800.00192349
  PAW double counting   =     54216.60139361   -55767.46952999
  entropy T*S    EENTRO =         0.01951867
  eigenvalues    EBANDS =     -1672.66150180
  atomic energy  EATOM  =     47499.17533030
  Solvation  Ediel_sol  =         0.00000000
  ---------------------------------------------------
  free energy    TOTEN  =      -487.43587334 eV

  energy without entropy =     -487.45539200  energy(sigma->0) =     -487.44237956


--------------------------------------------------------------------------------------------------------




--------------------------------------- Iteration      1(   4)  ---------------------------------------


    POTLOK:  cpu time    0.4141: real time    0.4291
    SETDIJ:  cpu time    0.0247: real time    0.0247
    EDDIAG:  cpu time    5.0965: real time    5.0982
  RMM-DIIS:  cpu time   19.2623: real time   19.2747
    ORTHCH:  cpu time    1.3635: real time    1.3637
       DOS:  cpu time    0.0087: real time    0.0087
    CHARGE:  cpu time    1.2412: real time    1.2415
    MIXING:  cpu time    0.0067: real time    0.0067
    --------------------------------------------
      LOOP:  cpu time   27.4170: real time   27.4473

 eigenvalue-minimisations  :  7953
 total energy-change (2. order) : 0.2432094E+01  (-0.3150347E+00)
 number of electron     568.0000064 magnetization      86.6735871
 augmentation part      299.7666270 magnetization      69.9175302

 DIPCOR: dipole corrections for dipol
 direction  3 min pos   238,
 dipolmoment           0.000000      0.000000      0.261005 electrons x Angstroem
 Tr[quadrupol]     -9876.918860

 energy correction for charged system         0.000000 eV
 dipol+quadrupol energy correction           -0.003273 eV
 added-field ion interaction         -2.383657 eV  (added to PSCEN)


 Broyden mixing:
  rms(total) = 0.54586E+00    rms(broyden)= 0.54570E+00
  rms(prec ) = 0.61782E+00
  weight for this iteration     100.00

 eigenvalues of (default mixing * dielectric matrix)
  average eigenvalue GAMMA=   0.2921
  0.3897  0.3897  0.0970

 Free energy of the ion-electron system (eV)
  ---------------------------------------------------
  alpha Z        PSCENC =      1522.51135090
  Ewald energy   TEWEN  =    174771.12284060
  -Hartree energ DENC   =   -221856.79706831
  -exchange      EXHF   =         0.00000000
  -V(xc)+E(xc)   XCENC  =       800.03651636
  PAW double counting   =     54198.69525897   -55747.49188319
  entropy T*S    EENTRO =         0.02111244
  eigenvalues    EBANDS =     -1672.27723784
  atomic energy  EATOM  =     47499.17533030
  Solvation  Ediel_sol  =         0.00000000
  ---------------------------------------------------
  free energy    TOTEN  =      -485.00377977 eV

  energy without entropy =     -485.02489221  energy(sigma->0) =     -485.01081725


--------------------------------------------------------------------------------------------------------




--------------------------------------- Iteration      1(   5)  ---------------------------------------


    POTLOK:  cpu time    0.4122: real time    0.4270
    SETDIJ:  cpu time    0.0247: real time    0.0247
    EDDIAG:  cpu time    5.0970: real time    5.0986
  RMM-DIIS:  cpu time   19.9375: real time   19.9531
    ORTHCH:  cpu time    1.3589: real time    1.3593
       DOS:  cpu time    0.0086: real time    0.0086
    CHARGE:  cpu time    1.2401: real time    1.2404
    MIXING:  cpu time    0.0069: real time    0.0069
    --------------------------------------------
      LOOP:  cpu time   28.0860: real time   28.1185

 eigenvalue-minimisations  :  8247
 total energy-change (2. order) :-0.3745570E+00  (-0.1108271E+00)
 number of electron     568.0000062 magnetization      86.6513670
 augmentation part      299.8217807 magnetization      70.2773948

 DIPCOR: dipole corrections for dipol
 direction  3 min pos   239,
 dipolmoment           0.000000      0.000000      0.129843 electrons x Angstroem
 Tr[quadrupol]     -9877.035067

 energy correction for charged system         0.000000 eV
 dipol+quadrupol energy correction           -0.000810 eV
 added-field ion interaction         -0.714797 eV  (added to PSCEN)


 Broyden mixing:
  rms(total) = 0.92522E+00    rms(broyden)= 0.92518E+00
  rms(prec ) = 0.12326E+01
  weight for this iteration     100.00

 eigenvalues of (default mixing * dielectric matrix)
  average eigenvalue GAMMA=   0.2897
  0.4879  0.4879  0.0938  0.0892

 Free energy of the ion-electron system (eV)
  ---------------------------------------------------
  alpha Z        PSCENC =      1524.18267410
  Ewald energy   TEWEN  =    174771.12284060
  -Hartree energ DENC   =   -221857.20731684
  -exchange      EXHF   =         0.00000000
  -V(xc)+E(xc)   XCENC  =       800.15214892
  PAW double counting   =     54171.67963740   -55719.41016799
  entropy T*S    EENTRO =         0.01389761
  eigenvalues    EBANDS =     -1675.08738085
  atomic energy  EATOM  =     47499.17533030
  Solvation  Ediel_sol  =         0.00000000
  ---------------------------------------------------
  free energy    TOTEN  =      -485.37833677 eV

  energy without entropy =     -485.39223438  energy(sigma->0) =     -485.38296931


--------------------------------------------------------------------------------------------------------




--------------------------------------- Iteration      1(   6)  ---------------------------------------


    POTLOK:  cpu time    0.4132: real time    0.4270
    SETDIJ:  cpu time    0.0246: real time    0.0246
    EDDIAG:  cpu time    5.0968: real time    5.0984
  RMM-DIIS:  cpu time   19.2765: real time   19.2900
    ORTHCH:  cpu time    1.3672: real time    1.3674
       DOS:  cpu time    0.0088: real time    0.0088
    CHARGE:  cpu time    1.2423: real time    1.2426
    MIXING:  cpu time    0.0071: real time    0.0071
    --------------------------------------------
      LOOP:  cpu time   27.4364: real time   27.4659

 eigenvalue-minimisations  :  7956
 total energy-change (2. order) : 0.5365477E-01  (-0.4593150E-01)
 number of electron     568.0000064 magnetization      86.6278629
 augmentation part      299.8254529 magnetization      70.2313994

 DIPCOR: dipole corrections for dipol
 direction  3 min pos   240,
 dipolmoment           0.000000      0.000000      0.313603 electrons x Angstroem
 Tr[quadrupol]     -9877.087362

 energy correction for charged system         0.000000 eV
 dipol+quadrupol energy correction           -0.004725 eV
 added-field ion interaction         -0.588812 eV  (added to PSCEN)


 Broyden mixing:
  rms(total) = 0.85745E+00    rms(broyden)= 0.85739E+00
  rms(prec ) = 0.11320E+01
  weight for this iteration     100.00

 eigenvalues of (default mixing * dielectric matrix)
  average eigenvalue GAMMA=   0.2733
  0.5403  0.5403  0.1350  0.0977  0.0532

 Free energy of the ion-electron system (eV)
  ---------------------------------------------------
  alpha Z        PSCENC =      1524.30474450
  Ewald energy   TEWEN  =    174771.12284060
  -Hartree energ DENC   =   -221857.31336248
  -exchange      EXHF   =         0.00000000
  -V(xc)+E(xc)   XCENC  =       800.17069926
  PAW double counting   =     54145.47486368   -55691.94955735
  entropy T*S    EENTRO =         0.02707432
  eigenvalues    EBANDS =     -1676.33731484
  atomic energy  EATOM  =     47499.17533030
  Solvation  Ediel_sol  =         0.00000000
  ---------------------------------------------------
  free energy    TOTEN  =      -485.32468200 eV

  energy without entropy =     -485.35175632  energy(sigma->0) =     -485.33370677


--------------------------------------------------------------------------------------------------------




--------------------------------------- Iteration      1(   7)  ---------------------------------------


    POTLOK:  cpu time    0.4123: real time    0.4267
    SETDIJ:  cpu time    0.0248: real time    0.0247
    EDDIAG:  cpu time    5.0898: real time    5.0913
  RMM-DIIS:  cpu time   18.7476: real time   18.7629
    ORTHCH:  cpu time    1.3509: real time    1.3510
       DOS:  cpu time    0.0086: real time    0.0086
    CHARGE:  cpu time    1.2408: real time    1.2411
    MIXING:  cpu time    0.0072: real time    0.0072
    --------------------------------------------
      LOOP:  cpu time   26.8820: real time   26.9136

 eigenvalue-minimisations  :  7729
 total energy-change (2. order) : 0.3221078E+00  (-0.1994234E-01)
 number of electron     568.0000063 magnetization      86.6244224
 augmentation part      300.2002061 magnetization      69.9402639

 DIPCOR: dipole corrections for dipol
 direction  3 min pos   237,
 dipolmoment           0.000000      0.000000      0.212818 electrons x Angstroem
 Tr[quadrupol]     -9876.860822

 energy correction for charged system         0.000000 eV
 dipol+quadrupol energy correction           -0.002176 eV
 added-field ion interaction         -2.715584 eV  (added to PSCEN)


 Broyden mixing:
  rms(total) = 0.33146E+00    rms(broyden)= 0.33140E+00
  rms(prec ) = 0.36772E+00
  weight for this iteration     100.00

 eigenvalues of (default mixing * dielectric matrix)
  average eigenvalue GAMMA=   0.2536
  0.5418  0.5418  0.1668  0.1371  0.0859  0.0482

 Free energy of the ion-electron system (eV)
  ---------------------------------------------------
  alpha Z        PSCENC =      1522.18052150
  Ewald energy   TEWEN  =    174771.12284060
  -Hartree energ DENC   =   -221848.89361446
  -exchange      EXHF   =         0.00000000
  -V(xc)+E(xc)   XCENC  =       800.04032099
  PAW double counting   =     54114.43745833   -55659.15067508
  entropy T*S    EENTRO =         0.01956597
  eigenvalues    EBANDS =     -1683.93432239
  atomic energy  EATOM  =     47499.17533030
  Solvation  Ediel_sol  =         0.00000000
  ---------------------------------------------------
  free energy    TOTEN  =      -485.00257424 eV

  energy without entropy =     -485.02214021  energy(sigma->0) =     -485.00909623


--------------------------------------------------------------------------------------------------------




--------------------------------------- Iteration      1(   8)  ---------------------------------------


    POTLOK:  cpu time    0.4111: real time    0.4255
    SETDIJ:  cpu time    0.0247: real time    0.0247
    EDDIAG:  cpu time    5.1056: real time    5.1072
  RMM-DIIS:  cpu time   19.3126: real time   19.3272
    ORTHCH:  cpu time    1.3525: real time    1.3527
       DOS:  cpu time    0.0089: real time    0.0089
    CHARGE:  cpu time    1.2419: real time    1.2422
    MIXING:  cpu time    0.0073: real time    0.0073
    --------------------------------------------
      LOOP:  cpu time   27.4654: real time   27.4956

 eigenvalue-minimisations  :  7981
 total energy-change (2. order) : 0.1006345E-01  (-0.6676300E-02)
 number of electron     568.0000064 magnetization      86.6039760
 augmentation part      300.2105720 magnetization      70.0358836

 DIPCOR: dipole corrections for dipol
 direction  3 min pos   237,
 dipolmoment           0.000000      0.000000      0.223532 electrons x Angstroem
 Tr[quadrupol]     -9876.938109

 energy correction for charged system         0.000000 eV
 dipol+quadrupol energy correction           -0.002401 eV
 added-field ion interaction         -2.852297 eV  (added to PSCEN)


 Broyden mixing:
  rms(total) = 0.25656E+00    rms(broyden)= 0.25655E+00
  rms(prec ) = 0.27054E+00
  weight for this iteration     100.00

 eigenvalues of (default mixing * dielectric matrix)
  average eigenvalue GAMMA=   0.2927
  0.6442  0.6442  0.3602  0.1504  0.1080  0.0923  0.0497

 Free energy of the ion-electron system (eV)
  ---------------------------------------------------
  alpha Z        PSCENC =      1522.04358395
  Ewald energy   TEWEN  =    174771.12284060
  -Hartree energ DENC   =   -221850.75043194
  -exchange      EXHF   =         0.00000000
  -V(xc)+E(xc)   XCENC  =       800.05805531
  PAW double counting   =     54102.96426200   -55647.26670932
  entropy T*S    EENTRO =         0.02328244
  eigenvalues    EBANDS =     -1682.36272414
  atomic energy  EATOM  =     47499.17533030
  Solvation  Ediel_sol  =         0.00000000
  ---------------------------------------------------
  free energy    TOTEN  =      -484.99251079 eV

  energy without entropy =     -485.01579323  energy(sigma->0) =     -485.00027161


--------------------------------------------------------------------------------------------------------




--------------------------------------- Iteration      1(   9)  ---------------------------------------


    POTLOK:  cpu time    0.4157: real time    0.4292
    SETDIJ:  cpu time    0.0246: real time    0.0246
    EDDIAG:  cpu time    5.0983: real time    5.0999
  RMM-DIIS:  cpu time   19.3762: real time   19.3935
    ORTHCH:  cpu time    1.3503: real time    1.3506
       DOS:  cpu time    0.0089: real time    0.0089
    CHARGE:  cpu time    1.2415: real time    1.2418
    MIXING:  cpu time    0.0075: real time    0.0075
    --------------------------------------------
      LOOP:  cpu time   27.5222: real time   27.5559

 eigenvalue-minimisations  :  8006
 total energy-change (2. order) :-0.4165776E-02  (-0.2158530E-02)
 number of electron     568.0000063 magnetization      86.5967599
 augmentation part      300.2325366 magnetization      69.9667921

 DIPCOR: dipole corrections for dipol
 direction  3 min pos   238,
 dipolmoment           0.000000      0.000000      0.221298 electrons x Angstroem
 Tr[quadrupol]     -9876.994366

 energy correction for charged system         0.000000 eV
 dipol+quadrupol energy correction           -0.002353 eV
 added-field ion interaction         -2.021023 eV  (added to PSCEN)


 Broyden mixing:
  rms(total) = 0.25146E+00    rms(broyden)= 0.25146E+00
  rms(prec ) = 0.26708E+00
  weight for this iteration     100.00

 eigenvalues of (default mixing * dielectric matrix)
  average eigenvalue GAMMA=   0.2664
  0.6604  0.6604  0.3615  0.1516  0.1083  0.0951  0.0514  0.0426

 Free energy of the ion-electron system (eV)
  ---------------------------------------------------
  alpha Z        PSCENC =      1522.87490583
  Ewald energy   TEWEN  =    174771.12284060
  -Hartree energ DENC   =   -221851.98245422
  -exchange      EXHF   =         0.00000000
  -V(xc)+E(xc)   XCENC  =       800.20897851
  PAW double counting   =     54076.04263114   -55619.82889521
  entropy T*S    EENTRO =         0.02300769
  eigenvalues    EBANDS =     -1682.63302121
  atomic energy  EATOM  =     47499.17533030
  Solvation  Ediel_sol  =         0.00000000
  ---------------------------------------------------
  free energy    TOTEN  =      -484.99667657 eV

  energy without entropy =     -485.01968426  energy(sigma->0) =     -485.00434580


--------------------------------------------------------------------------------------------------------




--------------------------------------- Iteration      1(  10)  ---------------------------------------


    POTLOK:  cpu time    0.4103: real time    0.4257
    SETDIJ:  cpu time    0.0246: real time    0.0246
    EDDIAG:  cpu time    5.0961: real time    5.0978
  RMM-DIIS:  cpu time   18.8757: real time   18.8897
    ORTHCH:  cpu time    1.3510: real time    1.3513
       DOS:  cpu time    0.0085: real time    0.0085
    CHARGE:  cpu time    1.2422: real time    1.2423
    MIXING:  cpu time    0.0076: real time    0.0076
    --------------------------------------------
      LOOP:  cpu time   27.0161: real time   27.0476

 eigenvalue-minimisations  :  7784
 total energy-change (2. order) : 0.4423828E-02  (-0.6725429E-03)
 number of electron     568.0000063 magnetization      86.5897041
 augmentation part      300.2445418 magnetization      69.9885698

 DIPCOR: dipole corrections for dipol
 direction  3 min pos   238,
 dipolmoment           0.000000      0.000000      0.220287 electrons x Angstroem
 Tr[quadrupol]     -9877.005716

 energy correction for charged system         0.000000 eV
 dipol+quadrupol energy correction           -0.002332 eV
 added-field ion interaction         -2.011792 eV  (added to PSCEN)


 Broyden mixing:
  rms(total) = 0.21152E+00    rms(broyden)= 0.21152E+00
  rms(prec ) = 0.22337E+00
  weight for this iteration     100.00

 eigenvalues of (default mixing * dielectric matrix)
  average eigenvalue GAMMA=   0.2474
  0.6597  0.6597  0.3682  0.1518  0.1093  0.0959  0.0491  0.0672  0.0658

 Free energy of the ion-electron system (eV)
  ---------------------------------------------------
  alpha Z        PSCENC =      1522.88415822
  Ewald energy   TEWEN  =    174771.12284060
  -Hartree energ DENC   =   -221852.39621892
  -exchange      EXHF   =         0.00000000
  -V(xc)+E(xc)   XCENC  =       800.25841607
  PAW double counting   =     54065.08355821   -55608.62906995
  entropy T*S    EENTRO =         0.02281918
  eigenvalues    EBANDS =     -1682.51408645
  atomic energy  EATOM  =     47499.17533030
  Solvation  Ediel_sol  =         0.00000000
  ---------------------------------------------------
  free energy    TOTEN  =      -484.99225274 eV

  energy without entropy =     -485.01507192  energy(sigma->0) =     -484.99985913


--------------------------------------------------------------------------------------------------------




--------------------------------------- Iteration      1(  11)  ---------------------------------------


    POTLOK:  cpu time    0.4291: real time    0.4297
    SETDIJ:  cpu time    0.0246: real time    0.0246
    EDDIAG:  cpu time    5.0977: real time    5.0991
  RMM-DIIS:  cpu time   19.7530: real time   19.7629
    ORTHCH:  cpu time    1.3469: real time    1.3531
       DOS:  cpu time    0.0089: real time    0.0089
    CHARGE:  cpu time    1.2377: real time    1.2378
    MIXING:  cpu time    0.0078: real time    0.0078
    --------------------------------------------
      LOOP:  cpu time   27.9057: real time   27.9240

 eigenvalue-minimisations  :  8160
 total energy-change (2. order) :-0.3717951E-03  (-0.2558550E-03)
 number of electron     568.0000063 magnetization      86.6004967
 augmentation part      300.2562245 magnetization      70.0171322

 DIPCOR: dipole corrections for dipol
 direction  3 min pos   238,
 dipolmoment           0.000000      0.000000      0.221225 electrons x Angstroem
 Tr[quadrupol]     -9877.009514

 energy correction for charged system         0.000000 eV
 dipol+quadrupol energy correction           -0.002352 eV
 added-field ion interaction         -2.020360 eV  (added to PSCEN)


 Broyden mixing:
  rms(total) = 0.21328E+00    rms(broyden)= 0.21328E+00
  rms(prec ) = 0.22640E+00
  weight for this iteration     100.00

 eigenvalues of (default mixing * dielectric matrix)
  average eigenvalue GAMMA=   0.3393
  0.9025  0.7012  0.7012  0.4179  0.1599  0.1599  0.0494  0.1137  0.0884  0.0989

 Free energy of the ion-electron system (eV)
  ---------------------------------------------------
  alpha Z        PSCENC =      1522.87557039
  Ewald energy   TEWEN  =    174771.12284060
  -Hartree energ DENC   =   -221852.50676722
  -exchange      EXHF   =         0.00000000
  -V(xc)+E(xc)   XCENC  =       800.28970874
  PAW double counting   =     54056.50995283   -55599.82964550
  entropy T*S    EENTRO =         0.02321722
  eigenvalues    EBANDS =     -1682.65283189
  atomic energy  EATOM  =     47499.17533030
  Solvation  Ediel_sol  =         0.00000000
  ---------------------------------------------------
  free energy    TOTEN  =      -484.99262454 eV

  energy without entropy =     -485.01584176  energy(sigma->0) =     -485.00036361


--------------------------------------------------------------------------------------------------------




--------------------------------------- Iteration      1(  12)  ---------------------------------------


    POTLOK:  cpu time    0.4103: real time    0.4240
    SETDIJ:  cpu time    0.0246: real time    0.0246
    EDDIAG:  cpu time    5.1094: real time    5.1117
  RMM-DIIS:  cpu time   18.9152: real time   18.9274
    ORTHCH:  cpu time    1.3555: real time    1.3557
       DOS:  cpu time    0.0094: real time    0.0094
    CHARGE:  cpu time    1.2408: real time    1.2411
    MIXING:  cpu time    0.0080: real time    0.0080
    --------------------------------------------
      LOOP:  cpu time   27.0732: real time   27.1018

 eigenvalue-minimisations  :  7797
 total energy-change (2. order) :-0.6361096E-03  (-0.1275651E-03)
 number of electron     568.0000063 magnetization      86.6120919
 augmentation part      300.2395053 magnetization      70.0198000

 DIPCOR: dipole corrections for dipol
 direction  3 min pos   238,
 dipolmoment           0.000000      0.000000      0.222426 electrons x Angstroem
 Tr[quadrupol]     -9877.003059

 energy correction for charged system         0.000000 eV
 dipol+quadrupol energy correction           -0.002377 eV
 added-field ion interaction         -2.031329 eV  (added to PSCEN)


 Broyden mixing:
  rms(total) = 0.22107E+00    rms(broyden)= 0.22107E+00
  rms(prec ) = 0.23264E+00
  weight for this iteration     100.00

 eigenvalues of (default mixing * dielectric matrix)
  average eigenvalue GAMMA=   0.3688
  1.2516  0.7400  0.7400  0.3538  0.3538  0.1587  0.0494  0.1276  0.1056  0.0925
  0.0842

 Free energy of the ion-electron system (eV)
  ---------------------------------------------------
  alpha Z        PSCENC =      1522.86457597
  Ewald energy   TEWEN  =    174771.12284060
  -Hartree energ DENC   =   -221852.39281523
  -exchange      EXHF   =         0.00000000
  -V(xc)+E(xc)   XCENC  =       800.26182675
  PAW double counting   =     54067.39419611   -55611.01481802
  entropy T*S    EENTRO =         0.02373994
  eigenvalues    EBANDS =     -1682.42813706
  atomic energy  EATOM  =     47499.17533030
  Solvation  Ediel_sol  =         0.00000000
  ---------------------------------------------------
  free energy    TOTEN  =      -484.99326065 eV

  energy without entropy =     -485.01700059  energy(sigma->0) =     -485.00117396


--------------------------------------------------------------------------------------------------------




--------------------------------------- Iteration      1(  13)  ---------------------------------------


    POTLOK:  cpu time    0.4120: real time    0.4257
    SETDIJ:  cpu time    0.0246: real time    0.0246
    EDDIAG:  cpu time    5.1026: real time    5.1103
  RMM-DIIS:  cpu time   18.3447: real time   18.3546
    ORTHCH:  cpu time    1.3593: real time    1.3595
       DOS:  cpu time    0.0097: real time    0.0097
    CHARGE:  cpu time    1.2491: real time    1.2493
    MIXING:  cpu time    0.0084: real time    0.0084
    --------------------------------------------
      LOOP:  cpu time   26.5104: real time   26.5422

 eigenvalue-minimisations  :  7532
 total energy-change (2. order) :-0.1975057E-02  (-0.2887241E-03)
 number of electron     568.0000063 magnetization      86.6284637
 augmentation part      300.2185197 magnetization      70.0321362

 DIPCOR: dipole corrections for dipol
 direction  3 min pos   238,
 dipolmoment           0.000000      0.000000      0.221632 electrons x Angstroem
 Tr[quadrupol]     -9877.009096

 energy correction for charged system         0.000000 eV
 dipol+quadrupol energy correction           -0.002360 eV
 added-field ion interaction         -2.024074 eV  (added to PSCEN)


 Broyden mixing:
  rms(total) = 0.22013E+00    rms(broyden)= 0.22013E+00
  rms(prec ) = 0.23146E+00
  weight for this iteration     100.00

 eigenvalues of (default mixing * dielectric matrix)
  average eigenvalue GAMMA=   0.4159
  1.5732  0.8701  0.8701  0.4669  0.4669  0.0494  0.1527  0.1465  0.0868  0.1094
  0.1029  0.0962

 Free energy of the ion-electron system (eV)
  ---------------------------------------------------
  alpha Z        PSCENC =      1522.87184733
  Ewald energy   TEWEN  =    174771.12284060
  -Hartree energ DENC   =   -221852.75963707
  -exchange      EXHF   =         0.00000000
  -V(xc)+E(xc)   XCENC  =       800.27389760
  PAW double counting   =     54073.33568890   -55617.17166226
  entropy T*S    EENTRO =         0.02321325
  eigenvalues    EBANDS =     -1681.86675435
  atomic energy  EATOM  =     47499.17533030
  Solvation  Ediel_sol  =         0.00000000
  ---------------------------------------------------
  free energy    TOTEN  =      -484.99523570 eV

  energy without entropy =     -485.01844895  energy(sigma->0) =     -485.00297345


--------------------------------------------------------------------------------------------------------




--------------------------------------- Iteration      1(  14)  ---------------------------------------


    POTLOK:  cpu time    0.4139: real time    0.4273
    SETDIJ:  cpu time    0.0246: real time    0.0246
    EDDIAG:  cpu time    5.1051: real time    5.1120
  RMM-DIIS:  cpu time   18.3541: real time   18.3620
    ORTHCH:  cpu time    1.3609: real time    1.3612
       DOS:  cpu time    0.0096: real time    0.0096
    CHARGE:  cpu time    1.2412: real time    1.2415
    MIXING:  cpu time    0.0086: real time    0.0086
    --------------------------------------------
      LOOP:  cpu time   26.5180: real time   26.5467

 eigenvalue-minimisations  :  7547
 total energy-change (2. order) :-0.2555853E-02  (-0.6413951E-03)
 number of electron     568.0000063 magnetization      86.6352900
 augmentation part      300.2288215 magnetization      70.0282432

 DIPCOR: dipole corrections for dipol
 direction  3 min pos   238,
 dipolmoment           0.000000      0.000000      0.224906 electrons x Angstroem
 Tr[quadrupol]     -9876.999989

 energy correction for charged system         0.000000 eV
 dipol+quadrupol energy correction           -0.002430 eV
 added-field ion interaction         -2.053980 eV  (added to PSCEN)


 Broyden mixing:
  rms(total) = 0.20896E+00    rms(broyden)= 0.20896E+00
  rms(prec ) = 0.21775E+00
  weight for this iteration     100.00

 eigenvalues of (default mixing * dielectric matrix)
  average eigenvalue GAMMA=   0.4236
  1.7175  0.9418  0.9418  0.4779  0.4779  0.2132  0.1727  0.0494  0.1315  0.1130
  0.0970  0.0891  0.0834

 Free energy of the ion-electron system (eV)
  ---------------------------------------------------
  alpha Z        PSCENC =      1522.84187106
  Ewald energy   TEWEN  =    174771.12284060
  -Hartree energ DENC   =   -221852.65524633
  -exchange      EXHF   =         0.00000000
  -V(xc)+E(xc)   XCENC  =       800.37365119
  PAW double counting   =     54063.59145425   -55607.25491444
  entropy T*S    EENTRO =         0.02444275
  eigenvalues    EBANDS =     -1682.21722093
  atomic energy  EATOM  =     47499.17533030
  Solvation  Ediel_sol  =         0.00000000
  ---------------------------------------------------
  free energy    TOTEN  =      -484.99779156 eV

  energy without entropy =     -485.02223431  energy(sigma->0) =     -485.00593914


--------------------------------------------------------------------------------------------------------




--------------------------------------- Iteration      1(  15)  ---------------------------------------


    POTLOK:  cpu time    0.4155: real time    0.4296
    SETDIJ:  cpu time    0.0246: real time    0.0246
    EDDIAG:  cpu time    5.1077: real time    5.1095
  RMM-DIIS:  cpu time   18.3517: real time   18.3651
    ORTHCH:  cpu time    1.3631: real time    1.3634
       DOS:  cpu time    0.0091: real time    0.0092
    CHARGE:  cpu time    1.2392: real time    1.2393
    MIXING:  cpu time    0.0088: real time    0.0090
    --------------------------------------------
      LOOP:  cpu time   26.5197: real time   26.5495

 eigenvalue-minimisations  :  7555
 total energy-change (2. order) : 0.6256357E-04  (-0.5382755E-03)
 number of electron     568.0000063 magnetization      86.6401479
 augmentation part      300.2497315 magnetization      70.0827719

 DIPCOR: dipole corrections for dipol
 direction  3 min pos   238,
 dipolmoment           0.000000      0.000000      0.227025 electrons x Angstroem
 Tr[quadrupol]     -9876.999027

 energy correction for charged system         0.000000 eV
 dipol+quadrupol energy correction           -0.002476 eV
[...]
   0.854E+00 0.100E+02 0.212E+04   -.799E+00 -.966E+01 -.212E+04   -.199E-01 -.173E+00 -.526E+00   0.315E-01 0.236E-02 -.600E-02
   -.971E+02 -.378E+02 -.192E+04   0.986E+02 0.393E+02 0.192E+04   -.156E+01 -.149E+01 0.212E+01   -.696E-02 -.894E-02 0.719E-02
   0.187E+02 -.264E+02 0.855E+03   -.188E+02 0.266E+02 -.854E+03   -.325E-01 0.122E+00 -.455E+00   0.408E-01 0.423E-02 -.237E-01
   0.551E+02 -.589E+02 -.538E+03   -.553E+02 0.591E+02 0.538E+03   0.175E+00 -.203E+00 -.156E+00   0.765E-02 -.914E-02 0.180E-01
   -.818E+01 0.814E+01 0.213E+04   0.820E+01 -.783E+01 -.213E+04   0.277E-01 -.160E+00 -.177E+01   -.751E-02 -.272E-02 0.523E-03
   0.763E+02 -.267E+02 -.185E+04   -.782E+02 0.277E+02 0.185E+04   0.191E+01 -.109E+01 0.122E+01   0.161E-01 0.115E-01 -.920E-03
   -.361E+02 0.487E+01 0.823E+03   0.363E+02 -.466E+01 -.822E+03   -.700E-01 0.334E-01 -.642E+00   0.119E-01 0.171E-01 -.330E-01
   -.142E+02 -.742E+01 0.791E+03   0.144E+02 0.771E+01 -.792E+03   -.157E+00 -.181E+00 0.291E+00   -.352E-01 0.123E-01 -.338E-01
   -.320E+02 0.714E+01 -.539E+03   0.322E+02 -.677E+01 0.539E+03   -.159E+00 -.378E+00 0.510E+00   -.973E-02 0.184E-01 -.223E-01
   0.107E+02 -.334E+02 -.530E+03   -.106E+02 0.332E+02 0.530E+03   -.271E-01 0.230E+00 0.174E+00   -.146E-01 0.577E-02 0.737E-02
   -.112E+02 0.327E+02 0.755E+03   0.110E+02 -.327E+02 -.755E+03   -.265E+00 -.596E+00 -.791E-01   -.397E-01 0.723E-02 -.226E-01
   0.186E+02 0.222E+01 0.780E+03   -.186E+02 -.240E+01 -.780E+03   0.647E+00 -.212E+00 -.580E-01   0.135E-01 0.816E-02 -.282E-01
   0.307E+02 0.683E+01 -.577E+03   -.305E+02 -.659E+01 0.577E+03   -.253E+00 -.228E+00 -.355E+00   -.173E-01 0.489E-02 0.218E-01
   -.355E+02 0.303E+02 -.596E+03   0.352E+02 -.302E+02 0.596E+03   0.261E+00 -.158E+00 -.688E+00   0.166E-01 0.458E-02 -.348E-01
   -.443E+02 0.259E+02 -.560E+03   0.442E+02 -.263E+02 0.559E+03   0.113E+00 0.406E+00 0.266E+00   -.209E-01 0.181E-01 -.712E-02
   0.104E+02 0.301E+02 0.262E+04   -.105E+02 -.304E+02 -.261E+04   0.151E+00 0.450E+00 -.107E+01   -.138E-01 0.115E-01 -.321E-01
   0.100E+02 0.177E+03 -.239E+04   -.100E+02 -.180E+03 0.238E+04   0.337E-01 0.292E+01 0.134E+01   -.241E-01 0.728E-02 0.306E-01
   -.125E+02 0.355E+01 0.264E+04   0.127E+02 -.379E+01 -.264E+04   -.495E+00 0.266E+00 -.830E+00   -.273E-02 -.222E-01 -.201E-01
   -.120E+03 -.794E+02 -.239E+04   0.123E+03 0.809E+02 0.239E+04   -.239E+01 -.152E+01 0.640E+00   0.180E-01 -.796E-02 0.118E-01
   0.145E+02 -.286E+02 0.260E+04   -.144E+02 0.288E+02 -.260E+04   0.495E-01 -.126E+00 -.105E+01   0.515E-02 0.214E-01 -.303E-01
   -.912E+02 -.904E+02 -.234E+04   0.935E+02 0.917E+02 0.234E+04   -.230E+01 -.137E+01 0.111E+01   -.231E-01 -.481E-03 0.242E-01
   0.105E+02 -.183E+02 0.263E+04   -.106E+02 0.186E+02 -.263E+04   -.480E-01 -.140E+00 -.135E+01   0.130E-02 -.203E-02 -.266E-01
   0.127E+03 -.772E+02 -.239E+04   -.129E+03 0.785E+02 0.238E+04   0.237E+01 -.131E+01 0.112E+01   0.155E-01 0.987E-02 0.207E-01
   -.239E+02 0.810E+02 -.658E+03   0.237E+02 -.811E+02 0.657E+03   0.132E+00 0.119E+00 0.658E+00   0.155E-01 -.192E-01 -.856E-02
   0.162E+02 -.372E+02 0.105E+04   -.162E+02 0.369E+02 -.105E+04   -.641E-01 0.661E-01 -.105E+00   0.807E-02 -.306E-01 -.310E-01
   -.748E+02 0.230E+01 -.653E+03   0.747E+02 -.244E+01 0.654E+03   0.294E-01 0.178E+00 -.706E+00   0.775E-02 -.250E-01 0.163E-01
   0.728E+02 -.620E+02 -.620E+03   -.730E+02 0.621E+02 0.619E+03   0.268E+00 -.896E-01 0.858E+00   0.145E-01 -.182E-01 0.830E-02
   -.483E+02 -.108E+02 -.668E+03   0.485E+02 0.109E+02 0.668E+03   -.151E+00 -.482E-01 0.452E+00   0.191E-01 0.249E-02 -.175E-01
   0.259E+02 0.745E+01 0.102E+04   -.258E+02 -.747E+01 -.102E+04   -.301E+00 -.652E-02 -.105E+00   0.440E-01 -.136E-01 -.320E-01
   0.526E+02 -.183E+02 -.680E+03   -.530E+02 0.186E+02 0.679E+03   0.334E+00 -.315E+00 0.384E+00   0.298E-01 -.177E-02 -.342E-02
   -.372E+02 0.450E+02 0.103E+04   0.371E+02 -.449E+02 -.103E+04   -.185E+00 0.212E-01 0.639E-01   -.136E-01 -.129E-01 -.237E-01
   0.634E+01 -.228E+01 -.187E+04   -.697E+01 0.233E+01 0.190E+04   0.639E+00 -.505E-01 -.266E+02   0.870E-02 0.970E-02 0.643E-02
   0.223E+02 -.229E+02 -.194E+04   -.205E+02 0.228E+02 0.196E+04   -.180E+01 0.661E-02 -.274E+02   -.992E-02 -.402E-02 -.515E-02
   -.400E+00 0.260E+01 -.188E+04   0.535E+00 -.284E+01 0.191E+04   -.132E+00 0.260E+00 -.262E+02   -.192E-01 0.436E-02 0.296E-02
   -.625E+01 0.220E+02 -.194E+04   0.667E+01 -.192E+02 0.197E+04   -.447E+00 -.281E+01 -.267E+02   0.147E-01 0.190E-01 0.290E-03
 -----------------------------------------------------------------------------------------------
   0.200E+01 0.299E+01 0.102E+03   0.411E-12 -.338E-12 -.273E-11   -.202E+01 -.299E+01 -.102E+03   0.148E-01 0.804E-02 -.522E+00
 
 
 POSITION                                       TOTAL-FORCE (eV/Angst)
 -----------------------------------------------------------------------------------
     -5.03208      8.74992      2.05921        -0.085840     -0.080039     -0.206209
     -0.00837      0.02451      8.10292        -0.008486     -0.014055     -0.004099
      0.00574      8.72607      2.04466        -0.266343      0.424606      0.127913
      5.08811      0.00831      8.06084         0.010375      0.002775     -0.003970
      2.47665      8.72592      2.00821         0.359780      0.208475      0.051677
      2.54330      8.71778      8.24442        -0.000780     -0.018218     -0.030445
      1.23891      2.21748      2.05880         0.544299     -0.065113     -0.291241
      1.27123      2.16445      8.18620        -0.006843      0.005200      0.000884
      0.08074      1.41419      4.05321        -1.020178      0.449273      0.400342
      2.49330      1.45451      4.14829         0.795780      0.136529     -0.740193
      1.25574      0.66084      6.18527         0.006855      0.010870      0.003413
      5.06166      1.44930      4.13498        -0.399388      0.341902     -0.448867
      3.77473      0.71397      6.14217        -0.011757     -0.006945      0.014390
      7.51557      1.45812      4.11001         0.535302     -0.043025     -0.684048
      6.33340      0.71758      6.12760        -0.012313     -0.003483     -0.002358
     -2.55062      4.47399      2.00995        -0.157021     -0.710699      0.261755
     -2.54424      4.40814      7.94931        -0.009521     -0.009910     -0.018936
      0.03014      4.42905      2.07020        -0.288437     -0.498228     -0.144847
      0.01830      4.33622      8.15431         0.013347     -0.010069      0.006698
      2.50847      4.40516      2.07435         0.487089     -0.458460     -0.298193
      2.50583      4.33361      8.00622        -0.000106      0.017787     -0.012572
      1.32139      3.64145      4.02771        -0.762890      0.352805      0.332527
      5.08382      4.44890      2.04815        -0.237201     -0.555367      0.716671
      5.05130      4.29981      8.22240        -0.008762      0.010319     -0.020347
      3.79377      3.69800      4.13071         0.304530     -0.041674     -0.746915
      2.51085      2.93921      6.09247         0.011915      0.000980     -0.006189
      6.25293      3.64956      4.08305         0.321434      0.147244     -0.175145
      5.07861      2.90617      6.16099         0.010544     -0.002741     -0.004195
      6.25194      6.54167      2.03547         0.337138      0.226373      0.085128
     -3.78628      6.60303      8.20831        -0.001115      0.009670     -0.020532
     -1.23133      6.52951      2.06361        -0.374998      0.318692     -0.085623
     -1.27071      6.60365      8.20037        -0.013709      0.011778     -0.012147
     -2.52172      5.87475      4.08745         0.077306     -0.417624     -0.002935
      1.28426      6.55944      2.07409         0.063722      0.179621      0.071885
      1.31854      6.58547      8.18216         0.003428     -0.002112     -0.016441
     -0.00626      5.79145      4.04458        -0.026960      0.388689      0.261522
     -1.24296      5.10448      6.06511         0.008399     -0.005975      0.009437
      3.77628      6.55571      2.00000         0.041366      0.147807      0.283246
      3.79513      6.55772      8.10996        -0.001200     -0.006263      0.007708
      2.52387      5.78801      4.07310         0.206196      0.245225      0.355232
      5.06734      5.79704      4.10517        -0.020347      0.114541     -0.287965
      3.76812      5.12490      6.07481         0.015808      0.014104     -0.001156
      6.24008      5.12921      6.07741         0.018086      0.006203     -0.009652
     -3.76296      8.02446      4.11956        -0.446703     -0.657901      0.093053
     -1.33707      8.05044      4.10308         0.711172     -0.389717      0.136435
     -2.55140      7.23344      6.18766         0.001509      0.011551     -0.011119
      2.47848      7.31470      6.13470         0.008322     -0.011639     -0.003946
      4.98887      7.23391      6.11601         0.013552      0.006745      0.003863
     -2.52690      8.74056      2.03303         0.060084      0.122271      0.185744
     -2.50162      8.73894      8.26099        -0.001214     -0.002049      0.003213
     -1.24953      2.18697      2.05404        -0.264577     -0.002109      0.409557
     -1.23033      2.22100      8.12006         0.011503     -0.003618      0.015860
      3.77687      2.20348      2.02824         0.124330      0.103323      0.646704
      3.81832      2.18434      8.19540         0.015382      0.007241      0.013634
      6.31052      2.19548      2.03586        -0.142312      0.137739      0.307865
      6.33129      2.19280      8.18426        -0.007260      0.003195      0.004922
      8.85707      0.72719      6.09449        -0.012056      0.009635     -0.002376
     -1.27338      3.65234      4.08853        -0.012356     -0.187053     -0.314463
      0.02183      2.90709      6.09449        -0.010103      0.008470     -0.022385
      7.57733      2.90593      6.06495        -0.010216     -0.003682     -0.003805
      1.23354      5.11275      6.07557         0.001958      0.006067      0.001279
      1.25660      8.01495      4.09194        -0.237501     -0.040706     -0.012000
     -0.01340      7.27014      6.08738        -0.006822     -0.004306     -0.009632
      3.80919      8.00883      4.09175        -0.262215      0.055307     -0.078997
      5.02691      5.82405      9.29741         0.018838      0.008398     -0.005331
      2.48010      1.51525      9.36084         0.009021     -0.006535     -0.017095
      0.02133      5.80668      9.28636        -0.016133      0.017937     -0.031925
      7.65284      1.42696      9.30116        -0.004706     -0.010029     -0.024264
 -----------------------------------------------------------------------------------
    total drift:                                0.003791      0.008329     -0.010874


--------------------------------------------------------------------------------------------------------



  FREE ENERGIE OF THE ION-ELECTRON SYSTEM (eV)
  ---------------------------------------------------
  free  energy   TOTEN  =      -499.69831417 eV

  energy  without entropy=     -499.72370877  energy(sigma->0) =     -499.70677904
 
 d Force = 0.1256276E-02[ 0.910E-03, 0.160E-02]  d Energy = 0.1168823E-02 0.875E-04
 d Force =-0.1496731E+02[-0.150E+02,-0.150E+02]  d Ewald  =-0.1496731E+02-0.289E-05


--------------------------------------------------------------------------------------------------------


    POTLOK:  cpu time    0.4347: real time    0.4349


--------------------------------------------------------------------------------------------------------


 stress matrix after NEB project (eV)
    -36.43640      0.93894     -0.20798
      0.93894    -37.70336      1.06067
     -0.20798      1.06067     -5.74244
  FORCES: max atom, RMS     0.040015    0.014020
  FORCE total and by dimension    0.115612    0.031925
  Stress total and by dimension   52.784751   37.703360
 Steepest descent step on ions:
 trial-energy change:   -0.001169  1 .order   -0.001256   -0.001603   -0.000910
  (g-gl).g = 0.160E-02      g.g   = 0.160E-02  gl.gl    = 0.000E+00
 g(Force)  = 0.160E-02   g(Stress)= 0.000E+00 ortho     = 0.000E+00
 gamma     =   0.00000
 trial     =   1.00000
 opt step  =   2.31206  (harmonic =   2.31206) maximal distance =0.00547849
 next E    =  -499.698998   (d E  =  -0.00185)


--------------------------------------------------------------------------------------------------------


  
 reached required accuracy - stopping structural energy minimisation
 writing wavefunctions
     LOOP+:  cpu time  365.9248: real time  403.0398
    4ORBIT:  cpu time    0.0000: real time    0.0000
 


 total charge     
 
# of ion       s       p       d       tot
------------------------------------------
    1        0.478   0.401   6.166   7.045
    2        0.471   0.405   6.201   7.077
    3        0.470   0.394   6.143   7.007
    4        0.474   0.412   6.182   7.068
    5        0.466   0.386   6.148   7.000
    6        0.489   0.531   6.247   7.267
    7        0.479   0.409   6.183   7.070
    8        0.491   0.534   6.254   7.279
    9        0.486   0.511   6.221   7.218
   10        0.496   0.532   6.237   7.265
   11        0.485   0.529   6.233   7.246
   12        0.488   0.528   6.193   7.210
   13        0.484   0.519   6.236   7.239
   14        0.474   0.494   6.186   7.154
   15        0.487   0.523   6.241   7.251
   16        0.474   0.394   6.154   7.022
   17        0.479   0.418   6.192   7.090
   18        0.489   0.429   6.203   7.122
   19        0.473   0.507   6.216   7.196
   20        0.496   0.429   6.207   7.132
   21        0.482   0.422   6.217   7.121
   22        0.501   0.548   6.271   7.320
   23        0.477   0.398   6.279   7.155
   24        0.471   0.500   6.205   7.177
   25        0.502   0.558   6.233   7.293
   26        0.490   0.534   6.243   7.267
   27        0.488   0.530   6.237   7.255
   28        0.484   0.539   6.217   7.240
   29        0.487   0.423   6.201   7.111
   30        0.473   0.515   6.232   7.220
   31        0.486   0.422   6.210   7.118
   32        0.471   0.509   6.214   7.194
   33        0.502   0.559   6.197   7.257
   34        0.495   0.442   6.215   7.152
   35        0.474   0.511   6.234   7.219
   36        0.499   0.549   6.209   7.257
   37        0.490   0.528   6.217   7.235
   38        0.480   0.415   6.179   7.075
   39        0.499   0.555   6.225   7.279
   40        0.496   0.550   6.238   7.284
   41        0.505   0.563   6.260   7.328
   42        0.506   0.569   6.271   7.346
   43        0.499   0.549   6.281   7.328
   44        0.492   0.535   6.258   7.284
   45        0.484   0.524   6.239   7.248
   46        0.489   0.534   6.260   7.282
   47        0.489   0.535   6.195   7.219
   48        0.504   0.562   6.213   7.279
   49        0.502   0.388   8.304   9.193
   50        0.505   0.502   8.324   9.331
   51        0.495   0.378   8.304   9.177
   52        0.497   0.499   8.328   9.324
   53        0.487   0.358   8.310   9.156
   54        0.500   0.503   8.326   9.330
   55        0.500   0.372   8.310   9.183
   56        0.497   0.495   8.331   9.323
   57        0.506   0.514   8.320   9.339
   58        0.507   0.505   8.325   9.337
   59        0.504   0.511   8.311   9.326
   60        0.513   0.520   8.320   9.353
   61        0.526   0.542   8.334   9.401
   62        0.517   0.533   8.315   9.364
   63        0.517   0.532   8.325   9.374
   64        0.507   0.511   8.319   9.336
   65        1.581   3.376   0.000   4.957
   66        1.582   3.345   0.000   4.927
   67        1.580   3.379   0.000   4.959
   68        1.581   3.349   0.000   4.930
--------------------------------------------------
tot         37.750  44.778 431.594 514.122
 


 magnetization (x)
 
# of ion       s       p       d       tot
------------------------------------------
    1        0.002  -0.008   2.705   2.698
    2        0.012   0.011   2.729   2.752
    3        0.005  -0.003   2.729   2.731
    4        0.003  -0.001   2.862   2.864
    5        0.004  -0.012   2.782   2.774
    6        0.008   0.002   2.181   2.191
    7       -0.004  -0.012   2.657   2.642
    8        0.003  -0.011   2.320   2.312
    9       -0.005  -0.034   2.575   2.536
   10       -0.003  -0.021   2.382   2.358
   11       -0.007  -0.029   2.417   2.381
   12       -0.035  -0.059  -1.997  -2.092
   13       -0.005  -0.024   2.367   2.338
   14        0.008  -0.006   2.587   2.589
   15       -0.001  -0.019   2.422   2.402
   16        0.012  -0.001   2.613   2.624
   17        0.002  -0.009   2.808   2.802
   18        0.001  -0.016   2.467   2.452
   19        0.007  -0.003   2.451   2.456
   20        0.005  -0.004   2.374   2.375
   21        0.012   0.003   2.634   2.649
   22       -0.002  -0.016   2.054   2.036
   23       -0.030  -0.025   0.008  -0.047
   24        0.010   0.007   2.523   2.539
   25       -0.024  -0.036  -1.838  -1.899
   26       -0.004  -0.025   2.309   2.281
   27        0.005  -0.002   2.077   2.080
   28        0.009  -0.001   2.187   2.196
   29        0.002  -0.019   2.434   2.418
   30        0.006   0.000   2.356   2.363
   31        0.003  -0.015   2.366   2.353
   32        0.007  -0.007   2.471   2.471
   33       -0.040  -0.073  -2.003  -2.115
   34        0.002  -0.027   2.368   2.343
   35        0.010   0.001   2.190   2.201
   36       -0.031  -0.047  -2.065  -2.143
   37        0.006  -0.017   2.377   2.367
   38        0.005  -0.013   2.515   2.508
   39       -0.029  -0.045  -2.149  -2.222
   40       -0.024  -0.044  -1.725  -1.792
   41        0.008   0.005   1.860   1.873
   42       -0.019  -0.027  -1.563  -1.609
   43       -0.004  -0.029   1.840   1.807
   44       -0.003  -0.027   2.152   2.123
   45        0.001  -0.009   2.130   2.123
   46       -0.001  -0.013   1.938   1.923
   47        0.016   0.010   2.317   2.343
   48       -0.033  -0.050  -2.033  -2.116
   49       -0.030  -0.037   0.714   0.646
   50       -0.023  -0.030   0.615   0.562
   51       -0.032  -0.031   0.675   0.612
   52       -0.017  -0.020   0.524   0.487
   53       -0.015  -0.017   0.361   0.329
   54       -0.020  -0.024   0.593   0.548
   55       -0.021  -0.015   0.475   0.438
   56       -0.016  -0.024   0.549   0.509
   57       -0.022  -0.044   0.647   0.581
   58       -0.015  -0.036   0.469   0.418
   59       -0.016  -0.029   0.587   0.542
   60       -0.022  -0.043   0.746   0.681
   61       -0.018  -0.037   0.380   0.326
   62       -0.015  -0.038   0.505   0.452
   63       -0.027  -0.056   0.629   0.545
   64       -0.018  -0.039   0.433   0.376
   65        0.001   0.027   0.000   0.028
   66        0.002   0.081   0.000   0.083
   67        0.003   0.084   0.000   0.087
   68        0.003   0.076   0.000   0.079
--------------------------------------------------
tot         -0.446  -1.046  87.060  85.568
 

 total amount of memory used by VASP MPI-rank0   111638. kBytes
=======================================================================

   base      :      30000. kBytes
   nonlr-proj:      13830. kBytes
   fftplans  :       6403. kBytes
   grid      :      17692. kBytes
   one-center:         93. kBytes
   wavefun   :      43620. kBytes
 
  
  
 General timing and accounting informations for this job:
 ========================================================
  
                  Total CPU time used (sec):     1578.563
                            User time (sec):     1460.074
                          System time (sec):      118.489
                         Elapsed time (sec):     1620.079
  
                   Maximum memory used (kb):      345428.
                   Average memory used (kb):           0.
  
                          Minor page faults:     20629873
                          Major page faults:            0
                 Voluntary context switches:         3668
