SQS-NiFe                                
           1
    10.111630    0.000000    0.000000
    -5.055815    8.756928    0.000000
     0.000000    0.000000   21.266430
   Fe   Ni   O 
  48  16   4
Direct configuration=     1
   0.00194700  0.99920000  0.09682900
   0.00069253  0.00291569  0.38101974
   0.49880600  0.99647600  0.09614500
   0.50358086  0.00090384  0.37905765
   0.74316000  0.99645900  0.09443100
   0.74935475  0.99567030  0.38775900
   0.24913600  0.25322600  0.09681000
   0.24936273  0.24710455  0.38493002
   0.08873200  0.16149400  0.19059200
   0.32962600  0.16609800  0.19506300
   0.16176089  0.07539063  0.29084292
   0.58333000  0.16550300  0.19443700
   0.41421223  0.08158453  0.28876211
   0.82651500  0.16651000  0.19326300
   0.66738038  0.08194925  0.28812855
   0.00320800  0.51090900  0.09451300
   0.00018984  0.50347075  0.37385839
   0.25586900  0.50577700  0.09734600
   0.24938338  0.49534584  0.38344021
   0.49960200  0.50304900  0.09754100
   0.49516983  0.49470777  0.37650213
   0.33859900  0.41583700  0.18939300
   0.75679100  0.50804300  0.09630900
   0.74511302  0.49099022  0.38670586
   0.58633600  0.42229400  0.19423600
   0.41608751  0.33568683  0.28651598
   0.82677100  0.41676200  0.19199500
   0.66810522  0.33188639  0.28971520
   0.99180600  0.74702800  0.09571300
   0.00256483  0.75396026  0.38602161
   0.25104600  0.74563900  0.09703600
   0.25140400  0.75401680  0.38560774
   0.08604600  0.67086900  0.19220200
   0.50153700  0.74905700  0.09752900
   0.50635077  0.75203548  0.38479593
   0.33005900  0.66135600  0.19018600
   0.16851617  0.58298245  0.28515890
   0.74777500  0.74863100  0.09404500
   0.74975721  0.74893704  0.38130725
   0.58008200  0.66096300  0.19152700
   0.83213700  0.66199500  0.19303500
   0.66512797  0.58512143  0.28564799
   0.90985753  0.58572962  0.28578566
   0.08603600  0.91635500  0.19371200
   0.32743000  0.91932200  0.19293700
   0.16063327  0.82593655  0.29097991
   0.66276929  0.83540506  0.28847027
   0.90631555  0.82604412  0.28757115
   0.24916500  0.99813100  0.09559800
   0.25156730  0.99794930  0.38844018
   0.00129700  0.24974200  0.09658600
   0.00525354  0.25373732  0.38171375
   0.49933100  0.25162700  0.09537300
   0.50222875  0.24941591  0.38532325
   0.74944200  0.25071300  0.09573100
   0.75131406  0.25042253  0.38480740
   0.91753598  0.08296930  0.28658594
   0.08260800  0.41708000  0.19225300
   0.16816991  0.33188005  0.28667660
   0.91537542  0.33184043  0.28519806
   0.41389320  0.58378719  0.28566909
   0.58190700  0.91526900  0.19241300
   0.41384882  0.83025739  0.28627448
   0.83399900  0.91457100  0.19240400
   0.82955352  0.66496202  0.43721351
   0.33175190  0.17311414  0.44022184
   0.33369545  0.66292176  0.43673730
   0.83827174  0.16289084  0.43749138
Direct configuration=     2
   0.00194700  0.99920000  0.09682900
   0.00057145  0.00279854  0.38101941
   0.49880600  0.99647600  0.09614500
   0.50366846  0.00094856  0.37904062
   0.74316000  0.99645900  0.09443100
   0.74928743  0.99552953  0.38767278
   0.24913600  0.25322600  0.09681000
   0.24930458  0.24716958  0.38493520
   0.08873200  0.16149400  0.19059200
   0.32962600  0.16609800  0.19506300
   0.16191999  0.07546522  0.29084686
   0.58333000  0.16550300  0.19443700
   0.41407151  0.08153169  0.28881979
   0.82651500  0.16651000  0.19326300
   0.66732042  0.08194422  0.28813485
   0.00320800  0.51090900  0.09451300
   0.00007916  0.50338867  0.37379617
   0.25586900  0.50577700  0.09734600
   0.24939770  0.49517629  0.38343564
   0.49960200  0.50304900  0.09754100
   0.49525601  0.49487790  0.37647219
   0.33859900  0.41583700  0.18939300
   0.75679100  0.50804300  0.09630900
   0.74506226  0.49101844  0.38663732
   0.58633600  0.42229400  0.19423600
   0.41613466  0.33564366  0.28648311
   0.82677100  0.41676200  0.19199500
   0.66819044  0.33187136  0.28970472
   0.99180600  0.74702800  0.09571300
   0.00256929  0.75403444  0.38597481
   0.25104600  0.74563900  0.09703600
   0.25138464  0.75410573  0.38560152
   0.08604600  0.67086900  0.19220200
   0.50153700  0.74905700  0.09752900
   0.50641264  0.75202949  0.38474539
   0.33005900  0.66135600  0.19018600
   0.16852968  0.58290745  0.28519633
   0.74777500  0.74863100  0.09404500
   0.74975303  0.74886019  0.38135015
   0.58008200  0.66096300  0.19152700
   0.83213700  0.66199500  0.19303500
   0.66527190  0.58523902  0.28565261
   0.90998478  0.58573125  0.28577466
   0.08603600  0.91635500  0.19371200
   0.32743000  0.91932200  0.19293700
   0.16068853  0.82602454  0.29095916
   0.66276400  0.83530487  0.28846853
   0.90641889  0.82607872  0.28758973
   0.24916500  0.99813100  0.09559800
   0.25157266  0.99794536  0.38845193
   0.00129700  0.24974200  0.09658600
   0.00513903  0.25362750  0.38182518
   0.49933100  0.25162700  0.09537300
   0.50233752  0.24944124  0.38536813
   0.74944200  0.25071300  0.09573100
   0.75134274  0.25040743  0.38484425
   0.91745006  0.08304213  0.28657806
   0.08260800  0.41708000  0.19225300
   0.16814711  0.33197598  0.28657796
   0.91528972  0.33184399  0.28518879
   0.41391799  0.58385252  0.28568832
   0.58190700  0.91526900  0.19241300
   0.41378285  0.83021570  0.28624379
   0.83399900  0.91457100  0.19240400
   0.82968062  0.66507873  0.43718727
   0.33178897  0.17303401  0.44016968
   0.33365724  0.66309547  0.43666761
   0.83831119  0.16295244  0.43736356
