       N       E                     dE             d eps       ncg     rms          rms(c)
DAV:   1     0.462143251796E+04    0.46214E+04   -0.26735E+05  8280   0.162E+03
DAV:   2     0.823177982634E+02   -0.45391E+04   -0.42737E+04  8280   0.359E+02
DAV:   3    -0.354184270383E+03   -0.43650E+03   -0.37591E+03  8487   0.150E+02
DAV:   4    -0.372483310542E+03   -0.18299E+02   -0.17940E+02  8802   0.338E+01
DAV:   5    -0.372839308235E+03   -0.35600E+00   -0.35586E+00  9828   0.364E+00    0.324E-01
RMM:   6    -0.372849645829E+03   -0.10338E-01   -0.17285E-01  8536   0.989E-01    0.114E+00
RMM:   7    -0.372853865951E+03   -0.42201E-02   -0.45073E-02 12009   0.334E-01    0.119E+00
RMM:   8    -0.372853764126E+03    0.10183E-03   -0.42756E-03  8852   0.140E-01    0.114E+00
RMM:   9    -0.372850632864E+03    0.31313E-02   -0.23806E-03  8761   0.116E-01    0.355E-01
RMM:  10    -0.372850437205E+03    0.19566E-03   -0.80352E-04  8742   0.675E-02    0.202E-01
RMM:  11    -0.372850525487E+03   -0.88282E-04   -0.30975E-04  8808   0.413E-02    0.207E-01
RMM:  12    -0.372850381095E+03    0.14439E-03   -0.13189E-04  8755   0.285E-02    0.934E-02
RMM:  13    -0.372850387443E+03   -0.63486E-05   -0.29938E-05  8984   0.113E-02    0.765E-02
RMM:  14    -0.372850411402E+03   -0.23959E-04   -0.11309E-05  8565   0.709E-03    0.712E-02
RMM:  15    -0.372850421943E+03   -0.10542E-04   -0.54088E-06  7714   0.536E-03    0.584E-02
RMM:  16    -0.372850443180E+03   -0.21237E-04   -0.35592E-06  6339   0.470E-03    0.534E-02
RMM:  17    -0.372850470966E+03   -0.27786E-04   -0.46187E-06  7623   0.546E-03    0.382E-02
RMM:  18    -0.372850478077E+03   -0.71113E-05   -0.17469E-06  5145   0.342E-03    0.350E-02
RMM:  19    -0.372850497106E+03   -0.19029E-04   -0.24574E-06  5510   0.406E-03    0.249E-02
RMM:  20    -0.372850498936E+03   -0.18298E-05   -0.11140E-06  5045   0.292E-03    0.200E-02
RMM:  21    -0.372850503619E+03   -0.46828E-05   -0.78783E-07  4996   0.232E-03    0.163E-02
RMM:  22    -0.372850507826E+03   -0.42076E-05   -0.70353E-07  5004   0.221E-03    0.103E-02
RMM:  23    -0.372850509027E+03   -0.12004E-05   -0.30404E-07  4916   0.146E-03    0.880E-03
RMM:  24    -0.372850509880E+03   -0.85308E-06   -0.27867E-07  4892   0.134E-03
   1 F= -.38918168E+03 E0= -.38918168E+03  d E =0.000000E+00  mag=    73.8982
