 vasp.5.4.4.18Apr17-6-g9f103f2a35 (build Sep 06 2021 19:49:22) complex          
  
 executed on             LinuxIFC date 2022.01.05  06:48:32
 running on   72 total cores
 distrk:  each k-point on   72 cores,    1 groups
 distr:  one band on NCORES_PER_BAND=  24 cores,    3 groups


--------------------------------------------------------------------------------------------------------


 INCAR:
 POTCAR:    PAW_PBE Ni 02Aug2007                  
 POTCAR:    PAW_PBE Fe 06Sep2000                  

 ----------------------------------------------------------------------------- 
|                                                                             |
|           W    W    AA    RRRRR   N    N  II  N    N   GGGG   !!!           |
|           W    W   A  A   R    R  NN   N  II  NN   N  G    G  !!!           |
|           W    W  A    A  R    R  N N  N  II  N N  N  G       !!!           |
|           W WW W  AAAAAA  RRRRR   N  N N  II  N  N N  G  GGG   !            |
|           WW  WW  A    A  R   R   N   NN  II  N   NN  G    G                |
|           W    W  A    A  R    R  N    N  II  N    N   GGGG   !!!           |
|                                                                             |
|      For optimal performance we recommend to set                            |
|        NCORE= 4 - approx SQRT( number of cores)                             |
|      NCORE specifies how many cores store one orbital (NPAR=cpu/NCORE).     |
|      This setting can  greatly improve the performance of VASP for DFT.     |
|      The default,   NCORE=1            might be grossly inefficient         |
|      on modern multi-core architectures or massively parallel machines.     |
|      Do your own testing !!!!                                               |
|      Unfortunately you need to use the default for GW and RPA calculations. |
|      (for HF NCORE is supported but not extensively tested yet)             |
|                                                                             |
 ----------------------------------------------------------------------------- 

 POTCAR:    PAW_PBE Ni 02Aug2007                  
   VRHFIN =Ni:                                                                  
   LEXCH  = PE                                                                  
   EATOM  =  1077.6739 eV,   79.2068 Ry                                         
                                                                                
   TITEL  = PAW_PBE Ni 02Aug2007                                                
   LULTRA =        F    use ultrasoft PP ?                                      
   IUNSCR =        1    unscreen: 0-lin 1-nonlin 2-no                           
   RPACOR =    2.000    partial core radius                                     
   POMASS =   58.690; ZVAL   =   10.000    mass and valenz                      
   RCORE  =    2.300    outmost cutoff radius                                   
   RWIGS  =    2.430; RWIGS  =    1.286    wigner-seitz radius (au A)           
   ENMAX  =  269.532; ENMIN  =  202.149 eV                                      
   RCLOC  =    1.201    cutoff for local pot                                    
   LCOR   =        T    correct aug charges                                     
   LPAW   =        T    paw PP                                                  
   EAUG   =  544.565                                                            
   DEXC   =    0.000                                                            
   RMAX   =    2.357    core radius for proj-oper                               
   RAUG   =    1.300    factor for augmentation sphere                          
   RDEP   =    2.390    radius for radial grids                                 
   RDEPT  =    1.838    core radius for aug-charge                              
                                                                                
   Atomic configuration                                                         
    9 entries                                                                   
     n  l   j            E        occ.                                          
     1  0  0.50     -8206.4253   2.0000                                         
     2  0  0.50      -976.1748   2.0000                                         
     2  1  1.50      -839.0571   6.0000                                         
     3  0  0.50      -105.9991   2.0000                                         
     3  1  1.50       -66.4603   6.0000                                         
     3  2  2.50        -4.6458   9.0000                                         
     4  0  0.50        -4.4926   1.0000                                         
     4  1  1.50        -4.0817   0.0000                                         
     4  3  2.50        -1.3606   0.0000                                         
   Description                                                                  
     l       E           TYP  RCUT    TYP  RCUT                                 
     2     -4.6457903     23  2.300                                             
     2     -6.0063729     23  2.300                                             
     0     -4.4925590     23  2.300                                             
     0      5.0102601     23  2.300                                             
     1     -2.7211652     23  2.300                                             
     1     16.5183231     23  2.300                                             
  local pseudopotential read in
  partial core-charges read in
  partial kinetic energy density read in
  atomic valenz-charges read in
  non local Contribution for L=           2  read in
    real space projection operators read in
  non local Contribution for L=           2  read in
    real space projection operators read in
  non local Contribution for L=           0  read in
    real space projection operators read in
  non local Contribution for L=           0  read in
    real space projection operators read in
  non local Contribution for L=           1  read in
    real space projection operators read in
  non local Contribution for L=           1  read in
    real space projection operators read in
    PAW grid and wavefunctions read in
 
   number of l-projection  operators is LMAX  =           6
   number of lm-projection operators is LMMAX =          18
 
 POTCAR:    PAW_PBE Fe 06Sep2000                  
   VRHFIN =Fe:  d7 s1                                                           
   LEXCH  = PE                                                                  
   EATOM  =   594.3153 eV,   43.6809 Ry                                         
                                                                                
   TITEL  = PAW_PBE Fe 06Sep2000                                                
   LULTRA =        F    use ultrasoft PP ?                                      
   IUNSCR =        1    unscreen: 0-lin 1-nonlin 2-no                           
   RPACOR =    2.000    partial core radius                                     
   POMASS =   55.847; ZVAL   =    8.000    mass and valenz                      
   RCORE  =    2.300    outmost cutoff radius                                   
   RWIGS  =    2.460; RWIGS  =    1.302    wigner-seitz radius (au A)           
   ENMAX  =  267.882; ENMIN  =  200.911 eV                                      
   RCLOC  =    1.701    cutoff for local pot                                    
   LCOR   =        T    correct aug charges                                     
   LPAW   =        T    paw PP                                                  
   EAUG   =  511.368                                                            
   DEXC   =    0.000                                                            
   RMAX   =    2.356    core radius for proj-oper                               
   RAUG   =    1.300    factor for augmentation sphere                          
   RDEP   =    2.442    radius for radial grids                                 
   RDEPT  =    1.890    core radius for aug-charge                              
                                                                                
   Atomic configuration                                                         
    9 entries                                                                   
     n  l   j            E        occ.                                          
     1  0  0.50     -6993.8440   2.0000                                         
     2  0  0.50      -814.6047   2.0000                                         
     2  1  1.50      -693.3689   6.0000                                         
     3  0  0.50       -89.4732   2.0000                                         
     3  1  1.50       -55.6373   6.0000                                         
     3  2  2.50        -3.8151   7.0000                                         
     4  0  0.50        -4.2551   1.0000                                         
     4  1  1.50        -3.4015   0.0000                                         
     4  3  2.50        -1.3606   0.0000                                         
   Description                                                                  
     l       E           TYP  RCUT    TYP  RCUT                                 
     2     -3.8151135     23  2.300                                             
     2     -5.1756961     23  2.300                                             
     0     -4.2550963     23  2.300                                             
     0      7.2035603     23  2.300                                             
     1     -2.7211652     23  2.300                                             
     1     18.4316424     23  2.300                                             
  local pseudopotential read in
  partial core-charges read in
  partial kinetic energy density read in
  atomic valenz-charges read in
  non local Contribution for L=           2  read in
    real space projection operators read in
  non local Contribution for L=           2  read in
    real space projection operators read in
  non local Contribution for L=           0  read in
    real space projection operators read in
  non local Contribution for L=           0  read in
    real space projection operators read in
  non local Contribution for L=           1  read in
    real space projection operators read in
  non local Contribution for L=           1  read in
    real space projection operators read in
    PAW grid and wavefunctions read in
 
   number of l-projection  operators is LMAX  =           6
   number of lm-projection operators is LMMAX =          18
 
 Optimization of the real space projectors (new method)

 maximal supplied QI-value         = 16.25
 optimisation between [QCUT,QGAM] = [ 11.54, 23.24] = [ 37.28,151.24] Ry 
 Optimized for a Real-space Cutoff    1.45 Angstroem

   l    n(q)    QCUT    max X(q) W(low)/X(q) W(high)/X(q)  e(spline) 
   2      9    11.539    60.317    0.19E-03    0.47E-04    0.16E-06
   2      9    11.539    55.921    0.19E-03    0.48E-04    0.16E-06
   0     10    11.539    51.690    0.80E-04    0.50E-04    0.24E-06
   0     10    11.539    30.015    0.73E-04    0.45E-04    0.22E-06
   1     10    11.539    18.849    0.87E-04    0.16E-03    0.71E-07
   1     10    11.539    14.624    0.73E-04    0.13E-03    0.64E-07
 Optimization of the real space projectors (new method)

 maximal supplied QI-value         = 16.25
 optimisation between [QCUT,QGAM] = [ 11.54, 23.24] = [ 37.28,151.24] Ry 
 Optimized for a Real-space Cutoff    1.53 Angstroem

   l    n(q)    QCUT    max X(q) W(low)/X(q) W(high)/X(q)  e(spline) 
   2     10    11.539    80.901    0.11E-03    0.14E-03    0.21E-06
   2     10    11.539    75.754    0.11E-03    0.14E-03    0.22E-06
   0     11    11.539    58.752    0.52E-04    0.18E-04    0.33E-06
   0     11    11.539    30.679    0.44E-04    0.16E-04    0.30E-06
   1     10    11.539    17.977    0.53E-04    0.29E-04    0.13E-06
   1     10    11.539    13.559    0.44E-04    0.25E-04    0.11E-06
  PAW_PBE Ni 02Aug2007                  :
 energy of atom  1       EATOM=-1077.6739
 kinetic energy error for atom=    0.0030 (will be added to EATOM!!)
  PAW_PBE Fe 06Sep2000                  :
 energy of atom  2       EATOM= -594.3153
 kinetic energy error for atom=    0.0026 (will be added to EATOM!!)
 
 
 POSCAR: POSCAR                                  
  positions in direct lattice
  velocities in cartesian coordinates
 exchange correlation table for  LEXCH =        8
   RHO(1)=    0.500       N(1)  =     2000
   RHO(2)=  100.500       N(2)  =     4000
 


--------------------------------------------------------------------------------------------------------


 ion  position               nearest neighbor table
   1  0.001  0.001  0.288-  41 2.47  50 2.47   8 2.48  18 2.48  47 2.49  49 2.49   5 2.50  26 2.50
                             2 2.51  33 2.51   4 2.52   6 2.52
   2  0.251  0.002  0.287-  51 2.47  11 2.48  44 2.49  41 2.49  43 2.49   9 2.50  50 2.50   1 2.51
                             3 2.51  26 2.51   6 2.51  27 2.52
   3  0.500  0.999  0.289-  43 2.46  14 2.47  64 2.48  51 2.49  17 2.50   4 2.50   2 2.51  30 2.51
                            27 2.51  45 2.51   9 2.52  12 2.52
   4  0.749  0.999  0.288-  64 2.47  16 2.47  47 2.48  48 2.50  17 2.50  30 2.50   3 2.50  33 2.51
                            18 2.51   5 2.51   1 2.52  12 2.52
   5  0.000  0.250  0.289-  60 2.45  21 2.46  16 2.47   8 2.47   1 2.50  22 2.50  52 2.51   6 2.51
                            18 2.51  12 2.51  19 2.51   4 2.51
   6  0.251  0.252  0.289-  11 2.46   8 2.48  52 2.49  56 2.50   9 2.51   5 2.51   2 2.51  22 2.51
                            55 2.52   1 2.52  53 2.53  50 2.55
   7  0.083  0.166  0.096-  50 2.47  15 2.50  40 2.50  18 2.50  54 2.50  10 2.50  46 2.51  22 2.51
                            20 2.51
   8  0.082  0.166  0.383-   5 2.47  16 2.47   1 2.48   6 2.48  21 2.49  47 2.50  41 2.50  55 2.52
                            11 2.52
   9  0.500  0.251  0.288-  59 2.46  11 2.47  56 2.48  25 2.48  14 2.49   2 2.50  53 2.50  12 2.50
                             6 2.51   3 2.52  23 2.52  51 2.54
  10  0.333  0.167  0.096-  13 2.50  56 2.50   7 2.50  24 2.51  40 2.51  42 2.51  50 2.51  54 2.52
                            51 2.52
  11  0.333  0.166  0.382-   6 2.46   9 2.47   2 2.48  14 2.49  25 2.49  41 2.50  43 2.50  55 2.52
                             8 2.52
  12  0.751  0.252  0.290-  58 2.45  16 2.47  14 2.47  59 2.48  60 2.49  23 2.50   9 2.50  19 2.51
                             5 2.51   4 2.52   3 2.52  17 2.53
  13  0.582  0.167  0.097-  51 2.48  24 2.49  42 2.50  17 2.50  10 2.50  63 2.52  59 2.52  57 2.52
                            15 2.53
  14  0.581  0.164  0.384-  12 2.47   3 2.47   9 2.49  11 2.49  43 2.49  25 2.50  64 2.50  58 2.53
                            16 2.54
  15  0.834  0.167  0.096-  20 2.49  60 2.49  18 2.49  46 2.49   7 2.50  17 2.51  63 2.51  57 2.53
                            13 2.53
  16  0.835  0.165  0.383-   5 2.47  12 2.47   4 2.47   8 2.47  47 2.49  21 2.50  64 2.51  58 2.52
                            14 2.54
  17  0.666  0.083  0.193-  60 2.47  51 2.48  59 2.49   3 2.50   4 2.50  13 2.50  45 2.50  48 2.51
                            15 2.51  63 2.51  18 2.52  12 2.53
  18  0.916  0.082  0.192-  50 2.46  60 2.47  46 2.48   1 2.48  15 2.49  49 2.50  48 2.50   7 2.50
                             4 2.51   5 2.51  22 2.51  17 2.52
  19  0.001  0.501  0.287-  29 2.48  60 2.48  27 2.49  52 2.50  39 2.50  21 2.51  12 2.51  23 2.51
                             5 2.51  26 2.51  58 2.52  61 2.53
  20  0.081  0.416  0.096-  61 2.48  15 2.49  57 2.49  22 2.50  54 2.51  28 2.51   7 2.51  31 2.52
                            60 2.53
  21  0.083  0.415  0.383-   5 2.46  52 2.47   8 2.49  16 2.50  55 2.50  32 2.51  19 2.51  58 2.51
                            29 2.52
  22  0.166  0.334  0.192-  60 2.49  54 2.49  36 2.50  20 2.50   5 2.50  50 2.50  52 2.50   7 2.51
                             6 2.51  18 2.51  56 2.52  61 2.54
  23  0.752  0.502  0.288-  38 2.47  59 2.47  53 2.48  33 2.50  58 2.50  12 2.50  26 2.50  19 2.51
                            39 2.51   9 2.52  25 2.52  62 2.54
  24  0.584  0.416  0.096-  13 2.49  62 2.49  57 2.50  10 2.51  56 2.51  34 2.51  37 2.52  54 2.53
                            59 2.54
  25  0.582  0.415  0.384-  53 2.45   9 2.48  11 2.49  14 2.50  55 2.51  58 2.51  35 2.51  23 2.52
                            38 2.53
  26  0.001  0.752  0.288-  41 2.45  29 2.46  38 2.47  49 2.50  27 2.50  23 2.50   1 2.50  33 2.51
                             2 2.51  44 2.51  19 2.51  39 2.53
  27  0.249  0.749  0.287-  32 2.47  29 2.47  43 2.48  45 2.49  19 2.49  61 2.50  26 2.50  52 2.50
                            44 2.50   3 2.51  30 2.51   2 2.52
  28  0.084  0.668  0.095-  61 2.47  39 2.50  40 2.50  37 2.50  31 2.50  42 2.50  57 2.51  44 2.51
                            20 2.51
  29  0.083  0.666  0.382-  26 2.46  27 2.47  19 2.48  32 2.49  43 2.50  38 2.50  58 2.51  41 2.52
                            21 2.52
  30  0.500  0.750  0.288-  32 2.47  64 2.48  35 2.48  48 2.49  45 2.50   4 2.50  53 2.50   3 2.51
                            52 2.51  33 2.51  27 2.51  36 2.53
  31  0.333  0.667  0.094-  61 2.47  42 2.50  54 2.50  28 2.50  63 2.50  34 2.51  36 2.52  45 2.52
                            20 2.52
  32  0.331  0.667  0.382-  52 2.45  27 2.47  30 2.47  29 2.49  43 2.49  21 2.51  55 2.52  64 2.52
                            35 2.55
  33  0.751  0.750  0.288-  53 2.47  38 2.47  35 2.48  49 2.49  47 2.49  48 2.49  23 2.50  62 2.50
                            26 2.51   4 2.51  30 2.51   1 2.51
  34  0.583  0.667  0.095-  62 2.47  36 2.50  63 2.50  46 2.51  31 2.51  37 2.51  54 2.51  24 2.51
                            48 2.53
  35  0.586  0.667  0.383-  53 2.42  33 2.48  30 2.48  38 2.49  47 2.49  64 2.51  25 2.51  55 2.52
                            32 2.55
  36  0.417  0.582  0.191-  54 2.47  22 2.50  34 2.50  62 2.50  45 2.51  56 2.51  48 2.51  61 2.51
                            31 2.52  30 2.53  52 2.53  53 2.57
  37  0.834  0.668  0.095-  62 2.47  40 2.50  57 2.50  39 2.50  28 2.50  46 2.51  49 2.51  34 2.51
                            24 2.52
  38  0.834  0.667  0.382-  23 2.47  26 2.47  33 2.47  35 2.49  29 2.50  41 2.50  47 2.51  58 2.51
                            25 2.53
  39  0.917  0.583  0.191-  57 2.49  28 2.50  19 2.50  37 2.50  61 2.50  49 2.51  23 2.51  59 2.51
                            62 2.51  44 2.51  26 2.53  60 2.56
  40  0.083  0.917  0.095-  50 2.49  44 2.49  37 2.50  28 2.50   7 2.50  10 2.51  49 2.51  46 2.51
                            42 2.52
  41  0.083  0.917  0.382-  26 2.45   1 2.47   2 2.49   8 2.50  47 2.50  11 2.50  38 2.50  43 2.51
                            29 2.52
  42  0.334  0.917  0.095-  51 2.48  13 2.50  63 2.50  31 2.50  44 2.50  28 2.50  10 2.51  45 2.51
                            40 2.52
  43  0.333  0.916  0.382-   3 2.46  27 2.48  14 2.49  32 2.49   2 2.49  29 2.50  11 2.50  41 2.51
                            64 2.52
  44  0.167  0.835  0.191-  51 2.47   2 2.49  61 2.49  49 2.49  40 2.49  42 2.50  50 2.50  27 2.50
                            26 2.51  28 2.51  39 2.51  45 2.53
  45  0.417  0.832  0.192-  61 2.47  51 2.47  27 2.49  48 2.49  30 2.50  63 2.50  17 2.50  36 2.51
                             3 2.51  42 2.51  31 2.52  44 2.53
  46  0.832  0.917  0.096-  18 2.48  48 2.49  15 2.49  63 2.50  49 2.50   7 2.51  34 2.51  37 2.51
                            40 2.51
  47  0.833  0.916  0.383-   4 2.48  16 2.49  33 2.49  35 2.49   1 2.49   8 2.50  64 2.50  41 2.50
                            38 2.51
  48  0.666  0.833  0.192-  62 2.47  33 2.49  45 2.49  46 2.49  30 2.49   4 2.50  18 2.50  63 2.50
                            17 2.51  36 2.51  49 2.52  34 2.53
  49  0.917  0.833  0.192-  62 2.46  50 2.47  33 2.49  44 2.49   1 2.49  26 2.50  18 2.50  46 2.50
                            39 2.51  40 2.51  37 2.51  48 2.52
  50  0.162  0.082  0.191-  18 2.46   7 2.47  49 2.47   1 2.47  40 2.49  44 2.50  22 2.50   2 2.50
                            10 2.51  56 2.53   6 2.55  51 2.57
  51  0.416  0.078  0.192-  44 2.47  45 2.47   2 2.47  42 2.48  17 2.48  13 2.48   3 2.49  10 2.52
                            59 2.54   9 2.54  56 2.54  50 2.57
  52  0.250  0.500  0.289-  32 2.45  21 2.47   6 2.49  19 2.50  27 2.50  22 2.50   5 2.51  30 2.51
                            36 2.53  55 2.53  53 2.55  61 2.56
  53  0.505  0.503  0.291-  35 2.42  25 2.45  33 2.47  23 2.48  30 2.50   9 2.50  55 2.52   6 2.53
                            52 2.55  56 2.56  62 2.57  36 2.57
  54  0.331  0.417  0.096-  36 2.47  22 2.49  31 2.50   7 2.50  20 2.51  34 2.51  10 2.52  56 2.53
                            24 2.53
  55  0.333  0.417  0.387-  21 2.50  25 2.51   6 2.52  11 2.52  32 2.52   8 2.52  35 2.52  53 2.52
                            52 2.53
  56  0.416  0.331  0.193-   9 2.48   6 2.50  10 2.50  24 2.51  36 2.51  59 2.51  22 2.52  50 2.53
                            54 2.53  51 2.54  53 2.56  62 2.56
  57  0.834  0.418  0.094-  20 2.49  39 2.49  24 2.50  37 2.50  28 2.51  13 2.52  15 2.53  59 2.56
                            60 2.59
  58  0.833  0.416  0.384-  12 2.45  23 2.50  29 2.51  21 2.51  25 2.51  38 2.51  19 2.52  16 2.52
                            14 2.53
  59  0.667  0.332  0.194-   9 2.46  23 2.47  12 2.48  17 2.49  60 2.51  39 2.51  56 2.51  13 2.52
                            51 2.54  24 2.54  57 2.56  62 2.57
  60  0.914  0.327  0.194-   5 2.45  18 2.47  17 2.47  19 2.48  12 2.49  22 2.49  15 2.49  59 2.51
                            20 2.53  39 2.56  57 2.59  61 2.59
  61  0.169  0.588  0.189-  45 2.47  28 2.47  31 2.47  20 2.48  44 2.49  27 2.50  39 2.50  36 2.51
                            19 2.53  22 2.54  52 2.56  60 2.59
  62  0.670  0.589  0.190-  49 2.46  48 2.47  37 2.47  34 2.47  24 2.49  33 2.50  36 2.50  39 2.51
                            23 2.54  56 2.56  59 2.57  53 2.57
  63  0.583  0.917  0.096-  46 2.50  45 2.50  42 2.50  48 2.50  31 2.50  34 2.50  17 2.51  15 2.51
                            13 2.52
  64  0.584  0.916  0.383-   4 2.47   3 2.48  30 2.48  47 2.50  14 2.50  16 2.51  35 2.51  43 2.52
                            32 2.52
 

IMPORTANT INFORMATION: All symmetrisations will be switched off!
NOSYMM: (Re-)initialisation of all symmetry stuff for point group C_1.

 
 

Automatic generation of k-mesh.
 generate k-points for:    3    3    1
Space group operators:
 irot       det(A)        alpha          n_x          n_y          n_z        tau_x        tau_y        tau_z
    1     1.000000     0.000000     1.000000     0.000000     0.000000     0.000000     0.000000     0.000000
 
 Subroutine IBZKPT returns following result:
 ===========================================
 
 Found      5 irreducible k-points:
 
 Following reciprocal coordinates:
            Coordinates               Weight
  0.000000  0.000000  0.000000      1.000000
  0.333333  0.000000  0.000000      2.000000
  0.000000  0.333333  0.000000      2.000000
  0.333333  0.333333  0.000000      2.000000
 -0.333333  0.333333  0.000000      2.000000
 
 Following cartesian coordinates:
            Coordinates               Weight
  0.000000  0.000000  0.000000      1.000000
  0.033244  0.019194  0.000000      2.000000
  0.000000  0.038387  0.000000      2.000000
  0.033244  0.057581  0.000000      2.000000
 -0.033244  0.019194  0.000000      2.000000
 
 TETIRR: Found     24 inequivalent tetrahedra from       54


--------------------------------------------------------------------------------------------------------




 Dimension of arrays:
   k-points           NKPTS =      5   k-points in BZ     NKDIM =      5   number of bands    NBANDS=    414
   number of dos      NEDOS =    301   number of ions     NIONS =     64
   non local maximal  LDIM  =      6   non local SUM 2l+1 LMDIM =     18
   total plane-waves  NPLWV = ******
   max r-space proj   IRMAX =   8439   max aug-charges    IRDMAX=  19969
   dimension x,y,z NGX =    80 NGY =   80 NGZ =  160
   dimension x,y,z NGXF=   160 NGYF=  160 NGZF=  320
   support grid    NGXF=   160 NGYF=  160 NGZF=  320
   ions per type =              49  15
   NGX,Y,Z   is equivalent  to a cutoff of  13.26, 13.26, 12.55 a.u.
   NGXF,Y,Z  is equivalent  to a cutoff of  26.53, 26.53, 25.11 a.u.

 SYSTEM =  SQS-NiFe                                
 POSCAR =  POSCAR                                  

 Startparameter for this run:
   NWRITE =      2    write-flag & timer
   PREC   = accura    normal or accurate (medium, high low for compatibility)
   ISTART =      0    job   : 0-new  1-cont  2-samecut
   ICHARG =      1    charge: 1-file 2-atom 10-const
   ISPIN  =      2    spin polarized calculation?
   LNONCOLLINEAR =      F non collinear calculations
   LSORBIT =      F    spin-orbit coupling
   INIWAV =      1    electr: 0-lowe 1-rand  2-diag
   LASPH  =      F    aspherical Exc in radial PAW
   METAGGA=      F    non-selfconsistent MetaGGA calc.

 Electronic Relaxation 1
   ENCUT  =  520.0 eV  38.22 Ry    6.18 a.u.  18.64 18.64 39.40*2*pi/ulx,y,z
   ENINI  =  520.0     initial cutoff
   ENAUG  =  544.6 eV  augmentation charge cutoff
   NELM   =    200;   NELMIN=  2; NELMDL= -5     # of ELM steps 
   EDIFF  = 0.1E-05   stopping-criterion for ELM
   LREAL  =      T    real-space projection
   NLSPLINE    = F    spline interpolate recip. space projectors
   LCOMPAT=      F    compatible to vasp.4.4
   GGA_COMPAT  = T    GGA compatible to vasp.4.4-vasp.4.6
   LMAXPAW     = -100 max onsite density
   LMAXMIX     =    2 max onsite mixed and CHGCAR
   VOSKOWN=      0    Vosko Wilk Nusair interpolation
   ROPT   =   -0.00025  -0.00025
 Ionic relaxation
   EDIFFG = -.2E-01   stopping-criterion for IOM
   NSW    =      0    number of steps for IOM
   NBLOCK =      1;   KBLOCK =      1    inner block; outer block 
   IBRION =     -1    ionic relax: 0-MD 1-quasi-New 2-CG
   NFREE  =      0    steps in history (QN), initial steepest desc. (CG)
   ISIF   =      2    stress and relaxation
   IWAVPR =     10    prediction:  0-non 1-charg 2-wave 3-comb
   ISYM   =      0    0-nonsym 1-usesym 2-fastsym
   LCORR  =      T    Harris-Foulkes like correction to forces

   POTIM  = 0.5000    time-step for ionic-motion
   TEIN   =    0.0    initial temperature
   TEBEG  =    0.0;   TEEND  =   0.0 temperature during run
   SMASS  =  -3.00    Nose mass-parameter (am)
   estimated Nose-frequenzy (Omega)   =  0.10E-29 period in steps =****** mass=  -0.230E-26a.u.
   SCALEE = 1.0000    scale energy and forces
   NPACO  =    256;   APACO  = 16.0  distance and # of slots for P.C.
   PSTRESS=    0.0 pullay stress

  Mass of Ions in am
   POMASS =  58.69 55.85
  Ionic Valenz
   ZVAL   =  10.00  8.00
  Atomic Wigner-Seitz radii
   RWIGS  =  -1.00 -1.00
  virtual crystal weights 
   VCA    =   1.00  1.00
   NELECT =     610.0000    total number of electrons
   NUPDOWN=      -1.0000    fix difference up-down

 DOS related values:
   EMIN   =  10.00;   EMAX   =-10.00  energy-range for DOS
   EFERMI =   0.00
   ISMEAR =    -5;   SIGMA  =   0.20  broadening in eV -4-tet -1-fermi 0-gaus

 Electronic relaxation 2 (details)
   IALGO  =     68    algorithm
   LDIAG  =      T    sub-space diagonalisation (order eigenvalues)
   LSUBROT=      F    optimize rotation matrix (better conditioning)
   TURBO    =      0    0=normal 1=particle mesh
   IRESTART =      0    0=no restart 2=restart with 2 vectors
   NREBOOT  =      0    no. of reboots
   NMIN     =      0    reboot dimension
   EREF     =   0.00    reference energy to select bands
   IMIX   =      4    mixing-type and parameters
     AMIX     =   0.40;   BMIX     =  1.00
     AMIX_MAG =   1.60;   BMIX_MAG =  1.00
     AMIN     =   0.10
     WC   =   100.;   INIMIX=   1;  MIXPRE=   1;  MAXMIX= -45

 Intra band minimization:
   WEIMIN = 0.0000     energy-eigenvalue tresh-hold
   EBREAK =  0.60E-09  absolut break condition
   DEPER  =   0.30     relativ break condition  

   TIME   =   0.40     timestep for ELM

  volume/ion in A,a.u.               =      28.83       194.53
  Fermi-wavevector in a.u.,A,eV,Ry     =   1.132042  2.139249 17.436121  1.281519
  Thomas-Fermi vector in A             =   2.268742
 
 Write flags
   LWAVE        =      F    write WAVECAR
   LDOWNSAMPLE  =      F    k-point downsampling of WAVECAR
   LCHARG       =      F    write CHGCAR
   LVTOT        =      F    write LOCPOT, total local potential
   LVHAR        =      F    write LOCPOT, Hartree potential only
   LELF         =      F    write electronic localiz. function (ELF)
   LORBIT       =     11    0 simple, 1 ext, 2 COOP (PROOUT), +10 PAW based schemes


 Dipole corrections
   LMONO  =      F    monopole corrections only (constant potential shift)
   LDIPOL =      T    correct potential (dipole corrections)
   IDIPOL =      3    1-x, 2-y, 3-z, 4-all directions 
   EPSILON=  1.0000000 bulk dielectric constant

 Exchange correlation treatment:
   GGA     =    --    GGA type
   LEXCH   =     8    internal setting for exchange type
   VOSKOWN=      0    Vosko Wilk Nusair interpolation
   LHFCALC =     F    Hartree Fock is set to
   LHFONE  =     F    Hartree Fock one center treatment
   AEXX    =    0.0000 exact exchange contribution

 Linear response parameters
   LEPSILON=     F    determine dielectric tensor
   LRPA    =     F    only Hartree local field effects (RPA)
   LNABLA  =     F    use nabla operator in PAW spheres
   LVEL    =     F    velocity operator in full k-point grid
   LINTERFAST=   F  fast interpolation
   KINTER  =     0    interpolate to denser k-point grid
   CSHIFT  =0.1000    complex shift for real part using Kramers Kronig
   OMEGAMAX=  -1.0    maximum frequency
   DEG_THRESHOLD= 0.2000000E-02 threshold for treating states as degnerate
   RTIME   =   -0.100 relaxation time in fs
  (WPLASMAI=    0.000 imaginary part of plasma frequency in eV, 0.658/RTIME)
   DFIELD  = 0.0000000 0.0000000 0.0000000 field for delta impulse in time
 
 Orbital magnetization related:
   ORBITALMAG=     F  switch on orbital magnetization
   LCHIMAG   =     F  perturbation theory with respect to B field
   DQ        =  0.001000  dq finite difference perturbation B field
   LLRAUG    =     F  two centre corrections for induced B field



--------------------------------------------------------------------------------------------------------


 Static calculation
 charge density and potential will be updated during run
 spin polarized calculation
 RMM-DIIS sequential band-by-band and
  variant of blocked Davidson during initial phase
 perform sub-space diagonalisation
    before iterative eigenvector-optimisation
 modified Broyden-mixing scheme, WC =      100.0
 initial mixing is a Kerker type mixing with AMIX =  0.4000 and BMIX =      1.0000
 Hartree-type preconditioning will be used
 using additional bands          109
 real space projection scheme for non local part
 use partial core corrections
 calculate Harris-corrections to forces 
   (improved forces if not selfconsistent)
 use gradient corrections 
 use of overlap-Matrix (Vanderbilt PP)
 Fermi weights with tetrahedron method with Bloechl corrections


--------------------------------------------------------------------------------------------------------


  energy-cutoff  :      520.00
  volume of cell :     1844.87
      direct lattice vectors                 reciprocal lattice vectors
    10.026770000  0.000000000  0.000000000     0.099733015  0.057580883  0.000000000
    -5.013385000  8.683437540  0.000000000     0.000000000  0.115161766  0.000000000
     0.000000000  0.000000000 21.189179560     0.000000000  0.000000000  0.047193899

  length of vectors
    10.026770000 10.026770002 21.189179560     0.115161766  0.115161766  0.047193899


 
 k-points in units of 2pi/SCALE and weight: read from INCAR                         
   0.00000000  0.00000000  0.00000000       0.111
   0.03324434  0.01919363  0.00000000       0.222
   0.00000000  0.03838726  0.00000000       0.222
   0.03324434  0.05758088  0.00000000       0.222
  -0.03324434  0.01919363  0.00000000       0.222
 
 k-points in reciprocal lattice and weights: read from INCAR                         
   0.00000000  0.00000000  0.00000000       0.111
   0.33333333  0.00000000  0.00000000       0.222
   0.00000000  0.33333333  0.00000000       0.222
   0.33333333  0.33333333  0.00000000       0.222
  -0.33333333  0.33333333  0.00000000       0.222
 
 position of ions in fractional coordinates (direct lattice) 
   0.00072815  0.00110125  0.28770147
   0.25088737  0.00172871  0.28686513
   0.49957130  0.99942970  0.28869328
   0.74881921  0.99936863  0.28847241
   0.00000202  0.24964383  0.28858645
   0.25146814  0.25248466  0.28909481
   0.08288200  0.16633200  0.09567643
   0.08181352  0.16565754  0.38326043
   0.50045141  0.25078939  0.28829107
   0.33293900  0.16685800  0.09574221
   0.33338363  0.16601675  0.38246619
   0.75054107  0.25158483  0.29021856
   0.58230700  0.16720100  0.09670311
   0.58066631  0.16433569  0.38372142
   0.83403200  0.16672400  0.09645071
   0.83491639  0.16524186  0.38334221
   0.66558100  0.08305500  0.19258252
   0.91639700  0.08203100  0.19204933
   0.00119720  0.50071651  0.28685804
   0.08092200  0.41609700  0.09594766
   0.08320722  0.41485200  0.38304061
   0.16611800  0.33395200  0.19207541
   0.75171707  0.50175752  0.28778736
   0.58357300  0.41617200  0.09593346
   0.58221613  0.41459128  0.38432912
   0.00125454  0.75154366  0.28831387
   0.24933650  0.74915958  0.28711970
   0.08375800  0.66810400  0.09479725
   0.08314218  0.66642538  0.38191469
   0.50010953  0.74960967  0.28836950
   0.33297400  0.66727700  0.09438780
   0.33111036  0.66661682  0.38221988
   0.75078076  0.75024851  0.28763850
   0.58298100  0.66668200  0.09450950
   0.58569293  0.66704488  0.38321334
   0.41661000  0.58200200  0.19081663
   0.83395900  0.66770600  0.09497894
   0.83360493  0.66684022  0.38243035
   0.91708300  0.58323900  0.19079431
   0.08291700  0.91685800  0.09518613
   0.08288266  0.91713884  0.38219339
   0.33420600  0.91705400  0.09538173
   0.33256195  0.91584539  0.38243669
   0.16670900  0.83524200  0.19136546
   0.41703500  0.83214900  0.19205861
   0.83233100  0.91715000  0.09633654
   0.83316701  0.91645368  0.38321989
   0.66623900  0.83337000  0.19234085
   0.91705900  0.83319500  0.19216177
   0.16168500  0.08211500  0.19130606
   0.41607500  0.07807100  0.19177260
   0.24963826  0.49980291  0.28871465
   0.50520421  0.50268721  0.29087731
   0.33134100  0.41714300  0.09577612
   0.33316698  0.41663164  0.38691571
   0.41638400  0.33144300  0.19252196
   0.83354800  0.41839000  0.09448777
   0.83340103  0.41599012  0.38391818
   0.66732400  0.33240600  0.19435479
   0.91446400  0.32695500  0.19396504
   0.16914200  0.58833400  0.18947786
   0.66961600  0.58928900  0.18986007
   0.58310400  0.91651500  0.09583494
   0.58399433  0.91624227  0.38334752
 
 position of ions in cartesian coordinates  (Angst):
   0.00178003  0.00956267  6.09615801
   2.50692323  0.01501118  6.07843668
  -0.00143936  8.67848534  6.11717372
   2.49801826  8.67795508  6.11249377
  -1.25154034  2.16776658  6.11491017
   1.25561043  2.19243478  6.12568187
  -0.00284760  1.44433353  2.02730505
  -0.01017966  1.43847692  8.12097411
   3.76060743  2.17771401  6.10865118
   2.50177938  1.44890102  2.02869888
   2.51045509  1.44159611  8.10414480
   6.26421108  2.18462119  6.14949326
   5.00041537  1.45187944  2.04905956
   4.99832945  1.42699871  8.13074201
   7.52679544  1.44773744  2.04371141
   7.54309355  1.43486737  8.12270700
   6.25724091  0.72120290  4.08066560
   8.77724896  0.71231106  4.06936774
  -2.49828061  4.34794056  6.07828650
  -1.27466818  3.61315231  2.03305220
  -1.24551318  3.60234145  8.11631635
  -0.00860297  2.89985133  4.06992035
   5.02179056  4.35698006  6.09797802
   3.76492179  3.61380357  2.03275131
   3.75924153  3.60007753  8.14361866
  -3.75519871  6.52598245  6.10913442
  -1.25578566  6.50528046  6.08383098
  -2.50964037  5.80143935  2.00867595
  -2.50739948  5.78686315  8.09245890
   1.25640137  6.50918874  6.11031311
  -0.00666279  5.79425815  2.00000004
  -0.02203931  5.78852550  8.09892574
   3.76662141  6.51473609  6.09482387
   2.50308286  5.78909151  2.00257877
   2.52845551  5.79224258  8.11997628
   1.25945255  5.05377802  4.04324784
   5.01444784  5.79798335  2.01252581
   5.01523812  5.79046544  8.10338536
   6.27137866  5.06451943  4.04277489
  -3.76517246  7.96147918  2.01691600
  -3.76692473  7.96391780  8.09836432
  -1.24653807  7.96318113  2.02106060
  -1.25696339  7.95268626  8.10351960
  -2.51583691  7.25277174  4.05487709
   0.00963071  7.22591387  4.06956437
   3.74756545  7.96401474  2.04129224
   3.75943885  7.95796830  8.12011505
   2.50222056  7.23651634  4.07554481
   5.01801235  7.23499674  4.07175025
   1.20950420  0.71304047  4.05361846
   3.78048835  0.67792465  4.06350406
  -0.00263900  4.34000733  6.11762649
   2.54540194  4.36505298  6.16345148
   1.23098154  3.62223519  2.02941740
   1.25185391  3.61779484  8.19842649
   2.51333524  2.87806459  4.07938238
   6.26024393  3.63306343  2.00211832
   6.27080181  3.61222424  8.13491125
   5.02462501  2.88642674  4.11821854
   7.52996891  2.83909332  4.10996006
  -1.25359692  5.10876154  4.01488040
   3.75975299  5.11705422  4.02297911
   1.25180714  7.95850076  2.03066375
   1.26210161  7.95613254  8.12281938
 


--------------------------------------------------------------------------------------------------------


 k-point  1 :   0.0000 0.0000 0.0000  plane waves:   49741
 k-point  2 :   0.3333 0.0000 0.0000  plane waves:   49680
 k-point  3 :   0.0000 0.3333 0.0000  plane waves:   49680
 k-point  4 :   0.3333 0.3333 0.0000  plane waves:   49662
 k-point  5 :  -0.3333 0.3333 0.0000  plane waves:   49680

 maximum and minimum number of plane-waves per node :      2099     2053

 maximum number of plane-waves:     49741
 maximum index in each direction: 
   IXMAX=   18   IYMAX=   18   IZMAX=   39
   IXMIN=  -18   IYMIN=  -18   IZMIN=  -39


 real space projection operators:
  total allocation   :      64108.27 KBytes
  max/ min on nodes  :       3239.02       2344.22


 parallel 3D FFT for wavefunctions:
    minimum data exchange during FFTs selected (reduces bandwidth)
 parallel 3D FFT for charge:
    minimum data exchange during FFTs selected (reduces bandwidth)


 total amount of memory used by VASP MPI-rank0   113099. kBytes
=======================================================================

   base      :      30000. kBytes
   nonlr-proj:      13119. kBytes
   fftplans  :       6402. kBytes
   grid      :      16455. kBytes
   one-center:         93. kBytes
   wavefun   :      47030. kBytes
 
     INWAV:  cpu time    0.0010: real time    0.0001
 Broyden mixing: mesh for mixing (old mesh)
   NGX = 37   NGY = 37   NGZ = 79
  (NGX  =160   NGY  =160   NGZ  =320)
  gives a total of 108151 points

 initial charge density was supplied:
 number of electron     610.0000107 magnetization      73.8992170
 keeping initial charge density in first step


--------------------------------------------------------------------------------------------------------


 Maximum index for non-local projection operator          764
 Maximum index for augmentation-charges         1117 (set IRDMAX)


--------------------------------------------------------------------------------------------------------


 First call to EWALD:  gamma=   0.145
 Maximum number of real-space cells 4x 4x 2
 Maximum number of reciprocal cells 2x 2x 4

    FEWALD:  cpu time    0.0040: real time    0.0035


--------------------------------------- Iteration      1(   1)  ---------------------------------------


    POTLOK:  cpu time    0.2460: real time    0.2509
    SETDIJ:  cpu time    0.0180: real time    0.0198
     EDDAV:  cpu time   24.6253: real time   24.6922
 BZINTS: Fermi energy: 11.397517;610.000000 electrons
         Band energy:3810.930545;  BLOECHL correction: -0.012628
       DOS:  cpu time    0.0440: real time    0.0436
    --------------------------------------------
      LOOP:  cpu time   24.9332: real time   25.0066

 eigenvalue-minimisations  :  8280
 total energy-change (2. order) : 0.4621433E+04  (-0.2673520E+05)
 number of electron     610.0000107 magnetization      73.8992170
 augmentation part      610.0000107 magnetization      73.8992170

 DIPCOR: dipole corrections for dipol
 direction  3 min pos   248,
 dipolmoment           0.000000      0.000000      0.009041 electrons x Angstroem
 Tr[quadrupol]     -9970.290537

 energy correction for charged system         0.000000 eV
 dipol+quadrupol energy correction           -0.000004 eV
 added-field ion interaction          0.359608 eV  (added to PSCEN)


 Free energy of the ion-electron system (eV)
  ---------------------------------------------------
  alpha Z        PSCENC =      1255.11196642
  Ewald energy   TEWEN  =    213907.57603660
  -Hartree energ DENC   =   -274150.56906982
  -exchange      EXHF   =         0.00000000
  -V(xc)+E(xc)   XCENC  =      1565.47748454
  PAW double counting   =     65355.47764915   -68843.13735549
  entropy T*S    EENTRO =         0.00000000
  eigenvalues    EBANDS =      3810.93054528
  atomic energy  EATOM  =     61720.56526127
  Solvation  Ediel_sol  =         0.00000000
  ---------------------------------------------------
  free energy    TOTEN  =      4621.43251796 eV

  energy without entropy =     4621.43251796  energy(sigma->0) =     4621.43251796


--------------------------------------------------------------------------------------------------------




--------------------------------------- Iteration      1(   2)  ---------------------------------------


     EDDAV:  cpu time   24.9282: real time   25.0077
 BZINTS: Fermi energy:  1.542997;610.000000 electrons
         Band energy:-728.184174;  BLOECHL correction: -0.008189
       DOS:  cpu time    0.0430: real time    0.0429
    --------------------------------------------
      LOOP:  cpu time   24.9712: real time   25.0506

 eigenvalue-minimisations  :  8280
 total energy-change (2. order) :-0.4539115E+04  (-0.4273741E+04)
 number of electron     610.0000107 magnetization      73.8992170
 augmentation part      610.0000107 magnetization      73.8992170

 DIPCOR: dipole corrections for dipol
 direction  3 min pos   248,
 dipolmoment           0.000000      0.000000      0.009041 electrons x Angstroem
 Tr[quadrupol]     -9970.290537

 energy correction for charged system         0.000000 eV
 dipol+quadrupol energy correction           -0.000004 eV
 added-field ion interaction          0.359608 eV  (added to PSCEN)


 Free energy of the ion-electron system (eV)
  ---------------------------------------------------
  alpha Z        PSCENC =      1255.11196642
  Ewald energy   TEWEN  =    213907.57603660
  -Hartree energ DENC   =   -274150.56906982
  -exchange      EXHF   =         0.00000000
  -V(xc)+E(xc)   XCENC  =      1565.47748454
  PAW double counting   =     65355.47764915   -68843.13735549
  entropy T*S    EENTRO =         0.00000000
  eigenvalues    EBANDS =      -728.18417441
  atomic energy  EATOM  =     61720.56526127
  Solvation  Ediel_sol  =         0.00000000
  ---------------------------------------------------
  free energy    TOTEN  =        82.31779826 eV

  energy without entropy =       82.31779826  energy(sigma->0) =       82.31779826


--------------------------------------------------------------------------------------------------------




--------------------------------------- Iteration      1(   3)  ---------------------------------------


     EDDAV:  cpu time   25.5711: real time   25.6819
 BZINTS: Fermi energy:  0.316985;610.000000 electrons
         Band energy:***********;  BLOECHL correction: -0.007848
       DOS:  cpu time    0.0480: real time    0.0480
    --------------------------------------------
      LOOP:  cpu time   25.6191: real time   25.7298

 eigenvalue-minimisations  :  8487
 total energy-change (2. order) :-0.4365021E+03  (-0.3759147E+03)
 number of electron     610.0000107 magnetization      73.8992170
 augmentation part      610.0000107 magnetization      73.8992170

 DIPCOR: dipole corrections for dipol
 direction  3 min pos   248,
 dipolmoment           0.000000      0.000000      0.009041 electrons x Angstroem
 Tr[quadrupol]     -9970.290537

 energy correction for charged system         0.000000 eV
 dipol+quadrupol energy correction           -0.000004 eV
 added-field ion interaction          0.359608 eV  (added to PSCEN)


 Free energy of the ion-electron system (eV)
  ---------------------------------------------------
  alpha Z        PSCENC =      1255.11196642
  Ewald energy   TEWEN  =    213907.57603660
  -Hartree energ DENC   =   -274150.56906982
  -exchange      EXHF   =         0.00000000
  -V(xc)+E(xc)   XCENC  =      1565.47748454
  PAW double counting   =     65355.47764915   -68843.13735549
  entropy T*S    EENTRO =         0.00000000
  eigenvalues    EBANDS =     -1164.68624306
  atomic energy  EATOM  =     61720.56526127
  Solvation  Ediel_sol  =         0.00000000
  ---------------------------------------------------
  free energy    TOTEN  =      -354.18427038 eV

  energy without entropy =     -354.18427038  energy(sigma->0) =     -354.18427038


--------------------------------------------------------------------------------------------------------




--------------------------------------- Iteration      1(   4)  ---------------------------------------


     EDDAV:  cpu time   25.8281: real time   25.9568
 BZINTS: Fermi energy:  0.285983;610.000000 electrons
         Band energy:***********;  BLOECHL correction: -0.004878
       DOS:  cpu time    0.0410: real time    0.0413
    --------------------------------------------
      LOOP:  cpu time   25.8691: real time   25.9981

 eigenvalue-minimisations  :  8802
 total energy-change (2. order) :-0.1829904E+02  (-0.1794017E+02)
 number of electron     610.0000107 magnetization      73.8992170
 augmentation part      610.0000107 magnetization      73.8992170

 DIPCOR: dipole corrections for dipol
 direction  3 min pos   248,
 dipolmoment           0.000000      0.000000      0.009041 electrons x Angstroem
 Tr[quadrupol]     -9970.290537

 energy correction for charged system         0.000000 eV
 dipol+quadrupol energy correction           -0.000004 eV
 added-field ion interaction          0.359608 eV  (added to PSCEN)


 Free energy of the ion-electron system (eV)
  ---------------------------------------------------
  alpha Z        PSCENC =      1255.11196642
  Ewald energy   TEWEN  =    213907.57603660
  -Hartree energ DENC   =   -274150.56906982
  -exchange      EXHF   =         0.00000000
  -V(xc)+E(xc)   XCENC  =      1565.47748454
  PAW double counting   =     65355.47764915   -68843.13735549
  entropy T*S    EENTRO =         0.00000000
  eigenvalues    EBANDS =     -1182.98528322
  atomic energy  EATOM  =     61720.56526127
  Solvation  Ediel_sol  =         0.00000000
  ---------------------------------------------------
  free energy    TOTEN  =      -372.48331054 eV

  energy without entropy =     -372.48331054  energy(sigma->0) =     -372.48331054


--------------------------------------------------------------------------------------------------------




--------------------------------------- Iteration      1(   5)  ---------------------------------------


     EDDAV:  cpu time   28.2027: real time   28.5144
 BZINTS: Fermi energy:  0.285539;610.000000 electrons
         Band energy:***********;  BLOECHL correction: -0.004772
       DOS:  cpu time    0.0430: real time    0.0437
    CHARGE:  cpu time    0.7839: real time    0.7835
    MIXING:  cpu time    0.0040: real time    0.0045
    --------------------------------------------
      LOOP:  cpu time   29.0336: real time   29.3461

 eigenvalue-minimisations  :  9828
 total energy-change (2. order) :-0.3559977E+00  (-0.3558627E+00)
 number of electron     610.0000107 magnetization      73.8967718
 augmentation part      365.1325615 magnetization      64.1127472

 DIPCOR: dipole corrections for dipol
 direction  3 min pos   248,
 dipolmoment           0.000000      0.000000      0.009041 electrons x Angstroem
 Tr[quadrupol]     -9970.290537

 energy correction for charged system         0.000000 eV
 dipol+quadrupol energy correction           -0.000004 eV
 added-field ion interaction          0.359608 eV  (added to PSCEN)


 Broyden mixing:
  rms(total) = 0.32402E-01    rms(broyden)= 0.32317E-01
  rms(prec ) = 0.33085E-01
  weight for this iteration     100.00

 Free energy of the ion-electron system (eV)
  ---------------------------------------------------
  alpha Z        PSCENC =      1255.11196642
  Ewald energy   TEWEN  =    213907.57603660
  -Hartree energ DENC   =   -274150.56906982
  -exchange      EXHF   =         0.00000000
  -V(xc)+E(xc)   XCENC  =      1565.47748454
  PAW double counting   =     65355.47764915   -68843.13735549
  entropy T*S    EENTRO =         0.00000000
  eigenvalues    EBANDS =     -1183.34128091
  atomic energy  EATOM  =     61720.56526127
  Solvation  Ediel_sol  =         0.00000000
  ---------------------------------------------------
  free energy    TOTEN  =      -372.83930823 eV

  energy without entropy =     -372.83930823  energy(sigma->0) =     -372.83930823


--------------------------------------------------------------------------------------------------------




--------------------------------------- Iteration      1(   6)  ---------------------------------------


    POTLOK:  cpu time    0.2450: real time    0.2459
    SETDIJ:  cpu time    0.0200: real time    0.0195
    EDDIAG:  cpu time    3.6654: real time    3.7123
  RMM-DIIS:  cpu time   15.2727: real time   15.4966
    ORTHCH:  cpu time    0.6329: real time    0.6342
 BZINTS: Fermi energy:  0.287404;610.000000 electrons
         Band energy:***********;  BLOECHL correction: -0.004398
       DOS:  cpu time    0.0440: real time    0.0447
    CHARGE:  cpu time    0.7599: real time    0.7824
    MIXING:  cpu time    0.0050: real time    0.0044
    --------------------------------------------
      LOOP:  cpu time   20.6449: real time   20.9399

 eigenvalue-minimisations  :  8536
 total energy-change (2. order) :-0.1033759E-01  (-0.1728535E-01)
 number of electron     610.0000107 magnetization      73.8965609
 augmentation part      365.1290389 magnetization      64.0655466

 DIPCOR: dipole corrections for dipol
 direction  3 min pos   248,
 dipolmoment           0.000000      0.000000      0.004082 electrons x Angstroem
 Tr[quadrupol]     -9970.334151

 energy correction for charged system         0.000000 eV
 dipol+quadrupol energy correction           -0.000001 eV
 added-field ion interaction          0.162349 eV  (added to PSCEN)


 Broyden mixing:
  rms(total) = 0.11390E+00    rms(broyden)= 0.11388E+00
  rms(prec ) = 0.13233E+00
  weight for this iteration     100.00

 eigenvalues of (default mixing * dielectric matrix)
  average eigenvalue GAMMA=   0.1795
  0.1795

 Free energy of the ion-electron system (eV)
  ---------------------------------------------------
  alpha Z        PSCENC =      1254.91471108
  Ewald energy   TEWEN  =    213907.57603660
  -Hartree energ DENC   =   -274152.75749516
  -exchange      EXHF   =         0.00000000
  -V(xc)+E(xc)   XCENC  =      1565.50498425
  PAW double counting   =     65418.70991561   -68906.42837910
  entropy T*S    EENTRO =         0.00000000
  eigenvalues    EBANDS =     -1180.93468038
  atomic energy  EATOM  =     61720.56526127
  Solvation  Ediel_sol  =         0.00000000
  ---------------------------------------------------
  free energy    TOTEN  =      -372.84964583 eV

  energy without entropy =     -372.84964583  energy(sigma->0) =     -372.84964583


--------------------------------------------------------------------------------------------------------




--------------------------------------- Iteration      1(   7)  ---------------------------------------


    POTLOK:  cpu time    0.2620: real time    0.2639
    SETDIJ:  cpu time    0.0200: real time    0.0193
    EDDIAG:  cpu time    3.6974: real time    3.7585
  RMM-DIIS:  cpu time   21.4647: real time   21.8248
    ORTHCH:  cpu time    0.6739: real time    0.6967
 BZINTS: Fermi energy:  0.288185;610.000000 electrons
         Band energy:***********;  BLOECHL correction: -0.004653
       DOS:  cpu time    0.0430: real time    0.0430
    CHARGE:  cpu time    0.7919: real time    0.7941
    MIXING:  cpu time    0.0070: real time    0.0059
    --------------------------------------------
      LOOP:  cpu time   26.9599: real time   27.4061

 eigenvalue-minimisations  : 12009
 total energy-change (2. order) :-0.4220122E-02  (-0.4507316E-02)
 number of electron     610.0000107 magnetization      73.8966531
 augmentation part      365.0417505 magnetization      64.1056328

 DIPCOR: dipole corrections for dipol
 direction  3 min pos   249,
 dipolmoment           0.000000      0.000000      0.019154 electrons x Angstroem
 Tr[quadrupol]     -9970.316102

 energy correction for charged system         0.000000 eV
 dipol+quadrupol energy correction           -0.000018 eV
 added-field ion interaction          0.837765 eV  (added to PSCEN)


 Broyden mixing:
  rms(total) = 0.11934E+00    rms(broyden)= 0.11932E+00
  rms(prec ) = 0.15630E+00
  weight for this iteration     100.00

 eigenvalues of (default mixing * dielectric matrix)
  average eigenvalue GAMMA=   0.1793
  0.2897  0.0688

 Free energy of the ion-electron system (eV)
  ---------------------------------------------------
  alpha Z        PSCENC =      1255.59010994
  Ewald energy   TEWEN  =    213907.57603660
  -Hartree energ DENC   =   -274151.92393743
  -exchange      EXHF   =         0.00000000
  -V(xc)+E(xc)   XCENC  =      1565.54663143
  PAW double counting   =     65421.86282463   -68909.65701297
  entropy T*S    EENTRO =         0.00000000
  eigenvalues    EBANDS =     -1182.41377942
  atomic energy  EATOM  =     61720.56526127
  Solvation  Ediel_sol  =         0.00000000
  ---------------------------------------------------
  free energy    TOTEN  =      -372.85386595 eV

  energy without entropy =     -372.85386595  energy(sigma->0) =     -372.85386595


--------------------------------------------------------------------------------------------------------




--------------------------------------- Iteration      1(   8)  ---------------------------------------


    POTLOK:  cpu time    0.2460: real time    0.2469
    SETDIJ:  cpu time    0.0200: real time    0.0194
    EDDIAG:  cpu time    3.6664: real time    3.6884
  RMM-DIIS:  cpu time   16.2475: real time   16.3594
    ORTHCH:  cpu time    0.6319: real time    0.6345
 BZINTS: Fermi energy:  0.286744;610.000000 electrons
         Band energy:***********;  BLOECHL correction: -0.003951
       DOS:  cpu time    0.0430: real time    0.0431
    CHARGE:  cpu time    0.8019: real time    0.8034
    MIXING:  cpu time    0.0050: real time    0.0046
    --------------------------------------------
      LOOP:  cpu time   21.6617: real time   21.7996

 eigenvalue-minimisations  :  8852
 total energy-change (2. order) : 0.1018254E-03  (-0.4275563E-03)
 number of electron     610.0000107 magnetization      73.8966170
 augmentation part      365.0487831 magnetization      64.1115723

 DIPCOR: dipole corrections for dipol
 direction  3 min pos   242,
 dipolmoment           0.000000      0.000000     -0.000085 electrons x Angstroem
 Tr[quadrupol]     -9970.273369

 energy correction for charged system         0.000000 eV
 dipol+quadrupol energy correction           -0.000000 eV
 added-field ion interaction         -0.001365 eV  (added to PSCEN)


 Broyden mixing:
  rms(total) = 0.11389E+00    rms(broyden)= 0.11387E+00
  rms(prec ) = 0.14625E+00
  weight for this iteration     100.00

 eigenvalues of (default mixing * dielectric matrix)
  average eigenvalue GAMMA=   0.1889
  0.3973  0.1266  0.0427

 Free energy of the ion-electron system (eV)
  ---------------------------------------------------
  alpha Z        PSCENC =      1254.75099761
  Ewald energy   TEWEN  =    213907.57603660
  -Hartree energ DENC   =   -274151.40190920
  -exchange      EXHF   =         0.00000000
  -V(xc)+E(xc)   XCENC  =      1565.54677455
  PAW double counting   =     65421.75091048   -68909.53000962
  entropy T*S    EENTRO =         0.00000000
  eigenvalues    EBANDS =     -1182.11182582
  atomic energy  EATOM  =     61720.56526127
  Solvation  Ediel_sol  =         0.00000000
  ---------------------------------------------------
  free energy    TOTEN  =      -372.85376413 eV

  energy without entropy =     -372.85376413  energy(sigma->0) =     -372.85376413


--------------------------------------------------------------------------------------------------------




--------------------------------------- Iteration      1(   9)  ---------------------------------------


    POTLOK:  cpu time    0.2410: real time    0.2460
    SETDIJ:  cpu time    0.0200: real time    0.0192
    EDDIAG:  cpu time    3.7624: real time    3.7801
  RMM-DIIS:  cpu time   16.1635: real time   16.2651
    ORTHCH:  cpu time    0.6339: real time    0.6364
 BZINTS: Fermi energy:  0.287046;610.000000 electrons
         Band energy:***********;  BLOECHL correction: -0.004159
       DOS:  cpu time    0.0430: real time    0.0431
    CHARGE:  cpu time    0.7949: real time    0.8021
    MIXING:  cpu time    0.0090: real time    0.0081
    --------------------------------------------
      LOOP:  cpu time   21.6677: real time   21.8001

 eigenvalue-minimisations  :  8761
 total energy-change (2. order) : 0.3131262E-02  (-0.2380556E-03)
 number of electron     610.0000107 magnetization      73.8966944
 augmentation part      365.0689758 magnetization      64.1059594

 DIPCOR: dipole corrections for dipol
 direction  3 min pos   242,
 dipolmoment           0.000000      0.000000      0.009461 electrons x Angstroem
 Tr[quadrupol]     -9970.292697

 energy correction for charged system         0.000000 eV
 dipol+quadrupol energy correction           -0.000004 eV
 added-field ion interaction          0.151423 eV  (added to PSCEN)


 Broyden mixing:
  rms(total) = 0.35504E-01    rms(broyden)= 0.35489E-01
  rms(prec ) = 0.38921E-01
  weight for this iteration     100.00

 eigenvalues of (default mixing * dielectric matrix)
  average eigenvalue GAMMA=   0.1858
  0.3006  0.3006  0.0997  0.0423

 Free energy of the ion-electron system (eV)
  ---------------------------------------------------
  alpha Z        PSCENC =      1254.90378097
  Ewald energy   TEWEN  =    213907.57603660
  -Hartree energ DENC   =   -274151.39854780
  -exchange      EXHF   =         0.00000000
  -V(xc)+E(xc)   XCENC  =      1565.51134249
  PAW double counting   =     65417.97783706   -68905.63675442
  entropy T*S    EENTRO =         0.00000000
  eigenvalues    EBANDS =     -1182.34958904
  atomic energy  EATOM  =     61720.56526127
  Solvation  Ediel_sol  =         0.00000000
  ---------------------------------------------------
  free energy    TOTEN  =      -372.85063286 eV

  energy without entropy =     -372.85063286  energy(sigma->0) =     -372.85063286


--------------------------------------------------------------------------------------------------------




--------------------------------------- Iteration      1(  10)  ---------------------------------------


    POTLOK:  cpu time    0.2790: real time    0.2806
    SETDIJ:  cpu time    0.0190: real time    0.0193
    EDDIAG:  cpu time    3.6784: real time    3.6918
  RMM-DIIS:  cpu time   16.2715: real time   16.3673
    ORTHCH:  cpu time    0.6349: real time    0.6376
 BZINTS: Fermi energy:  0.286233;610.000000 electrons
         Band energy:***********;  BLOECHL correction: -0.004030
       DOS:  cpu time    0.0430: real time    0.0436
    CHARGE:  cpu time    0.7819: real time    0.7827
    MIXING:  cpu time    0.0050: real time    0.0048
    --------------------------------------------
      LOOP:  cpu time   21.7127: real time   21.8277

 eigenvalue-minimisations  :  8742
 total energy-change (2. order) : 0.1956590E-03  (-0.8035239E-04)
 number of electron     610.0000107 magnetization      73.8967555
 augmentation part      365.0814498 magnetization      64.1008001

 DIPCOR: dipole corrections for dipol
 direction  3 min pos   244,
 dipolmoment           0.000000      0.000000      0.009119 electrons x Angstroem
 Tr[quadrupol]     -9970.295218

 energy correction for charged system         0.000000 eV
 dipol+quadrupol energy correction           -0.000004 eV
 added-field ion interaction          0.218200 eV  (added to PSCEN)


 Broyden mixing:
  rms(total) = 0.20187E-01    rms(broyden)= 0.20184E-01
  rms(prec ) = 0.21798E-01
  weight for this iteration     100.00

 eigenvalues of (default mixing * dielectric matrix)
  average eigenvalue GAMMA=   0.2560
  0.5020  0.5020  0.0423  0.1012  0.1327

 Free energy of the ion-electron system (eV)
  ---------------------------------------------------
  alpha Z        PSCENC =      1254.97055839
  Ewald energy   TEWEN  =    213907.57603660
  -Hartree energ DENC   =   -274151.16120707
  -exchange      EXHF   =         0.00000000
  -V(xc)+E(xc)   XCENC  =      1565.49375898
  PAW double counting   =     65413.42200207   -68901.02433596
  entropy T*S    EENTRO =         0.00000000
  eigenvalues    EBANDS =     -1182.69251148
  atomic energy  EATOM  =     61720.56526127
  Solvation  Ediel_sol  =         0.00000000
  ---------------------------------------------------
  free energy    TOTEN  =      -372.85043720 eV

  energy without entropy =     -372.85043720  energy(sigma->0) =     -372.85043720


--------------------------------------------------------------------------------------------------------




--------------------------------------- Iteration      1(  11)  ---------------------------------------


    POTLOK:  cpu time    0.2460: real time    0.2467
    SETDIJ:  cpu time    0.0190: real time    0.0195
    EDDIAG:  cpu time    3.8124: real time    3.8510
  RMM-DIIS:  cpu time   16.0926: real time   16.1886
    ORTHCH:  cpu time    0.6829: real time    0.6842
 BZINTS: Fermi energy:  0.286317;610.000000 electrons
         Band energy:***********;  BLOECHL correction: -0.004057
       DOS:  cpu time    0.0430: real time    0.0439
    CHARGE:  cpu time    0.7839: real time    0.7857
    MIXING:  cpu time    0.0060: real time    0.0053
    --------------------------------------------
      LOOP:  cpu time   21.6857: real time   21.8248

 eigenvalue-minimisations  :  8808
 total energy-change (2. order) :-0.8828212E-04  (-0.3097486E-04)
 number of electron     610.0000107 magnetization      73.8967876
 augmentation part      365.0782193 magnetization      64.1029189

 DIPCOR: dipole corrections for dipol
 direction  3 min pos   243,
 dipolmoment           0.000000      0.000000      0.008868 electrons x Angstroem
 Tr[quadrupol]     -9970.288642

 energy correction for charged system         0.000000 eV
 dipol+quadrupol energy correction           -0.000004 eV
 added-field ion interaction          0.177074 eV  (added to PSCEN)


 Broyden mixing:
  rms(total) = 0.20724E-01    rms(broyden)= 0.20723E-01
  rms(prec ) = 0.22472E-01
  weight for this iteration     100.00

 eigenvalues of (default mixing * dielectric matrix)
  average eigenvalue GAMMA=   0.2606
  0.5751  0.5751  0.0423  0.1572  0.0974  0.1167

 Free energy of the ion-electron system (eV)
  ---------------------------------------------------
  alpha Z        PSCENC =      1254.92943263
  Ewald energy   TEWEN  =    213907.57603660
  -Hartree energ DENC   =   -274151.00306365
  -exchange      EXHF   =         0.00000000
  -V(xc)+E(xc)   XCENC  =      1565.49236958
  PAW double counting   =     65403.67000531   -68891.29380589
  entropy T*S    EENTRO =         0.00000000
  eigenvalues    EBANDS =     -1182.78676134
  atomic energy  EATOM  =     61720.56526127
  Solvation  Ediel_sol  =         0.00000000
  ---------------------------------------------------
  free energy    TOTEN  =      -372.85052549 eV

  energy without entropy =     -372.85052549  energy(sigma->0) =     -372.85052549


--------------------------------------------------------------------------------------------------------




--------------------------------------- Iteration      1(  12)  ---------------------------------------


    POTLOK:  cpu time    0.2450: real time    0.2474
    SETDIJ:  cpu time    0.0210: real time    0.0196
    EDDIAG:  cpu time    3.7694: real time    3.7871
  RMM-DIIS:  cpu time   16.5175: real time   16.6116
    ORTHCH:  cpu time    0.6549: real time    0.6569
 BZINTS: Fermi energy:  0.286360;610.000000 electrons
         Band energy:***********;  BLOECHL correction: -0.004004
       DOS:  cpu time    0.0410: real time    0.0404
    CHARGE:  cpu time    0.7959: real time    0.7982
    MIXING:  cpu time    0.0060: real time    0.0054
    --------------------------------------------
      LOOP:  cpu time   22.0506: real time   22.1666

 eigenvalue-minimisations  :  8755
 total energy-change (2. order) : 0.1443924E-03  (-0.1318932E-04)
 number of electron     610.0000107 magnetization      73.8968208
 augmentation part      365.0728475 magnetization      64.1063428

 DIPCOR: dipole corrections for dipol
 direction  3 min pos   245,
 dipolmoment           0.000000      0.000000      0.008852 electrons x Angstroem
 Tr[quadrupol]     -9970.293441

 energy correction for charged system         0.000000 eV
 dipol+quadrupol energy correction           -0.000004 eV
 added-field ion interaction          0.246896 eV  (added to PSCEN)


 Broyden mixing:
  rms(total) = 0.93360E-02    rms(broyden)= 0.93350E-02
  rms(prec ) = 0.97574E-02
  weight for this iteration     100.00

 eigenvalues of (default mixing * dielectric matrix)
  average eigenvalue GAMMA=   0.2561
  0.5957  0.5957  0.2135  0.0423  0.1431  0.0958  0.1064

 Free energy of the ion-electron system (eV)
  ---------------------------------------------------
  alpha Z        PSCENC =      1254.99925439
  Ewald energy   TEWEN  =    213907.57603660
  -Hartree energ DENC   =   -274151.10739244
  -exchange      EXHF   =         0.00000000
  -V(xc)+E(xc)   XCENC  =      1565.49514924
  PAW double counting   =     65398.95369457   -68886.60346070
  entropy T*S    EENTRO =         0.00000000
  eigenvalues    EBANDS =     -1182.72892403
  atomic energy  EATOM  =     61720.56526127
  Solvation  Ediel_sol  =         0.00000000
  ---------------------------------------------------
  free energy    TOTEN  =      -372.85038109 eV

  energy without entropy =     -372.85038109  energy(sigma->0) =     -372.85038109


--------------------------------------------------------------------------------------------------------




--------------------------------------- Iteration      1(  13)  ---------------------------------------


    POTLOK:  cpu time    0.2460: real time    0.2478
    SETDIJ:  cpu time    0.0210: real time    0.0201
    EDDIAG:  cpu time    3.7694: real time    3.7827
  RMM-DIIS:  cpu time   16.5345: real time   16.5911
    ORTHCH:  cpu time    0.6329: real time    0.6344
 BZINTS: Fermi energy:  0.286259;610.000000 electrons
         Band energy:***********;  BLOECHL correction: -0.004014
       DOS:  cpu time    0.0430: real time    0.0430
    CHARGE:  cpu time    0.8019: real time    0.8031
    MIXING:  cpu time    0.0050: real time    0.0052
    --------------------------------------------
      LOOP:  cpu time   22.0536: real time   22.1274

 eigenvalue-minimisations  :  8984
 total energy-change (2. order) :-0.6348586E-05  (-0.2993777E-05)
 number of electron     610.0000107 magnetization      73.8969146
 augmentation part      365.0730146 magnetization      64.1066074

 DIPCOR: dipole corrections for dipol
 direction  3 min pos   246,
 dipolmoment           0.000000      0.000000      0.008921 electrons x Angstroem
 Tr[quadrupol]     -9970.294207

 energy correction for charged system         0.000000 eV
 dipol+quadrupol energy correction           -0.000004 eV
 added-field ion interaction          0.284144 eV  (added to PSCEN)


 Broyden mixing:
  rms(total) = 0.76496E-02    rms(broyden)= 0.76495E-02
  rms(prec ) = 0.78058E-02
  weight for this iteration     100.00

 eigenvalues of (default mixing * dielectric matrix)
  average eigenvalue GAMMA=   0.2925
  0.7205  0.7205  0.3699  0.0423  0.1660  0.1209  0.1056  0.0941

 Free energy of the ion-electron system (eV)
  ---------------------------------------------------
  alpha Z        PSCENC =      1255.03650308
  Ewald energy   TEWEN  =    213907.57603660
  -Hartree energ DENC   =   -274151.07772139
  -exchange      EXHF   =         0.00000000
  -V(xc)+E(xc)   XCENC  =      1565.49420722
  PAW double counting   =     65396.60842444   -68884.26047847
  entropy T*S    EENTRO =         0.00000000
  eigenvalues    EBANDS =     -1182.79262019
  atomic energy  EATOM  =     61720.56526127
  Solvation  Ediel_sol  =         0.00000000
  ---------------------------------------------------
  free energy    TOTEN  =      -372.85038744 eV

  energy without entropy =     -372.85038744  energy(sigma->0) =     -372.85038744


--------------------------------------------------------------------------------------------------------




--------------------------------------- Iteration      1(  14)  ---------------------------------------


    POTLOK:  cpu time    0.2480: real time    0.2478
    SETDIJ:  cpu time    0.0190: real time    0.0196
    EDDIAG:  cpu time    3.6924: real time    3.7059
  RMM-DIIS:  cpu time   15.6736: real time   15.7304
    ORTHCH:  cpu time    0.6479: real time    0.6494
 BZINTS: Fermi energy:  0.286202;610.000000 electrons
         Band energy:***********;  BLOECHL correction: -0.004007
       DOS:  cpu time    0.0410: real time    0.0411
    CHARGE:  cpu time    0.7849: real time    0.7856
    MIXING:  cpu time    0.0050: real time    0.0057
    --------------------------------------------
      LOOP:  cpu time   21.1118: real time   21.1855

 eigenvalue-minimisations  :  8565
 total energy-change (2. order) :-0.2395863E-04  (-0.1130924E-05)
 number of electron     610.0000107 magnetization      73.8969779
 augmentation part      365.0744721 magnetization      64.1065555

 DIPCOR: dipole corrections for dipol
 direction  3 min pos   246,
 dipolmoment           0.000000      0.000000      0.009068 electrons x Angstroem
 Tr[quadrupol]     -9970.293498

 energy correction for charged system         0.000000 eV
 dipol+quadrupol energy correction           -0.000004 eV
 added-field ion interaction          0.288838 eV  (added to PSCEN)


 Broyden mixing:
  rms(total) = 0.71202E-02    rms(broyden)= 0.71201E-02
  rms(prec ) = 0.73493E-02
  weight for this iteration     100.00

 eigenvalues of (default mixing * dielectric matrix)
  average eigenvalue GAMMA=   0.2860
  0.7680  0.7680  0.3624  0.1943  0.0423  0.1244  0.1244  0.0973  0.0930

 Free energy of the ion-electron system (eV)
  ---------------------------------------------------
  alpha Z        PSCENC =      1255.04119665
  Ewald energy   TEWEN  =    213907.57603660
  -Hartree energ DENC   =   -274151.00661055
  -exchange      EXHF   =         0.00000000
  -V(xc)+E(xc)   XCENC  =      1565.49089911
  PAW double counting   =     65390.51056236   -68878.16373368
  entropy T*S    EENTRO =         0.00000000
  eigenvalues    EBANDS =     -1182.86402317
  atomic energy  EATOM  =     61720.56526127
  Solvation  Ediel_sol  =         0.00000000
  ---------------------------------------------------
  free energy    TOTEN  =      -372.85041140 eV

  energy without entropy =     -372.85041140  energy(sigma->0) =     -372.85041140


--------------------------------------------------------------------------------------------------------




--------------------------------------- Iteration      1(  15)  ---------------------------------------


    POTLOK:  cpu time    0.2460: real time    0.2466
    SETDIJ:  cpu time    0.0200: real time    0.0197
    EDDIAG:  cpu time    3.7404: real time    3.7535
  RMM-DIIS:  cpu time   14.2268: real time   14.2946
    ORTHCH:  cpu time    0.6729: real time    0.6758
 BZINTS: Fermi energy:  0.286148;610.000000 electrons
         Band energy:***********;  BLOECHL correction: -0.004008
       DOS:  cpu time    0.0420: real time    0.0412
    CHARGE:  cpu time    0.7799: real time    0.7825
    MIXING:  cpu time    0.0060: real time    0.0054
    --------------------------------------------
      LOOP:  cpu time   19.7340: real time   19.8193

 eigenvalue-minimisations  :  7714
 total energy-change (2. order) :-0.1054158E-04  (-0.5408809E-06)
 number of electron     610.0000107 magnetization      73.8970792
 augmentation part      365.0748278 magnetization      64.1070043

 DIPCOR: dipole corrections for dipol
 direction  3 min pos   246,
 dipolmoment           0.000000      0.000000      0.008998 electrons x Angstroem
 Tr[quadrupol]     -9970.293605

 energy correction for charged system         0.000000 eV
 dipol+quadrupol energy correction           -0.000004 eV
 added-field ion interaction          0.286599 eV  (added to PSCEN)


 Broyden mixing:
  rms(total) = 0.58389E-02    rms(broyden)= 0.58388E-02
  rms(prec ) = 0.59529E-02
  weight for this iteration     100.00

 eigenvalues of (default mixing * dielectric matrix)
  average eigenvalue GAMMA=   0.3116
  0.8514  0.8514  0.3898  0.3898  0.0423  0.1471  0.1471  0.1054  0.1006  0.0912

 Free energy of the ion-electron system (eV)
  ---------------------------------------------------
  alpha Z        PSCENC =      1255.03895773
  Ewald energy   TEWEN  =    213907.57603660
  -Hartree energ DENC   =   -274150.99243634
  -exchange      EXHF   =         0.00000000
  -V(xc)+E(xc)   XCENC  =      1565.48933381
  PAW double counting   =     65386.91996721   -68874.57508026
  entropy T*S    EENTRO =         0.00000000
  eigenvalues    EBANDS =     -1182.87246197
  atomic energy  EATOM  =     61720.56526127
  Solvation  Ediel_sol  =         0.00000000
  ---------------------------------------------------
  free energy    TOTEN  =      -372.85042194 eV

  energy without entropy =     -372.85042194  energy(sigma->0) =     -372.85042194


--------------------------------------------------------------------------------------------------------




--------------------------------------- Iteration      1(  16)  ---------------------------------------


    POTLOK:  cpu time    0.2460: real time    0.2472
    SETDIJ:  cpu time    0.0200: real time    0.0198
    EDDIAG:  cpu time    3.7414: real time    3.7575
  RMM-DIIS:  cpu time   12.1042: real time   12.2055
    ORTHCH:  cpu time    0.6339: real time    0.6356
 BZINTS: Fermi energy:  0.286123;610.000000 electrons
         Band energy:***********;  BLOECHL correction: -0.004006
       DOS:  cpu time    0.0430: real time    0.0430
    CHARGE:  cpu time    0.8389: real time    0.8404
    MIXING:  cpu time    0.0060: real time    0.0060
    --------------------------------------------
      LOOP:  cpu time   17.6333: real time   17.7550

 eigenvalue-minimisations  :  6339
 total energy-change (2. order) :-0.2123685E-04  (-0.3559245E-06)
 number of electron     610.0000107 magnetization      73.8972557
 augmentation part      365.0749064 magnetization      64.1077404

 DIPCOR: dipole corrections for dipol
 direction  3 min pos   246,
 dipolmoment           0.000000      0.000000      0.009038 electrons x Angstroem
 Tr[quadrupol]     -9970.293017

 energy correction for charged system         0.000000 eV
 dipol+quadrupol energy correction           -0.000004 eV
 added-field ion interaction          0.287869 eV  (added to PSCEN)


 Broyden mixing:
  rms(total) = 0.53356E-02    rms(broyden)= 0.53355E-02
  rms(prec ) = 0.54802E-02
  weight for this iteration     100.00

 eigenvalues of (default mixing * dielectric matrix)
  average eigenvalue GAMMA=   0.3348
  0.9883  0.9883  0.4620  0.4620  0.0423  0.1604  0.1604  0.1153  0.1153  0.0959
  0.0920

 Free energy of the ion-electron system (eV)
  ---------------------------------------------------
  alpha Z        PSCENC =      1255.04022785
  Ewald energy   TEWEN  =    213907.57603660
  -Hartree energ DENC   =   -274150.95200490
  -exchange      EXHF   =         0.00000000
  -V(xc)+E(xc)   XCENC  =      1565.48786559
  PAW double counting   =     65381.96458245   -68869.62468511
  entropy T*S    EENTRO =         0.00000000
  eigenvalues    EBANDS =     -1182.90772693
  atomic energy  EATOM  =     61720.56526127
  Solvation  Ediel_sol  =         0.00000000
  ---------------------------------------------------
  free energy    TOTEN  =      -372.85044318 eV

  energy without entropy =     -372.85044318  energy(sigma->0) =     -372.85044318


--------------------------------------------------------------------------------------------------------




--------------------------------------- Iteration      1(  17)  ---------------------------------------


    POTLOK:  cpu time    0.2460: real time    0.2489
    SETDIJ:  cpu time    0.0210: real time    0.0197
    EDDIAG:  cpu time    3.7364: real time    3.7502
  RMM-DIIS:  cpu time   14.0969: real time   14.1658
    ORTHCH:  cpu time    0.6339: real time    0.6360
 BZINTS: Fermi energy:  0.286025;610.000000 electrons
         Band energy:***********;  BLOECHL correction: -0.004004
       DOS:  cpu time    0.0440: real time    0.0435
    CHARGE:  cpu time    0.7779: real time    0.7801
    MIXING:  cpu time    0.0060: real time    0.0059
    --------------------------------------------
      LOOP:  cpu time   19.5620: real time   19.6502

 eigenvalue-minimisations  :  7623
 total energy-change (2. order) :-0.2778553E-04  (-0.4618704E-06)
 number of electron     610.0000107 magnetization      73.8973429
 augmentation part      365.0759444 magnetization      64.1081444

 DIPCOR: dipole corrections for dipol
 direction  3 min pos   246,
 dipolmoment           0.000000      0.000000      0.009042 electrons x Angstroem
 Tr[quadrupol]     -9970.291993

 energy correction for charged system         0.000000 eV
 dipol+quadrupol energy correction           -0.000004 eV
 added-field ion interaction          0.288025 eV  (added to PSCEN)


 Broyden mixing:
  rms(total) = 0.38199E-02    rms(broyden)= 0.38199E-02
  rms(prec ) = 0.39243E-02
  weight for this iteration     100.00

 eigenvalues of (default mixing * dielectric matrix)
  average eigenvalue GAMMA=   0.3424
  1.0594  1.0594  0.4769  0.4769  0.2505  0.1867  0.0423  0.1306  0.1306  0.1050
  0.0992  0.0910

 Free energy of the ion-electron system (eV)
  ---------------------------------------------------
  alpha Z        PSCENC =      1255.04038307
  Ewald energy   TEWEN  =    213907.57603660
  -Hartree energ DENC   =   -274150.87829223
  -exchange      EXHF   =         0.00000000
  -V(xc)+E(xc)   XCENC  =      1565.48483495
  PAW double counting   =     65374.05234728   -68861.71838187
  entropy T*S    EENTRO =         0.00000000
  eigenvalues    EBANDS =     -1182.97266003
  atomic energy  EATOM  =     61720.56526127
  Solvation  Ediel_sol  =         0.00000000
  ---------------------------------------------------
  free energy    TOTEN  =      -372.85047097 eV

  energy without entropy =     -372.85047097  energy(sigma->0) =     -372.85047097


--------------------------------------------------------------------------------------------------------




--------------------------------------- Iteration      1(  18)  ---------------------------------------


    POTLOK:  cpu time    0.2860: real time    0.2880
    SETDIJ:  cpu time    0.0200: real time    0.0197
    EDDIAG:  cpu time    3.6654: real time    3.6829
[...]
   0.488E+02 -.715E+02 0.102E+04   -.488E+02 0.714E+02 -.102E+04   -.225E-01 -.381E-01 -.385E+00   -.422E-02 -.140E-02 -.102E-01
   -.238E+01 -.617E+02 0.100E+04   0.236E+01 0.616E+02 -.100E+04   0.410E-02 0.108E+00 -.271E+00   0.224E-02 -.322E-02 -.115E-01
   -.292E+02 0.374E+02 -.877E+03   0.292E+02 -.374E+02 0.877E+03   -.947E-02 -.396E-01 0.231E+00   -.101E-02 0.224E-03 -.185E-01
   0.122E+02 -.415E+01 0.286E+04   -.124E+02 0.422E+01 -.286E+04   0.110E+00 0.755E-01 -.106E+01   0.141E-03 0.387E-02 -.123E-02
   -.214E+02 -.272E+02 -.289E+04   0.215E+02 0.272E+02 0.289E+04   -.610E-01 -.781E-03 0.968E+00   0.413E-02 -.187E-02 -.420E-02
   -.475E+02 -.602E+02 0.981E+03   0.477E+02 0.602E+02 -.981E+03   -.506E-01 -.167E-01 -.317E+00   0.287E-02 0.237E-02 -.107E-01
   0.476E+02 0.552E+02 -.885E+03   -.476E+02 -.552E+02 0.884E+03   -.173E-02 -.329E-01 0.274E+00   -.738E-02 -.309E-02 -.129E-01
   0.650E+01 0.232E+02 0.282E+04   -.657E+01 -.231E+02 -.282E+04   0.124E-01 0.112E-01 -.141E+01   0.717E-04 -.902E-04 0.823E-03
   0.205E+02 -.134E+02 -.290E+04   -.206E+02 0.134E+02 0.290E+04   0.775E-01 0.154E-01 0.103E+01   -.421E-02 -.280E-02 -.754E-02
   -.714E+01 0.414E+02 -.927E+03   0.717E+01 -.413E+02 0.927E+03   -.221E-01 -.609E-01 0.183E+00   -.211E-02 -.124E-03 -.216E-01
   -.386E+02 0.599E+02 -.896E+03   0.385E+02 -.599E+02 0.895E+03   0.901E-01 -.284E-01 0.143E+00   0.299E-02 0.184E-02 -.203E-01
   -.434E+01 0.643E+02 0.291E+04   0.441E+01 -.644E+02 -.291E+04   0.713E-01 0.167E-01 -.128E+01   -.350E-03 0.329E-02 0.221E-02
   -.452E+01 0.534E+02 -.291E+04   0.452E+01 -.535E+02 0.291E+04   0.172E-01 0.324E-01 0.100E+01   0.119E-02 -.626E-03 -.500E-02
   0.482E+01 0.913E+02 -.965E+03   -.486E+01 -.914E+02 0.965E+03   0.352E-01 0.837E-01 0.402E+00   0.171E-02 -.236E-02 -.119E-01
   -.266E+02 0.333E+02 0.292E+04   0.267E+02 -.333E+02 -.292E+04   -.236E+00 -.329E-01 -.123E+01   -.369E-02 0.428E-03 0.131E-02
   -.545E+02 0.416E+02 -.288E+04   0.546E+02 -.418E+02 0.288E+04   -.100E+00 0.138E+00 0.924E+00   0.804E-02 0.267E-03 -.492E-02
   0.406E+02 0.848E+02 -.912E+03   -.405E+02 -.847E+02 0.912E+03   -.972E-01 -.882E-01 0.159E+00   -.296E-02 -.471E-02 -.149E-01
   0.205E+02 0.512E+02 0.291E+04   -.205E+02 -.513E+02 -.291E+04   0.224E+00 0.396E-01 -.108E+01   0.968E-03 -.609E-03 -.415E-03
   0.583E+02 0.468E+02 -.290E+04   -.584E+02 -.469E+02 0.290E+04   0.108E+00 0.114E+00 0.971E+00   -.121E-02 -.519E-02 -.642E-02
   -.267E+02 0.100E+03 0.973E+03   0.269E+02 -.101E+03 -.973E+03   -.117E+00 0.144E+00 -.587E+00   0.120E-03 -.399E-04 -.892E-02
   0.107E+02 0.782E+02 0.291E+04   -.108E+02 -.783E+02 -.291E+04   -.610E-01 0.936E-02 -.124E+01   0.310E-02 0.225E-02 0.761E-03
   0.615E+00 0.595E+02 -.292E+04   -.572E+00 -.596E+02 0.292E+04   -.395E-01 0.470E-01 0.111E+01   -.794E-02 -.557E-02 -.572E-02
   0.633E+01 0.117E+03 0.104E+04   -.632E+01 -.117E+03 -.104E+04   -.747E-02 0.215E+00 -.385E+00   0.367E-03 0.331E-02 -.131E-01
   -.159E+02 -.315E+02 0.292E+04   0.159E+02 0.316E+02 -.292E+04   0.182E-01 -.150E-01 -.145E+01   0.179E-02 -.279E-02 0.146E-02
   -.121E+02 -.376E+01 -.293E+04   0.120E+02 0.380E+01 0.293E+04   0.288E-01 -.372E-01 0.146E+01   0.646E-04 0.549E-02 -.491E-02
   -.319E+02 -.352E+02 0.291E+04   0.321E+02 0.353E+02 -.291E+04   -.172E+00 -.575E-01 -.112E+01   -.352E-02 -.223E-02 0.156E-02
   -.379E+02 0.525E+01 -.292E+04   0.381E+02 -.509E+01 0.292E+04   -.184E+00 -.141E+00 0.132E+01   0.504E-02 0.674E-02 -.571E-02
   -.277E+02 -.163E+02 0.101E+04   0.277E+02 0.163E+02 -.101E+04   0.217E-01 -.552E-01 -.283E+00   0.699E-03 -.629E-03 -.147E-01
   0.628E+01 0.129E+02 0.102E+04   -.611E+01 -.129E+02 -.102E+04   -.109E+00 -.100E-01 -.302E+00   -.432E-02 -.110E-02 -.115E-01
   0.347E+02 0.299E+01 0.293E+04   -.348E+02 -.294E+01 -.293E+04   0.168E+00 -.815E-01 -.105E+01   0.390E-02 -.211E-02 -.148E-02
   0.399E+02 0.121E+02 -.294E+04   -.401E+02 -.120E+02 0.294E+04   0.172E+00 -.376E-01 0.131E+01   -.491E-02 -.136E-02 -.471E-02
   0.235E+02 0.525E+02 0.101E+04   -.236E+02 -.523E+02 -.101E+04   0.322E-01 -.150E+00 -.277E+00   0.832E-03 -.259E-02 -.963E-02
   -.171E+01 0.278E+02 0.100E+04   0.171E+01 -.278E+02 -.100E+04   -.135E-01 -.857E-02 -.257E+00   0.280E-02 -.195E-02 -.138E-01
   -.667E+02 -.766E+02 0.809E+03   0.669E+02 0.768E+02 -.809E+03   -.213E+00 -.136E+00 -.311E+00   0.308E-02 -.238E-02 -.937E-02
   0.260E+02 -.898E+02 0.809E+03   -.263E+02 0.902E+02 -.808E+03   0.234E+00 -.303E+00 -.348E+00   -.156E-02 -.917E-03 -.800E-02
   -.517E+02 0.129E+02 -.742E+03   0.520E+02 -.128E+02 0.742E+03   -.261E+00 -.574E-02 0.107E+00   0.522E-02 0.858E-03 -.111E-01
   0.428E+02 0.431E+02 -.744E+03   -.431E+02 -.431E+02 0.744E+03   0.270E+00 0.381E-01 0.265E+00   0.159E-02 -.239E-02 -.737E-02
   -.293E+02 0.126E+02 0.230E+04   0.293E+02 -.126E+02 -.229E+04   0.205E-01 -.272E-01 -.256E+01   0.389E-03 -.512E-04 -.107E-02
   -.326E+01 -.268E+02 -.233E+04   0.327E+01 0.269E+02 0.232E+04   -.257E-01 -.151E+00 0.309E+01   0.644E-02 -.112E-03 -.484E-02
   -.249E+02 -.224E+02 0.780E+03   0.252E+02 0.222E+02 -.780E+03   -.295E+00 0.119E+00 -.311E+00   0.188E-02 0.137E-03 -.547E-02
   0.114E+02 0.324E+02 0.230E+04   -.113E+02 -.325E+02 -.229E+04   -.676E-01 0.792E-01 -.285E+01   -.416E-03 0.273E-02 -.757E-03
   0.252E+01 0.993E+00 -.235E+04   -.255E+01 -.105E+01 0.234E+04   0.296E-01 0.605E-01 0.277E+01   -.633E-02 -.375E-02 -.286E-02
   0.358E+02 -.216E+02 0.795E+03   -.358E+02 0.215E+02 -.795E+03   0.307E-01 0.971E-01 -.279E+00   -.309E-02 0.805E-03 -.730E-02
   0.329E+02 -.598E+02 0.798E+03   -.332E+02 0.598E+02 -.798E+03   0.298E+00 -.211E-01 -.234E+00   -.121E-02 0.306E-02 -.984E-02
   -.126E+02 0.681E+02 0.810E+03   0.126E+02 -.680E+02 -.810E+03   -.449E-02 -.743E-01 -.345E+00   -.887E-03 0.367E-02 -.106E-01
   0.267E+02 0.114E+03 0.805E+03   -.269E+02 -.115E+03 -.805E+03   0.147E+00 0.287E+00 -.395E+00   0.590E-03 -.602E-03 -.609E-02
   0.104E+02 -.120E+02 0.235E+04   -.104E+02 0.120E+02 -.234E+04   -.177E-01 0.756E-01 -.264E+01   -.173E-02 -.107E-02 -.623E-03
   0.899E+01 0.143E+02 -.236E+04   -.895E+01 -.141E+02 0.235E+04   -.335E-01 -.119E+00 0.272E+01   -.331E-03 -.141E-03 -.344E-02
 -----------------------------------------------------------------------------------------------
   0.688E-01 0.143E+00 0.264E+01   -.551E-13 0.970E-12 -.273E-11   -.695E-01 -.140E+00 -.218E+01   0.365E-04 -.194E-02 -.460E+00
 
 
 POSITION                                       TOTAL-FORCE (eV/Angst)
 -----------------------------------------------------------------------------------
      0.00178      0.00956      6.09616         0.002398     -0.003829     -0.127683
      2.50692      0.01501      6.07844         0.017574     -0.009004     -0.145033
     -0.00144      8.67849      6.11717         0.003326      0.000726     -0.091794
      2.49802      8.67796      6.11249        -0.004080     -0.009971     -0.092085
     -1.25154      2.16777      6.11491         0.008026      0.002030     -0.128323
      1.25561      2.19243      6.12568         0.006598      0.019218     -0.078093
     -0.00285      1.44433      2.02731        -0.076105      0.022592      0.185282
     -0.01018      1.43848      8.12097        -0.003679      0.003872     -0.042063
      3.76061      2.17771      6.10865        -0.017465     -0.012410     -0.155264
      2.50178      1.44890      2.02870         0.127079     -0.056076      0.211258
      2.51046      1.44160      8.10414        -0.009982      0.007180     -0.056255
      6.26421      2.18462      6.14949         0.004862      0.008065     -0.133974
      5.00042      1.45188      2.04906        -0.068518      0.061461      0.223164
      4.99833      1.42700      8.13074        -0.001367     -0.010526     -0.073085
      7.52680      1.44774      2.04371        -0.005100      0.004564      0.334655
      7.54309      1.43487      8.12271         0.019036     -0.025726     -0.054513
      6.25724      0.72120      4.08067         0.025583     -0.066526     -0.008073
      8.77725      0.71231      4.06937        -0.012395     -0.003582      0.028284
     -2.49828      4.34794      6.07829        -0.003563      0.007903     -0.108462
     -1.27467      3.61315      2.03305        -0.046206      0.144102      0.217150
     -1.24551      3.60234      8.11632         0.000178      0.023217     -0.051346
     -0.00860      2.89985      4.06992         0.113154     -0.006009      0.010017
      5.02179      4.35698      6.09798         0.011835      0.001692     -0.095163
      3.76492      3.61380      2.03275        -0.052935      0.097241      0.125860
      3.75924      3.60008      8.14362         0.018177      0.033244     -0.038882
     -3.75520      6.52598      6.10913         0.002464      0.011072     -0.097278
     -1.25579      6.50528      6.08383         0.007931     -0.008819     -0.120476
     -2.50964      5.80144      2.00868         0.138333     -0.099290      0.323666
     -2.50740      5.78686      8.09246         0.007152     -0.032228     -0.047336
      1.25640      6.50919      6.11031        -0.004084     -0.000148     -0.070450
     -0.00666      5.79426      2.00000        -0.129772     -0.069583      0.266187
     -0.02204      5.78853      8.09893         0.019592     -0.006754     -0.069165
      3.76662      6.51474      6.09482         0.003805     -0.010392     -0.133683
      2.50308      5.78909      2.00258         0.207578     -0.066555      0.269815
      2.52846      5.79224      8.11998        -0.010309     -0.008937     -0.071346
      1.25945      5.05378      4.04325         0.008247     -0.058834     -0.024339
      5.01445      5.79798      2.01253        -0.204160     -0.056143      0.290300
      5.01524      5.79047      8.10339         0.005497     -0.031750     -0.053403
      6.27138      5.06452      4.04277        -0.003156     -0.076783      0.002673
     -3.76517      7.96148      2.01692         0.032944      0.070317      0.272963
     -3.76692      7.96392      8.09836        -0.005822      0.011437     -0.026374
     -1.24654      7.96318      2.02106        -0.038792      0.013666      0.176586
     -1.25696      7.95269      8.10352         0.011023      0.020053     -0.051997
     -2.51584      7.25277      4.05488        -0.042125     -0.024893      0.054744
      0.00963      7.22591      4.06956         0.065116      0.015343      0.004656
      3.74757      7.96401      2.04129         0.076804     -0.029137      0.191657
      3.75944      7.95797      8.12012        -0.034437      0.027415     -0.043952
      2.50222      7.23652      4.07554        -0.045137      0.012189     -0.010502
      5.01801      7.23500      4.07175        -0.009903      0.012287      0.031558
      1.20950      0.71304      4.05362         0.000478      0.027198     -0.126611
      3.78049      0.67792      4.06350        -0.073756      0.015798     -0.192551
     -0.00264      4.34001      6.11763         0.001441      0.005714     -0.075643
      2.54540      4.36505      6.16345         0.009362     -0.007227     -0.062338
      1.23098      3.62224      2.02942        -0.005399      0.055913      0.135726
      1.25185      3.61779      8.19843        -0.013245     -0.017712     -0.078924
      2.51334      2.87806      4.07938        -0.009310     -0.049939     -0.044401
      6.26024      3.63306      2.00212         0.015821     -0.022178      0.169554
      6.27080      3.61222      8.13491        -0.007031      0.000491     -0.082366
      5.02463      2.88643      4.11822         0.038708      0.052501     -0.206893
      7.52997      2.83909      4.10996        -0.029841     -0.006823     -0.146873
     -1.25360      5.10876      4.01488         0.041037     -0.030712     -0.248640
      3.75975      5.11705      4.02298        -0.053226      0.033227     -0.168679
      1.25181      7.95850      2.03066        -0.035396      0.082211      0.293493
      1.26210      7.95613      8.12282         0.005140      0.014558     -0.084938
 -----------------------------------------------------------------------------------
    total drift:                               -0.000676      0.001568      0.000514


--------------------------------------------------------------------------------------------------------



  FREE ENERGIE OF THE ION-ELECTRON SYSTEM (eV)
  ---------------------------------------------------
  free  energy   TOTEN  =      -389.18167760 eV

  energy  without entropy=     -389.18167760  energy(sigma->0) =     -389.18167760
 


--------------------------------------------------------------------------------------------------------


    POTLOK:  cpu time    0.2870: real time    0.2901


--------------------------------------------------------------------------------------------------------


     LOOP+:  cpu time  518.6522: real time  521.9439
    4ORBIT:  cpu time    0.0000: real time    0.0000
 


 total charge     
 
# of ion       s       p       d       tot
------------------------------------------
    1        0.494   0.491   8.323   9.308
    2        0.495   0.494   8.329   9.317
    3        0.498   0.498   8.321   9.317
    4        0.493   0.492   8.317   9.301
    5        0.499   0.501   8.324   9.324
    6        0.505   0.510   8.317   9.333
    7        0.489   0.381   8.322   9.191
    8        0.490   0.381   8.318   9.189
    9        0.505   0.510   8.324   9.339
   10        0.497   0.389   8.309   9.195
   11        0.490   0.384   8.313   9.186
   12        0.502   0.507   8.329   9.337
   13        0.497   0.395   8.313   9.206
   14        0.492   0.385   8.319   9.196
   15        0.493   0.389   8.315   9.197
   16        0.493   0.390   8.318   9.201
   17        0.506   0.504   8.331   9.341
   18        0.499   0.496   8.333   9.328
   19        0.501   0.505   8.327   9.334
   20        0.501   0.392   8.313   9.206
   21        0.500   0.393   8.318   9.211
   22        0.508   0.516   8.325   9.349
   23        0.502   0.507   8.328   9.337
   24        0.503   0.393   8.311   9.207
   25        0.499   0.388   8.318   9.205
   26        0.489   0.489   8.307   9.284
   27        0.498   0.498   8.322   9.318
   28        0.492   0.383   8.315   9.190
   29        0.489   0.383   8.311   9.184
   30        0.500   0.503   8.319   9.322
   31        0.495   0.386   8.319   9.200
   32        0.497   0.395   8.316   9.209
   33        0.500   0.500   8.323   9.323
   34        0.492   0.385   8.318   9.196
   35        0.498   0.396   8.315   9.210
   36        0.506   0.507   8.326   9.339
   37        0.491   0.382   8.315   9.188
   38        0.488   0.383   8.311   9.182
   39        0.504   0.506   8.317   9.327
   40        0.484   0.371   8.315   9.169
   41        0.485   0.372   8.311   9.168
   42        0.491   0.379   8.318   9.188
   43        0.490   0.377   8.316   9.183
   44        0.501   0.501   8.325   9.327
   45        0.501   0.503   8.327   9.331
   46        0.486   0.377   8.308   9.171
   47        0.491   0.378   8.320   9.189
   48        0.497   0.497   8.319   9.313
   49        0.499   0.495   8.327   9.322
   50        0.475   0.505   6.161   7.140
   51        0.477   0.508   6.179   7.164
   52        0.471   0.505   6.178   7.154
   53        0.475   0.509   6.187   7.171
   54        0.463   0.392   6.114   6.969
   55        0.463   0.386   6.115   6.964
   56        0.474   0.507   6.205   7.186
   57        0.463   0.389   6.109   6.961
   58        0.463   0.391   6.088   6.942
   59        0.477   0.508   6.205   7.190
   60        0.474   0.506   6.176   7.156
   61        0.474   0.501   6.152   7.127
   62        0.476   0.503   6.163   7.142
   63        0.461   0.394   6.095   6.950
   64        0.466   0.398   6.094   6.958
--------------------------------------------------
tot         31.367  28.442 499.855 559.664
 


 magnetization (x)
 
# of ion       s       p       d       tot
------------------------------------------
    1       -0.010  -0.029   0.687   0.648
    2       -0.011  -0.031   0.673   0.631
    3       -0.012  -0.034   0.722   0.676
    4       -0.010  -0.033   0.716   0.674
    5       -0.009  -0.031   0.702   0.662
    6       -0.019  -0.044   0.756   0.693
    7       -0.014  -0.031   0.651   0.606
    8       -0.011  -0.027   0.655   0.617
    9       -0.014  -0.036   0.715   0.665
   10       -0.019  -0.035   0.733   0.679
   11       -0.011  -0.029   0.677   0.638
   12       -0.014  -0.039   0.703   0.651
   13       -0.018  -0.036   0.719   0.665
   14       -0.015  -0.031   0.670   0.623
   15       -0.016  -0.034   0.691   0.641
   16       -0.013  -0.031   0.678   0.634
   17       -0.017  -0.037   0.699   0.645
   18       -0.012  -0.029   0.662   0.621
   19       -0.015  -0.039   0.719   0.664
   20       -0.020  -0.033   0.725   0.672
   21       -0.017  -0.031   0.701   0.652
   22       -0.020  -0.048   0.739   0.670
   23       -0.015  -0.039   0.718   0.665
   24       -0.022  -0.034   0.741   0.685
   25       -0.019  -0.030   0.704   0.654
   26       -0.005  -0.027   0.732   0.701
   27       -0.011  -0.031   0.706   0.664
   28       -0.012  -0.030   0.691   0.649
   29       -0.012  -0.030   0.683   0.641
   30       -0.012  -0.038   0.732   0.682
   31       -0.016  -0.032   0.688   0.639
   32       -0.017  -0.035   0.703   0.652
   33       -0.011  -0.031   0.708   0.665
   34       -0.017  -0.034   0.687   0.635
   35       -0.016  -0.034   0.716   0.665
   36       -0.022  -0.046   0.722   0.655
   37       -0.013  -0.030   0.686   0.643
   38       -0.011  -0.030   0.684   0.643
   39       -0.020  -0.044   0.757   0.693
   40       -0.011  -0.024   0.670   0.635
   41       -0.009  -0.022   0.667   0.636
   42       -0.016  -0.027   0.671   0.628
   43       -0.013  -0.023   0.672   0.636
   44       -0.014  -0.034   0.711   0.663
   45       -0.014  -0.038   0.710   0.658
   46       -0.012  -0.026   0.685   0.647
   47       -0.013  -0.023   0.653   0.618
   48       -0.012  -0.037   0.717   0.668
   49       -0.011  -0.029   0.692   0.652
   50        0.005  -0.009   2.796   2.792
   51        0.003  -0.015   2.746   2.734
   52        0.004  -0.018   2.753   2.739
   53        0.001  -0.022   2.731   2.711
   54        0.015  -0.007   2.899   2.907
   55        0.012  -0.009   2.909   2.911
   56       -0.004  -0.031   2.665   2.630
   57        0.013  -0.009   2.908   2.912
   58        0.019  -0.003   2.974   2.991
   59       -0.002  -0.026   2.670   2.642
   60        0.004  -0.019   2.756   2.742
   61        0.006  -0.008   2.826   2.824
   62        0.003  -0.012   2.794   2.785
   63        0.020  -0.006   2.938   2.952
   64        0.019  -0.004   2.951   2.966
--------------------------------------------------
tot         -0.576  -1.803  76.618  74.238
 
 BZINTS: Fermi energy:  0.286355;610.000000 electrons
         Band energy:***********;  BLOECHL correction: -0.003983

 total amount of memory used by VASP MPI-rank0   113099. kBytes
=======================================================================

   base      :      30000. kBytes
   nonlr-proj:      13119. kBytes
   fftplans  :       6402. kBytes
   grid      :      16455. kBytes
   one-center:         93. kBytes
   wavefun   :      47030. kBytes
 
  
  
 General timing and accounting informations for this job:
 ========================================================
  
                  Total CPU time used (sec):      554.026
                            User time (sec):      548.310
                          System time (sec):        5.716
                         Elapsed time (sec):      565.169
  
                   Maximum memory used (kb):      193768.
                   Average memory used (kb):           0.
  
                          Minor page faults:        85585
                          Major page faults:            0
                 Voluntary context switches:        10690
