  70  70   1   0
  0.2635535E+02  0.1002677E-08  0.1002677E-08  0.2118918E-08  0.1500000E-16
  1.000000000000000E-004
  CAR 
 SQS-NiFe                                
      4.94866081    -21.03359966  301      0.15226707      1.00000000
    -21.034  0.0000E+00  0.0000E+00
    -20.947  0.0000E+00  0.0000E+00
    -20.860  0.0000E+00  0.0000E+00
    -20.774  0.0000E+00  0.0000E+00
    -20.687  0.0000E+00  0.0000E+00
    -20.601  0.0000E+00  0.0000E+00
    -20.514  0.0000E+00  0.0000E+00
    -20.427  0.0000E+00  0.0000E+00
    -20.341  0.0000E+00  0.0000E+00
    -20.254  0.0000E+00  0.0000E+00
    -20.168  0.2339E-16  0.2025E-17
    -20.081  0.2763E-14  0.2413E-15
    -19.994  0.2393E-12  0.2096E-13
    -19.908  0.1438E-10  0.1266E-11
    -19.821  0.5999E-09  0.5322E-10
    -19.734  0.1741E-07  0.1561E-08
    -19.648  0.3517E-06  0.3202E-07
    -19.561  0.4953E-05  0.4610E-06
    -19.475  0.4870E-04  0.4679E-05
    -19.388  0.3348E-03  0.3368E-04
    -19.301  0.1611E-02  0.1732E-03
    -19.215  0.5435E-02  0.6440E-03
    -19.128  0.1286E-01  0.1758E-02
    -19.042  0.2138E-01  0.3610E-02
    -18.955  0.2498E-01  0.5773E-02
    -18.868  0.2065E-01  0.7562E-02
    -18.782  0.1255E-01  0.8649E-02
    -18.695  0.6967E-02  0.9253E-02
    -18.609  0.5758E-02  0.9751E-02
    -18.522  0.6409E-02  0.1031E-01
    -18.435  0.5989E-02  0.1083E-01
    -18.349  0.4014E-02  0.1117E-01
    -18.262  0.1879E-02  0.1134E-01
    -18.176  0.6115E-03  0.1139E-01
    -18.089  0.1383E-03  0.1140E-01
    -18.002  0.2170E-04  0.1140E-01
    -17.916  0.2363E-05  0.1140E-01
    -17.829  0.1784E-06  0.1140E-01
    -17.743  0.9335E-08  0.1140E-01
    -17.656  0.3381E-09  0.1140E-01
    -17.569  0.8474E-11  0.1140E-01
    -17.483  0.1469E-12  0.1140E-01
    -17.396  0.1760E-14  0.1140E-01
    -17.309  0.1462E-16  0.1140E-01
    -17.223  0.0000E+00  0.1140E-01
    -17.136  0.0000E+00  0.1140E-01
    -17.050  0.0000E+00  0.1140E-01
    -16.963  0.0000E+00  0.1140E-01
    -16.876  0.0000E+00  0.1140E-01
    -16.790  0.0000E+00  0.1140E-01
    -16.703  0.0000E+00  0.1140E-01
    -16.617  0.0000E+00  0.1140E-01
    -16.530  0.0000E+00  0.1140E-01
    -16.443  0.0000E+00  0.1140E-01
    -16.357  0.0000E+00  0.1140E-01
    -16.270  0.0000E+00  0.1140E-01
    -16.184  0.0000E+00  0.1140E-01
    -16.097  0.0000E+00  0.1140E-01
    -16.010  0.0000E+00  0.1140E-01
    -15.924  0.0000E+00  0.1140E-01
    -15.837  0.0000E+00  0.1140E-01
    -15.751  0.0000E+00  0.1140E-01
    -15.664  0.0000E+00  0.1140E-01
    -15.577  0.0000E+00  0.1140E-01
    -15.491  0.0000E+00  0.1140E-01
    -15.404  0.0000E+00  0.1140E-01
    -15.318  0.0000E+00  0.1140E-01
    -15.231  0.0000E+00  0.1140E-01
    -15.144  0.0000E+00  0.1140E-01
    -15.058  0.0000E+00  0.1140E-01
    -14.971  0.0000E+00  0.1140E-01
    -14.884  0.0000E+00  0.1140E-01
    -14.798  0.0000E+00  0.1140E-01
    -14.711  0.0000E+00  0.1140E-01
    -14.625  0.0000E+00  0.1140E-01
    -14.538  0.0000E+00  0.1140E-01
    -14.451  0.0000E+00  0.1140E-01
    -14.365  0.0000E+00  0.1140E-01
    -14.278  0.0000E+00  0.1140E-01
    -14.192  0.0000E+00  0.1140E-01
    -14.105  0.0000E+00  0.1140E-01
    -14.018  0.0000E+00  0.1140E-01
    -13.932  0.0000E+00  0.1140E-01
    -13.845  0.0000E+00  0.1140E-01
    -13.759  0.0000E+00  0.1140E-01
    -13.672  0.0000E+00  0.1140E-01
    -13.585  0.0000E+00  0.1140E-01
    -13.499  0.0000E+00  0.1140E-01
    -13.412  0.0000E+00  0.1140E-01
    -13.326  0.0000E+00  0.1140E-01
    -13.239  0.0000E+00  0.1140E-01
    -13.152  0.0000E+00  0.1140E-01
    -13.066  0.0000E+00  0.1140E-01
    -12.979  0.0000E+00  0.1140E-01
    -12.892  0.0000E+00  0.1140E-01
    -12.806  0.0000E+00  0.1140E-01
    -12.719  0.0000E+00  0.1140E-01
    -12.633  0.0000E+00  0.1140E-01
    -12.546  0.0000E+00  0.1140E-01
    -12.459  0.0000E+00  0.1140E-01
    -12.373  0.0000E+00  0.1140E-01
    -12.286  0.0000E+00  0.1140E-01
    -12.200  0.0000E+00  0.1140E-01
    -12.113  0.0000E+00  0.1140E-01
    -12.026  0.0000E+00  0.1140E-01
    -11.940  0.0000E+00  0.1140E-01
    -11.853  0.0000E+00  0.1140E-01
    -11.767  0.0000E+00  0.1140E-01
    -11.680  0.0000E+00  0.1140E-01
    -11.593  0.0000E+00  0.1140E-01
    -11.507  0.0000E+00  0.1140E-01
    -11.420  0.0000E+00  0.1140E-01
    -11.334  0.0000E+00  0.1140E-01
    -11.247  0.0000E+00  0.1140E-01
    -11.160  0.0000E+00  0.1140E-01
    -11.074  0.0000E+00  0.1140E-01
    -10.987  0.0000E+00  0.1140E-01
    -10.901  0.0000E+00  0.1140E-01
    -10.814  0.0000E+00  0.1140E-01
    -10.727  0.0000E+00  0.1140E-01
    -10.641  0.0000E+00  0.1140E-01
    -10.554  0.0000E+00  0.1140E-01
    -10.467  0.0000E+00  0.1140E-01
    -10.381  0.0000E+00  0.1140E-01
    -10.294  0.0000E+00  0.1140E-01
    -10.208  0.0000E+00  0.1140E-01
    -10.121  0.0000E+00  0.1140E-01
    -10.034  0.0000E+00  0.1140E-01
     -9.948  0.0000E+00  0.1140E-01
     -9.861  0.0000E+00  0.1140E-01
     -9.775  0.0000E+00  0.1140E-01
     -9.688  0.0000E+00  0.1140E-01
     -9.601  0.0000E+00  0.1140E-01
     -9.515  0.0000E+00  0.1140E-01
     -9.428  0.0000E+00  0.1140E-01
     -9.342  0.2923E-17  0.1140E-01
     -9.255  0.4020E-15  0.1140E-01
     -9.168  0.3774E-13  0.1140E-01
     -9.082  0.2447E-11  0.1140E-01
     -8.995  0.1097E-09  0.1140E-01
     -8.909  0.3402E-08  0.1140E-01
     -8.822  0.7305E-07  0.1140E-01
     -8.735  0.1086E-05  0.1140E-01
     -8.649  0.1120E-04  0.1140E-01
     -8.562  0.8009E-04  0.1141E-01
     -8.476  0.3975E-03  0.1144E-01
     -8.389  0.1370E-02  0.1156E-01
     -8.302  0.3282E-02  0.1185E-01
     -8.216  0.5464E-02  0.1232E-01
     -8.129  0.6323E-02  0.1287E-01
     -8.042  0.5088E-02  0.1331E-01
     -7.956  0.2846E-02  0.1356E-01
     -7.869  0.1106E-02  0.1365E-01
     -7.783  0.2988E-03  0.1368E-01
     -7.696  0.5604E-04  0.1368E-01
     -7.609  0.7296E-05  0.1368E-01
     -7.523  0.6943E-06  0.1368E-01
     -7.436  0.6234E-06  0.1368E-01
     -7.350  0.6564E-05  0.1368E-01
     -7.263  0.5130E-04  0.1369E-01
     -7.176  0.2784E-03  0.1371E-01
     -7.090  0.1049E-02  0.1380E-01
     -7.003  0.2756E-02  0.1404E-01
     -6.917  0.5085E-02  0.1448E-01
     -6.830  0.6835E-02  0.1507E-01
     -6.743  0.7634E-02  0.1574E-01
     -6.657  0.9415E-02  0.1655E-01
     -6.570  0.1440E-01  0.1780E-01
     -6.484  0.2200E-01  0.1970E-01
     -6.397  0.2918E-01  0.2223E-01
     -6.310  0.3291E-01  0.2508E-01
     -6.224  0.3118E-01  0.2778E-01
     -6.137  0.2407E-01  0.2987E-01
     -6.050  0.1486E-01  0.3115E-01
     -5.964  0.8347E-02  0.3188E-01
     -5.877  0.7491E-02  0.3252E-01
     -5.791  0.1209E-01  0.3357E-01
     -5.704  0.1950E-01  0.3526E-01
     -5.617  0.2710E-01  0.3761E-01
     -5.531  0.3472E-01  0.4061E-01
     -5.444  0.4280E-01  0.4432E-01
     -5.358  0.4834E-01  0.4851E-01
     -5.271  0.4667E-01  0.5255E-01
     -5.184  0.3730E-01  0.5578E-01
     -5.098  0.2562E-01  0.5800E-01
     -5.011  0.1890E-01  0.5964E-01
     -4.925  0.2096E-01  0.6145E-01
     -4.838  0.2901E-01  0.6396E-01
     -4.751  0.3588E-01  0.6707E-01
     -4.665  0.3608E-01  0.7020E-01
     -4.578  0.2938E-01  0.7274E-01
     -4.492  0.2012E-01  0.7448E-01
     -4.405  0.1386E-01  0.7568E-01
     -4.318  0.1367E-01  0.7687E-01
     -4.232  0.1953E-01  0.7856E-01
     -4.145  0.2974E-01  0.8113E-01
     -4.059  0.4071E-01  0.8466E-01
     -3.972  0.4901E-01  0.8891E-01
     -3.885  0.5565E-01  0.9373E-01
     -3.799  0.6482E-01  0.9934E-01
     -3.712  0.7868E-01  0.1062E+00
     -3.625  0.9677E-01  0.1145E+00
     -3.539  0.1169E+00  0.1247E+00
     -3.452  0.1335E+00  0.1362E+00
     -3.366  0.1394E+00  0.1483E+00
     -3.279  0.1317E+00  0.1597E+00
     -3.192  0.1142E+00  0.1696E+00
     -3.106  0.9790E-01  0.1781E+00
     -3.019  0.9631E-01  0.1864E+00
     -2.933  0.1111E+00  0.1960E+00
     -2.846  0.1268E+00  0.2070E+00
     -2.759  0.1290E+00  0.2182E+00
     -2.673  0.1221E+00  0.2288E+00
     -2.586  0.1219E+00  0.2393E+00
     -2.500  0.1328E+00  0.2508E+00
     -2.413  0.1440E+00  0.2633E+00
     -2.326  0.1464E+00  0.2760E+00
     -2.240  0.1441E+00  0.2885E+00
     -2.153  0.1444E+00  0.3010E+00
     -2.067  0.1487E+00  0.3138E+00
     -1.980  0.1566E+00  0.3274E+00
     -1.893  0.1712E+00  0.3422E+00
     -1.807  0.1928E+00  0.3589E+00
     -1.720  0.2147E+00  0.3775E+00
     -1.634  0.2292E+00  0.3974E+00
     -1.547  0.2354E+00  0.4178E+00
     -1.460  0.2330E+00  0.4379E+00
     -1.374  0.2180E+00  0.4568E+00
     -1.287  0.1916E+00  0.4734E+00
     -1.200  0.1669E+00  0.4879E+00
     -1.114  0.1571E+00  0.5015E+00
     -1.027  0.1637E+00  0.5157E+00
     -0.941  0.1786E+00  0.5311E+00
     -0.854  0.1934E+00  0.5479E+00
     -0.767  0.2029E+00  0.5655E+00
     -0.681  0.2055E+00  0.5833E+00
     -0.594  0.2027E+00  0.6008E+00
     -0.508  0.1964E+00  0.6178E+00
     -0.421  0.1869E+00  0.6340E+00
     -0.334  0.1753E+00  0.6492E+00
     -0.248  0.1652E+00  0.6635E+00
     -0.161  0.1604E+00  0.6774E+00
     -0.075  0.1623E+00  0.6914E+00
      0.012  0.1691E+00  0.7061E+00
      0.099  0.1761E+00  0.7213E+00
      0.185  0.1781E+00  0.7368E+00
      0.272  0.1723E+00  0.7517E+00
      0.358  0.1593E+00  0.7655E+00
      0.445  0.1415E+00  0.7777E+00
      0.532  0.1217E+00  0.7883E+00
      0.618  0.1014E+00  0.7971E+00
      0.705  0.8003E-01  0.8040E+00
      0.791  0.5881E-01  0.8091E+00
      0.878  0.4210E-01  0.8127E+00
      0.965  0.3226E-01  0.8155E+00
      1.051  0.2736E-01  0.8179E+00
      1.138  0.2547E-01  0.8201E+00
      1.225  0.2663E-01  0.8224E+00
      1.311  0.2973E-01  0.8250E+00
      1.398  0.3133E-01  0.8277E+00
      1.484  0.2907E-01  0.8302E+00
      1.571  0.2488E-01  0.8324E+00
      1.658  0.2345E-01  0.8344E+00
      1.744  0.2726E-01  0.8368E+00
      1.831  0.3340E-01  0.8396E+00
      1.917  0.3566E-01  0.8427E+00
      2.004  0.3074E-01  0.8454E+00
      2.091  0.2232E-01  0.8473E+00
      2.177  0.1804E-01  0.8489E+00
      2.264  0.2287E-01  0.8509E+00
      2.350  0.3437E-01  0.8539E+00
      2.437  0.4413E-01  0.8577E+00
      2.524  0.4503E-01  0.8616E+00
      2.610  0.3763E-01  0.8648E+00
      2.697  0.2867E-01  0.8673E+00
      2.783  0.2379E-01  0.8694E+00
      2.870  0.2272E-01  0.8713E+00
      2.957  0.2097E-01  0.8732E+00
      3.043  0.1574E-01  0.8745E+00
      3.130  0.8839E-02  0.8753E+00
      3.217  0.3595E-02  0.8756E+00
      3.303  0.1044E-02  0.8757E+00
      3.390  0.2148E-03  0.8757E+00
      3.476  0.3117E-04  0.8757E+00
      3.563  0.3180E-05  0.8757E+00
      3.650  0.2273E-06  0.8757E+00
      3.736  0.1136E-07  0.8757E+00
      3.823  0.3959E-09  0.8757E+00
      3.909  0.9604E-11  0.8757E+00
      3.996  0.1619E-12  0.8757E+00
      4.083  0.1897E-14  0.8757E+00
      4.169  0.1462E-16  0.8757E+00
      4.256  0.0000E+00  0.8757E+00
      4.342  0.0000E+00  0.8757E+00
      4.429  0.0000E+00  0.8757E+00
      4.516  0.0000E+00  0.8757E+00
      4.602  0.0000E+00  0.8757E+00
      4.689  0.0000E+00  0.8757E+00
      4.775  0.0000E+00  0.8757E+00
      4.862  0.0000E+00  0.8757E+00
      4.949  0.0000E+00  0.8757E+00
      4.94866081    -21.03359966  301      0.15226707      1.00000000
    -21.034  0.0000E+00  0.0000E+00  0.0000E+00
    -20.947  0.0000E+00  0.0000E+00  0.0000E+00
    -20.860  0.0000E+00  0.0000E+00  0.0000E+00
    -20.774  0.0000E+00  0.0000E+00  0.0000E+00
    -20.687  0.0000E+00  0.0000E+00  0.0000E+00
    -20.601  0.0000E+00  0.0000E+00  0.0000E+00
    -20.514  0.0000E+00  0.0000E+00  0.0000E+00
    -20.427  0.0000E+00  0.0000E+00  0.0000E+00
    -20.341  0.0000E+00  0.0000E+00  0.0000E+00
    -20.254  0.0000E+00  0.0000E+00  0.0000E+00
    -20.168  0.1560E-18  0.1390E-18  0.6579E-19
    -20.081  0.1821E-16  0.1619E-16  0.7622E-17
    -19.994  0.1527E-14  0.1370E-14  0.6562E-15
    -19.908  0.8855E-13  0.8016E-13  0.3915E-13
    -19.821  0.3553E-11  0.3249E-11  0.1620E-11
    -19.734  0.9872E-10  0.9129E-10  0.4651E-10
    -19.648  0.1901E-08  0.1780E-08  0.9282E-09
    -19.561  0.2538E-07  0.2409E-07  0.1288E-07
    -19.475  0.2353E-06  0.2268E-06  0.1245E-06
    -19.388  0.1516E-05  0.1486E-05  0.8394E-06
    -19.301  0.6793E-05  0.6785E-05  0.3948E-05
    -19.215  0.2119E-04  0.2161E-04  0.1298E-04
    -19.128  0.4608E-04  0.4808E-04  0.2982E-04
    -19.042  0.6991E-04  0.7478E-04  0.4797E-04
    -18.955  0.7406E-04  0.8140E-04  0.5404E-04
    -18.868  0.5489E-04  0.6211E-04  0.4269E-04
    -18.782  0.2865E-04  0.3343E-04  0.2379E-04
    -18.695  0.1102E-04  0.1325E-04  0.9746E-05
    -18.609  0.4068E-05  0.4946E-05  0.3707E-05
    -18.522  0.2490E-05  0.2950E-05  0.2185E-05
    -18.435  0.2020E-05  0.2354E-05  0.1724E-05
    -18.349  0.1327E-05  0.1541E-05  0.1125E-05
    -18.262  0.6196E-06  0.7191E-06  0.5248E-06
    -18.176  0.2016E-06  0.2339E-06  0.1707E-06
    -18.089  0.4558E-07  0.5289E-07  0.3860E-07
    -18.002  0.7154E-08  0.8302E-08  0.6058E-08
    -17.916  0.7791E-09  0.9041E-09  0.6597E-09
    -17.829  0.5882E-10  0.6826E-10  0.4981E-10
    -17.743  0.3077E-11  0.3571E-11  0.2606E-11
    -17.656  0.1115E-12  0.1293E-12  0.9439E-13
    -17.569  0.2794E-14  0.3242E-14  0.2366E-14
    -17.483  0.4842E-16  0.5618E-16  0.4100E-16
    -17.396  0.5802E-18  0.6732E-18  0.4913E-18
    -17.309  0.4819E-20  0.5591E-20  0.4080E-20
    -17.223  0.0000E+00  0.0000E+00  0.0000E+00
    -17.136  0.0000E+00  0.0000E+00  0.0000E+00
    -17.050  0.0000E+00  0.0000E+00  0.0000E+00
    -16.963  0.0000E+00  0.0000E+00  0.0000E+00
    -16.876  0.0000E+00  0.0000E+00  0.0000E+00
    -16.790  0.0000E+00  0.0000E+00  0.0000E+00
    -16.703  0.0000E+00  0.0000E+00  0.0000E+00
    -16.617  0.0000E+00  0.0000E+00  0.0000E+00
    -16.530  0.0000E+00  0.0000E+00  0.0000E+00
    -16.443  0.0000E+00  0.0000E+00  0.0000E+00
    -16.357  0.0000E+00  0.0000E+00  0.0000E+00
    -16.270  0.0000E+00  0.0000E+00  0.0000E+00
    -16.184  0.0000E+00  0.0000E+00  0.0000E+00
    -16.097  0.0000E+00  0.0000E+00  0.0000E+00
    -16.010  0.0000E+00  0.0000E+00  0.0000E+00
    -15.924  0.0000E+00  0.0000E+00  0.0000E+00
    -15.837  0.0000E+00  0.0000E+00  0.0000E+00
    -15.751  0.0000E+00  0.0000E+00  0.0000E+00
    -15.664  0.0000E+00  0.0000E+00  0.0000E+00
    -15.577  0.0000E+00  0.0000E+00  0.0000E+00
    -15.491  0.0000E+00  0.0000E+00  0.0000E+00
    -15.404  0.0000E+00  0.0000E+00  0.0000E+00
    -15.318  0.0000E+00  0.0000E+00  0.0000E+00
    -15.231  0.0000E+00  0.0000E+00  0.0000E+00
    -15.144  0.0000E+00  0.0000E+00  0.0000E+00
    -15.058  0.0000E+00  0.0000E+00  0.0000E+00
    -14.971  0.0000E+00  0.0000E+00  0.0000E+00
    -14.884  0.0000E+00  0.0000E+00  0.0000E+00
    -14.798  0.0000E+00  0.0000E+00  0.0000E+00
    -14.711  0.0000E+00  0.0000E+00  0.0000E+00
    -14.625  0.0000E+00  0.0000E+00  0.0000E+00
    -14.538  0.0000E+00  0.0000E+00  0.0000E+00
    -14.451  0.0000E+00  0.0000E+00  0.0000E+00
    -14.365  0.0000E+00  0.0000E+00  0.0000E+00
    -14.278  0.0000E+00  0.0000E+00  0.0000E+00
    -14.192  0.0000E+00  0.0000E+00  0.0000E+00
    -14.105  0.0000E+00  0.0000E+00  0.0000E+00
    -14.018  0.0000E+00  0.0000E+00  0.0000E+00
    -13.932  0.0000E+00  0.0000E+00  0.0000E+00
    -13.845  0.0000E+00  0.0000E+00  0.0000E+00
    -13.759  0.0000E+00  0.0000E+00  0.0000E+00
    -13.672  0.0000E+00  0.0000E+00  0.0000E+00
    -13.585  0.0000E+00  0.0000E+00  0.0000E+00
    -13.499  0.0000E+00  0.0000E+00  0.0000E+00
    -13.412  0.0000E+00  0.0000E+00  0.0000E+00
    -13.326  0.0000E+00  0.0000E+00  0.0000E+00
    -13.239  0.0000E+00  0.0000E+00  0.0000E+00
    -13.152  0.0000E+00  0.0000E+00  0.0000E+00
    -13.066  0.0000E+00  0.0000E+00  0.0000E+00
    -12.979  0.0000E+00  0.0000E+00  0.0000E+00
    -12.892  0.0000E+00  0.0000E+00  0.0000E+00
    -12.806  0.0000E+00  0.0000E+00  0.0000E+00
    -12.719  0.0000E+00  0.0000E+00  0.0000E+00
    -12.633  0.0000E+00  0.0000E+00  0.0000E+00
    -12.546  0.0000E+00  0.0000E+00  0.0000E+00
    -12.459  0.0000E+00  0.0000E+00  0.0000E+00
    -12.373  0.0000E+00  0.0000E+00  0.0000E+00
    -12.286  0.0000E+00  0.0000E+00  0.0000E+00
    -12.200  0.0000E+00  0.0000E+00  0.0000E+00
    -12.113  0.0000E+00  0.0000E+00  0.0000E+00
    -12.026  0.0000E+00  0.0000E+00  0.0000E+00
    -11.940  0.0000E+00  0.0000E+00  0.0000E+00
    -11.853  0.0000E+00  0.0000E+00  0.0000E+00
    -11.767  0.0000E+00  0.0000E+00  0.0000E+00
    -11.680  0.0000E+00  0.0000E+00  0.0000E+00
    -11.593  0.0000E+00  0.0000E+00  0.0000E+00
    -11.507  0.0000E+00  0.0000E+00  0.0000E+00
    -11.420  0.0000E+00  0.0000E+00  0.0000E+00
    -11.334  0.0000E+00  0.0000E+00  0.0000E+00
    -11.247  0.0000E+00  0.0000E+00  0.0000E+00
    -11.160  0.0000E+00  0.0000E+00  0.0000E+00
    -11.074  0.0000E+00  0.0000E+00  0.0000E+00
    -10.987  0.0000E+00  0.0000E+00  0.0000E+00
    -10.901  0.0000E+00  0.0000E+00  0.0000E+00
    -10.814  0.0000E+00  0.0000E+00  0.0000E+00
    -10.727  0.0000E+00  0.0000E+00  0.0000E+00
    -10.641  0.0000E+00  0.0000E+00  0.0000E+00
    -10.554  0.0000E+00  0.0000E+00  0.0000E+00
    -10.467  0.0000E+00  0.0000E+00  0.0000E+00
    -10.381  0.0000E+00  0.0000E+00  0.0000E+00
    -10.294  0.0000E+00  0.0000E+00  0.0000E+00
    -10.208  0.0000E+00  0.0000E+00  0.0000E+00
    -10.121  0.0000E+00  0.0000E+00  0.0000E+00
    -10.034  0.0000E+00  0.0000E+00  0.0000E+00
     -9.948  0.0000E+00  0.0000E+00  0.0000E+00
     -9.861  0.0000E+00  0.0000E+00  0.0000E+00
     -9.775  0.0000E+00  0.0000E+00  0.0000E+00
     -9.688  0.0000E+00  0.0000E+00  0.0000E+00
     -9.601  0.0000E+00  0.0000E+00  0.0000E+00
     -9.515  0.0000E+00  0.0000E+00  0.0000E+00
     -9.428  0.0000E+00  0.0000E+00  0.0000E+00
     -9.342  0.4962E-16  0.3322E-18  0.1148E-18
     -9.255  0.6822E-14  0.4568E-16  0.1578E-16
     -9.168  0.6405E-12  0.4289E-14  0.1481E-14
     -9.082  0.4153E-10  0.2781E-12  0.9606E-13
     -8.995  0.1862E-08  0.1247E-10  0.4307E-11
     -8.909  0.5774E-07  0.3867E-09  0.1336E-09
     -8.822  0.1240E-05  0.8302E-08  0.2868E-08
     -8.735  0.1844E-04  0.1235E-06  0.4265E-07
     -8.649  0.1901E-03  0.1273E-05  0.4397E-06
     -8.562  0.1359E-02  0.9103E-05  0.3144E-05
     -8.476  0.6747E-02  0.4518E-04  0.1561E-04
     -8.389  0.2326E-01  0.1557E-03  0.5380E-04
     -8.302  0.5570E-01  0.3730E-03  0.1288E-03
     -8.216  0.9273E-01  0.6209E-03  0.2145E-03
     -8.129  0.1073E+00  0.7186E-03  0.2482E-03
     -8.042  0.8635E-01  0.5782E-03  0.1997E-03
     -7.956  0.4830E-01  0.3234E-03  0.1117E-03
     -7.869  0.1878E-01  0.1257E-03  0.4343E-04
     -7.783  0.5071E-02  0.3396E-04  0.1173E-04
     -7.696  0.9512E-03  0.6369E-05  0.2200E-05
     -7.609  0.1238E-03  0.8315E-06  0.2868E-06
     -7.523  0.1134E-04  0.1317E-06  0.3595E-07
     -7.436  0.3399E-05  0.9301E-06  0.1659E-06
     -7.350  0.3046E-04  0.1043E-04  0.1851E-05
     -7.263  0.2379E-03  0.8154E-04  0.1447E-04
     -7.176  0.1291E-02  0.4424E-03  0.7856E-04
     -7.090  0.4872E-02  0.1668E-02  0.2966E-03
     -7.003  0.1287E-01  0.4375E-02  0.7839E-03
     -6.917  0.2445E-01  0.8047E-02  0.1486E-02
     -6.830  0.3733E-01  0.1067E-01  0.2215E-02
     -6.743  0.6071E-01  0.1140E-01  0.3301E-02
     -6.657  0.1224E+00  0.1316E-01  0.6001E-02
     -6.570  0.2364E+00  0.2060E-01  0.1127E-01
     -6.484  0.3538E+00  0.3618E-01  0.1786E-01
     -6.397  0.3888E+00  0.5778E-01  0.2260E-01
     -6.310  0.3166E+00  0.7662E-01  0.2294E-01
     -6.224  0.1978E+00  0.8040E-01  0.1883E-01
     -6.137  0.9908E-01  0.6527E-01  0.1245E-01
     -6.050  0.4117E-01  0.4191E-01  0.6678E-02
     -5.964  0.1546E-01  0.2637E-01  0.3550E-02
     -5.877  0.8877E-02  0.2743E-01  0.3876E-02
     -5.791  0.1160E-01  0.4084E-01  0.7995E-02
     -5.704  0.1700E-01  0.5217E-01  0.1677E-01
     -5.617  0.2133E-01  0.5029E-01  0.3237E-01
     -5.531  0.2329E-01  0.3865E-01  0.5595E-01
     -5.444  0.2201E-01  0.2759E-01  0.8033E-01
     -5.358  0.1719E-01  0.2071E-01  0.8960E-01
     -5.271  0.1098E-01  0.1530E-01  0.7497E-01
     -5.184  0.7115E-02  0.1016E-01  0.4727E-01
     -5.098  0.9730E-02  0.7692E-02  0.2627E-01
     -5.011  0.2503E-01  0.1111E-01  0.2454E-01
     -4.925  0.5973E-01  0.2125E-01  0.4403E-01
     -4.838  0.1118E+00  0.3397E-01  0.7692E-01
     -4.751  0.1629E+00  0.4175E-01  0.1067E+00
     -4.665  0.1854E+00  0.4000E-01  0.1164E+00
     -4.578  0.1654E+00  0.3038E-01  0.1012E+00
     -4.492  0.1211E+00  0.1824E-01  0.7565E-01
     -4.405  0.8737E-01  0.8687E-02  0.7071E-01
     -4.318  0.8178E-01  0.4034E-02  0.1234E+00
     -4.232  0.9675E-01  0.4212E-02  0.2600E+00
     -4.145  0.1188E+00  0.9399E-02  0.4568E+00
     -4.059  0.1399E+00  0.2201E-01  0.6216E+00
     -3.972  0.1612E+00  0.4705E-01  0.6732E+00
     -3.885  0.1880E+00  0.8817E-01  0.6344E+00
     -3.799  0.2118E+00  0.1374E+00  0.6020E+00
     -3.712  0.2137E+00  0.1724E+00  0.6689E+00
     -3.625  0.1888E+00  0.1768E+00  0.8953E+00
     -3.539  0.1494E+00  0.1577E+00  0.1257E+01
     -3.452  0.1093E+00  0.1346E+00  0.1602E+01
     -3.366  0.7410E-01  0.1187E+00  0.1763E+01
     -3.279  0.4616E-01  0.1091E+00  0.1694E+01
     -3.192  0.2721E-01  0.1021E+00  0.1477E+01
     -3.106  0.1619E-01  0.1032E+00  0.1292E+01
     -3.019  0.1005E-01  0.1241E+00  0.1375E+01
     -2.933  0.6788E-02  0.1579E+00  0.1774E+01
     -2.846  0.5504E-02  0.1753E+00  0.2182E+01
     -2.759  0.5293E-02  0.1600E+00  0.2227E+01
     -2.673  0.5537E-02  0.1295E+00  0.1926E+01
     -2.586  0.6338E-02  0.1086E+00  0.1647E+01
     -2.500  0.8129E-02  0.1045E+00  0.1639E+01
     -2.413  0.1100E-01  0.1130E+00  0.1822E+01
     -2.326  0.1459E-01  0.1291E+00  0.2004E+01
     -2.240  0.1813E-01  0.1468E+00  0.2115E+01
     -2.153  0.2014E-01  0.1572E+00  0.2144E+01
     -2.067  0.1975E-01  0.1527E+00  0.2064E+01
     -1.980  0.1839E-01  0.1337E+00  0.1915E+01
     -1.893  0.1783E-01  0.1112E+00  0.1841E+01
     -1.807  0.1755E-01  0.9856E-01  0.1943E+01
     -1.720  0.1671E-01  0.9916E-01  0.2164E+01
     -1.634  0.1683E-01  0.1059E+00  0.2366E+01
     -1.547  0.1987E-01  0.1098E+00  0.2448E+01
     -1.460  0.2478E-01  0.1055E+00  0.2375E+01
     -1.374  0.2821E-01  0.9380E-01  0.2180E+01
     -1.287  0.2807E-01  0.8014E-01  0.1971E+01
     -1.200  0.2484E-01  0.7007E-01  0.1912E+01
     -1.114  0.2006E-01  0.6544E-01  0.2121E+01
     -1.027  0.1521E-01  0.6446E-01  0.2583E+01
     -0.941  0.1144E-01  0.6390E-01  0.3148E+01
     -0.854  0.9187E-02  0.6107E-01  0.3599E+01
     -0.767  0.8160E-02  0.5494E-01  0.3736E+01
     -0.681  0.7916E-02  0.4709E-01  0.3493E+01
     -0.594  0.8286E-02  0.4046E-01  0.2985E+01
     -0.508  0.9229E-02  0.3648E-01  0.2409E+01
     -0.421  0.1032E-01  0.3401E-01  0.1920E+01
     -0.334  0.1077E-01  0.3149E-01  0.1585E+01
     -0.248  0.1035E-01  0.2875E-01  0.1420E+01
     -0.161  0.9779E-02  0.2645E-01  0.1424E+01
     -0.075  0.9769E-02  0.2595E-01  0.1572E+01
      0.012  0.1018E-01  0.2992E-01  0.1784E+01
      0.099  0.1028E-01  0.4029E-01  0.1932E+01
      0.185  0.9533E-02  0.5422E-01  0.1907E+01
      0.272  0.8036E-02  0.6396E-01  0.1703E+01
      0.358  0.6340E-02  0.6307E-01  0.1403E+01
      0.445  0.4896E-02  0.5347E-01  0.1089E+01
      0.532  0.3889E-02  0.4354E-01  0.8076E+00
      0.618  0.3317E-02  0.3928E-01  0.5830E+00
      0.705  0.2947E-02  0.4139E-01  0.4166E+00
      0.791  0.2482E-02  0.4907E-01  0.3036E+00
      0.878  0.2047E-02  0.5901E-01  0.2406E+00
      0.965  0.2201E-02  0.6322E-01  0.2075E+00
      1.051  0.3188E-02  0.5932E-01  0.1785E+00
      1.138  0.4577E-02  0.5852E-01  0.1581E+00
      1.225  0.6049E-02  0.6963E-01  0.1726E+00
      1.311  0.7967E-02  0.8196E-01  0.2243E+00
      1.398  0.1013E-01  0.7858E-01  0.2768E+00
      1.484  0.1118E-01  0.6070E-01  0.2907E+00
      1.571  0.1133E-01  0.4753E-01  0.2644E+00
      1.658  0.1415E-01  0.5728E-01  0.2304E+00
      1.744  0.2266E-01  0.9151E-01  0.2178E+00
      1.831  0.3354E-01  0.1294E+00  0.2284E+00
      1.917  0.3854E-01  0.1408E+00  0.2371E+00
      2.004  0.3333E-01  0.1155E+00  0.2152E+00
      2.091  0.2205E-01  0.7541E-01  0.1660E+00
      2.177  0.1190E-01  0.5266E-01  0.1284E+00
      2.264  0.6537E-02  0.6382E-01  0.1363E+00
      2.350  0.5113E-02  0.9875E-01  0.1790E+00
      2.437  0.5219E-02  0.1268E+00  0.2099E+00
      2.524  0.6075E-02  0.1223E+00  0.1963E+00
      2.610  0.1027E-01  0.8990E-01  0.1524E+00
      2.697  0.2267E-01  0.5591E-01  0.1190E+00
      2.783  0.4405E-01  0.4016E-01  0.1178E+00
      2.870  0.6389E-01  0.4181E-01  0.1297E+00
      2.957  0.6676E-01  0.4602E-01  0.1209E+00
      3.043  0.5006E-01  0.4010E-01  0.8436E-01
      3.130  0.2697E-01  0.2528E-01  0.4262E-01
      3.217  0.1044E-01  0.1126E-01  0.1549E-01
      3.303  0.2906E-02  0.3516E-02  0.4041E-02
      3.390  0.5794E-03  0.7679E-03  0.7574E-03
      3.476  0.8239E-04  0.1170E-03  0.1018E-03
      3.563  0.8315E-05  0.1242E-04  0.9771E-05
      3.650  0.5924E-06  0.9176E-06  0.6676E-06
      3.736  0.2966E-07  0.4711E-07  0.3230E-07
      3.823  0.1039E-08  0.1679E-08  0.1101E-08
      3.909  0.2539E-10  0.4148E-10  0.2634E-10
      3.996  0.4315E-12  0.7100E-12  0.4403E-12
      4.083  0.5102E-14  0.8416E-14  0.5150E-14
      4.169  0.4175E-16  0.6909E-16  0.4008E-16
      4.256  0.0000E+00  0.0000E+00  0.0000E+00
      4.342  0.0000E+00  0.0000E+00  0.0000E+00
      4.429  0.0000E+00  0.0000E+00  0.0000E+00
      4.516  0.0000E+00  0.0000E+00  0.0000E+00
      4.602  0.0000E+00  0.0000E+00  0.0000E+00
      4.689  0.0000E+00  0.0000E+00  0.0000E+00
      4.775  0.0000E+00  0.0000E+00  0.0000E+00
      4.862  0.0000E+00  0.0000E+00  0.0000E+00
      4.949  0.0000E+00  0.0000E+00  0.0000E+00
      4.94866081    -21.03359966  301      0.15226707      1.00000000
    -21.034  0.0000E+00  0.0000E+00  0.0000E+00
    -20.947  0.0000E+00  0.0000E+00  0.0000E+00
    -20.860  0.0000E+00  0.0000E+00  0.0000E+00
    -20.774  0.0000E+00  0.0000E+00  0.0000E+00
    -20.687  0.0000E+00  0.0000E+00  0.0000E+00
    -20.601  0.0000E+00  0.0000E+00  0.0000E+00
    -20.514  0.0000E+00  0.0000E+00  0.0000E+00
    -20.427  0.0000E+00  0.0000E+00  0.0000E+00
    -20.341  0.0000E+00  0.0000E+00  0.0000E+00
    -20.254  0.0000E+00  0.0000E+00  0.0000E+00
    -20.168  0.1296E-18  0.1039E-18  0.4076E-19
    -20.081  0.1510E-16  0.1212E-16  0.4767E-17
    -19.994  0.1280E-14  0.1031E-14  0.4068E-15
    -19.908  0.7508E-13  0.6070E-13  0.2404E-13
    -19.821  0.3051E-11  0.2476E-11  0.9851E-12
    -19.734  0.8597E-10  0.7008E-10  0.2801E-10
    -19.648  0.1681E-08  0.1377E-08  0.5532E-09
    -19.561  0.2283E-07  0.1881E-07  0.7598E-08
    -19.475  0.2157E-06  0.1788E-06  0.7268E-07
    -19.388  0.1419E-05  0.1184E-05  0.4847E-06
    -19.301  0.6509E-05  0.5471E-05  0.2257E-05
    -19.215  0.2083E-04  0.1766E-04  0.7345E-05
    -19.128  0.4659E-04  0.3986E-04  0.1673E-04
    -19.042  0.7289E-04  0.6300E-04  0.2671E-04
    -18.955  0.7987E-04  0.6981E-04  0.2991E-04
    -18.868  0.6151E-04  0.5442E-04  0.2359E-04
    -18.782  0.3402E-04  0.3047E-04  0.1337E-04
    -18.695  0.1550E-04  0.1395E-04  0.6198E-05
    -18.609  0.9425E-05  0.8337E-05  0.3728E-05
    -18.522  0.9159E-05  0.7960E-05  0.3555E-05
    -18.435  0.8364E-05  0.7236E-05  0.3227E-05
    -18.349  0.5590E-05  0.4832E-05  0.2155E-05
    -18.262  0.2616E-05  0.2261E-05  0.1008E-05
    -18.176  0.8513E-06  0.7357E-06  0.3281E-06
    -18.089  0.1925E-06  0.1663E-06  0.7417E-07
    -18.002  0.3021E-07  0.2611E-07  0.1164E-07
    -17.916  0.3290E-08  0.2843E-08  0.1268E-08
    -17.829  0.2484E-09  0.2147E-09  0.9572E-10
    -17.743  0.1299E-10  0.1123E-10  0.5008E-11
    -17.656  0.4707E-12  0.4068E-12  0.1814E-12
    -17.569  0.1180E-13  0.1020E-13  0.4546E-14
    -17.483  0.2045E-15  0.1767E-15  0.7879E-16
    -17.396  0.2450E-17  0.2117E-17  0.9441E-18
    -17.309  0.2035E-19  0.1759E-19  0.7841E-20
    -17.223  0.0000E+00  0.0000E+00  0.0000E+00
    -17.136  0.0000E+00  0.0000E+00  0.0000E+00
    -17.050  0.0000E+00  0.0000E+00  0.0000E+00
    -16.963  0.0000E+00  0.0000E+00  0.0000E+00
    -16.876  0.0000E+00  0.0000E+00  0.0000E+00
    -16.790  0.0000E+00  0.0000E+00  0.0000E+00
    -16.703  0.0000E+00  0.0000E+00  0.0000E+00
    -16.617  0.0000E+00  0.0000E+00  0.0000E+00
    -16.530  0.0000E+00  0.0000E+00  0.0000E+00
    -16.443  0.0000E+00  0.0000E+00  0.0000E+00
    -16.357  0.0000E+00  0.0000E+00  0.0000E+00
    -16.270  0.0000E+00  0.0000E+00  0.0000E+00
    -16.184  0.0000E+00  0.0000E+00  0.0000E+00
    -16.097  0.0000E+00  0.0000E+00  0.0000E+00
    -16.010  0.0000E+00  0.0000E+00  0.0000E+00
    -15.924  0.0000E+00  0.0000E+00  0.0000E+00
    -15.837  0.0000E+00  0.0000E+00  0.0000E+00
    -15.751  0.0000E+00  0.0000E+00  0.0000E+00
    -15.664  0.0000E+00  0.0000E+00  0.0000E+00
    -15.577  0.0000E+00  0.0000E+00  0.0000E+00
    -15.491  0.0000E+00  0.0000E+00  0.0000E+00
    -15.404  0.0000E+00  0.0000E+00  0.0000E+00
    -15.318  0.0000E+00  0.0000E+00  0.0000E+00
    -15.231  0.0000E+00  0.0000E+00  0.0000E+00
    -15.144  0.0000E+00  0.0000E+00  0.0000E+00
    -15.058  0.0000E+00  0.0000E+00  0.0000E+00
    -14.971  0.0000E+00  0.0000E+00  0.0000E+00
    -14.884  0.0000E+00  0.0000E+00  0.0000E+00
    -14.798  0.0000E+00  0.0000E+00  0.0000E+00
    -14.711  0.0000E+00  0.0000E+00  0.0000E+00
    -14.625  0.0000E+00  0.0000E+00  0.0000E+00
    -14.538  0.0000E+00  0.0000E+00  0.0000E+00
    -14.451  0.0000E+00  0.0000E+00  0.0000E+00
    -14.365  0.0000E+00  0.0000E+00  0.0000E+00
    -14.278  0.0000E+00  0.0000E+00  0.0000E+00
    -14.192  0.0000E+00  0.0000E+00  0.0000E+00
    -14.105  0.0000E+00  0.0000E+00  0.0000E+00
    -14.018  0.0000E+00  0.0000E+00  0.0000E+00
    -13.932  0.0000E+00  0.0000E+00  0.0000E+00
    -13.845  0.0000E+00  0.0000E+00  0.0000E+00
    -13.759  0.0000E+00  0.0000E+00  0.0000E+00
    -13.672  0.0000E+00  0.0000E+00  0.0000E+00
    -13.585  0.0000E+00  0.0000E+00  0.0000E+00
    -13.499  0.0000E+00  0.0000E+00  0.0000E+00
    -13.412  0.0000E+00  0.0000E+00  0.0000E+00
    -13.326  0.0000E+00  0.0000E+00  0.0000E+00