       N       E                     dE             d eps       ncg     rms          rms(c)
DAV:   1     0.589787069588E+04    0.58979E+04   -0.32839E+05   768   0.209E+03
DAV:   2     0.320869775732E+03   -0.55770E+04   -0.54070E+04   768   0.458E+02
DAV:   3    -0.307499751411E+03   -0.62837E+03   -0.56087E+03   774   0.193E+02
DAV:   4    -0.399453723580E+03   -0.91954E+02   -0.82890E+02  1329   0.533E+01
DAV:   5    -0.409575484712E+03   -0.10122E+02   -0.95368E+01  1077   0.157E+01    0.286E+01
RMM:   6    -0.608520660155E+03   -0.19895E+03   -0.15768E+02   790   0.284E+01    0.138E+02
RMM:   7    -0.441102133097E+03    0.16742E+03   -0.13139E+02   769   0.340E+01    0.787E+01
RMM:   8    -0.410336153908E+03    0.30766E+02   -0.21635E+01   771   0.117E+01    0.333E+01
RMM:   9    -0.407750355341E+03    0.25858E+01   -0.49904E+00   812   0.408E+00    0.229E+01
RMM:  10    -0.407006771309E+03    0.74358E+00   -0.10555E+00   837   0.189E+00    0.186E+01
RMM:  11    -0.407954862322E+03   -0.94809E+00   -0.19073E+00   771   0.330E+00    0.241E+01
RMM:  12    -0.409492907530E+03   -0.15380E+01   -0.44038E+00   770   0.553E+00    0.294E+01
RMM:  13    -0.413600432871E+03   -0.41075E+01   -0.87444E+00   772   0.762E+00    0.389E+01
RMM:  14    -0.411863988652E+03    0.17364E+01   -0.56316E+00   772   0.647E+00    0.367E+01
RMM:  15    -0.408106504628E+03    0.37575E+01   -0.26984E+00   771   0.467E+00    0.222E+01
RMM:  16    -0.406909944347E+03    0.11966E+01   -0.80735E-01   770   0.231E+00    0.135E+01
RMM:  17    -0.407070273709E+03   -0.16033E+00   -0.56093E-01   773   0.183E+00    0.159E+01
RMM:  18    -0.406761433284E+03    0.30884E+00   -0.52689E-01   775   0.188E+00    0.120E+01
RMM:  19    -0.406435740209E+03    0.32569E+00   -0.23652E-01   772   0.134E+00    0.681E+00
RMM:  20    -0.406349066651E+03    0.86674E-01   -0.74774E-02   769   0.665E-01    0.450E+00
RMM:  21    -0.406358166487E+03   -0.90998E-02   -0.47491E-02   772   0.528E-01    0.463E+00
RMM:  22    -0.406344325652E+03    0.13841E-01   -0.35986E-02   776   0.499E-01    0.424E+00
RMM:  23    -0.406323358764E+03    0.20967E-01   -0.15455E-02   773   0.328E-01    0.332E+00
RMM:  24    -0.406320538644E+03    0.28201E-02   -0.12206E-02   772   0.276E-01    0.314E+00
RMM:  25    -0.406320756935E+03   -0.21829E-03   -0.17726E-02   773   0.342E-01    0.306E+00
RMM:  26    -0.406303053560E+03    0.17703E-01   -0.13605E-02   778   0.321E-01    0.184E+00
RMM:  27    -0.406301998268E+03    0.10553E-02   -0.93115E-03   772   0.244E-01    0.179E+00
RMM:  28    -0.406303855487E+03   -0.18572E-02   -0.11032E-02   774   0.272E-01    0.196E+00
RMM:  29    -0.406294197813E+03    0.96577E-02   -0.67495E-03   773   0.227E-01    0.840E-01
RMM:  30    -0.406294152009E+03    0.45804E-04   -0.35577E-03   773   0.148E-01    0.886E-01
RMM:  31    -0.406294167130E+03   -0.15121E-04   -0.27906E-03   774   0.133E-01    0.827E-01
RMM:  32    -0.406292071726E+03    0.20954E-02   -0.18896E-03   773   0.118E-01    0.301E-01
RMM:  33    -0.406291989295E+03    0.82431E-04   -0.67596E-04   772   0.639E-02    0.288E-01
RMM:  34    -0.406292131810E+03   -0.14251E-03   -0.39677E-04   771   0.501E-02    0.359E-01
RMM:  35    -0.406291825473E+03    0.30634E-03   -0.26968E-04   772   0.453E-02    0.158E-01
RMM:  36    -0.406291785211E+03    0.40262E-04   -0.10935E-04   769   0.268E-02    0.122E-01
RMM:  37    -0.406291826726E+03   -0.41514E-04   -0.86230E-05   766   0.238E-02    0.173E-01
RMM:  38    -0.406291759770E+03    0.66956E-04   -0.53548E-05   767   0.202E-02    0.764E-02
RMM:  39    -0.406291746529E+03    0.13241E-04   -0.26647E-05   763   0.133E-02    0.470E-02
RMM:  40    -0.406291755052E+03   -0.85230E-05   -0.18249E-05   761   0.106E-02    0.611E-02
RMM:  41    -0.406291750737E+03    0.43149E-05   -0.10803E-05   757   0.914E-03    0.324E-02
RMM:  42    -0.406291748035E+03    0.27026E-05   -0.47628E-06   626   0.622E-03    0.154E-02
RMM:  43    -0.406291751546E+03   -0.35114E-05   -0.22789E-06   448   0.421E-03    0.259E-02
RMM:  44    -0.406291753602E+03   -0.20559E-05   -0.20346E-06   453   0.465E-03    0.182E-02
RMM:  45    -0.406291753748E+03   -0.14606E-06   -0.96211E-07   406   0.325E-03
   1 F= -.42323951E+03 E0= -.42167734E+03  d E =-.312435E+01
       N       E                     dE             d eps       ncg     rms          rms(c)
DAV:   1    -0.406284444933E+03    0.73087E-02   -0.12554E+00   783   0.170E+00    0.327E-01
RMM:   2    -0.406297875943E+03   -0.13431E-01   -0.49699E-02   790   0.358E-01    0.161E+00
RMM:   3    -0.406295126928E+03    0.27490E-02   -0.91351E-03   771   0.236E-01    0.172E+00
RMM:   4    -0.406291011820E+03    0.41151E-02   -0.52783E-03   776   0.176E-01    0.112E+00
RMM:   5    -0.406291646313E+03   -0.63449E-03   -0.40943E-03   772   0.166E-01    0.129E+00
RMM:   6    -0.406287654860E+03    0.39915E-02   -0.22384E-03   773   0.132E-01    0.486E-01
RMM:   7    -0.406287180263E+03    0.47460E-03   -0.78637E-04   770   0.731E-02    0.343E-01
RMM:   8    -0.406287390576E+03   -0.21031E-03   -0.55852E-04   773   0.592E-02    0.430E-01
RMM:   9    -0.406287306629E+03    0.83947E-04   -0.45847E-04   774   0.560E-02    0.389E-01
RMM:  10    -0.406286928469E+03    0.37816E-03   -0.34617E-04   770   0.515E-02    0.180E-01
RMM:  11    -0.406287137299E+03   -0.20883E-03   -0.29622E-04   770   0.447E-02    0.321E-01
RMM:  12    -0.406287180539E+03   -0.43240E-04   -0.34676E-04   773   0.485E-02    0.319E-01
RMM:  13    -0.406286957288E+03    0.22325E-03   -0.21574E-04   771   0.416E-02    0.211E-01
RMM:  14    -0.406286851414E+03    0.10587E-03   -0.74070E-05   766   0.228E-02    0.725E-02
RMM:  15    -0.406286862427E+03   -0.11013E-04   -0.38519E-05   767   0.156E-02    0.929E-02
RMM:  16    -0.406286847681E+03    0.14746E-04   -0.20416E-05   774   0.123E-02    0.624E-02
RMM:  17    -0.406286836892E+03    0.10788E-04   -0.97379E-06   760   0.879E-03    0.254E-02
RMM:  18    -0.406286838142E+03   -0.12492E-05   -0.49499E-06   619   0.585E-03    0.309E-02
RMM:  19    -0.406286840440E+03   -0.22986E-05   -0.43846E-06   554   0.599E-03    0.390E-02
RMM:  20    -0.406286837054E+03    0.33862E-05   -0.26552E-06   469   0.546E-03    0.182E-02
RMM:  21    -0.406286836479E+03    0.57451E-06   -0.96588E-07   396   0.304E-03
   2 F= -.42323457E+03 E0= -.42167233E+03  d E =-.312450E+01
       N       E                     dE             d eps       ncg     rms          rms(c)
DAV:   1    -0.406278987082E+03    0.78500E-02   -0.49839E+00   774   0.339E+00    0.690E-01
RMM:   2    -0.406338136331E+03   -0.59149E-01   -0.22696E-01   781   0.753E-01    0.309E+00
RMM:   3    -0.406336346384E+03    0.17899E-02   -0.35402E-02   773   0.476E-01    0.410E+00
RMM:   4    -0.406306461237E+03    0.29885E-01   -0.24736E-02   772   0.392E-01    0.226E+00
RMM:   5    -0.406307226941E+03   -0.76570E-03   -0.17630E-02   772   0.346E-01    0.252E+00
RMM:   6    -0.406292373014E+03    0.14854E-01   -0.94880E-03   774   0.266E-01    0.986E-01
RMM:   7    -0.406290597243E+03    0.17758E-02   -0.34075E-03   770   0.151E-01    0.726E-01
RMM:   8    -0.406291259669E+03   -0.66243E-03   -0.22875E-03   773   0.120E-01    0.854E-01
RMM:   9    -0.406291105951E+03    0.15372E-03   -0.19468E-03   774   0.116E-01    0.810E-01
RMM:  10    -0.406289449739E+03    0.16562E-02   -0.14876E-03   773   0.107E-01    0.373E-01
RMM:  11    -0.406290210186E+03   -0.76045E-03   -0.12020E-03   770   0.900E-02    0.634E-01
RMM:  12    -0.406290452409E+03   -0.24222E-03   -0.14685E-03   774   0.995E-02    0.639E-01
RMM:  13    -0.406289599574E+03    0.85283E-03   -0.95542E-04   774   0.871E-02    0.459E-01
RMM:  14    -0.406289123573E+03    0.47600E-03   -0.36023E-04   767   0.503E-02    0.171E-01
RMM:  15    -0.406289191710E+03   -0.68138E-04   -0.21784E-04   772   0.378E-02    0.223E-01
RMM:  16    -0.406289085157E+03    0.10655E-03   -0.10539E-04   777   0.286E-02    0.134E-01
RMM:  17    -0.406289031482E+03    0.53674E-04   -0.43560E-05   768   0.185E-02    0.449E-02
RMM:  18    -0.406289035877E+03   -0.43948E-05   -0.20681E-05   763   0.115E-02    0.556E-02
RMM:  19    -0.406289045612E+03   -0.97347E-05   -0.19230E-05   764   0.113E-02    0.775E-02
RMM:  20    -0.406289030474E+03    0.15137E-04   -0.11493E-05   761   0.980E-03    0.355E-02
RMM:  21    -0.406289027888E+03    0.25864E-05   -0.39552E-06   547   0.548E-03    0.202E-02
RMM:  22    -0.406289030378E+03   -0.24903E-05   -0.34005E-06   493   0.515E-03    0.321E-02
RMM:  23    -0.406289030393E+03   -0.15010E-07   -0.33089E-06   500   0.566E-03
   3 F= -.42323681E+03 E0= -.42167473E+03  d E =-.312416E+01
       N       E                     dE             d eps       ncg     rms          rms(c)
DAV:   1    -0.406285070326E+03    0.39601E-02   -0.25066E+00   768   0.238E+00    0.474E-01
RMM:   2    -0.406313596896E+03   -0.28527E-01   -0.10111E-01   797   0.504E-01    0.241E+00
RMM:   3    -0.406306759452E+03    0.68374E-02   -0.18882E-02   771   0.342E-01    0.248E+00
RMM:   4    -0.406298440992E+03    0.83185E-02   -0.11005E-02   776   0.255E-01    0.162E+00
RMM:   5    -0.406299524139E+03   -0.10831E-02   -0.87419E-03   772   0.243E-01    0.183E+00
RMM:   6    -0.406291381070E+03    0.81431E-02   -0.45996E-03   772   0.190E-01    0.707E-01
RMM:   7    -0.406290411481E+03    0.96959E-03   -0.16771E-03   769   0.106E-01    0.510E-01
RMM:   8    -0.406290886188E+03   -0.47471E-03   -0.12347E-03   773   0.880E-02    0.641E-01
RMM:   9    -0.406290654501E+03    0.23169E-03   -0.98533E-04   773   0.822E-02    0.570E-01
RMM:  10    -0.406289817350E+03    0.83715E-03   -0.74786E-04   773   0.757E-02    0.254E-01
RMM:  11    -0.406290252471E+03   -0.43512E-03   -0.59280E-04   770   0.630E-02    0.463E-01
RMM:  12    -0.406290313043E+03   -0.60572E-04   -0.67992E-04   773   0.680E-02    0.448E-01
RMM:  13    -0.406289869787E+03    0.44326E-03   -0.42782E-04   771   0.587E-02    0.295E-01
RMM:  14    -0.406289665642E+03    0.20415E-03   -0.14513E-04   769   0.319E-02    0.107E-01
RMM:  15    -0.406289686772E+03   -0.21130E-04   -0.81048E-05   768   0.227E-02    0.133E-01
RMM:  16    -0.406289655763E+03    0.31009E-04   -0.43769E-05   778   0.181E-02    0.913E-02
RMM:  17    -0.406289633347E+03    0.22417E-04   -0.20608E-05   764   0.127E-02    0.388E-02
RMM:  18    -0.406289635684E+03   -0.23372E-05   -0.11406E-05   749   0.866E-03    0.437E-02
RMM:  19    -0.406289638379E+03   -0.26955E-05   -0.96090E-06   745   0.819E-03    0.517E-02
RMM:  20    -0.406289631350E+03    0.70287E-05   -0.52501E-06   615   0.680E-03    0.213E-02
RMM:  21    -0.406289630650E+03    0.70060E-06   -0.17071E-06   412   0.384E-03
   4 F= -.42323736E+03 E0= -.42167503E+03  d E =-.312466E+01
       N       E                     dE             d eps       ncg     rms          rms(c)
DAV:   1    -0.406278483758E+03    0.11148E-01   -0.50422E+00   768   0.352E+00    0.462E-01
RMM:   2    -0.406304592795E+03   -0.26109E-01   -0.18427E-01   820   0.658E-01    0.153E+00
RMM:   3    -0.406308938840E+03   -0.43460E-02   -0.18644E-02   770   0.320E-01    0.247E+00
RMM:   4    -0.406302446443E+03    0.64924E-02   -0.10725E-02   774   0.251E-01    0.178E+00
RMM:   5    -0.406298982544E+03    0.34639E-02   -0.75542E-03   772   0.234E-01    0.149E+00
RMM:   6    -0.406293191314E+03    0.57912E-02   -0.36401E-03   772   0.168E-01    0.529E-01
RMM:   7    -0.406292938587E+03    0.25273E-03   -0.14722E-03   772   0.987E-02    0.504E-01
RMM:   8    -0.406293135414E+03   -0.19683E-03   -0.10414E-03   774   0.830E-02    0.583E-01
RMM:   9    -0.406292622108E+03    0.51331E-03   -0.78835E-04   774   0.769E-02    0.446E-01
RMM:  10    -0.406292386158E+03    0.23595E-03   -0.63794E-04   772   0.667E-02    0.343E-01
RMM:  11    -0.406293505686E+03   -0.11195E-02   -0.11250E-03   769   0.858E-02    0.708E-01
RMM:  12    -0.406292652415E+03    0.85327E-03   -0.89887E-04   773   0.809E-02    0.428E-01
RMM:  13    -0.406292176354E+03    0.47606E-03   -0.46466E-04   771   0.594E-02    0.249E-01
RMM:  14    -0.406292063104E+03    0.11325E-03   -0.14972E-04   766   0.306E-02    0.131E-01
RMM:  15    -0.406292111489E+03   -0.48385E-04   -0.10777E-04   775   0.262E-02    0.183E-01
RMM:  16    -0.406292039643E+03    0.71847E-04   -0.53380E-05   774   0.203E-02    0.878E-02
RMM:  17    -0.406292019838E+03    0.19805E-04   -0.26495E-05   764   0.141E-02    0.392E-02
RMM:  18    -0.406292031518E+03   -0.11680E-04   -0.16936E-05   761   0.105E-02    0.718E-02
RMM:  19    -0.406292024339E+03    0.71791E-05   -0.11849E-05   762   0.942E-03    0.500E-02
RMM:  20    -0.406292018602E+03    0.57374E-05   -0.64988E-06   698   0.725E-03    0.270E-02
RMM:  21    -0.406292018336E+03    0.26599E-06   -0.28574E-06   481   0.473E-03
   5 F= -.42323981E+03 E0= -.42167773E+03  d E =-.312415E+01
       N       E                     dE             d eps       ncg     rms          rms(c)
DAV:   1    -0.406282567873E+03    0.94507E-02   -0.24954E+00   768   0.241E+00    0.396E-01
RMM:   2    -0.406315376788E+03   -0.32809E-01   -0.10319E-01   785   0.566E-01    0.267E+00
RMM:   3    -0.406298954255E+03    0.16423E-01   -0.13737E-02   773   0.311E-01    0.190E+00
RMM:   4    -0.406292141301E+03    0.68130E-02   -0.60332E-03   773   0.190E-01    0.106E+00
RMM:   5    -0.406293311132E+03   -0.11698E-02   -0.42363E-03   772   0.166E-01    0.129E+00
RMM:   6    -0.406289756154E+03    0.35550E-02   -0.26356E-03   774   0.142E-01    0.617E-01
RMM:   7    -0.406289247686E+03    0.50847E-03   -0.11931E-03   772   0.916E-02    0.496E-01
RMM:   8    -0.406289896550E+03   -0.64886E-03   -0.11586E-03   774   0.859E-02    0.684E-01
RMM:   9    -0.406290132672E+03   -0.23612E-03   -0.11794E-03   771   0.897E-02    0.728E-01
RMM:  10    -0.406289079163E+03    0.10535E-02   -0.12184E-03   772   0.958E-02    0.434E-01
RMM:  11    -0.406290370763E+03   -0.12916E-02   -0.15534E-03   773   0.102E-01    0.795E-01
RMM:  12    -0.406289706059E+03    0.66470E-03   -0.14732E-03   775   0.102E-01    0.592E-01
RMM:  13    -0.406288836527E+03    0.86953E-03   -0.79226E-04   773   0.794E-02    0.365E-01
RMM:  14    -0.406288514833E+03    0.32169E-03   -0.22130E-04   772   0.380E-02    0.121E-01
RMM:  15    -0.406288548837E+03   -0.34005E-04   -0.10598E-04   772   0.252E-02    0.162E-01
RMM:  16    -0.406288510722E+03    0.38116E-04   -0.62105E-05   776   0.207E-02    0.108E-01
RMM:  17    -0.406288480474E+03    0.30248E-04   -0.36880E-05   768   0.168E-02    0.547E-02
RMM:  18    -0.406288487181E+03   -0.67075E-05   -0.18993E-05   763   0.111E-02    0.695E-02
RMM:  19    -0.406288492024E+03   -0.48427E-05   -0.17739E-05   771   0.109E-02    0.642E-02
RMM:  20    -0.406288485124E+03    0.68994E-05   -0.10391E-05   760   0.900E-03    0.374E-02
RMM:  21    -0.406288484199E+03    0.92505E-06   -0.47077E-06   587   0.584E-03
   6 F= -.42323612E+03 E0= -.42167373E+03  d E =-.312478E+01
       N       E                     dE             d eps       ncg     rms          rms(c)
DAV:   1    -0.406277556636E+03    0.10928E-01   -0.49517E+00   768   0.343E+00    0.592E-01
RMM:   2    -0.406340449389E+03   -0.62893E-01   -0.22543E-01   774   0.860E-01    0.325E+00
RMM:   3    -0.406312935925E+03    0.27513E-01   -0.21972E-02   772   0.394E-01    0.272E+00
RMM:   4    -0.406295304071E+03    0.17632E-01   -0.99712E-03   774   0.252E-01    0.121E+00
RMM:   5    -0.406298908163E+03   -0.36041E-02   -0.75311E-03   772   0.218E-01    0.172E+00
RMM:   6    -0.406295640178E+03    0.32680E-02   -0.60069E-03   774   0.205E-01    0.129E+00
RMM:   7    -0.406294484343E+03    0.11558E-02   -0.45589E-03   773   0.180E-01    0.116E+00
RMM:   8    -0.406297009890E+03   -0.25255E-02   -0.55025E-03   773   0.190E-01    0.148E+00
RMM:   9    -0.406298824411E+03   -0.18145E-02   -0.64272E-03   772   0.209E-01    0.164E+00
RMM:  10    -0.406291946706E+03    0.68777E-02   -0.51333E-03   771   0.198E-01    0.711E-01
RMM:  11    -0.406292551984E+03   -0.60528E-03   -0.30421E-03   772   0.143E-01    0.875E-01
RMM:  12    -0.406293136368E+03   -0.58438E-03   -0.29676E-03   774   0.140E-01    0.912E-01
RMM:  13    -0.406291433230E+03    0.17031E-02   -0.17620E-03   774   0.118E-01    0.649E-01
RMM:  14    -0.406290377753E+03    0.10555E-02   -0.58001E-04   770   0.646E-02    0.181E-01
RMM:  15    -0.406290367426E+03    0.10327E-04   -0.23824E-04   771   0.384E-02    0.184E-01
RMM:  16    -0.406290365629E+03    0.17966E-05   -0.13670E-04   776   0.304E-02    0.185E-01
RMM:  17    -0.406290284117E+03    0.81512E-04   -0.77821E-05   769   0.248E-02    0.937E-02
RMM:  18    -0.406290285056E+03   -0.93851E-06   -0.55961E-05   771   0.197E-02    0.915E-02
RMM:  19    -0.406290322274E+03   -0.37218E-04   -0.66796E-05   769   0.209E-02    0.137E-01
RMM:  20    -0.406290281691E+03    0.40583E-04   -0.40134E-05   772   0.178E-02    0.765E-02
RMM:  21    -0.406290269015E+03    0.12676E-04   -0.16803E-05   765   0.109E-02    0.382E-02
RMM:  22    -0.406290276770E+03   -0.77549E-05   -0.11474E-05   753   0.861E-03    0.524E-02
RMM:  23    -0.406290280440E+03   -0.36700E-05   -0.77246E-06   729   0.769E-03    0.470E-02
RMM:  24    -0.406290276190E+03    0.42501E-05   -0.28144E-06   479   0.518E-03    0.154E-02
RMM:  25    -0.406290276595E+03   -0.40598E-06   -0.11167E-06   400   0.310E-03
   7 F= -.42323817E+03 E0= -.42167622E+03  d E =-.312389E+01
       N       E                     dE             d eps       ncg     rms          rms(c)
DAV:   1    -0.406284000827E+03    0.62754E-02   -0.12307E+00   768   0.170E+00    0.283E-01
RMM:   2    -0.406289828252E+03   -0.58274E-02   -0.50439E-02   769   0.368E-01    0.627E-01
RMM:   3    -0.406289228890E+03    0.59936E-03   -0.32252E-03   769   0.126E-01    0.645E-01
RMM:   4    -0.406290037024E+03   -0.80813E-03   -0.15311E-03   775   0.929E-02    0.868E-01
RMM:   5    -0.406289873005E+03    0.16402E-03   -0.16281E-03   772   0.109E-01    0.820E-01
RMM:   6    -0.406288811816E+03    0.10612E-02   -0.15842E-03   772   0.111E-01    0.554E-01
RMM:   7    -0.406289777916E+03   -0.96610E-03   -0.14221E-03   771   0.959E-02    0.821E-01
RMM:   8    -0.406291489079E+03   -0.17112E-02   -0.26507E-03   774   0.130E-01    0.106E+00
RMM:   9    -0.406289298741E+03    0.21903E-02   -0.21964E-03   774   0.130E-01    0.634E-01
RMM:  10    -0.406288055717E+03    0.12430E-02   -0.98063E-04   773   0.853E-02    0.216E-01
RMM:  11    -0.406288131458E+03   -0.75741E-04   -0.33830E-04   771   0.456E-02    0.287E-01
RMM:  12    -0.406288035902E+03    0.95556E-04   -0.21303E-04   775   0.378E-02    0.207E-01
RMM:  13    -0.406287932373E+03    0.10353E-03   -0.10686E-04   771   0.289E-02    0.128E-01
RMM:  14    -0.406287903145E+03    0.29228E-04   -0.36296E-05   763   0.156E-02    0.683E-02
RMM:  15    -0.406287920414E+03   -0.17269E-04   -0.31315E-05   768   0.144E-02    0.982E-02
RMM:  16    -0.406287900746E+03    0.19668E-04   -0.16329E-05   766   0.114E-02    0.556E-02
RMM:  17    -0.406287895491E+03    0.52551E-05   -0.95535E-06   758   0.836E-03    0.317E-02
RMM:  18    -0.406287902461E+03   -0.69703E-05   -0.90648E-06   742   0.768E-03    0.493E-02
RMM:  19    -0.406287906844E+03   -0.43826E-05   -0.10028E-05   755   0.830E-03    0.463E-02
RMM:  20    -0.406287902625E+03    0.42192E-05   -0.53954E-06   651   0.668E-03    0.221E-02
RMM:  21    -0.406287902396E+03    0.22818E-06   -0.14175E-06   406   0.345E-03
   8 F= -.42323561E+03 E0= -.42167345E+03  d E =-.312431E+01
       N       E                     dE             d eps       ncg     rms          rms(c)
DAV:   1    -0.406289463376E+03   -0.15608E-02   -0.31796E-01   777   0.583E-01    0.400E-01
RMM:   2    -0.406312182626E+03   -0.22719E-01   -0.32326E-02   776   0.320E-01    0.248E+00
RMM:   3    -0.406301138227E+03    0.11044E-01   -0.13045E-02   770   0.304E-01    0.216E+00
RMM:   4    -0.406292929429E+03    0.82088E-02   -0.74837E-03   774   0.213E-01    0.119E+00
RMM:   5    -0.406294664775E+03   -0.17353E-02   -0.58024E-03   773   0.197E-01    0.149E+00
RMM:   6    -0.406289468547E+03    0.51962E-02   -0.31928E-03   773   0.158E-01    0.611E-01
RMM:   7    -0.406288924594E+03    0.54395E-03   -0.13734E-03   770   0.976E-02    0.496E-01
RMM:   8    -0.406289701501E+03   -0.77691E-03   -0.13454E-03   773   0.925E-02    0.693E-01
RMM:   9    -0.406289958703E+03   -0.25720E-03   -0.13580E-03   772   0.970E-02    0.725E-01
RMM:  10    -0.406288526761E+03    0.14319E-02   -0.93557E-04   770   0.869E-02    0.283E-01
RMM:  11    -0.406288534730E+03   -0.79698E-05   -0.40370E-04   771   0.527E-02    0.303E-01
RMM:  12    -0.406288622905E+03   -0.88174E-04   -0.38527E-04   774   0.507E-02    0.326E-01
RMM:  13    -0.406288413023E+03    0.20988E-03   -0.22383E-04   775   0.424E-02    0.231E-01
RMM:  14    -0.406288286886E+03    0.12614E-03   -0.83978E-05   766   0.249E-02    0.868E-02
RMM:  15    -0.406288297110E+03   -0.10224E-04   -0.43680E-05   764   0.168E-02    0.103E-01
RMM:  16    -0.406288283681E+03    0.13429E-04   -0.27499E-05   773   0.140E-02    0.777E-02
RMM:  17    -0.406288266618E+03    0.17063E-04   -0.14053E-05   766   0.106E-02    0.312E-02
RMM:  18    -0.406288266113E+03    0.50526E-06   -0.47523E-06   598   0.570E-03
   9 F= -.42323608E+03 E0= -.42167389E+03  d E =-.312437E+01
       N       E                     dE             d eps       ncg     rms          rms(c)
DAV:   1    -0.406291677911E+03   -0.34113E-02   -0.16102E-01   777   0.416E-01    0.319E-01
RMM:   2    -0.406306904418E+03   -0.15227E-01   -0.21083E-02   779   0.272E-01    0.188E+00
RMM:   3    -0.406300656562E+03    0.62479E-02   -0.84638E-03   769   0.249E-01    0.185E+00
RMM:   4    -0.406293784285E+03    0.68723E-02   -0.51068E-03   773   0.180E-01    0.958E-01
RMM:   5    -0.406294587824E+03   -0.80354E-03   -0.35981E-03   772   0.153E-01    0.116E+00
RMM:   6    -0.406291714922E+03    0.28729E-02   -0.21868E-03   774   0.128E-01    0.529E-01
RMM:   7    -0.406291189254E+03    0.52567E-03   -0.88574E-04   770   0.793E-02    0.369E-01
RMM:   8    -0.406291426871E+03   -0.23762E-03   -0.65609E-04   772   0.648E-02    0.451E-01
RMM:   9    -0.406291857644E+03   -0.43077E-03   -0.75261E-04   771   0.715E-02    0.570E-01
RMM:  10    -0.406291008463E+03    0.84918E-03   -0.60252E-04   774   0.697E-02    0.252E-01
RMM:  11    -0.406290940716E+03    0.67747E-04   -0.23682E-04   769   0.408E-02    0.216E-01
RMM:  12    -0.406290972754E+03   -0.32038E-04   -0.24808E-04   773   0.409E-02    0.208E-01
RMM:  13    -0.406290871246E+03    0.10151E-03   -0.13479E-04   772   0.334E-02    0.155E-01
RMM:  14    -0.406290816452E+03    0.54793E-04   -0.41919E-05   764   0.177E-02    0.661E-02
RMM:  15    -0.406290825383E+03   -0.89303E-05   -0.27183E-05   763   0.133E-02    0.865E-02
RMM:  16    -0.406290816883E+03    0.84996E-05   -0.15821E-05   768   0.107E-02    0.647E-02
RMM:  17    -0.406290805089E+03    0.11794E-04   -0.89090E-06   758   0.853E-03    0.218E-02
RMM:  18    -0.406290804800E+03    0.28967E-06   -0.21013E-06   439   0.403E-03
  10 F= -.42323854E+03 E0= -.42167627E+03  d E =-.312455E+01
       N       E                     dE             d eps       ncg     rms          rms(c)
DAV:   1    -0.406290546480E+03    0.25861E-03   -0.28194E-01   786   0.548E-01    0.245E-01
RMM:   2    -0.406296842419E+03   -0.62959E-02   -0.13411E-02   775   0.200E-01    0.121E+00
RMM:   3    -0.406294666078E+03    0.21763E-02   -0.38428E-03   769   0.162E-01    0.119E+00
RMM:   4    -0.406292419672E+03    0.22464E-02   -0.23621E-03   774   0.120E-01    0.721E-01
RMM:   5    -0.406293114076E+03   -0.69440E-03   -0.20997E-03   773   0.118E-01    0.908E-01
RMM:   6    -0.406291305235E+03    0.18088E-02   -0.12649E-03   774   0.983E-02    0.407E-01
RMM:   7    -0.406291231619E+03    0.73616E-04   -0.69736E-04   769   0.694E-02    0.400E-01
RMM:   8    -0.406291703244E+03   -0.47162E-03   -0.79279E-04   774   0.714E-02    0.533E-01
RMM:   9    -0.406291594730E+03    0.10851E-03   -0.67135E-04   771   0.705E-02    0.474E-01
RMM:  10    -0.406290939243E+03    0.65549E-03   -0.41237E-04   769   0.579E-02    0.165E-01
RMM:  11    -0.406290967366E+03   -0.28123E-04   -0.16615E-04   771   0.331E-02    0.202E-01
RMM:  12    -0.406290972850E+03   -0.54836E-05   -0.14698E-04   773   0.318E-02    0.182E-01
RMM:  13    -0.406290875951E+03    0.96898E-04   -0.78965E-05   770   0.260E-02    0.849E-02
RMM:  14    -0.406290859426E+03    0.16525E-04   -0.24360E-05   764   0.132E-02    0.471E-02
RMM:  15    -0.406290864871E+03   -0.54452E-05   -0.15688E-05   764   0.103E-02    0.590E-02
RMM:  16    -0.406290857521E+03    0.73501E-05   -0.84065E-06   759   0.813E-03    0.389E-02
RMM:  17    -0.406290854308E+03    0.32129E-05   -0.25668E-06   474   0.466E-03    0.166E-02
RMM:  18    -0.406290855256E+03   -0.94775E-06   -0.17067E-06   405   0.375E-03
  11 F= -.42323864E+03 E0= -.42167655E+03  d E =-.312417E+01
       N       E                     dE             d eps       ncg     rms          rms(c)
DAV:   1    -0.406290108713E+03    0.74560E-03   -0.14403E-01   777   0.392E-01    0.200E-01
RMM:   2    -0.406295331461E+03   -0.52227E-02   -0.88905E-03   775   0.173E-01    0.113E+00
RMM:   3    -0.406293020771E+03    0.23107E-02   -0.29003E-03   770   0.143E-01    0.103E+00
RMM:   4    -0.406291257298E+03    0.17635E-02   -0.17976E-03   775   0.106E-01    0.626E-01
RMM:   5    -0.406291611089E+03   -0.35379E-03   -0.13453E-03   772   0.938E-02    0.752E-01
RMM:   6    -0.406290483676E+03    0.11274E-02   -0.93378E-04   773   0.828E-02    0.367E-01
RMM:   7    -0.406290292584E+03    0.19109E-03   -0.43438E-04   770   0.550E-02    0.282E-01
RMM:   8    -0.406290505406E+03   -0.21282E-03   -0.43596E-04   771   0.535E-02    0.367E-01
RMM:   9    -0.406290656024E+03   -0.15062E-03   -0.43728E-04   772   0.552E-02    0.419E-01
RMM:  10    -0.406290192211E+03    0.46381E-03   -0.31520E-04   770   0.506E-02    0.184E-01
RMM:  11    -0.406290155104E+03    0.37107E-04   -0.11154E-04   768   0.274E-02    0.149E-01
RMM:  12    -0.406290199978E+03   -0.44874E-04   -0.10906E-04   772   0.269E-02    0.189E-01
RMM:  13    -0.406290144948E+03    0.55029E-04   -0.58790E-05   772   0.215E-02    0.127E-01
RMM:  14    -0.406290099157E+03    0.45792E-04   -0.31582E-05   764   0.158E-02    0.347E-02
RMM:  15    -0.406290106240E+03   -0.70830E-05   -0.13064E-05   753   0.914E-03    0.588E-02
RMM:  16    -0.406290100711E+03    0.55284E-05   -0.74809E-06   723   0.751E-03    0.362E-02
RMM:  17    -0.406290097242E+03    0.34697E-05   -0.36187E-06   524   0.568E-03    0.138E-02
RMM:  18    -0.406290097652E+03   -0.41013E-06   -0.12272E-06   396   0.325E-03
  12 F= -.42323759E+03 E0= -.42167534E+03  d E =-.312451E+01
       N       E                     dE             d eps       ncg     rms          rms(c)
DAV:   1    -0.406291305621E+03   -0.12084E-02   -0.27909E-01   768   0.539E-01    0.206E-01
RMM:   2    -0.406295405291E+03   -0.40997E-02   -0.97634E-03   772   0.172E-01    0.975E-01
RMM:   3    -0.406293802993E+03    0.16023E-02   -0.22479E-03   770   0.123E-01    0.882E-01
RMM:   4    -0.406292847329E+03    0.95566E-03   -0.15281E-03   773   0.975E-02    0.636E-01
RMM:   5    -0.406293356543E+03   -0.50921E-03   -0.14236E-03   773   0.966E-02    0.778E-01
RMM:   6    -0.406292136747E+03    0.12198E-02   -0.10703E-03   773   0.895E-02    0.386E-01
RMM:   7    -0.406292046445E+03    0.90302E-04   -0.64241E-04   770   0.668E-02    0.355E-01
RMM:   8    -0.406292622142E+03   -0.57570E-03   -0.74843E-04   772   0.695E-02    0.557E-01
RMM:   9    -0.406292372217E+03    0.24992E-03   -0.58600E-04   772   0.658E-02    0.451E-01
RMM:  10    -0.406291795291E+03    0.57693E-03   -0.36082E-04   768   0.539E-02    0.157E-01
RMM:  11    -0.406291787588E+03    0.77028E-05   -0.11799E-04   769   0.278E-02    0.153E-01
RMM:  12    -0.406291812219E+03   -0.24630E-04   -0.10435E-04   774   0.264E-02    0.162E-01
RMM:  13    -0.406291753872E+03    0.58347E-04   -0.56363E-05   771   0.214E-02    0.102E-01
RMM:  14    -0.406291732043E+03    0.21829E-04   -0.19785E-05   762   0.119E-02    0.477E-02
RMM:  15    -0.406291736783E+03   -0.47404E-05   -0.11545E-05   746   0.870E-03    0.528E-02
RMM:  16    -0.406291736354E+03    0.42932E-06   -0.71518E-06   736   0.731E-03
  13 F= -.42323974E+03 E0= -.42167754E+03  d E =-.312441E+01
