 vasp.5.4.4.18Apr17-6-g9f103f2a35 (build Dec 15 2018 21:27:54) gamma-only       
  
 executed on             LinuxIFC date 2022.03.01  05:37:43
 running on   72 total cores
 distrk:  each k-point on   72 cores,    1 groups
 distr:  one band on NCORES_PER_BAND=  24 cores,    3 groups


--------------------------------------------------------------------------------------------------------


 INCAR:
 POTCAR:    PAW_PBE Ni 02Aug2007                  
 POTCAR:    PAW_PBE Fe 06Sep2000                  
 POTCAR:    PAW_PBE O 08Apr2002                   
 POTCAR:    PAW_PBE H 15Jun2001                   

 ----------------------------------------------------------------------------- 
|                                                                             |
|           W    W    AA    RRRRR   N    N  II  N    N   GGGG   !!!           |
|           W    W   A  A   R    R  NN   N  II  NN   N  G    G  !!!           |
|           W    W  A    A  R    R  N N  N  II  N N  N  G       !!!           |
|           W WW W  AAAAAA  RRRRR   N  N N  II  N  N N  G  GGG   !            |
|           WW  WW  A    A  R   R   N   NN  II  N   NN  G    G                |
|           W    W  A    A  R    R  N    N  II  N    N   GGGG   !!!           |
|                                                                             |
|      For optimal performance we recommend to set                            |
|        NCORE= 4 - approx SQRT( number of cores)                             |
|      NCORE specifies how many cores store one orbital (NPAR=cpu/NCORE).     |
|      This setting can  greatly improve the performance of VASP for DFT.     |
|      The default,   NCORE=1            might be grossly inefficient         |
|      on modern multi-core architectures or massively parallel machines.     |
|      Do your own testing !!!!                                               |
|      Unfortunately you need to use the default for GW and RPA calculations. |
|      (for HF NCORE is supported but not extensively tested yet)             |
|                                                                             |
 ----------------------------------------------------------------------------- 

 POTCAR:    PAW_PBE Ni 02Aug2007                  
   VRHFIN =Ni:                                                                  
   LEXCH  = PE                                                                  
   EATOM  =  1077.6739 eV,   79.2068 Ry                                         
                                                                                
   TITEL  = PAW_PBE Ni 02Aug2007                                                
   LULTRA =        F    use ultrasoft PP ?                                      
   IUNSCR =        1    unscreen: 0-lin 1-nonlin 2-no                           
   RPACOR =    2.000    partial core radius                                     
   POMASS =   58.690; ZVAL   =   10.000    mass and valenz                      
   RCORE  =    2.300    outmost cutoff radius                                   
   RWIGS  =    2.430; RWIGS  =    1.286    wigner-seitz radius (au A)           
   ENMAX  =  269.532; ENMIN  =  202.149 eV                                      
   RCLOC  =    1.201    cutoff for local pot                                    
   LCOR   =        T    correct aug charges                                     
   LPAW   =        T    paw PP                                                  
   EAUG   =  544.565                                                            
   DEXC   =    0.000                                                            
   RMAX   =    2.357    core radius for proj-oper                               
   RAUG   =    1.300    factor for augmentation sphere                          
   RDEP   =    2.390    radius for radial grids                                 
   RDEPT  =    1.838    core radius for aug-charge                              
                                                                                
   Atomic configuration                                                         
    9 entries                                                                   
     n  l   j            E        occ.                                          
     1  0  0.50     -8206.4253   2.0000                                         
     2  0  0.50      -976.1748   2.0000                                         
     2  1  1.50      -839.0571   6.0000                                         
     3  0  0.50      -105.9991   2.0000                                         
     3  1  1.50       -66.4603   6.0000                                         
     3  2  2.50        -4.6458   9.0000                                         
     4  0  0.50        -4.4926   1.0000                                         
     4  1  1.50        -4.0817   0.0000                                         
     4  3  2.50        -1.3606   0.0000                                         
   Description                                                                  
     l       E           TYP  RCUT    TYP  RCUT                                 
     2     -4.6457903     23  2.300                                             
     2     -6.0063729     23  2.300                                             
     0     -4.4925590     23  2.300                                             
     0      5.0102601     23  2.300                                             
     1     -2.7211652     23  2.300                                             
     1     16.5183231     23  2.300                                             
  local pseudopotential read in
  partial core-charges read in
  partial kinetic energy density read in
  atomic valenz-charges read in
  non local Contribution for L=           2  read in
    real space projection operators read in
  non local Contribution for L=           2  read in
    real space projection operators read in
  non local Contribution for L=           0  read in
    real space projection operators read in
  non local Contribution for L=           0  read in
    real space projection operators read in
  non local Contribution for L=           1  read in
    real space projection operators read in
  non local Contribution for L=           1  read in
    real space projection operators read in
    PAW grid and wavefunctions read in
 
   number of l-projection  operators is LMAX  =           6
   number of lm-projection operators is LMMAX =          18
 
 POTCAR:    PAW_PBE Fe 06Sep2000                  
   VRHFIN =Fe:  d7 s1                                                           
   LEXCH  = PE                                                                  
   EATOM  =   594.3153 eV,   43.6809 Ry                                         
                                                                                
   TITEL  = PAW_PBE Fe 06Sep2000                                                
   LULTRA =        F    use ultrasoft PP ?                                      
   IUNSCR =        1    unscreen: 0-lin 1-nonlin 2-no                           
   RPACOR =    2.000    partial core radius                                     
   POMASS =   55.847; ZVAL   =    8.000    mass and valenz                      
   RCORE  =    2.300    outmost cutoff radius                                   
   RWIGS  =    2.460; RWIGS  =    1.302    wigner-seitz radius (au A)           
   ENMAX  =  267.882; ENMIN  =  200.911 eV                                      
   RCLOC  =    1.701    cutoff for local pot                                    
   LCOR   =        T    correct aug charges                                     
   LPAW   =        T    paw PP                                                  
   EAUG   =  511.368                                                            
   DEXC   =    0.000                                                            
   RMAX   =    2.356    core radius for proj-oper                               
   RAUG   =    1.300    factor for augmentation sphere                          
   RDEP   =    2.442    radius for radial grids                                 
   RDEPT  =    1.890    core radius for aug-charge                              
                                                                                
   Atomic configuration                                                         
    9 entries                                                                   
     n  l   j            E        occ.                                          
     1  0  0.50     -6993.8440   2.0000                                         
     2  0  0.50      -814.6047   2.0000                                         
     2  1  1.50      -693.3689   6.0000                                         
     3  0  0.50       -89.4732   2.0000                                         
     3  1  1.50       -55.6373   6.0000                                         
     3  2  2.50        -3.8151   7.0000                                         
     4  0  0.50        -4.2551   1.0000                                         
     4  1  1.50        -3.4015   0.0000                                         
     4  3  2.50        -1.3606   0.0000                                         
   Description                                                                  
     l       E           TYP  RCUT    TYP  RCUT                                 
     2     -3.8151135     23  2.300                                             
     2     -5.1756961     23  2.300                                             
     0     -4.2550963     23  2.300                                             
     0      7.2035603     23  2.300                                             
     1     -2.7211652     23  2.300                                             
     1     18.4316424     23  2.300                                             
  local pseudopotential read in
  partial core-charges read in
  partial kinetic energy density read in
  atomic valenz-charges read in
  non local Contribution for L=           2  read in
    real space projection operators read in
  non local Contribution for L=           2  read in
    real space projection operators read in
  non local Contribution for L=           0  read in
    real space projection operators read in
  non local Contribution for L=           0  read in
    real space projection operators read in
  non local Contribution for L=           1  read in
    real space projection operators read in
  non local Contribution for L=           1  read in
    real space projection operators read in
    PAW grid and wavefunctions read in
 
   number of l-projection  operators is LMAX  =           6
   number of lm-projection operators is LMMAX =          18
 
 POTCAR:    PAW_PBE O 08Apr2002                   
   VRHFIN =O: s2p4                                                              
   LEXCH  = PE                                                                  
   EATOM  =   432.3788 eV,   31.7789 Ry                                         
                                                                                
   TITEL  = PAW_PBE O 08Apr2002                                                 
   LULTRA =        F    use ultrasoft PP ?                                      
   IUNSCR =        1    unscreen: 0-lin 1-nonlin 2-no                           
   RPACOR =    1.200    partial core radius                                     
   POMASS =   16.000; ZVAL   =    6.000    mass and valenz                      
   RCORE  =    1.520    outmost cutoff radius                                   
   RWIGS  =    1.550; RWIGS  =    0.820    wigner-seitz radius (au A)           
   ENMAX  =  400.000; ENMIN  =  300.000 eV                                      
   ICORE  =        2    local potential                                         
   LCOR   =        T    correct aug charges                                     
   LPAW   =        T    paw PP                                                  
   EAUG   =  605.392                                                            
   DEXC   =    0.000                                                            
   RMAX   =    1.553    core radius for proj-oper                               
   RAUG   =    1.300    factor for augmentation sphere                          
   RDEP   =    1.550    radius for radial grids                                 
   RDEPT  =    1.329    core radius for aug-charge                              
                                                                                
   Atomic configuration                                                         
    4 entries                                                                   
     n  l   j            E        occ.                                          
     1  0  0.50      -514.6923   2.0000                                         
     2  0  0.50       -23.9615   2.0000                                         
     2  1  0.50        -9.0305   4.0000                                         
     3  2  1.50        -9.5241   0.0000                                         
   Description                                                                  
     l       E           TYP  RCUT    TYP  RCUT                                 
     0    -23.9615318     23  1.200                                             
     0     -9.5240782     23  1.200                                             
     1     -9.0304911     23  1.520                                             
     1      8.1634956     23  1.520                                             
     2     -9.5240782      7  1.500                                             
  local pseudopotential read in
  partial core-charges read in
  partial kinetic energy density read in
  kinetic energy density of atom read in
  atomic valenz-charges read in
  non local Contribution for L=           0  read in
    real space projection operators read in
  non local Contribution for L=           0  read in
    real space projection operators read in
  non local Contribution for L=           1  read in
    real space projection operators read in
  non local Contribution for L=           1  read in
    real space projection operators read in
    PAW grid and wavefunctions read in
 
   number of l-projection  operators is LMAX  =           4
   number of lm-projection operators is LMMAX =           8
 
 POTCAR:    PAW_PBE H 15Jun2001                   
   VRHFIN =H: ultrasoft test                                                    
   LEXCH  = PE                                                                  
   EATOM  =    12.4884 eV,    0.9179 Ry                                         
                                                                                
   TITEL  = PAW_PBE H 15Jun2001                                                 
   LULTRA =        F    use ultrasoft PP ?                                      
   IUNSCR =        0    unscreen: 0-lin 1-nonlin 2-no                           
   RPACOR =    0.000    partial core radius                                     
   POMASS =    1.000; ZVAL   =    1.000    mass and valenz                      
   RCORE  =    1.100    outmost cutoff radius                                   
   RWIGS  =    0.700; RWIGS  =    0.370    wigner-seitz radius (au A)           
   ENMAX  =  250.000; ENMIN  =  200.000 eV                                      
   RCLOC  =    0.701    cutoff for local pot                                    
   LCOR   =        T    correct aug charges                                     
   LPAW   =        T    paw PP                                                  
   EAUG   =  400.000                                                            
   RMAX   =    1.123    core radius for proj-oper                               
   RAUG   =    1.200    factor for augmentation sphere                          
   RDEP   =    1.112    radius for radial grids                                 
   RDEPT  =    0.926    core radius for aug-charge                              
                                                                                
   Atomic configuration                                                         
    2 entries                                                                   
     n  l   j            E        occ.                                          
     1  0  0.50        -6.4927   1.0000                                         
     2  1  0.50        -3.4015   0.0000                                         
   Description                                                                  
     l       E           TYP  RCUT    TYP  RCUT                                 
     0     -6.4927494     23  1.100                                             
     0      6.8029130     23  1.100                                             
     1     -4.0817478     23  1.100                                             
  local pseudopotential read in
  atomic valenz-charges read in
  non local Contribution for L=           0  read in
    real space projection operators read in
  non local Contribution for L=           0  read in
    real space projection operators read in
  non local Contribution for L=           1  read in
    real space projection operators read in
    PAW grid and wavefunctions read in
 
   number of l-projection  operators is LMAX  =           3
   number of lm-projection operators is LMMAX =           5
 
 Optimization of the real space projectors (new method)

 maximal supplied QI-value         = 16.25
 optimisation between [QCUT,QGAM] = [ 11.54, 23.24] = [ 37.28,151.24] Ry 
 Optimized for a Real-space Cutoff    1.45 Angstroem

   l    n(q)    QCUT    max X(q) W(low)/X(q) W(high)/X(q)  e(spline) 
   2      9    11.539    60.317    0.19E-03    0.47E-04    0.16E-06
   2      9    11.539    55.921    0.19E-03    0.48E-04    0.16E-06
   0     10    11.539    51.690    0.80E-04    0.50E-04    0.24E-06
   0     10    11.539    30.015    0.73E-04    0.45E-04    0.22E-06
   1     10    11.539    18.849    0.87E-04    0.16E-03    0.71E-07
   1     10    11.539    14.624    0.73E-04    0.13E-03    0.64E-07
 Optimization of the real space projectors (new method)

 maximal supplied QI-value         = 16.25
 optimisation between [QCUT,QGAM] = [ 11.54, 23.24] = [ 37.28,151.24] Ry 
 Optimized for a Real-space Cutoff    1.53 Angstroem

   l    n(q)    QCUT    max X(q) W(low)/X(q) W(high)/X(q)  e(spline) 
   2     10    11.539    80.901    0.11E-03    0.14E-03    0.21E-06
   2     10    11.539    75.754    0.11E-03    0.14E-03    0.22E-06
   0     11    11.539    58.752    0.52E-04    0.18E-04    0.33E-06
   0     11    11.539    30.679    0.44E-04    0.16E-04    0.30E-06
   1     10    11.539    17.977    0.53E-04    0.29E-04    0.13E-06
   1     10    11.539    13.559    0.44E-04    0.25E-04    0.11E-06
 Optimization of the real space projectors (new method)

 maximal supplied QI-value         = 24.76
 optimisation between [QCUT,QGAM] = [ 11.64, 23.27] = [ 37.91,151.63] Ry 
 Optimized for a Real-space Cutoff    1.14 Angstroem

   l    n(q)    QCUT    max X(q) W(low)/X(q) W(high)/X(q)  e(spline) 
   0      8    11.635    20.381    0.10E-03    0.33E-03    0.24E-06
   0      8    11.635    15.268    0.11E-03    0.35E-03    0.26E-06
   1      7    11.635     5.964    0.24E-03    0.31E-03    0.30E-06
   1      7    11.635     5.382    0.22E-03    0.25E-03    0.26E-06
 Optimization of the real space projectors (new method)

 maximal supplied QI-value         = 34.20
 optimisation between [QCUT,QGAM] = [ 11.63, 23.26] = [ 37.87,151.49] Ry 
 Optimized for a Real-space Cutoff    1.21 Angstroem

   l    n(q)    QCUT    max X(q) W(low)/X(q) W(high)/X(q)  e(spline) 
   0      8    11.629    19.460    0.17E-03    0.34E-03    0.21E-06
   0      8    11.629    12.209    0.16E-03    0.33E-03    0.21E-06
   1      8    11.629     4.655    0.18E-03    0.16E-03    0.26E-06
  PAW_PBE Ni 02Aug2007                  :
 energy of atom  1       EATOM=-1077.6739
 kinetic energy error for atom=    0.0030 (will be added to EATOM!!)
  PAW_PBE Fe 06Sep2000                  :
 energy of atom  2       EATOM= -594.3153
 kinetic energy error for atom=    0.0026 (will be added to EATOM!!)
  PAW_PBE O 08Apr2002                   :
 energy of atom  3       EATOM= -432.3788
 kinetic energy error for atom=    0.0208 (will be added to EATOM!!)
  PAW_PBE H 15Jun2001                   :
 energy of atom  4       EATOM=  -12.4884
 kinetic energy error for atom=    0.0014 (will be added to EATOM!!)
 
 
 POSCAR: POSCAR                                  
  positions in direct lattice
  velocities in cartesian coordinates
 exchange correlation table for  LEXCH =        8
   RHO(1)=    0.500       N(1)  =     2000
   RHO(2)=  100.500       N(2)  =     4000

 VTST: version 3.2, (02/03/18)

 CHAIN: initializing optimizer
 
 OPT: Using VASP Dynamics algorithm
 CHAIN: Read ICHAIN            0
 
 POSCAR: POSCAR                                  
  positions in direct lattice
  velocities in cartesian coordinates
 


--------------------------------------------------------------------------------------------------------


 ion  position               nearest neighbor table
   1  0.999  1.000  0.287-  18 2.48  41 2.48  50 2.48  49 2.48   8 2.48  47 2.49   5 2.49  33 2.50
                             2 2.50   4 2.50  26 2.51   6 2.53
   2  0.248  0.000  0.285-  11 2.45  44 2.45  51 2.45  50 2.47  26 2.50   1 2.50   9 2.50   6 2.51
                             3 2.51  41 2.52  27 2.52  43 2.55
   3  0.498  0.999  0.287-  14 2.46  43 2.46  51 2.46  64 2.46  17 2.47  45 2.48  27 2.50   4 2.51
                             9 2.51   2 2.51  30 2.52  12 2.53
   4  0.748  0.998  0.286-  16 2.43  48 2.45  17 2.46  18 2.48  30 2.49  64 2.50   1 2.50   3 2.51
                             5 2.51  33 2.53  47 2.53  12 2.53
   5  0.999  0.248  0.287-  60 2.43  16 2.43  18 2.47  22 2.48   1 2.49  52 2.51   6 2.51   4 2.51
                            21 2.51  12 2.51  19 2.51   8 2.53
   6  0.251  0.252  0.287-  11 2.41  56 2.47  52 2.48  22 2.49   9 2.50   2 2.51   5 2.51  50 2.51
                             1 2.53  53 2.53  55 2.55   8 2.55
   7  0.083  0.166  0.096-  50 2.47  15 2.50  40 2.50  18 2.50  54 2.50  10 2.50  46 2.51  22 2.51
                            20 2.51
   8  0.079  0.159  0.385-  67 1.85  47 2.43  41 2.44   1 2.48  11 2.50  16 2.50   5 2.53   6 2.55
                            55 2.56  21 2.57
   9  0.499  0.249  0.286-  11 2.44  59 2.44  56 2.45   6 2.50  51 2.50  53 2.50   2 2.50  12 2.51
                             3 2.51  14 2.53  25 2.53  23 2.54
  10  0.333  0.167  0.096-  13 2.50  56 2.50   7 2.50  24 2.51  40 2.51  42 2.51  50 2.51  54 2.52
                            51 2.52
  11  0.330  0.165  0.379-   6 2.41   9 2.44   2 2.45  41 2.48  25 2.48  55 2.49   8 2.50  43 2.52
                            14 2.52
  12  0.750  0.252  0.288-  16 2.43  59 2.44  60 2.46  58 2.48  17 2.50  23 2.50  19 2.51   9 2.51
                            14 2.51   5 2.51   3 2.53   4 2.53
  13  0.582  0.167  0.097-  51 2.48  24 2.49  42 2.50  17 2.50  10 2.50  63 2.52  59 2.52  57 2.52
                            15 2.53
  14  0.577  0.157  0.383-  65 1.84  43 2.41  64 2.42   3 2.46  12 2.51  16 2.52  11 2.52   9 2.53
                            25 2.58  58 2.58
  15  0.834  0.167  0.096-  20 2.49  60 2.49  18 2.49  46 2.49   7 2.50  17 2.51  63 2.51  57 2.53
                            13 2.53
  16  0.831  0.163  0.379-  12 2.43   4 2.43   5 2.43  47 2.48  64 2.50   8 2.50  58 2.51  21 2.51
                            14 2.52
  17  0.666  0.083  0.193-   4 2.46  60 2.47   3 2.47  51 2.48  59 2.49  13 2.50  12 2.50  45 2.50
                            48 2.51  15 2.51  63 2.51  18 2.52
  18  0.916  0.082  0.192-  50 2.46  60 2.47   5 2.47   1 2.48   4 2.48  46 2.48  15 2.49  49 2.50
                            48 2.50   7 2.50  22 2.51  17 2.52
  19  0.001  0.500  0.286-  60 2.47  29 2.47  52 2.49  27 2.49  39 2.49  21 2.50  12 2.51  23 2.51
                             5 2.51  61 2.52  26 2.52  58 2.53
  20  0.081  0.416  0.096-  61 2.48  15 2.49  57 2.49  22 2.50  54 2.51  28 2.51   7 2.51  31 2.52
                            60 2.53
  21  0.079  0.415  0.384-  67 1.85  58 2.44  29 2.45  19 2.50  32 2.51  16 2.51   5 2.51  52 2.51
                             8 2.57  55 2.57
  22  0.166  0.334  0.192-  52 2.47   5 2.48   6 2.49  60 2.49  54 2.49  36 2.50  20 2.50  50 2.50
                             7 2.51  18 2.51  56 2.52  61 2.54
  23  0.752  0.502  0.288-  33 2.46  53 2.47  59 2.47  26 2.49  38 2.49  12 2.50  39 2.51  19 2.51
                            58 2.52   9 2.54  62 2.55  25 2.56
  24  0.584  0.416  0.096-  13 2.49  62 2.49  57 2.50  10 2.51  56 2.51  34 2.51  37 2.52  54 2.53
                            59 2.54
  25  0.576  0.414  0.385-  65 1.88  55 2.42  53 2.45  35 2.46  11 2.48   9 2.53  38 2.53  23 2.56
                            14 2.58  58 2.60
  26  0.000  0.750  0.287-  49 2.46  33 2.47  44 2.48  23 2.49  39 2.50   2 2.50  27 2.50   1 2.51
                            41 2.51  29 2.51  19 2.52  38 2.55
  27  0.249  0.749  0.285-  45 2.45  32 2.46  61 2.46  44 2.46  19 2.49  29 2.50  26 2.50   3 2.50
                            52 2.52   2 2.52  30 2.53  43 2.53
  28  0.084  0.668  0.095-  61 2.47  39 2.50  40 2.50  37 2.50  31 2.50  42 2.50  57 2.51  44 2.51
                            20 2.51
  29  0.084  0.662  0.382-  66 1.85  21 2.45  19 2.47  32 2.47  58 2.49  27 2.50  26 2.51  38 2.54
                            43 2.54  41 2.58
  30  0.501  0.749  0.287-  32 2.44  48 2.46  45 2.47   4 2.49  36 2.49  64 2.49  53 2.50   3 2.52
                            52 2.52  27 2.53  35 2.53  33 2.53
  31  0.333  0.667  0.094-  61 2.47  42 2.50  54 2.50  28 2.50  63 2.50  34 2.51  36 2.52  45 2.52
                            20 2.52
  32  0.331  0.664  0.378-  52 2.41  30 2.44  27 2.46  29 2.47  35 2.48  21 2.51  64 2.51  43 2.51
                            55 2.52
  33  0.752  0.747  0.288-  23 2.46  53 2.47  26 2.47  49 2.48  62 2.48   1 2.50  48 2.51  38 2.51
                            47 2.53  30 2.53   4 2.53  35 2.56
  34  0.583  0.667  0.095-  62 2.47  36 2.50  63 2.50  46 2.51  31 2.51  37 2.51  54 2.51  24 2.51
                            48 2.53
  35  0.576  0.659  0.385-  68 1.87  55 2.44  53 2.44  25 2.46  32 2.48  30 2.53  38 2.54  33 2.56
                            64 2.56  47 2.60
  36  0.417  0.582  0.191-  54 2.47  30 2.49  22 2.50  34 2.50  62 2.50  45 2.51  56 2.51  48 2.51
                            61 2.51  52 2.52  31 2.52  53 2.55
  37  0.834  0.668  0.095-  62 2.47  40 2.50  57 2.50  39 2.50  28 2.50  46 2.51  49 2.51  34 2.51
                            24 2.52
  38  0.832  0.663  0.385-  69 1.81  23 2.49  58 2.51  33 2.51  47 2.53  25 2.53  29 2.54  41 2.54
                            35 2.54  26 2.55
  39  0.917  0.583  0.191-  19 2.49  57 2.49  26 2.50  28 2.50  37 2.50  61 2.50  49 2.51  23 2.51
                            59 2.51  62 2.51  44 2.51  60 2.56
  40  0.083  0.917  0.095-  50 2.49  44 2.49  37 2.50  28 2.50   7 2.50  10 2.51  49 2.51  46 2.51
                            42 2.52
  41  0.083  0.919  0.383-  66 1.85   8 2.44  47 2.47  11 2.48   1 2.48  26 2.51   2 2.52  38 2.54
                            43 2.55  29 2.58
  42  0.334  0.917  0.095-  51 2.48  13 2.50  63 2.50  31 2.50  44 2.50  28 2.50  10 2.51  45 2.51
                            40 2.52
  43  0.337  0.917  0.382-  66 1.83  14 2.41  64 2.44   3 2.46  32 2.51  11 2.52  27 2.53  29 2.54
                             2 2.55  41 2.55
  44  0.167  0.835  0.191-   2 2.45  27 2.46  51 2.47  26 2.48  61 2.49  49 2.49  40 2.49  42 2.50
                            50 2.50  28 2.51  39 2.51  45 2.53
  45  0.417  0.832  0.192-  27 2.45  61 2.47  51 2.47  30 2.47   3 2.48  48 2.49  63 2.50  17 2.50
                            36 2.51  42 2.51  31 2.52  44 2.53
  46  0.832  0.917  0.096-  18 2.48  48 2.49  15 2.49  63 2.50  49 2.50   7 2.51  34 2.51  37 2.51
                            40 2.51
  47  0.836  0.918  0.384-  68 1.86   8 2.43  41 2.47  16 2.48   1 2.49  33 2.53   4 2.53  38 2.53
                            64 2.57  35 2.60
  48  0.666  0.833  0.192-   4 2.45  30 2.46  62 2.47  45 2.49  46 2.49  18 2.50  63 2.50  17 2.51
                            33 2.51  36 2.51  49 2.52  34 2.53
  49  0.917  0.833  0.192-  62 2.46  26 2.46  50 2.47  33 2.48   1 2.48  44 2.49  18 2.50  46 2.50
                            39 2.51  40 2.51  37 2.51  48 2.52
  50  0.162  0.082  0.191-  18 2.46   2 2.47   7 2.47  49 2.47   1 2.48  40 2.49  44 2.50  22 2.50
                             6 2.51  10 2.51  56 2.53  51 2.57
  51  0.416  0.078  0.192-   2 2.45   3 2.46  44 2.47  45 2.47  42 2.48  17 2.48  13 2.48   9 2.50
                            10 2.52  59 2.54  56 2.54  50 2.57
  52  0.248  0.498  0.287-  32 2.41  22 2.47   6 2.48  19 2.49   5 2.51  21 2.51  36 2.52  27 2.52
                            30 2.52  61 2.55  53 2.56  55 2.57
  53  0.506  0.502  0.289-  35 2.44  25 2.45  33 2.47  23 2.47   9 2.50  30 2.50  56 2.53   6 2.53
                            62 2.55  55 2.55  36 2.55  52 2.56
  54  0.331  0.417  0.096-  36 2.47  22 2.49  31 2.50   7 2.50  20 2.51  34 2.51  10 2.52  56 2.53
                            24 2.53
  55  0.335  0.415  0.387-  67 1.84  25 2.42  35 2.44  11 2.49  32 2.52   6 2.55  53 2.55   8 2.56
                            21 2.57  52 2.57
  56  0.416  0.331  0.193-   9 2.45   6 2.47  10 2.50  24 2.51  36 2.51  59 2.51  22 2.52  50 2.53
                            54 2.53  53 2.53  51 2.54  62 2.56
  57  0.834  0.418  0.094-  20 2.49  39 2.49  24 2.50  37 2.50  28 2.51  13 2.52  15 2.53  59 2.56
                            60 2.59
  58  0.835  0.415  0.384-  65 1.83  21 2.44  12 2.48  29 2.49  16 2.51  38 2.51  23 2.52  19 2.53
                            14 2.58  25 2.60
  59  0.667  0.332  0.194-   9 2.44  12 2.44  23 2.47  17 2.49  60 2.51  39 2.51  56 2.51  13 2.52
                            51 2.54  24 2.54  57 2.56  62 2.57
  60  0.914  0.327  0.194-   5 2.43  12 2.46  19 2.47  18 2.47  17 2.47  22 2.49  15 2.49  59 2.51
                            20 2.53  39 2.56  57 2.59  61 2.59
  61  0.169  0.588  0.189-  27 2.46  45 2.47  28 2.47  31 2.47  20 2.48  44 2.49  39 2.50  36 2.51
                            19 2.52  22 2.54  52 2.55  60 2.59
  62  0.670  0.589  0.190-  49 2.46  48 2.47  37 2.47  34 2.47  33 2.48  24 2.49  36 2.50  39 2.51
                            53 2.55  23 2.55  56 2.56  59 2.57
  63  0.583  0.917  0.096-  46 2.50  45 2.50  42 2.50  48 2.50  31 2.50  34 2.50  17 2.51  15 2.51
                            13 2.52
  64  0.579  0.916  0.382-  68 1.81  14 2.42  43 2.44   3 2.46  30 2.49   4 2.50  16 2.50  32 2.51
                            35 2.56  47 2.57
  65  0.665  0.326  0.436-  58 1.83  14 1.84  25 1.88
  66  0.169  0.833  0.434-  43 1.83  29 1.85  41 1.85
  67  0.162  0.330  0.437-  55 1.84   8 1.85  21 1.85
  68  0.662  0.836  0.435-  64 1.81  47 1.86  35 1.87
  69  0.845  0.673  0.470-  70 0.98  38 1.81
  70  0.952  0.720  0.485-  69 0.98
 

IMPORTANT INFORMATION: All symmetrisations will be switched off!
NOSYMM: (Re-)initialisation of all symmetry stuff for point group C_1.

 
 

Automatic generation of k-mesh.
 generate k-points for:    1    1    1
Space group operators:
 irot       det(A)        alpha          n_x          n_y          n_z        tau_x        tau_y        tau_z
    1     1.000000     0.000000     1.000000     0.000000     0.000000     0.000000     0.000000     0.000000
 
 Subroutine IBZKPT returns following result:
 ===========================================
 
 Found      1 irreducible k-points:
 
 Following reciprocal coordinates:
            Coordinates               Weight
  0.000000  0.000000  0.000000      1.000000
 
 Following cartesian coordinates:
            Coordinates               Weight
  0.000000  0.000000  0.000000      1.000000
 
 
 Subroutine IBZKPT_HF returns following result:
 ==============================================
 
 Found      1 k-points in 1st BZ
 the following      1 k-points will be used (e.g. in the exchange kernel)
 Following reciprocal coordinates:   # in IRBZ
  0.000000  0.000000  0.000000    1.00000000   1 t-inv F


--------------------------------------------------------------------------------------------------------




 Dimension of arrays:
   k-points           NKPTS =      1   k-points in BZ     NKDIM =      1   number of bands    NBANDS=    384
   number of dos      NEDOS =    301   number of ions     NIONS =     70
   non local maximal  LDIM  =      6   non local SUM 2l+1 LMDIM =     18
   total plane-waves  NPLWV = ******
   max r-space proj   IRMAX =   8439   max aug-charges    IRDMAX=  19969
   dimension x,y,z NGX =    80 NGY =   80 NGZ =  160
   dimension x,y,z NGXF=   160 NGYF=  160 NGZF=  320
   support grid    NGXF=   160 NGYF=  160 NGZF=  320
   ions per type =              49  15   5   1
   NGX,Y,Z   is equivalent  to a cutoff of  13.26, 13.26, 12.55 a.u.
   NGXF,Y,Z  is equivalent  to a cutoff of  26.53, 26.53, 25.11 a.u.

 SYSTEM =  SQS-NiFe                                
 POSCAR =  POSCAR                                  

 Startparameter for this run:
   NWRITE =      2    write-flag & timer
   PREC   = accura    normal or accurate (medium, high low for compatibility)
   ISTART =      0    job   : 0-new  1-cont  2-samecut
   ICHARG =      1    charge: 1-file 2-atom 10-const
   ISPIN  =      1    spin polarized calculation?
   LNONCOLLINEAR =      F non collinear calculations
   LSORBIT =      F    spin-orbit coupling
   INIWAV =      1    electr: 0-lowe 1-rand  2-diag
   LASPH  =      F    aspherical Exc in radial PAW
   METAGGA=      F    non-selfconsistent MetaGGA calc.

 Electronic Relaxation 1
   ENCUT  =  520.0 eV  38.22 Ry    6.18 a.u.  18.64 18.64 39.40*2*pi/ulx,y,z
   ENINI  =  520.0     initial cutoff
   ENAUG  =  605.4 eV  augmentation charge cutoff
   NELM   =    200;   NELMIN=  2; NELMDL= -5     # of ELM steps 
   EDIFF  = 0.1E-05   stopping-criterion for ELM
   LREAL  =      T    real-space projection
   NLSPLINE    = F    spline interpolate recip. space projectors
   LCOMPAT=      F    compatible to vasp.4.4
   GGA_COMPAT  = T    GGA compatible to vasp.4.4-vasp.4.6
   LMAXPAW     = -100 max onsite density
   LMAXMIX     =    2 max onsite mixed and CHGCAR
   VOSKOWN=      0    Vosko Wilk Nusair interpolation
   ROPT   =   -0.00025  -0.00025  -0.00025  -0.00025
 Ionic relaxation
   EDIFFG = -.2E-01   stopping-criterion for IOM
   NSW    =    877    number of steps for IOM
   NBLOCK =      1;   KBLOCK =    877    inner block; outer block 
   IBRION =      5    ionic relax: 0-MD 1-quasi-New 2-CG
   NFREE  =      2    steps in history (QN), initial steepest desc. (CG)
   ISIF   =      2    stress and relaxation
   IWAVPR =     11    prediction:  0-non 1-charg 2-wave 3-comb
   ISYM   =      0    0-nonsym 1-usesym 2-fastsym
   LCORR  =      T    Harris-Foulkes like correction to forces

   POTIM  = 0.0150    time-step for ionic-motion
   TEIN   =    0.0    initial temperature
   TEBEG  =    0.0;   TEEND  =   0.0 temperature during run
   SMASS  =  -3.00    Nose mass-parameter (am)
   estimated Nose-frequenzy (Omega)   =  0.10E-29 period in steps =****** mass=  -0.230E-26a.u.
   SCALEE = 1.0000    scale energy and forces
   NPACO  =    256;   APACO  = 16.0  distance and # of slots for P.C.
   PSTRESS=    0.0 pullay stress

  Mass of Ions in am
   POMASS =  58.69 55.85 16.00  1.00
  Ionic Valenz
   ZVAL   =  10.00  8.00  6.00  1.00
  Atomic Wigner-Seitz radii
   RWIGS  =  -1.00 -1.00 -1.00 -1.00
  virtual crystal weights 
   VCA    =   1.00  1.00  1.00  1.00
   NELECT =     641.0000    total number of electrons
   NUPDOWN=      -1.0000    fix difference up-down

 DOS related values:
   EMIN   =  10.00;   EMAX   =-10.00  energy-range for DOS
   EFERMI =   0.00
   ISMEAR =     0;   SIGMA  =   0.20  broadening in eV -4-tet -1-fermi 0-gaus

 Electronic relaxation 2 (details)
   IALGO  =     68    algorithm
   LDIAG  =      T    sub-space diagonalisation (order eigenvalues)
   LSUBROT=      F    optimize rotation matrix (better conditioning)
   TURBO    =      0    0=normal 1=particle mesh
   IRESTART =      0    0=no restart 2=restart with 2 vectors
   NREBOOT  =      0    no. of reboots
   NMIN     =      0    reboot dimension
   EREF     =   0.00    reference energy to select bands
   IMIX   =      4    mixing-type and parameters
     AMIX     =   0.40;   BMIX     =  1.00
     AMIX_MAG =   1.60;   BMIX_MAG =  1.00
     AMIN     =   0.10
     WC   =   100.;   INIMIX=   1;  MIXPRE=   1;  MAXMIX= -45

 Intra band minimization:
   WEIMIN = 0.0010     energy-eigenvalue tresh-hold
   EBREAK =  0.65E-09  absolut break condition
   DEPER  =   0.30     relativ break condition  

   TIME   =   0.40     timestep for ELM

  volume/ion in A,a.u.               =      26.36       177.85
  Fermi-wavevector in a.u.,A,eV,Ry     =   1.150903  2.174890 18.021959  1.324577
  Thomas-Fermi vector in A             =   2.287564
 
 Write flags
   LWAVE        =      F    write WAVECAR
   LDOWNSAMPLE  =      F    k-point downsampling of WAVECAR
   LCHARG       =      F    write CHGCAR
   LVTOT        =      F    write LOCPOT, total local potential
   LVHAR        =      F    write LOCPOT, Hartree potential only
   LELF         =      F    write electronic localiz. function (ELF)
   LORBIT       =     10    0 simple, 1 ext, 2 COOP (PROOUT), +10 PAW based schemes


 Dipole corrections
   LMONO  =      F    monopole corrections only (constant potential shift)
   LDIPOL =      F    correct potential (dipole corrections)
   IDIPOL =      0    1-x, 2-y, 3-z, 4-all directions 
   EPSILON=  1.0000000 bulk dielectric constant

 Exchange correlation treatment:
   GGA     =    --    GGA type
   LEXCH   =     8    internal setting for exchange type
   VOSKOWN=      0    Vosko Wilk Nusair interpolation
   LHFCALC =     F    Hartree Fock is set to
   LHFONE  =     F    Hartree Fock one center treatment
   AEXX    =    0.0000 exact exchange contribution

 Linear response parameters
   LEPSILON=     F    determine dielectric tensor
   LRPA    =     F    only Hartree local field effects (RPA)
   LNABLA  =     F    use nabla operator in PAW spheres
   LVEL    =     F    velocity operator in full k-point grid
   LINTERFAST=   F  fast interpolation
   KINTER  =     0    interpolate to denser k-point grid
   CSHIFT  =0.1000    complex shift for real part using Kramers Kronig
   OMEGAMAX=  -1.0    maximum frequency
   DEG_THRESHOLD= 0.2000000E-02 threshold for treating states as degnerate
   RTIME   =   -0.100 relaxation time in fs
  (WPLASMAI=    0.000 imaginary part of plasma frequency in eV, 0.658/RTIME)
   DFIELD  = 0.0000000 0.0000000 0.0000000 field for delta impulse in time
 
 Orbital magnetization related:
   ORBITALMAG=     F  switch on orbital magnetization
   LCHIMAG   =     F  perturbation theory with respect to B field
   DQ        =  0.001000  dq finite difference perturbation B field
   LLRAUG    =     F  two centre corrections for induced B field



--------------------------------------------------------------------------------------------------------


 finite differences
   using selective dynamics as specified on POSCAR
 charge density and potential will be updated during run
 non-spin polarized calculation
 RMM-DIIS sequential band-by-band and
  variant of blocked Davidson during initial phase
 perform sub-space diagonalisation
    before iterative eigenvector-optimisation
 modified Broyden-mixing scheme, WC =      100.0
 initial mixing is a Kerker type mixing with AMIX =  0.4000 and BMIX =      1.0000
 Hartree-type preconditioning will be used
 using additional bands           63
 real space projection scheme for non local part
 use partial core corrections
 calculate Harris-corrections to forces 
   (improved forces if not selfconsistent)
 use gradient corrections 
 use of overlap-Matrix (Vanderbilt PP)
 Gauss-broadening in eV      SIGMA  =   0.20


--------------------------------------------------------------------------------------------------------


  energy-cutoff  :      520.00
  volume of cell :     1844.87
      direct lattice vectors                 reciprocal lattice vectors
    10.026770000  0.000000000  0.000000000     0.099733015  0.057580883  0.000000000
    -5.013385000  8.683437540  0.000000000     0.000000000  0.115161766  0.000000000
     0.000000000  0.000000000 21.189180000     0.000000000  0.000000000  0.047193898

  length of vectors
    10.026770000 10.026770002 21.189180000     0.115161766  0.115161766  0.047193898


 
 k-points in units of 2pi/SCALE and weight: read from INCAR                         
   0.00000000  0.00000000  0.00000000       1.000
 
 k-points in reciprocal lattice and weights: read from INCAR                         
   0.00000000  0.00000000  0.00000000       1.000
 
 position of ions in fractional coordinates (direct lattice) 
   0.99851852  0.99959365  0.28742433
   0.24842762  0.00022604  0.28500865
   0.49842892  0.99876059  0.28706395
   0.74782907  0.99768602  0.28642644
   0.99871924  0.24776725  0.28706706
   0.25096859  0.25156814  0.28730989
   0.08288200  0.16633200  0.09567600
   0.07873989  0.15936390  0.38463063
   0.49878036  0.24924371  0.28647167
   0.33293900  0.16685800  0.09574200
   0.33046378  0.16485405  0.37865449
   0.74998557  0.25152885  0.28822493
   0.58230700  0.16720100  0.09670300
   0.57749776  0.15716650  0.38316230
   0.83403200  0.16672400  0.09645100
   0.83103315  0.16270410  0.37908522
   0.66558100  0.08305500  0.19258300
   0.91639700  0.08203100  0.19204900
   0.00143502  0.49989083  0.28626947
   0.08092200  0.41609700  0.09594800
   0.07891662  0.41546014  0.38368591
   0.16611800  0.33395200  0.19207500
   0.75212340  0.50205142  0.28793602
   0.58357300  0.41617200  0.09593300
   0.57616917  0.41402715  0.38496290
   0.00004507  0.75042458  0.28655876
   0.24879629  0.74884812  0.28498446
   0.08375800  0.66810400  0.09479700
   0.08439557  0.66231043  0.38178876
   0.50051539  0.74857485  0.28654289
   0.33297400  0.66727700  0.09438800
   0.33113005  0.66362828  0.37839256
   0.75184383  0.74744827  0.28753720
   0.58298100  0.66668200  0.09450900
   0.57605041  0.65915369  0.38465865
   0.41661000  0.58200200  0.19081700
   0.83395900  0.66770600  0.09497900
   0.83193652  0.66344375  0.38532987
   0.91708300  0.58323900  0.19079400
   0.08291700  0.91685800  0.09518600
   0.08299445  0.91865092  0.38274877
   0.33420600  0.91705400  0.09538200
   0.33685893  0.91709377  0.38238213
   0.16670900  0.83524200  0.19136500
   0.41703500  0.83214900  0.19205900
   0.83233100  0.91715000  0.09633700
   0.83619500  0.91808644  0.38404879
   0.66623900  0.83337000  0.19234100
   0.91705900  0.83319500  0.19216200
   0.16168500  0.08211500  0.19130600
   0.41607500  0.07807100  0.19177300
   0.24847831  0.49770106  0.28747502
   0.50571855  0.50185969  0.28942692
   0.33134100  0.41714300  0.09577600
   0.33500228  0.41456808  0.38712690
   0.41638400  0.33144300  0.19252200
   0.83354800  0.41839000  0.09448800
   0.83528266  0.41459369  0.38422909
   0.66732400  0.33240600  0.19435500
   0.91446400  0.32695500  0.19396500
   0.16914200  0.58833400  0.18947800
   0.66961600  0.58928900  0.18986000
   0.58310400  0.91651500  0.09583500
   0.57948112  0.91634506  0.38190519
   0.66542375  0.32564532  0.43553919
   0.16913959  0.83266963  0.43431944
   0.16188297  0.32968293  0.43727390
   0.66246770  0.83625428  0.43524218
   0.84506298  0.67296976  0.47045247
   0.95164106  0.72032598  0.48546100
 
 position of ions in cartesian coordinates  (Angst):
   5.00056774  8.67990899  6.09028584
   2.48979344  0.00196278  6.03909962
  -0.00953921  8.67267516  6.08264964
   2.49652596  8.66334421  6.06914147
   8.77177552  2.15147146  6.08271554
   1.25519645  2.18447619  6.08786091
  -0.00284760  1.44433353  2.02729599
  -0.00944579  1.38382646  8.15000771
   3.75160131  2.16429215  6.07009973
   2.50177938  1.44890102  2.02869447
   2.48700755  1.43149980  8.02337809
   6.25892186  2.18413503  6.10724982
   5.00041537  1.45187944  2.04905727
   5.00250106  1.36474551  8.11889493
   7.52679544  1.44773744  2.04371760
   7.51687996  1.41283092  8.03250489
   6.25724091  0.72120290  4.08067585
   8.77724896  0.71231106  4.06936083
  -2.49175651  4.34077076  6.06581525
  -1.27466818  3.61315231  2.03305944
  -1.29158285  3.60762214  8.12998989
  -0.00860297  2.89985133  4.06991175
   5.02439128  4.35953218  6.10112822
   3.76492179  3.61380357  2.03274160
   3.70143831  3.59517886  8.15704828
  -3.76171542  6.51626494  6.07194517
  -1.25964076  6.50257587  6.03858695
  -2.50964037  5.80143935  2.00867070
  -2.47420215  5.75113123  8.08979074
   1.26565881  6.50020294  6.07160891
  -0.00666279  5.79425815  2.00000432
  -0.00685922  5.76257468  8.01782802
   3.79131920  6.49042034  6.09267739
   2.50308286  5.78909151  2.00256821
   2.47133369  5.72371994  8.15060128
   1.25945255  5.05377802  4.04325576
   5.01444784  5.79798335  2.01252713
   5.01553718  5.76097235  8.16482403
   6.27137866  5.06451943  4.04276841
  -3.76517246  7.96147918  2.01691329
  -3.77338447  7.97704792  8.11013248
  -1.24653807  7.96318113  2.02106637
  -1.22013711  7.96352649  8.10236374
  -2.51583691  7.25277174  4.05486743
   0.00963071  7.22591387  4.06957272
   3.74756545  7.96401474  2.04130203
   3.78161414  7.97214626  8.13767893
   2.50222056  7.23651634  4.07554807
   5.01801235  7.23499674  4.07175521
   1.20950420  0.71304047  4.05361727
   3.78048835  0.67792465  4.06351262
  -0.00373217  4.32175608  6.09135994
   2.55470776  4.35786728  6.13271920
   1.23098154  3.62223519  2.02941490
   1.28060138  3.59987607  8.20290147
   2.51333524  2.87806459  4.07938331
   6.26024393  3.63306343  2.00212324
   6.29666934  3.60009841  8.14149928
   5.02462501  2.88642674  4.11822308
   7.52996891  2.83909332  4.10995930
  -1.25359692  5.10876154  4.01488345
   3.75975299  5.11705422  4.02297771
   1.25180714  7.95850076  2.03066507
   1.21633327  7.95702513  8.09225778
   5.03946549  2.82772081  9.22871835
  -2.47856964  7.23043475  9.20287271
  -0.02966420  2.86278115  9.26547527
   2.44994663  7.26156181  9.22242491
   5.09939567  5.84369090  9.96850196
   5.93061451  6.25490569 10.28652042
 


--------------------------------------------------------------------------------------------------------


 use parallel FFT for orbitals z direction half grid
 k-point  1 :   0.0000 0.0000 0.0000  plane waves:   24871

 maximum and minimum number of plane-waves per node :      1041     1030

 maximum number of plane-waves:     24871
 maximum index in each direction: 
   IXMAX=   18   IYMAX=   18   IZMAX=   39
   IXMIN=  -18   IYMIN=  -18   IZMIN=    0


 real space projection operators:
  total allocation   :      65322.00 KBytes
  max/ min on nodes  :       3295.28       2406.45


 parallel 3D FFT for wavefunctions:
    minimum data exchange during FFTs selected (reduces bandwidth)
 parallel 3D FFT for charge:
    minimum data exchange during FFTs selected (reduces bandwidth)


 total amount of memory used by VASP MPI-rank0    55323. kBytes
=======================================================================

   base      :      30000. kBytes
   nonlr-proj:       3982. kBytes
   fftplans  :       5965. kBytes
   grid      :      13166. kBytes
   one-center:         23. kBytes
   wavefun   :       2187. kBytes
 
     INWAV:  cpu time    0.0001: real time    0.0007
 Broyden mixing: mesh for mixing (old mesh)
   NGX = 37   NGY = 37   NGZ = 79
  (NGX  =160   NGY  =160   NGZ  =320)
  gives a total of 108151 points

 initial charge density was supplied:
 number of electron     641.0000049 magnetization 
 keeping initial charge density in first step


--------------------------------------------------------------------------------------------------------


 Maximum index for non-local projection operator          764
 Maximum index for augmentation-charges         1117 (set IRDMAX)


--------------------------------------------------------------------------------------------------------


 First call to EWALD:  gamma=   0.145
 Maximum number of real-space cells 4x 4x 2
 Maximum number of reciprocal cells 2x 2x 4

    FEWALD:  cpu time    0.0086: real time    0.0092


--------------------------------------- Iteration      1(   1)  ---------------------------------------


    POTLOK:  cpu time    0.1999: real time    0.2073
    SETDIJ:  cpu time    0.0344: real time    0.0344
     EDDAV:  cpu time    2.3202: real time    2.3334
       DOS:  cpu time    0.0096: real time    0.0096
    --------------------------------------------
      LOOP:  cpu time    2.5641: real time    2.5848

 eigenvalue-minimisations  :   768
 total energy-change (2. order) : 0.5897871E+04  (-0.3283854E+05)
 number of electron     641.0000049 magnetization 
 augmentation part      641.0000049 magnetization 

 Free energy of the ion-electron system (eV)
  ---------------------------------------------------
  alpha Z        PSCENC =      1359.59787895
  Ewald energy   TEWEN  =    221787.86320486
  -Hartree energ DENC   =   -284132.57682350
  -exchange      EXHF   =         0.00000000
  -V(xc)+E(xc)   XCENC  =      1681.82197309
  PAW double counting   =     68609.53040291   -72115.37361433
  entropy T*S    EENTRO =        -0.27642611
  eigenvalues    EBANDS =      4812.44193525
  atomic energy  EATOM  =     63894.84216477
  Solvation  Ediel_sol  =         0.00000000
  ---------------------------------------------------
  free energy    TOTEN  =      5897.87069588 eV

  energy without entropy =     5898.14712199  energy(sigma->0) =     5898.00890894


--------------------------------------------------------------------------------------------------------




--------------------------------------- Iteration      1(   2)  ---------------------------------------


     EDDAV:  cpu time    2.1904: real time    2.2004
       DOS:  cpu time    0.0012: real time    0.0012
    --------------------------------------------
      LOOP:  cpu time    2.1917: real time    2.2017

 eigenvalue-minimisations  :   768
 total energy-change (2. order) :-0.5577001E+04  (-0.5407015E+04)
 number of electron     641.0000049 magnetization 
 augmentation part      641.0000049 magnetization 

 Free energy of the ion-electron system (eV)
  ---------------------------------------------------
  alpha Z        PSCENC =      1359.59787895
  Ewald energy   TEWEN  =    221787.86320486
  -Hartree energ DENC   =   -284132.57682350
  -exchange      EXHF   =         0.00000000
  -V(xc)+E(xc)   XCENC  =      1681.82197309
  PAW double counting   =     68609.53040291   -72115.37361433
  entropy T*S    EENTRO =        -0.96906845
  eigenvalues    EBANDS =      -763.86634256
  atomic energy  EATOM  =     63894.84216477
  Solvation  Ediel_sol  =         0.00000000
  ---------------------------------------------------
  free energy    TOTEN  =       320.86977573 eV

  energy without entropy =      321.83884418  energy(sigma->0) =      321.35430996


--------------------------------------------------------------------------------------------------------




--------------------------------------- Iteration      1(   3)  ---------------------------------------


     EDDAV:  cpu time    2.1882: real time    2.2009
       DOS:  cpu time    0.0015: real time    0.0015
    --------------------------------------------
      LOOP:  cpu time    2.1897: real time    2.2023

 eigenvalue-minimisations  :   774
 total energy-change (2. order) :-0.6283695E+03  (-0.5608696E+03)
 number of electron     641.0000049 magnetization 
 augmentation part      641.0000049 magnetization 

 Free energy of the ion-electron system (eV)
  ---------------------------------------------------
  alpha Z        PSCENC =      1359.59787895
  Ewald energy   TEWEN  =    221787.86320486
  -Hartree energ DENC   =   -284132.57682350
  -exchange      EXHF   =         0.00000000
  -V(xc)+E(xc)   XCENC  =      1681.82197309
  PAW double counting   =     68609.53040291   -72115.37361433
  entropy T*S    EENTRO =        -2.76008880
  eigenvalues    EBANDS =     -1390.44484936
  atomic energy  EATOM  =     63894.84216477
  Solvation  Ediel_sol  =         0.00000000
  ---------------------------------------------------
  free energy    TOTEN  =      -307.49975141 eV

  energy without entropy =     -304.73966261  energy(sigma->0) =     -306.11970701


--------------------------------------------------------------------------------------------------------




--------------------------------------- Iteration      1(   4)  ---------------------------------------


     EDDAV:  cpu time    3.3594: real time    3.3742
       DOS:  cpu time    0.0017: real time    0.0017
    --------------------------------------------
      LOOP:  cpu time    3.3611: real time    3.3759

 eigenvalue-minimisations  :  1329
 total energy-change (2. order) :-0.9195397E+02  (-0.8288967E+02)
 number of electron     641.0000049 magnetization 
 augmentation part      641.0000049 magnetization 

 Free energy of the ion-electron system (eV)
  ---------------------------------------------------
  alpha Z        PSCENC =      1359.59787895
  Ewald energy   TEWEN  =    221787.86320486
  -Hartree energ DENC   =   -284132.57682350
  -exchange      EXHF   =         0.00000000
  -V(xc)+E(xc)   XCENC  =      1681.82197309
  PAW double counting   =     68609.53040291   -72115.37361433
  entropy T*S    EENTRO =        -2.90981674
  eigenvalues    EBANDS =     -1482.24909358
  atomic energy  EATOM  =     63894.84216477
  Solvation  Ediel_sol  =         0.00000000
  ---------------------------------------------------
  free energy    TOTEN  =      -399.45372358 eV

  energy without entropy =     -396.54390684  energy(sigma->0) =     -397.99881521


--------------------------------------------------------------------------------------------------------




--------------------------------------- Iteration      1(   5)  ---------------------------------------


     EDDAV:  cpu time    2.8095: real time    2.8234
       DOS:  cpu time    0.0015: real time    0.0016
    CHARGE:  cpu time    0.1140: real time    0.1166
    MIXING:  cpu time    0.0129: real time    0.0130
    --------------------------------------------
      LOOP:  cpu time    2.9380: real time    2.9547

 eigenvalue-minimisations  :  1077
 total energy-change (2. order) :-0.1012176E+02  (-0.9536839E+01)
 number of electron     641.0000049 magnetization 
 augmentation part      367.6758658 magnetization 

 Broyden mixing:
  rms(total) = 0.28565E+01    rms(broyden)= 0.28562E+01
  rms(prec ) = 0.31968E+01
  weight for this iteration     100.00

 Free energy of the ion-electron system (eV)
  ---------------------------------------------------
  alpha Z        PSCENC =      1359.59787895
  Ewald energy   TEWEN  =    221787.86320486
  -Hartree energ DENC   =   -284132.57682350
  -exchange      EXHF   =         0.00000000
  -V(xc)+E(xc)   XCENC  =      1681.82197309
  PAW double counting   =     68609.53040291   -72115.37361433
  entropy T*S    EENTRO =        -2.92900232
  eigenvalues    EBANDS =     -1492.35166913
  atomic energy  EATOM  =     63894.84216477
  Solvation  Ediel_sol  =         0.00000000
  ---------------------------------------------------
  free energy    TOTEN  =      -409.57548471 eV

  energy without entropy =     -406.64648239  energy(sigma->0) =     -408.11098355


--------------------------------------------------------------------------------------------------------




--------------------------------------- Iteration      1(   6)  ---------------------------------------


    POTLOK:  cpu time    0.1845: real time    0.1951
    SETDIJ:  cpu time    0.0105: real time    0.0105
    EDDIAG:  cpu time    0.3340: real time    0.3341
  RMM-DIIS:  cpu time    1.5774: real time    1.5792
    ORTHCH:  cpu time    0.0687: real time    0.0687
       DOS:  cpu time    0.0027: real time    0.0027
    CHARGE:  cpu time    0.1051: real time    0.1051
    MIXING:  cpu time    0.0050: real time    0.0050
    --------------------------------------------
      LOOP:  cpu time    2.2878: real time    2.3004

 eigenvalue-minimisations  :   790
 total energy-change (2. order) :-0.1989452E+03  (-0.1576822E+02)
 number of electron     641.0000053 magnetization 
 augmentation part      372.4969480 magnetization 

 Broyden mixing:
  rms(total) = 0.13758E+02    rms(broyden)= 0.13758E+02
  rms(prec ) = 0.15795E+02
  weight for this iteration     100.00

 eigenvalues of (default mixing * dielectric matrix)
  average eigenvalue GAMMA=   0.1537
  0.1537

 Free energy of the ion-electron system (eV)
  ---------------------------------------------------
  alpha Z        PSCENC =      1359.59787895
  Ewald energy   TEWEN  =    221787.86320486
  -Hartree energ DENC   =   -284054.27976452
  -exchange      EXHF   =         0.00000000
  -V(xc)+E(xc)   XCENC  =      1677.41753104
  PAW double counting   =     68285.41150847   -71752.32222083
  entropy T*S    EENTRO =        -1.15747856
  eigenvalues    EBANDS =     -1805.89348434
  atomic energy  EATOM  =     63894.84216477
  Solvation  Ediel_sol  =         0.00000000
  ---------------------------------------------------
  free energy    TOTEN  =      -608.52066015 eV

  energy without entropy =     -607.36318160  energy(sigma->0) =     -607.94192088


--------------------------------------------------------------------------------------------------------




--------------------------------------- Iteration      1(   7)  ---------------------------------------


    POTLOK:  cpu time    0.1825: real time    0.1938
    SETDIJ:  cpu time    0.0105: real time    0.0105
    EDDIAG:  cpu time    0.3242: real time    0.3298
  RMM-DIIS:  cpu time    1.5541: real time    1.5545
    ORTHCH:  cpu time    0.0690: real time    0.0690
       DOS:  cpu time    0.0027: real time    0.0027
    CHARGE:  cpu time    0.1098: real time    0.1098
    MIXING:  cpu time    0.0034: real time    0.0034
    --------------------------------------------
      LOOP:  cpu time    2.2562: real time    2.2734

 eigenvalue-minimisations  :   769
 total energy-change (2. order) : 0.1674185E+03  (-0.1313853E+02)
 number of electron     641.0000048 magnetization 
 augmentation part      367.5251266 magnetization 

 Broyden mixing:
  rms(total) = 0.78723E+01    rms(broyden)= 0.78721E+01
  rms(prec ) = 0.93114E+01
  weight for this iteration     100.00

 eigenvalues of (default mixing * dielectric matrix)
  average eigenvalue GAMMA=   0.1180
  0.1459  0.0901

 Free energy of the ion-electron system (eV)
  ---------------------------------------------------
  alpha Z        PSCENC =      1359.59787895
  Ewald energy   TEWEN  =    221787.86320486
  -Hartree energ DENC   =   -284191.22590823
  -exchange      EXHF   =         0.00000000
  -V(xc)+E(xc)   XCENC  =      1681.39559096
  PAW double counting   =     68491.00918861   -71991.12805380
  entropy T*S    EENTRO =        -2.08175200
  eigenvalues    EBANDS =     -1471.37444723
  atomic energy  EATOM  =     63894.84216477
  Solvation  Ediel_sol  =         0.00000000
  ---------------------------------------------------
  free energy    TOTEN  =      -441.10213310 eV

  energy without entropy =     -439.02038110  energy(sigma->0) =     -440.06125710


--------------------------------------------------------------------------------------------------------




--------------------------------------- Iteration      1(   8)  ---------------------------------------


    POTLOK:  cpu time    0.1854: real time    0.1984
    SETDIJ:  cpu time    0.0105: real time    0.0105
    EDDIAG:  cpu time    0.3242: real time    0.3242
  RMM-DIIS:  cpu time    1.5549: real time    1.5564
    ORTHCH:  cpu time    0.0697: real time    0.0697
       DOS:  cpu time    0.0021: real time    0.0021
    CHARGE:  cpu time    0.1173: real time    0.1173
    MIXING:  cpu time    0.0036: real time    0.0036
    --------------------------------------------
      LOOP:  cpu time    2.2676: real time    2.2822

 eigenvalue-minimisations  :   771
 total energy-change (2. order) : 0.3076598E+02  (-0.2163520E+01)
 number of electron     641.0000054 magnetization 
 augmentation part      367.3180467 magnetization 

 Broyden mixing:
  rms(total) = 0.33272E+01    rms(broyden)= 0.33269E+01
  rms(prec ) = 0.37530E+01
  weight for this iteration     100.00

 eigenvalues of (default mixing * dielectric matrix)
  average eigenvalue GAMMA=   0.1046
  0.1286  0.1286  0.0566

 Free energy of the ion-electron system (eV)
  ---------------------------------------------------
  alpha Z        PSCENC =      1359.59787895
  Ewald energy   TEWEN  =    221787.86320486
  -Hartree energ DENC   =   -284161.58192967
  -exchange      EXHF   =         0.00000000
  -V(xc)+E(xc)   XCENC  =      1681.76574243
  PAW double counting   =     68489.34297461   -71991.75932338
  entropy T*S    EENTRO =        -2.79629163
  eigenvalues    EBANDS =     -1467.61057485
  atomic energy  EATOM  =     63894.84216477
  Solvation  Ediel_sol  =         0.00000000
  ---------------------------------------------------
  free energy    TOTEN  =      -410.33615391 eV

  energy without entropy =     -407.53986228  energy(sigma->0) =     -408.93800809


--------------------------------------------------------------------------------------------------------




--------------------------------------- Iteration      1(   9)  ---------------------------------------


    POTLOK:  cpu time    0.1874: real time    0.1992
    SETDIJ:  cpu time    0.0110: real time    0.0110
    EDDIAG:  cpu time    0.3316: real time    0.3317
  RMM-DIIS:  cpu time    1.6643: real time    1.6649
    ORTHCH:  cpu time    0.0696: real time    0.0696
       DOS:  cpu time    0.0021: real time    0.0021
    CHARGE:  cpu time    0.1099: real time    0.1099
    MIXING:  cpu time    0.0036: real time    0.0036
    --------------------------------------------
      LOOP:  cpu time    2.3794: real time    2.3920

 eigenvalue-minimisations  :   812
 total energy-change (2. order) : 0.2585799E+01  (-0.4990363E+00)
 number of electron     641.0000050 magnetization 
 augmentation part      367.4908865 magnetization 

 Broyden mixing:
  rms(total) = 0.22925E+01    rms(broyden)= 0.22924E+01
  rms(prec ) = 0.27914E+01
  weight for this iteration     100.00

 eigenvalues of (default mixing * dielectric matrix)
  average eigenvalue GAMMA=   0.1072
  0.1474  0.1474  0.0670  0.0670

 Free energy of the ion-electron system (eV)
  ---------------------------------------------------
  alpha Z        PSCENC =      1359.59787895
  Ewald energy   TEWEN  =    221787.86320486
  -Hartree energ DENC   =   -284149.41263482
  -exchange      EXHF   =         0.00000000
  -V(xc)+E(xc)   XCENC  =      1681.77641336
  PAW double counting   =     68465.97702010   -71967.57955640
  entropy T*S    EENTRO =        -2.88790349
  eigenvalues    EBANDS =     -1477.92694267
  atomic energy  EATOM  =     63894.84216477
  Solvation  Ediel_sol  =         0.00000000
  ---------------------------------------------------
  free energy    TOTEN  =      -407.75035534 eV

  energy without entropy =     -404.86245185  energy(sigma->0) =     -406.30640360


--------------------------------------------------------------------------------------------------------




--------------------------------------- Iteration      1(  10)  ---------------------------------------


    POTLOK:  cpu time    0.1862: real time    0.1980
    SETDIJ:  cpu time    0.0106: real time    0.0106
    EDDIAG:  cpu time    0.3323: real time    0.3324
  RMM-DIIS:  cpu time    1.6790: real time    1.6794
    ORTHCH:  cpu time    0.0693: real time    0.0693
       DOS:  cpu time    0.0028: real time    0.0028
    CHARGE:  cpu time    0.1101: real time    0.1101
    MIXING:  cpu time    0.0037: real time    0.0037
    --------------------------------------------
      LOOP:  cpu time    2.3941: real time    2.4064

 eigenvalue-minimisations  :   837
 total energy-change (2. order) : 0.7435840E+00  (-0.1055473E+00)
 number of electron     641.0000050 magnetization 
 augmentation part      367.9100370 magnetization 

 Broyden mixing:
  rms(total) = 0.18603E+01    rms(broyden)= 0.18602E+01
  rms(prec ) = 0.20984E+01
  weight for this iteration     100.00

 eigenvalues of (default mixing * dielectric matrix)
  average eigenvalue GAMMA=   0.1346
  0.2137  0.2137  0.1259  0.0799  0.0400

 Free energy of the ion-electron system (eV)
  ---------------------------------------------------
  alpha Z        PSCENC =      1359.59787895
  Ewald energy   TEWEN  =    221787.86320486
  -Hartree energ DENC   =   -284139.92443323
  -exchange      EXHF   =         0.00000000
  -V(xc)+E(xc)   XCENC  =      1681.65340344
  PAW double counting   =     68435.15362139   -71934.93770043
  entropy T*S    EENTRO =        -2.84470788
  eigenvalues    EBANDS =     -1488.41020319
  atomic energy  EATOM  =     63894.84216477
  Solvation  Ediel_sol  =         0.00000000
  ---------------------------------------------------
  free energy    TOTEN  =      -407.00677131 eV

  energy without entropy =     -404.16206343  energy(sigma->0) =     -405.58441737


--------------------------------------------------------------------------------------------------------




--------------------------------------- Iteration      1(  11)  ---------------------------------------


    POTLOK:  cpu time    0.1865: real time    0.1981
    SETDIJ:  cpu time    0.0104: real time    0.0104
    EDDIAG:  cpu time    0.3243: real time    0.3243
  RMM-DIIS:  cpu time    1.5579: real time    1.5582
    ORTHCH:  cpu time    0.0698: real time    0.0698
       DOS:  cpu time    0.0026: real time    0.0026
    CHARGE:  cpu time    0.1101: real time    0.1101
    MIXING:  cpu time    0.0044: real time    0.0044
    --------------------------------------------
      LOOP:  cpu time    2.2660: real time    2.2779

 eigenvalue-minimisations  :   771
 total energy-change (2. order) :-0.9480910E+00  (-0.1907326E+00)
 number of electron     641.0000051 magnetization 
 augmentation part      367.7551931 magnetization 

 Broyden mixing:
  rms(total) = 0.24125E+01    rms(broyden)= 0.24125E+01
  rms(prec ) = 0.28692E+01
  weight for this iteration     100.00

 eigenvalues of (default mixing * dielectric matrix)
  average eigenvalue GAMMA=   0.2086
  0.6819  0.1893  0.1893  0.0915  0.0622  0.0373

 Free energy of the ion-electron system (eV)
  ---------------------------------------------------
  alpha Z        PSCENC =      1359.59787895
  Ewald energy   TEWEN  =    221787.86320486
  -Hartree energ DENC   =   -284148.11797279
  -exchange      EXHF   =         0.00000000
  -V(xc)+E(xc)   XCENC  =      1681.65163051
  PAW double counting   =     68362.36568203   -71859.50126717
  entropy T*S    EENTRO =        -3.00677220
  eigenvalues    EBANDS =     -1483.64941129
  atomic energy  EATOM  =     63894.84216477
  Solvation  Ediel_sol  =         0.00000000
  ---------------------------------------------------
  free energy    TOTEN  =      -407.95486232 eV

  energy without entropy =     -404.94809012  energy(sigma->0) =     -406.45147622


--------------------------------------------------------------------------------------------------------




--------------------------------------- Iteration      1(  12)  ---------------------------------------


    POTLOK:  cpu time    0.1879: real time    0.1993
    SETDIJ:  cpu time    0.0105: real time    0.0105
    EDDIAG:  cpu time    0.3223: real time    0.3224
  RMM-DIIS:  cpu time    1.5596: real time    1.5599
    ORTHCH:  cpu time    0.0693: real time    0.0693
       DOS:  cpu time    0.0028: real time    0.0028
    CHARGE:  cpu time    0.1098: real time    0.1106
    MIXING:  cpu time    0.0040: real time    0.0040
    --------------------------------------------
      LOOP:  cpu time    2.2670: real time    2.2788

 eigenvalue-minimisations  :   770
 total energy-change (2. order) :-0.1538045E+01  (-0.4403849E+00)
 number of electron     641.0000050 magnetization 
 augmentation part      367.7022170 magnetization 

 Broyden mixing:
  rms(total) = 0.29439E+01    rms(broyden)= 0.29437E+01
  rms(prec ) = 0.33955E+01
  weight for this iteration     100.00

 eigenvalues of (default mixing * dielectric matrix)
  average eigenvalue GAMMA=   0.2952
  1.2803  0.2479  0.2479  0.1160  0.0793  0.0578  0.0371

 Free energy of the ion-electron system (eV)
  ---------------------------------------------------
  alpha Z        PSCENC =      1359.59787895
  Ewald energy   TEWEN  =    221787.86320486
  -Hartree energ DENC   =   -284144.07494196
  -exchange      EXHF   =         0.00000000
  -V(xc)+E(xc)   XCENC  =      1681.79041054
  PAW double counting   =     68225.84000203   -71718.86384349
  entropy T*S    EENTRO =        -3.02019244
  eigenvalues    EBANDS =     -1493.46759079
  atomic energy  EATOM  =     63894.84216477
  Solvation  Ediel_sol  =         0.00000000
  ---------------------------------------------------
  free energy    TOTEN  =      -409.49290753 eV

  energy without entropy =     -406.47271509  energy(sigma->0) =     -407.98281131


--------------------------------------------------------------------------------------------------------




--------------------------------------- Iteration      1(  13)  ---------------------------------------


    POTLOK:  cpu time    0.1894: real time    0.2018
    SETDIJ:  cpu time    0.0105: real time    0.0105
    EDDIAG:  cpu time    0.3244: real time    0.3245
  RMM-DIIS:  cpu time    1.5636: real time    1.5642
    ORTHCH:  cpu time    0.0691: real time    0.0692
       DOS:  cpu time    0.0027: real time    0.0027
    CHARGE:  cpu time    0.1101: real time    0.1101
    MIXING:  cpu time    0.0041: real time    0.0041
    --------------------------------------------
      LOOP:  cpu time    2.2731: real time    2.2871

 eigenvalue-minimisations  :   772
 total energy-change (2. order) :-0.4107525E+01  (-0.8744441E+00)
 number of electron     641.0000048 magnetization 
 augmentation part      368.2082219 magnetization 

 Broyden mixing:
  rms(total) = 0.38892E+01    rms(broyden)= 0.38891E+01
  rms(prec ) = 0.44934E+01
  weight for this iteration     100.00

 eigenvalues of (default mixing * dielectric matrix)
  average eigenvalue GAMMA=   0.3329
  1.6796  0.3575  0.2260  0.1408  0.0941  0.0712  0.0567  0.0371

 Free energy of the ion-electron system (eV)
  ---------------------------------------------------
  alpha Z        PSCENC =      1359.59787895
  Ewald energy   TEWEN  =    221787.86320486
  -Hartree energ DENC   =   -284125.78276106
  -exchange      EXHF   =         0.00000000
  -V(xc)+E(xc)   XCENC  =      1681.88799965
  PAW double counting   =     68099.46596740   -71588.60477409
  entropy T*S    EENTRO =        -2.69452335
  eigenvalues    EBANDS =     -1520.17559000
  atomic energy  EATOM  =     63894.84216477
  Solvation  Ediel_sol  =         0.00000000
  ---------------------------------------------------
  free energy    TOTEN  =      -413.60043287 eV

  energy without entropy =     -410.90590952  energy(sigma->0) =     -412.25317120


--------------------------------------------------------------------------------------------------------




--------------------------------------- Iteration      1(  14)  ---------------------------------------


    POTLOK:  cpu time    0.1871: real time    0.2018
    SETDIJ:  cpu time    0.0104: real time    0.0104
    EDDIAG:  cpu time    0.3216: real time    0.3216
  RMM-DIIS:  cpu time    1.5630: real time    1.5634
    ORTHCH:  cpu time    0.0701: real time    0.0701
       DOS:  cpu time    0.0022: real time    0.0022
    CHARGE:  cpu time    0.1103: real time    0.1103
    MIXING:  cpu time    0.0043: real time    0.0042
    --------------------------------------------
      LOOP:  cpu time    2.2689: real time    2.2840

 eigenvalue-minimisations  :   772
 total energy-change (2. order) : 0.1736444E+01  (-0.5631613E+00)
 number of electron     641.0000052 magnetization 
 augmentation part      368.0682226 magnetization 

 Broyden mixing:
  rms(total) = 0.36714E+01    rms(broyden)= 0.36712E+01
  rms(prec ) = 0.42071E+01
  weight for this iteration     100.00

 eigenvalues of (default mixing * dielectric matrix)
  average eigenvalue GAMMA=   0.3283
  1.8350  0.4272  0.1774  0.1774  0.0964  0.0823  0.0371  0.0672  0.0547

 Free energy of the ion-electron system (eV)
  ---------------------------------------------------
  alpha Z        PSCENC =      1359.59787895
  Ewald energy   TEWEN  =    221787.86320486
  -Hartree energ DENC   =   -284143.67937583
  -exchange      EXHF   =         0.00000000
  -V(xc)+E(xc)   XCENC  =      1682.25388037
  PAW double counting   =     68041.60013496   -71531.54567113
  entropy T*S    EENTRO =        -2.66962995
  eigenvalues    EBANDS =     -1500.12657565
  atomic energy  EATOM  =     63894.84216477
  Solvation  Ediel_sol  =         0.00000000
  ---------------------------------------------------
  free energy    TOTEN  =      -411.86398865 eV

  energy without entropy =     -409.19435870  energy(sigma->0) =     -410.52917367


--------------------------------------------------------------------------------------------------------




--------------------------------------- Iteration      1(  15)  ---------------------------------------


    POTLOK:  cpu time    0.1877: real time    0.2014
    SETDIJ:  cpu time    0.0105: real time    0.0105
    EDDIAG:  cpu time    0.3220: real time    0.3221
  RMM-DIIS:  cpu time    1.5572: real time    1.5575
    ORTHCH:  cpu time    0.0696: real time    0.0696
       DOS:  cpu time    0.0032: real time    0.0032
    CHARGE:  cpu time    0.1103: real time    0.1103
    MIXING:  cpu time    0.0044: real time    0.0044
    --------------------------------------------
      LOOP:  cpu time    2.2649: real time    2.2790

 eigenvalue-minimisations  :   771
 total energy-change (2. order) : 0.3757484E+01  (-0.2698371E+00)
 number of electron     641.0000051 magnetization 
 augmentation part      367.9086516 magnetization 

 Broyden mixing:
  rms(total) = 0.22208E+01    rms(broyden)= 0.22206E+01
  rms(prec ) = 0.25610E+01
  weight for this iteration     100.00

 eigenvalues of (default mixing * dielectric matrix)
  average eigenvalue GAMMA=   0.3117
  1.8858  0.4566  0.1758  0.1758  0.1037  0.1037  0.0726  0.0371  0.0559  0.0503

 Free energy of the ion-electron system (eV)
  ---------------------------------------------------
  alpha Z        PSCENC =      1359.59787895
  Ewald energy   TEWEN  =    221787.86320486
  -Hartree energ DENC   =   -284147.43638386
  -exchange      EXHF   =         0.00000000
  -V(xc)+E(xc)   XCENC  =      1682.43520709
  PAW double counting   =     68018.05780557   -71508.55498463
  entropy T*S    EENTRO =        -2.84146062
  eigenvalues    EBANDS =     -1492.06993675
  atomic energy  EATOM  =     63894.84216477
  Solvation  Ediel_sol  =         0.00000000
  ---------------------------------------------------
  free energy    TOTEN  =      -408.10650463 eV

  energy without entropy =     -405.26504400  energy(sigma->0) =     -406.68577432


--------------------------------------------------------------------------------------------------------




--------------------------------------- Iteration      1(  16)  ---------------------------------------


    POTLOK:  cpu time    0.1981: real time    0.1989
    SETDIJ:  cpu time    0.0105: real time    0.0105
    EDDIAG:  cpu time    0.3239: real time    0.3239
  RMM-DIIS:  cpu time    1.5532: real time    1.5538
    ORTHCH:  cpu time    0.0695: real time    0.0695
       DOS:  cpu time    0.0023: real time    0.0023
    CHARGE:  cpu time    0.1106: real time    0.1106
    MIXING:  cpu time    0.0046: real time    0.0046
    --------------------------------------------
      LOOP:  cpu time    2.2727: real time    2.2742

 eigenvalue-minimisations  :   770
 total energy-change (2. order) : 0.1196560E+01  (-0.8073535E-01)
 number of electron     641.0000049 magnetization 
 augmentation part      367.8187628 magnetization 

 Broyden mixing:
  rms(total) = 0.13518E+01    rms(broyden)= 0.13518E+01
  rms(prec ) = 0.15807E+01
  weight for this iteration     100.00

 eigenvalues of (default mixing * dielectric matrix)
  average eigenvalue GAMMA=   0.3182
  1.9869  0.5447  0.1960  0.1960  0.1401  0.1401  0.0810  0.0371  0.0702  0.0582
  0.0495

 Free energy of the ion-electron system (eV)
  ---------------------------------------------------
  alpha Z        PSCENC =      1359.59787895
  Ewald energy   TEWEN  =    221787.86320486
  -Hartree energ DENC   =   -284147.34556095
  -exchange      EXHF   =         0.00000000
  -V(xc)+E(xc)   XCENC  =      1682.45497088
  PAW double counting   =     68003.96486015   -71494.15677798
  entropy T*S    EENTRO =        -2.96110532
  eigenvalues    EBANDS =     -1491.16957971
  atomic energy  EATOM  =     63894.84216477
  Solvation  Ediel_sol  =         0.00000000
  ---------------------------------------------------
  free energy    TOTEN  =      -406.90994435 eV

  energy without entropy =     -403.94883903  energy(sigma->0) =     -405.42939169


--------------------------------------------------------------------------------------------------------




--------------------------------------- Iteration      1(  17)  ---------------------------------------


    POTLOK:  cpu time    0.1856: real time    0.1994
    SETDIJ:  cpu time    0.0104: real time    0.0104
    EDDIAG:  cpu time    0.3228: real time    0.3229
  RMM-DIIS:  cpu time    1.5377: real time    1.5388
    ORTHCH:  cpu time    0.0700: real time    0.0700
       DOS:  cpu time    0.0026: real time    0.0026
    CHARGE:  cpu time    0.1105: real time    0.1105
    MIXING:  cpu time    0.0049: real time    0.0049
    --------------------------------------------
      LOOP:  cpu time    2.2444: real time    2.2596

 eigenvalue-minimisations  :   773
 total energy-change (2. order) :-0.1603294E+00  (-0.5609342E-01)
 number of electron     641.0000049 magnetization 
 augmentation part      367.8784326 magnetization 

 Broyden mixing:
  rms(total) = 0.15863E+01    rms(broyden)= 0.15863E+01
  rms(prec ) = 0.18243E+01
  weight for this iteration     100.00

 eigenvalues of (default mixing * dielectric matrix)
  average eigenvalue GAMMA=   0.3509
  2.2564  0.8024  0.2467  0.2467  0.1524  0.1404  0.0896  0.0745  0.0371  0.0629
  0.0555  0.0465

 Free energy of the ion-electron system (eV)
  ---------------------------------------------------
  alpha Z        PSCENC =      1359.59787895
  Ewald energy   TEWEN  =    221787.86320486
  -Hartree energ DENC   =   -284147.83639787
  -exchange      EXHF   =         0.00000000
  -V(xc)+E(xc)   XCENC  =      1682.41022865
  PAW double counting   =     67973.80167706   -71462.71897533
  entropy T*S    EENTRO =        -2.98187689
  eigenvalues    EBANDS =     -1492.04817791
  atomic energy  EATOM  =     63894.84216477
  Solvation  Ediel_sol  =         0.00000000
  ---------------------------------------------------
  free energy    TOTEN  =      -407.07027371 eV

  energy without entropy =     -404.08839682  energy(sigma->0) =     -405.57933526


--------------------------------------------------------------------------------------------------------




--------------------------------------- Iteration      1(  18)  ---------------------------------------


    POTLOK:  cpu time    0.1981: real time    0.1989
    SETDIJ:  cpu time    0.0105: real time    0.0105
    EDDIAG:  cpu time    0.3237: real time    0.3238
[...]
      2.496526  8.663344  6.069141            0           0           0  
      8.771776  2.151471  6.082716            0           0           0  
      1.255196  2.184476  6.087861            0           0           0  
     -0.002848  1.444334  2.027296            0           0           0  
     -0.009446  1.383826  8.150008            0           0           0  
      3.751601  2.164292  6.070100            0           0           0  
      2.501779  1.448901  2.028694            0           0           0  
      2.487008  1.431500  8.023378            0           0           0  
      6.258922  2.184135  6.107250            0           0           0  
      5.000415  1.451879  2.049057            0           0           0  
      5.002501  1.364746  8.118895            0           0           0  
      7.526795  1.447737  2.043718            0           0           0  
      7.516880  1.412831  8.032505            0           0           0  
      6.257241  0.721203  4.080676            0           0           0  
      8.777249  0.712311  4.069361            0           0           0  
     -2.491757  4.340771  6.065815            0           0           0  
     -1.274668  3.613152  2.033059            0           0           0  
     -1.291583  3.607622  8.129990            0           0           0  
     -0.008603  2.899851  4.069912            0           0           0  
      5.024391  4.359532  6.101128            0           0           0  
      3.764922  3.613804  2.032742            0           0           0  
      3.701438  3.595179  8.157048            0           0           0  
     -3.761715  6.516265  6.071945            0           0           0  
     -1.259641  6.502576  6.038587            0           0           0  
     -2.509640  5.801439  2.008671            0           0           0  
     -2.474202  5.751131  8.089791            0           0           0  
      1.265659  6.500203  6.071609            0           0           0  
     -0.006663  5.794258  2.000004            0           0           0  
     -0.006859  5.762575  8.017828            0           0           0  
      3.791319  6.490420  6.092677            0           0           0  
      2.503083  5.789092  2.002568            0           0           0  
      2.471334  5.723720  8.150601            0           0           0  
      1.259453  5.053778  4.043256            0           0           0  
      5.014448  5.797983  2.012527            0           0           0  
      5.015537  5.760972  8.164824            0           0           0  
      6.271379  5.064519  4.042768            0           0           0  
     -3.765172  7.961479  2.016913            0           0           0  
     -3.773384  7.977048  8.110132            0           0           0  
     -1.246538  7.963181  2.021066            0           0           0  
     -1.220137  7.963526  8.102364            0           0           0  
     -2.515837  7.252772  4.054867            0           0           0  
      0.009631  7.225914  4.069573            0           0           0  
      3.747565  7.964015  2.041302            0           0           0  
      3.781614  7.972146  8.137679            0           0           0  
      2.502221  7.236516  4.075548            0           0           0  
      5.018012  7.234997  4.071755            0           0           0  
      1.209504  0.713040  4.053617            0           0           0  
      3.780488  0.677925  4.063513            0           0           0  
     -0.003732  4.321756  6.091360            0           0           0  
      2.554708  4.357867  6.132719            0           0           0  
      1.230982  3.622235  2.029415            0           0           0  
      1.280601  3.599876  8.202901            0           0           0  
      2.513335  2.878065  4.079383            0           0           0  
      6.260244  3.633063  2.002123            0           0           0  
      6.296669  3.600098  8.141499            0           0           0  
      5.024625  2.886427  4.118223            0           0           0  
      7.529969  2.839093  4.109959            0           0           0  
     -1.253597  5.108762  4.014883            0           0           0  
      3.759753  5.117054  4.022978            0           0           0  
      1.251807  7.958501  2.030665            0           0           0  
      1.216333  7.957025  8.092258            0           0           0  
      5.039465  2.827721  9.228718            0           0           0  
     -2.478570  7.230435  9.202873            0           0           0  
     -0.029664  2.862781  9.265475            0           0           0  
      2.449947  7.261562  9.222425            0           0           0  
      5.099396  5.843691  9.968502     0.016810    0.020464   -0.014985  
      5.930615  6.254906 10.286520     0.438410   -0.897850    0.027122  
 
   5 f  =    4.904700 THz    30.817142 2PiTHz  163.603191 cm-1    20.284218 meV
             X         Y         Z           dx          dy          dz
      5.000568  8.679909  6.090286            0           0           0  
      2.489793  0.001963  6.039100            0           0           0  
     -0.009539  8.672675  6.082650            0           0           0  
      2.496526  8.663344  6.069141            0           0           0  
      8.771776  2.151471  6.082716            0           0           0  
      1.255196  2.184476  6.087861            0           0           0  
     -0.002848  1.444334  2.027296            0           0           0  
     -0.009446  1.383826  8.150008            0           0           0  
      3.751601  2.164292  6.070100            0           0           0  
      2.501779  1.448901  2.028694            0           0           0  
      2.487008  1.431500  8.023378            0           0           0  
      6.258922  2.184135  6.107250            0           0           0  
      5.000415  1.451879  2.049057            0           0           0  
      5.002501  1.364746  8.118895            0           0           0  
      7.526795  1.447737  2.043718            0           0           0  
      7.516880  1.412831  8.032505            0           0           0  
      6.257241  0.721203  4.080676            0           0           0  
      8.777249  0.712311  4.069361            0           0           0  
     -2.491757  4.340771  6.065815            0           0           0  
     -1.274668  3.613152  2.033059            0           0           0  
     -1.291583  3.607622  8.129990            0           0           0  
     -0.008603  2.899851  4.069912            0           0           0  
      5.024391  4.359532  6.101128            0           0           0  
      3.764922  3.613804  2.032742            0           0           0  
      3.701438  3.595179  8.157048            0           0           0  
     -3.761715  6.516265  6.071945            0           0           0  
     -1.259641  6.502576  6.038587            0           0           0  
     -2.509640  5.801439  2.008671            0           0           0  
     -2.474202  5.751131  8.089791            0           0           0  
      1.265659  6.500203  6.071609            0           0           0  
     -0.006663  5.794258  2.000004            0           0           0  
     -0.006859  5.762575  8.017828            0           0           0  
      3.791319  6.490420  6.092677            0           0           0  
      2.503083  5.789092  2.002568            0           0           0  
      2.471334  5.723720  8.150601            0           0           0  
      1.259453  5.053778  4.043256            0           0           0  
      5.014448  5.797983  2.012527            0           0           0  
      5.015537  5.760972  8.164824            0           0           0  
      6.271379  5.064519  4.042768            0           0           0  
     -3.765172  7.961479  2.016913            0           0           0  
     -3.773384  7.977048  8.110132            0           0           0  
     -1.246538  7.963181  2.021066            0           0           0  
     -1.220137  7.963526  8.102364            0           0           0  
     -2.515837  7.252772  4.054867            0           0           0  
      0.009631  7.225914  4.069573            0           0           0  
      3.747565  7.964015  2.041302            0           0           0  
      3.781614  7.972146  8.137679            0           0           0  
      2.502221  7.236516  4.075548            0           0           0  
      5.018012  7.234997  4.071755            0           0           0  
      1.209504  0.713040  4.053617            0           0           0  
      3.780488  0.677925  4.063513            0           0           0  
     -0.003732  4.321756  6.091360            0           0           0  
      2.554708  4.357867  6.132719            0           0           0  
      1.230982  3.622235  2.029415            0           0           0  
      1.280601  3.599876  8.202901            0           0           0  
      2.513335  2.878065  4.079383            0           0           0  
      6.260244  3.633063  2.002123            0           0           0  
      6.296669  3.600098  8.141499            0           0           0  
      5.024625  2.886427  4.118223            0           0           0  
      7.529969  2.839093  4.109959            0           0           0  
     -1.253597  5.108762  4.014883            0           0           0  
      3.759753  5.117054  4.022978            0           0           0  
      1.251807  7.958501  2.030665            0           0           0  
      1.216333  7.957025  8.092258            0           0           0  
      5.039465  2.827721  9.228718            0           0           0  
     -2.478570  7.230435  9.202873            0           0           0  
     -0.029664  2.862781  9.265475            0           0           0  
      2.449947  7.261562  9.222425            0           0           0  
      5.099396  5.843691  9.968502    -0.833698   -0.467677    0.050834  
      5.930615  6.254906 10.286520    -0.232991   -0.137807    0.101817  
 
   6 f  =    0.719682 THz     4.521896 2PiTHz   24.006012 cm-1     2.976367 meV
             X         Y         Z           dx          dy          dz
      5.000568  8.679909  6.090286            0           0           0  
      2.489793  0.001963  6.039100            0           0           0  
     -0.009539  8.672675  6.082650            0           0           0  
      2.496526  8.663344  6.069141            0           0           0  
      8.771776  2.151471  6.082716            0           0           0  
      1.255196  2.184476  6.087861            0           0           0  
     -0.002848  1.444334  2.027296            0           0           0  
     -0.009446  1.383826  8.150008            0           0           0  
      3.751601  2.164292  6.070100            0           0           0  
      2.501779  1.448901  2.028694            0           0           0  
      2.487008  1.431500  8.023378            0           0           0  
      6.258922  2.184135  6.107250            0           0           0  
      5.000415  1.451879  2.049057            0           0           0  
      5.002501  1.364746  8.118895            0           0           0  
      7.526795  1.447737  2.043718            0           0           0  
      7.516880  1.412831  8.032505            0           0           0  
      6.257241  0.721203  4.080676            0           0           0  
      8.777249  0.712311  4.069361            0           0           0  
     -2.491757  4.340771  6.065815            0           0           0  
     -1.274668  3.613152  2.033059            0           0           0  
     -1.291583  3.607622  8.129990            0           0           0  
     -0.008603  2.899851  4.069912            0           0           0  
      5.024391  4.359532  6.101128            0           0           0  
      3.764922  3.613804  2.032742            0           0           0  
      3.701438  3.595179  8.157048            0           0           0  
     -3.761715  6.516265  6.071945            0           0           0  
     -1.259641  6.502576  6.038587            0           0           0  
     -2.509640  5.801439  2.008671            0           0           0  
     -2.474202  5.751131  8.089791            0           0           0  
      1.265659  6.500203  6.071609            0           0           0  
     -0.006663  5.794258  2.000004            0           0           0  
     -0.006859  5.762575  8.017828            0           0           0  
      3.791319  6.490420  6.092677            0           0           0  
      2.503083  5.789092  2.002568            0           0           0  
      2.471334  5.723720  8.150601            0           0           0  
      1.259453  5.053778  4.043256            0           0           0  
      5.014448  5.797983  2.012527            0           0           0  
      5.015537  5.760972  8.164824            0           0           0  
      6.271379  5.064519  4.042768            0           0           0  
     -3.765172  7.961479  2.016913            0           0           0  
     -3.773384  7.977048  8.110132            0           0           0  
     -1.246538  7.963181  2.021066            0           0           0  
     -1.220137  7.963526  8.102364            0           0           0  
     -2.515837  7.252772  4.054867            0           0           0  
      0.009631  7.225914  4.069573            0           0           0  
      3.747565  7.964015  2.041302            0           0           0  
      3.781614  7.972146  8.137679            0           0           0  
      2.502221  7.236516  4.075548            0           0           0  
      5.018012  7.234997  4.071755            0           0           0  
      1.209504  0.713040  4.053617            0           0           0  
      3.780488  0.677925  4.063513            0           0           0  
     -0.003732  4.321756  6.091360            0           0           0  
      2.554708  4.357867  6.132719            0           0           0  
      1.230982  3.622235  2.029415            0           0           0  
      1.280601  3.599876  8.202901            0           0           0  
      2.513335  2.878065  4.079383            0           0           0  
      6.260244  3.633063  2.002123            0           0           0  
      6.296669  3.600098  8.141499            0           0           0  
      5.024625  2.886427  4.118223            0           0           0  
      7.529969  2.839093  4.109959            0           0           0  
     -1.253597  5.108762  4.014883            0           0           0  
      3.759753  5.117054  4.022978            0           0           0  
      1.251807  7.958501  2.030665            0           0           0  
      1.216333  7.957025  8.092258            0           0           0  
      5.039465  2.827721  9.228718            0           0           0  
     -2.478570  7.230435  9.202873            0           0           0  
     -0.029664  2.862781  9.265475            0           0           0  
      2.449947  7.261562  9.222425            0           0           0  
      5.099396  5.843691  9.968502     0.485217   -0.874003    0.015604  
      5.930615  6.254906 10.286520     0.019044   -0.002054   -0.008508  
 
 Finite differences POTIM=  1.500000000000000E-002
     LOOP+:  cpu time   40.6541: real time   40.9630
    4ORBIT:  cpu time    0.0000: real time    0.0000
 


 total charge     
 
# of ion       s       p       d       tot
------------------------------------------
    1        0.499   0.493   8.327   9.319
    2        0.497   0.485   8.339   9.321
    3        0.505   0.506   8.329   9.340
    4        0.489   0.483   8.337   9.310
    5        0.495   0.486   8.341   9.322
    6        0.502   0.501   8.317   9.320
    7        0.490   0.363   8.323   9.177
    8        0.484   0.481   8.346   9.311
    9        0.503   0.496   8.334   9.332
   10        0.495   0.366   8.314   9.175
   11        0.480   0.364   8.381   9.225
   12        0.500   0.502   8.327   9.329
   13        0.498   0.377   8.309   9.183
   14        0.499   0.506   8.331   9.336
   15        0.494   0.370   8.316   9.179
   16        0.485   0.367   8.375   9.227
   17        0.508   0.500   8.326   9.334
   18        0.498   0.494   8.336   9.328
   19        0.507   0.506   8.317   9.330
   20        0.500   0.376   8.311   9.186
   21        0.495   0.499   8.327   9.321
   22        0.507   0.509   8.313   9.328
   23        0.500   0.493   8.319   9.311
   24        0.500   0.377   8.304   9.181
   25        0.489   0.484   8.322   9.295
   26        0.481   0.466   8.347   9.294
   27        0.494   0.486   8.341   9.321
   28        0.491   0.365   8.325   9.181
   29        0.486   0.491   8.336   9.312
   30        0.497   0.492   8.328   9.317
   31        0.497   0.369   8.315   9.181
   32        0.490   0.374   8.368   9.232
   33        0.495   0.482   8.330   9.306
   34        0.496   0.367   8.313   9.176
   35        0.487   0.484   8.327   9.297
   36        0.503   0.502   8.308   9.313
   37        0.492   0.363   8.324   9.178
   38        0.492   0.503   8.318   9.314
   39        0.499   0.494   8.315   9.308
   40        0.483   0.354   8.330   9.166
   41        0.481   0.478   8.339   9.299
   42        0.493   0.363   8.321   9.176
   43        0.503   0.513   8.325   9.341
   44        0.501   0.499   8.332   9.332
   45        0.502   0.501   8.328   9.330
   46        0.486   0.359   8.328   9.172
   47        0.476   0.468   8.342   9.287
   48        0.494   0.490   8.328   9.313
   49        0.496   0.491   8.336   9.323
   50        0.462   0.480   6.276   7.217
   51        0.464   0.489   6.273   7.227
   52        0.458   0.479   6.264   7.201
   53        0.469   0.493   6.264   7.226
   54        0.443   0.347   6.259   7.049
   55        0.460   0.482   6.283   7.225
   56        0.466   0.488   6.262   7.216
   57        0.442   0.343   6.248   7.034
   58        0.447   0.472   6.289   7.208
   59        0.467   0.491   6.259   7.217
   60        0.462   0.486   6.267   7.215
   61        0.460   0.476   6.274   7.209
   62        0.461   0.475   6.271   7.208
   63        0.441   0.347   6.252   7.040
   64        0.466   0.506   6.305   7.277
   65        1.585   3.332   0.000   4.917
   66        1.581   3.346   0.000   4.927
   67        1.584   3.333   0.000   4.916
   68        1.586   3.330   0.000   4.916
   69        1.574   3.454   0.000   5.028
   70        0.617   0.122   0.000   0.739
--------------------------------------------------
tot         39.624  45.906 502.171 587.701
 

 total amount of memory used by VASP MPI-rank0    55323. kBytes
=======================================================================

   base      :      30000. kBytes
   nonlr-proj:       3982. kBytes
   fftplans  :       5965. kBytes
   grid      :      13166. kBytes
   one-center:         23. kBytes
   wavefun   :       2187. kBytes
 
  
  
 General timing and accounting informations for this job:
 ========================================================
  
                  Total CPU time used (sec):      708.187
                            User time (sec):      700.895
                          System time (sec):        7.293
                         Elapsed time (sec):      712.992
  
                   Maximum memory used (kb):      295944.
                   Average memory used (kb):           0.
  
                          Minor page faults:      2049198
                          Major page faults:            5
                 Voluntary context switches:         1876
