       N       E                     dE             d eps       ncg     rms          rms(c)
DAV:   1     0.474923067959E+04    0.47492E+04   -0.23896E+05  8220   0.147E+03
DAV:   2     0.128691764280E+02   -0.47364E+04   -0.44268E+04  8220   0.344E+02
DAV:   3    -0.460513786670E+03   -0.47338E+03   -0.40608E+03  8535   0.157E+02
DAV:   4    -0.482627957421E+03   -0.22114E+02   -0.21454E+02  8754   0.363E+01
DAV:   5    -0.483080939222E+03   -0.45298E+00   -0.45171E+00  9339   0.475E+00    0.793E+01
RMM:   6    -0.536524729513E+03   -0.53444E+02   -0.73077E+02  8552   0.774E+01    0.163E+02
RMM:   7    -0.527768563050E+03    0.87562E+01   -0.22780E+02  8612   0.395E+01    0.146E+02
RMM:   8    -0.577173028486E+03   -0.49404E+02   -0.97807E+01  8759   0.264E+01    0.175E+02
RMM:   9    -0.419183627357E+03    0.15799E+03   -0.32335E+01  8789   0.140E+01    0.904E+01
RMM:  10    -0.453714582778E+03   -0.34531E+02   -0.95091E+01  8720   0.216E+01    0.102E+02
RMM:  11    -0.460161383710E+03   -0.64468E+01   -0.65299E+01  8595   0.196E+01    0.107E+02
RMM:  12    -0.405065749623E+03    0.55096E+02   -0.36501E+01  8459   0.164E+01    0.513E+01
RMM:  13    -0.408335831203E+03   -0.32701E+01   -0.23600E+01  8587   0.121E+01    0.581E+01
RMM:  14    -0.402432469506E+03    0.59034E+01   -0.15456E+01  8504   0.984E+00    0.418E+01
RMM:  15    -0.403722805326E+03   -0.12903E+01   -0.88079E+00  8541   0.721E+00    0.377E+01
RMM:  16    -0.407223626008E+03   -0.35008E+01   -0.64167E+00  8630   0.625E+00    0.352E+01
RMM:  17    -0.407557864622E+03   -0.33424E+00   -0.53209E+00  8571   0.586E+00    0.282E+01
RMM:  18    -0.408491999797E+03   -0.93414E+00   -0.36959E+00  8498   0.438E+00    0.224E+01
RMM:  19    -0.412714553430E+03   -0.42226E+01   -0.36729E+00  8470   0.429E+00    0.222E+01
RMM:  20    -0.413284421586E+03   -0.56987E+00   -0.23064E+00  8475   0.364E+00    0.161E+01
RMM:  21    -0.416258447334E+03   -0.29740E+01   -0.30450E+00  8389   0.362E+00    0.158E+01
RMM:  22    -0.417061274266E+03   -0.80283E+00   -0.18533E+00  8481   0.297E+00    0.103E+01
RMM:  23    -0.418893032826E+03   -0.18318E+01   -0.14115E+00  8383   0.202E+00    0.965E+00
RMM:  24    -0.419945795016E+03   -0.10528E+01   -0.92287E-01  8427   0.181E+00    0.610E+00
RMM:  25    -0.421284092138E+03   -0.13383E+01   -0.97850E-01  8436   0.159E+00    0.703E+00
RMM:  26    -0.421620099632E+03   -0.33601E+00   -0.35819E-01  8499   0.121E+00    0.440E+00
RMM:  27    -0.422180154612E+03   -0.56005E+00   -0.26813E-01  8415   0.819E-01    0.288E+00
RMM:  28    -0.422647649899E+03   -0.46750E+00   -0.16896E-01  8462   0.694E-01    0.316E+00
RMM:  29    -0.423113849421E+03   -0.46620E+00   -0.22099E-01  8520   0.657E-01    0.289E+00
RMM:  30    -0.423164836508E+03   -0.50987E-01   -0.54637E-02  8665   0.488E-01    0.275E+00
RMM:  31    -0.423265386582E+03   -0.10055E+00   -0.53010E-02  8575   0.418E-01    0.165E+00
RMM:  32    -0.423281009708E+03   -0.15623E-01   -0.29167E-02  8589   0.341E-01    0.177E+00
RMM:  33    -0.423238900851E+03    0.42109E-01   -0.35750E-02  8457   0.310E-01    0.952E-01
RMM:  34    -0.423272471661E+03   -0.33571E-01   -0.13925E-02  8566   0.218E-01    0.103E+00
RMM:  35    -0.423314425350E+03   -0.41954E-01   -0.99365E-03  8518   0.159E-01    0.681E-01
RMM:  36    -0.423346754396E+03   -0.32329E-01   -0.44242E-03  8612   0.127E-01    0.803E-01
RMM:  37    -0.423437059644E+03   -0.90305E-01   -0.77826E-03  8416   0.133E-01    0.763E-01
RMM:  38    -0.423480918371E+03   -0.43859E-01   -0.27231E-03  8527   0.927E-02    0.662E-01
RMM:  39    -0.423556266872E+03   -0.75349E-01   -0.34661E-03  8456   0.837E-02    0.470E-01
RMM:  40    -0.423627757170E+03   -0.71490E-01   -0.25044E-03  8507   0.815E-02    0.614E-01
RMM:  41    -0.423684244996E+03   -0.56488E-01   -0.19743E-03  8609   0.717E-02    0.141E+00
RMM:  42    -0.423701421171E+03   -0.17176E-01   -0.48870E-04  8734   0.340E-02    0.189E+00
RMM:  43    -0.423763431315E+03   -0.62010E-01   -0.74114E-04  8582   0.508E-02    0.220E+00
RMM:  44    -0.423794427030E+03   -0.30996E-01   -0.63583E-04  8558   0.441E-02    0.165E+00
RMM:  45    -0.423870046536E+03   -0.75620E-01   -0.82533E-04  8532   0.445E-02    0.184E+00
RMM:  46    -0.423933912335E+03   -0.63866E-01   -0.91480E-04  8633   0.487E-02    0.255E+00
RMM:  47    -0.423975689385E+03   -0.41777E-01   -0.39467E-04  8626   0.322E-02    0.276E+00
RMM:  48    -0.423985008888E+03   -0.93195E-02   -0.86382E-05  8810   0.192E-02    0.284E+00
RMM:  49    -0.423999767131E+03   -0.14758E-01   -0.83334E-05  8707   0.141E-02    0.307E+00
RMM:  50    -0.424002856174E+03   -0.30890E-02   -0.12251E-05  8683   0.765E-03    0.312E+00
RMM:  51    -0.423941175825E+03    0.61680E-01   -0.20748E-03  8609   0.728E-02    0.188E+00
RMM:  52    -0.423945477574E+03   -0.43017E-02   -0.34620E-04  8593   0.416E-02    0.176E+00
RMM:  53    -0.423951418605E+03   -0.59410E-02   -0.18371E-04  8650   0.309E-02    0.177E+00
RMM:  54    -0.423965520603E+03   -0.14102E-01   -0.17973E-04  8603   0.259E-02    0.200E+00
RMM:  55    -0.423971600430E+03   -0.60798E-02   -0.83297E-05  8641   0.171E-02    0.208E+00
RMM:  56    -0.423968726454E+03    0.28740E-02   -0.79463E-05  8570   0.162E-02    0.193E+00
RMM:  57    -0.423969503339E+03   -0.77688E-03   -0.41775E-05  8587   0.127E-02    0.190E+00
RMM:  58    -0.423969951111E+03   -0.44777E-03   -0.56582E-05  8556   0.141E-02    0.184E+00
RMM:  59    -0.423967023117E+03    0.29280E-02   -0.88144E-05  8553   0.138E-02    0.165E+00
RMM:  60    -0.423964394426E+03    0.26287E-02   -0.49027E-05  8607   0.117E-02    0.152E+00
RMM:  61    -0.423964289268E+03    0.10516E-03   -0.35512E-05  8555   0.108E-02    0.148E+00
RMM:  62    -0.423960983281E+03    0.33060E-02   -0.55654E-05  8635   0.109E-02    0.130E+00
RMM:  63    -0.423957475928E+03    0.35074E-02   -0.51399E-05  8678   0.116E-02    0.112E+00
RMM:  64    -0.423953425538E+03    0.40504E-02   -0.80971E-05  8604   0.134E-02    0.880E-01
RMM:  65    -0.423951259937E+03    0.21656E-02   -0.51098E-05  8644   0.124E-02    0.710E-01
RMM:  66    -0.423949266224E+03    0.19937E-02   -0.33385E-05  8602   0.102E-02    0.592E-01
RMM:  67    -0.423948893487E+03    0.37274E-03   -0.95713E-06  8549   0.607E-03    0.539E-01
RMM:  68    -0.423948623251E+03    0.27024E-03   -0.67573E-06  8325   0.500E-03    0.491E-01
RMM:  69    -0.423948109956E+03    0.51329E-03   -0.15174E-05  8619   0.692E-03    0.404E-01
RMM:  70    -0.423947458252E+03    0.65170E-03   -0.10207E-04  8622   0.145E-02    0.125E-01
RMM:  71    -0.423947369749E+03    0.88503E-04   -0.21590E-05  8622   0.111E-02    0.891E-02
RMM:  72    -0.423947929183E+03   -0.55943E-03   -0.29160E-05  8624   0.872E-03    0.200E-02
RMM:  73    -0.423947900216E+03    0.28967E-04   -0.28764E-06  6484   0.426E-03    0.128E-02
RMM:  74    -0.423948057084E+03   -0.15687E-03   -0.31911E-06  6097   0.328E-03    0.232E-02
RMM:  75    -0.423948128745E+03   -0.71661E-04   -0.26164E-06  6050   0.287E-03    0.153E-02
RMM:  76    -0.423948171558E+03   -0.42813E-04   -0.17101E-06  6046   0.238E-03    0.118E-02
RMM:  77    -0.423948173249E+03   -0.16912E-05   -0.56578E-07  5360   0.181E-03    0.559E-03
RMM:  78    -0.423948190691E+03   -0.17441E-04   -0.10398E-06  5377   0.173E-03    0.372E-02
RMM:  79    -0.423948178961E+03    0.11729E-04   -0.42886E-07  4967   0.184E-03    0.177E-02
RMM:  80    -0.423948183636E+03   -0.46742E-05   -0.14184E-07  4918   0.926E-04    0.279E-02
RMM:  81    -0.423948185149E+03   -0.15130E-05   -0.10944E-07  4914   0.669E-04    0.256E-02
RMM:  82    -0.423948188403E+03   -0.32548E-05   -0.11021E-07  4637   0.514E-04    0.228E-02
RMM:  83    -0.423948187138E+03    0.12653E-05   -0.28423E-07  5041   0.755E-04    0.930E-03
RMM:  84    -0.423948188452E+03   -0.13138E-05   -0.28414E-07  4939   0.751E-04    0.344E-03
RMM:  85    -0.423948191816E+03   -0.33645E-05   -0.70472E-08  4907   0.663E-04    0.299E-03
RMM:  86    -0.423948198401E+03   -0.65844E-05   -0.12471E-07  4448   0.478E-04    0.334E-03
RMM:  87    -0.423948203206E+03   -0.48058E-05   -0.10537E-07  4531   0.494E-04    0.707E-03
RMM:  88    -0.423948209191E+03   -0.59847E-05   -0.17676E-07  4599   0.504E-04    0.971E-03
RMM:  89    -0.423948214051E+03   -0.48602E-05   -0.17602E-07  4148   0.447E-04    0.690E-03
RMM:  90    -0.423948216413E+03   -0.23617E-05   -0.64888E-08  3604   0.397E-04    0.517E-03
RMM:  91    -0.423948217780E+03   -0.13673E-05   -0.39151E-08  2993   0.361E-04    0.579E-03
RMM:  92    -0.423948218587E+03   -0.80704E-06   -0.24853E-08  2783   0.322E-04
   1 F= -.42394822E+03 E0= -.42394822E+03  d E =0.000000E+00  mag=   113.8140
