 vasp.5.4.4.18Apr17-6-g9f103f2a35 (build Sep 06 2021 19:49:22) complex          
  
 executed on             LinuxIFC date 2022.01.03  16:56:36
 running on   72 total cores
 distrk:  each k-point on   72 cores,    1 groups
 distr:  one band on NCORES_PER_BAND=  24 cores,    3 groups


--------------------------------------------------------------------------------------------------------


 INCAR:
 POTCAR:    PAW_PBE Ni 02Aug2007                  
 POTCAR:    PAW_PBE Fe 06Sep2000                  

 ----------------------------------------------------------------------------- 
|                                                                             |
|           W    W    AA    RRRRR   N    N  II  N    N   GGGG   !!!           |
|           W    W   A  A   R    R  NN   N  II  NN   N  G    G  !!!           |
|           W    W  A    A  R    R  N N  N  II  N N  N  G       !!!           |
|           W WW W  AAAAAA  RRRRR   N  N N  II  N  N N  G  GGG   !            |
|           WW  WW  A    A  R   R   N   NN  II  N   NN  G    G                |
|           W    W  A    A  R    R  N    N  II  N    N   GGGG   !!!           |
|                                                                             |
|      For optimal performance we recommend to set                            |
|        NCORE= 4 - approx SQRT( number of cores)                             |
|      NCORE specifies how many cores store one orbital (NPAR=cpu/NCORE).     |
|      This setting can  greatly improve the performance of VASP for DFT.     |
|      The default,   NCORE=1            might be grossly inefficient         |
|      on modern multi-core architectures or massively parallel machines.     |
|      Do your own testing !!!!                                               |
|      Unfortunately you need to use the default for GW and RPA calculations. |
|      (for HF NCORE is supported but not extensively tested yet)             |
|                                                                             |
 ----------------------------------------------------------------------------- 

 POTCAR:    PAW_PBE Ni 02Aug2007                  
   VRHFIN =Ni:                                                                  
   LEXCH  = PE                                                                  
   EATOM  =  1077.6739 eV,   79.2068 Ry                                         
                                                                                
   TITEL  = PAW_PBE Ni 02Aug2007                                                
   LULTRA =        F    use ultrasoft PP ?                                      
   IUNSCR =        1    unscreen: 0-lin 1-nonlin 2-no                           
   RPACOR =    2.000    partial core radius                                     
   POMASS =   58.690; ZVAL   =   10.000    mass and valenz                      
   RCORE  =    2.300    outmost cutoff radius                                   
   RWIGS  =    2.430; RWIGS  =    1.286    wigner-seitz radius (au A)           
   ENMAX  =  269.532; ENMIN  =  202.149 eV                                      
   RCLOC  =    1.201    cutoff for local pot                                    
   LCOR   =        T    correct aug charges                                     
   LPAW   =        T    paw PP                                                  
   EAUG   =  544.565                                                            
   DEXC   =    0.000                                                            
   RMAX   =    2.357    core radius for proj-oper                               
   RAUG   =    1.300    factor for augmentation sphere                          
   RDEP   =    2.390    radius for radial grids                                 
   RDEPT  =    1.838    core radius for aug-charge                              
                                                                                
   Atomic configuration                                                         
    9 entries                                                                   
     n  l   j            E        occ.                                          
     1  0  0.50     -8206.4253   2.0000                                         
     2  0  0.50      -976.1748   2.0000                                         
     2  1  1.50      -839.0571   6.0000                                         
     3  0  0.50      -105.9991   2.0000                                         
     3  1  1.50       -66.4603   6.0000                                         
     3  2  2.50        -4.6458   9.0000                                         
     4  0  0.50        -4.4926   1.0000                                         
     4  1  1.50        -4.0817   0.0000                                         
     4  3  2.50        -1.3606   0.0000                                         
   Description                                                                  
     l       E           TYP  RCUT    TYP  RCUT                                 
     2     -4.6457903     23  2.300                                             
     2     -6.0063729     23  2.300                                             
     0     -4.4925590     23  2.300                                             
     0      5.0102601     23  2.300                                             
     1     -2.7211652     23  2.300                                             
     1     16.5183231     23  2.300                                             
  local pseudopotential read in
  partial core-charges read in
  partial kinetic energy density read in
  atomic valenz-charges read in
  non local Contribution for L=           2  read in
    real space projection operators read in
  non local Contribution for L=           2  read in
    real space projection operators read in
  non local Contribution for L=           0  read in
    real space projection operators read in
  non local Contribution for L=           0  read in
    real space projection operators read in
  non local Contribution for L=           1  read in
    real space projection operators read in
  non local Contribution for L=           1  read in
    real space projection operators read in
    PAW grid and wavefunctions read in
 
   number of l-projection  operators is LMAX  =           6
   number of lm-projection operators is LMMAX =          18
 
 POTCAR:    PAW_PBE Fe 06Sep2000                  
   VRHFIN =Fe:  d7 s1                                                           
   LEXCH  = PE                                                                  
   EATOM  =   594.3153 eV,   43.6809 Ry                                         
                                                                                
   TITEL  = PAW_PBE Fe 06Sep2000                                                
   LULTRA =        F    use ultrasoft PP ?                                      
   IUNSCR =        1    unscreen: 0-lin 1-nonlin 2-no                           
   RPACOR =    2.000    partial core radius                                     
   POMASS =   55.847; ZVAL   =    8.000    mass and valenz                      
   RCORE  =    2.300    outmost cutoff radius                                   
   RWIGS  =    2.460; RWIGS  =    1.302    wigner-seitz radius (au A)           
   ENMAX  =  267.882; ENMIN  =  200.911 eV                                      
   RCLOC  =    1.701    cutoff for local pot                                    
   LCOR   =        T    correct aug charges                                     
   LPAW   =        T    paw PP                                                  
   EAUG   =  511.368                                                            
   DEXC   =    0.000                                                            
   RMAX   =    2.356    core radius for proj-oper                               
   RAUG   =    1.300    factor for augmentation sphere                          
   RDEP   =    2.442    radius for radial grids                                 
   RDEPT  =    1.890    core radius for aug-charge                              
                                                                                
   Atomic configuration                                                         
    9 entries                                                                   
     n  l   j            E        occ.                                          
     1  0  0.50     -6993.8440   2.0000                                         
     2  0  0.50      -814.6047   2.0000                                         
     2  1  1.50      -693.3689   6.0000                                         
     3  0  0.50       -89.4732   2.0000                                         
     3  1  1.50       -55.6373   6.0000                                         
     3  2  2.50        -3.8151   7.0000                                         
     4  0  0.50        -4.2551   1.0000                                         
     4  1  1.50        -3.4015   0.0000                                         
     4  3  2.50        -1.3606   0.0000                                         
   Description                                                                  
     l       E           TYP  RCUT    TYP  RCUT                                 
     2     -3.8151135     23  2.300                                             
     2     -5.1756961     23  2.300                                             
     0     -4.2550963     23  2.300                                             
     0      7.2035603     23  2.300                                             
     1     -2.7211652     23  2.300                                             
     1     18.4316424     23  2.300                                             
  local pseudopotential read in
  partial core-charges read in
  partial kinetic energy density read in
  atomic valenz-charges read in
  non local Contribution for L=           2  read in
    real space projection operators read in
  non local Contribution for L=           2  read in
    real space projection operators read in
  non local Contribution for L=           0  read in
    real space projection operators read in
  non local Contribution for L=           0  read in
    real space projection operators read in
  non local Contribution for L=           1  read in
    real space projection operators read in
  non local Contribution for L=           1  read in
    real space projection operators read in
    PAW grid and wavefunctions read in
 
   number of l-projection  operators is LMAX  =           6
   number of lm-projection operators is LMMAX =          18
 
 Optimization of the real space projectors (new method)

 maximal supplied QI-value         = 16.25
 optimisation between [QCUT,QGAM] = [ 11.54, 23.24] = [ 37.28,151.24] Ry 
 Optimized for a Real-space Cutoff    1.45 Angstroem

   l    n(q)    QCUT    max X(q) W(low)/X(q) W(high)/X(q)  e(spline) 
   2      9    11.539    60.317    0.19E-03    0.47E-04    0.16E-06
   2      9    11.539    55.921    0.19E-03    0.48E-04    0.16E-06
   0     10    11.539    51.690    0.80E-04    0.50E-04    0.24E-06
   0     10    11.539    30.015    0.73E-04    0.45E-04    0.22E-06
   1     10    11.539    18.849    0.87E-04    0.16E-03    0.71E-07
   1     10    11.539    14.624    0.73E-04    0.13E-03    0.64E-07
 Optimization of the real space projectors (new method)

 maximal supplied QI-value         = 16.25
 optimisation between [QCUT,QGAM] = [ 11.54, 23.24] = [ 37.28,151.24] Ry 
 Optimized for a Real-space Cutoff    1.53 Angstroem

   l    n(q)    QCUT    max X(q) W(low)/X(q) W(high)/X(q)  e(spline) 
   2     10    11.539    80.901    0.11E-03    0.14E-03    0.21E-06
   2     10    11.539    75.754    0.11E-03    0.14E-03    0.22E-06
   0     11    11.539    58.752    0.52E-04    0.18E-04    0.33E-06
   0     11    11.539    30.679    0.44E-04    0.16E-04    0.30E-06
   1     10    11.539    17.977    0.53E-04    0.29E-04    0.13E-06
   1     10    11.539    13.559    0.44E-04    0.25E-04    0.11E-06
  PAW_PBE Ni 02Aug2007                  :
 energy of atom  1       EATOM=-1077.6739
 kinetic energy error for atom=    0.0030 (will be added to EATOM!!)
  PAW_PBE Fe 06Sep2000                  :
 energy of atom  2       EATOM= -594.3153
 kinetic energy error for atom=    0.0026 (will be added to EATOM!!)
 
 
 POSCAR: POSCAR                                  
  positions in direct lattice
  velocities in cartesian coordinates
 exchange correlation table for  LEXCH =        8
   RHO(1)=    0.500       N(1)  =     2000
   RHO(2)=  100.500       N(2)  =     4000
 


--------------------------------------------------------------------------------------------------------


 ion  position               nearest neighbor table
   1  0.000  0.002  0.289-  32 2.48  29 2.50  24 2.51  34 2.52  37 2.52  57 2.52   5 2.52   2 2.52
                             4 2.52  63 2.53  21 2.54  30 2.54
   2  0.248  0.999  0.290-  46 2.46   7 2.46  57 2.47  34 2.48  33 2.50  27 2.51  21 2.52   1 2.52
                             3 2.53   5 2.53  59 2.53   9 2.54
   3  0.501  0.004  0.291-  59 2.47  33 2.48   8 2.50  30 2.51  28 2.52  12 2.52   9 2.53   2 2.53
                            46 2.54  47 2.54  36 2.56  61 2.59
   4  1.000  0.251  0.290-  32 2.47  38 2.49  20 2.49  13 2.50  11 2.50  37 2.52   1 2.52   8 2.52
                            44 2.53  30 2.53   5 2.54  40 2.56
   5  0.251  0.250  0.289-  32 2.48   7 2.49  44 2.49  34 2.49  33 2.50   1 2.52  38 2.52  17 2.53
                             2 2.53  43 2.54  41 2.54   4 2.54
   6  0.334  0.165  0.096-  42 2.50  15 2.51   9 2.51  58 2.52  34 2.52  17 2.52  35 2.54  56 2.54
                            31 2.54
   7  0.335  0.165  0.383-  33 2.42   2 2.46   5 2.49  59 2.50  43 2.51  57 2.52  36 2.53  16 2.54
                            32 2.55
   8  0.750  0.251  0.291-  19 2.44  36 2.48  11 2.48   3 2.50  45 2.51  30 2.51  14 2.52  13 2.52
                             4 2.52  12 2.53  33 2.54  20 2.55
   9  0.418  0.084  0.193-  58 2.49  34 2.49   6 2.51  17 2.51  12 2.52  33 2.52  28 2.53   3 2.53
                            27 2.53  35 2.53   2 2.54  45 2.56
  10  0.832  0.166  0.098-  37 2.48  39 2.48  35 2.49  12 2.50  60 2.51  18 2.52  20 2.52  31 2.54
                            62 2.55
  11  0.832  0.164  0.385-  30 2.44   8 2.48  36 2.50   4 2.50  61 2.51  40 2.51  32 2.53  19 2.54
                            63 2.55
  12  0.668  0.085  0.194-  60 2.49  10 2.50  37 2.51  45 2.51   9 2.52   3 2.52  30 2.53  20 2.53
                             8 2.53  28 2.54  35 2.54  64 2.54
  13  0.001  0.499  0.291-  19 2.46  23 2.47  50 2.48  38 2.48   4 2.50  20 2.51  40 2.51   8 2.52
                            46 2.54  21 2.54  14 2.54  26 2.55
  14  0.750  0.500  0.290-  54 2.47  19 2.48  45 2.48  16 2.48  41 2.50  26 2.50  55 2.50  24 2.52
                            21 2.52   8 2.52  13 2.54  33 2.56
  15  0.583  0.413  0.097-  42 2.47  35 2.49  53 2.49  17 2.49  18 2.50   6 2.51  45 2.54  55 2.55
                            51 2.56
  16  0.585  0.418  0.384-  36 2.48  41 2.48  14 2.48  54 2.49  33 2.50  43 2.50  19 2.52   7 2.54
                            52 2.55
  17  0.420  0.333  0.193-  42 2.48  15 2.49   9 2.51  34 2.52  55 2.52   6 2.52  33 2.53   5 2.53
                            44 2.53  41 2.54  25 2.54  45 2.54
  18  0.831  0.415  0.098-  39 2.45  53 2.47  35 2.47  45 2.47  15 2.50  20 2.51  10 2.52  26 2.52
                            22 2.53
  19  0.834  0.416  0.383-   8 2.44  36 2.44  13 2.46  40 2.47  54 2.47  14 2.48  16 2.52  11 2.54
                            23 2.54
  20  0.919  0.335  0.194-  39 2.47  45 2.49   4 2.49  13 2.51  37 2.51  18 2.51  50 2.51  10 2.52
                            12 2.53  26 2.54  44 2.54   8 2.55
  21  0.999  0.750  0.290-  57 2.47  54 2.48  46 2.48  24 2.49  29 2.49  23 2.49  26 2.51  14 2.52
                             2 2.52  27 2.54   1 2.54  13 2.54
  22  0.082  0.666  0.097-  39 2.49  53 2.50  56 2.51  27 2.52  26 2.52  50 2.53  18 2.53  58 2.54
                            48 2.54
  23  0.086  0.667  0.384-  46 2.43  13 2.47  40 2.49  21 2.49  49 2.51  54 2.51  57 2.52  19 2.54
                            59 2.56
  24  0.753  0.751  0.291-  21 2.49  54 2.50  64 2.51  63 2.51   1 2.51  14 2.52  29 2.52  41 2.53
                            55 2.53  52 2.55  30 2.55  47 2.57
  25  0.417  0.584  0.195-  44 2.49  48 2.49  41 2.50  55 2.52  28 2.52  47 2.53  64 2.53  17 2.54
                            42 2.55  51 2.55  50 2.57  38 2.58
  26  0.916  0.585  0.194-  45 2.48  29 2.48  53 2.50  14 2.50  55 2.50  21 2.51  50 2.51  22 2.52
                            18 2.52  27 2.53  20 2.54  13 2.55
  27  0.167  0.835  0.193-  29 2.48  34 2.49  58 2.49  50 2.50   2 2.51  46 2.51  22 2.52   9 2.53
                            26 2.53  21 2.54  28 2.54  56 2.54
  28  0.417  0.833  0.195-  47 2.50  60 2.51   3 2.52  46 2.52  50 2.52  58 2.52  25 2.52   9 2.53
                            48 2.53  12 2.54  27 2.54  64 2.54
  29  0.920  0.833  0.194-  27 2.48  26 2.48  21 2.49   1 2.50  24 2.52  55 2.53  34 2.54  62 2.54
                            64 2.54  56 2.55  53 2.57  37 2.57
  30  0.749  0.002  0.292-  11 2.44   8 2.51   3 2.51  47 2.53  12 2.53   4 2.53  64 2.53   1 2.54
                            63 2.55  24 2.55  61 2.57  37 2.58
  31  0.085  0.169  0.094-  42 2.53  10 2.54  39 2.54   6 2.54  62 2.55  56 2.56  37 2.56  44 2.59
                            34 2.61
  32  0.084  0.169  0.383-   4 2.47   5 2.48   1 2.48  43 2.50  11 2.53  63 2.53  40 2.53   7 2.55
                            57 2.56
  33  0.496  0.247  0.290-   7 2.42   3 2.48   5 2.50  16 2.50   2 2.50   9 2.52  17 2.53  36 2.53
                            41 2.54   8 2.54  45 2.56  14 2.56
  34  0.171  0.083  0.194-   2 2.48  27 2.49   9 2.49   5 2.49  17 2.52   1 2.52   6 2.52  29 2.54
                            44 2.57  56 2.58  37 2.58  31 2.61
  35  0.588  0.169  0.096-  18 2.47  10 2.49  15 2.49  60 2.51   9 2.53  12 2.54   6 2.54  45 2.55
                            58 2.56
  36  0.591  0.176  0.388-  19 2.44  16 2.48   8 2.48  11 2.50  33 2.53   7 2.53  59 2.56   3 2.56
                            61 2.56
  37  0.917  0.086  0.193-  10 2.48  20 2.51  12 2.51   1 2.52   4 2.52  64 2.53  62 2.54  44 2.55
                            31 2.56  29 2.57  30 2.58  34 2.58
  38  0.246  0.497  0.293-  13 2.48   4 2.49  43 2.52  40 2.52   5 2.52  49 2.53  44 2.53  50 2.55
                            47 2.56  41 2.58  25 2.58  46 2.60
  39  0.074  0.415  0.097-  18 2.45  20 2.47  10 2.48  22 2.49  31 2.54  48 2.55  44 2.56  50 2.58
                            42 2.67
  40  0.077  0.416  0.389-  19 2.47  23 2.49  13 2.51  11 2.51  38 2.52  32 2.53  49 2.54   4 2.56
                            43 2.62
  41  0.503  0.501  0.290-  16 2.48  14 2.50  25 2.50  55 2.50  24 2.53  17 2.54  33 2.54   5 2.54
                            47 2.54  43 2.55  38 2.58  52 2.59
  42  0.339  0.415  0.097-  15 2.47  17 2.48   6 2.50  51 2.52  31 2.53  48 2.54  44 2.54  25 2.55
                            39 2.67
  43  0.335  0.413  0.387-  32 2.50  16 2.50   7 2.51  38 2.52   5 2.54  49 2.54  41 2.55  52 2.59
                            40 2.62
  44  0.171  0.337  0.194-  25 2.49   5 2.49   4 2.53  17 2.53  38 2.53  20 2.54  42 2.54  50 2.55
                            37 2.55  39 2.56  34 2.57  31 2.59
  45  0.673  0.336  0.195-  18 2.47  26 2.48  14 2.48  20 2.49   8 2.51  12 2.51  55 2.53  15 2.54
                            17 2.54  35 2.55   9 2.56  33 2.56
  46  0.247  0.755  0.291-  23 2.43   2 2.46  21 2.48  59 2.49  50 2.51  27 2.51  28 2.52  13 2.54
                             3 2.54  47 2.57  38 2.60  49 2.62
  47  0.499  0.751  0.291-  28 2.50  30 2.53  25 2.53  64 2.53  41 2.54   3 2.54  52 2.55  38 2.56
                            49 2.56  46 2.57  24 2.57  61 2.58
  48  0.332  0.663  0.099-  25 2.49  50 2.52  28 2.53  51 2.54  42 2.54  22 2.54  58 2.55  39 2.55
                            60 2.56
  49  0.333  0.664  0.390-  23 2.51  38 2.53  52 2.54  40 2.54  43 2.54  61 2.54  59 2.56  47 2.56
                            46 2.62
  50  0.165  0.586  0.196-  13 2.48  27 2.50  46 2.51  26 2.51  20 2.51  28 2.52  48 2.52  22 2.53
                            44 2.55  38 2.55  25 2.57  39 2.58
  51  0.586  0.668  0.097-  62 2.50  55 2.52  42 2.52  53 2.52  48 2.54  64 2.54  60 2.55  25 2.55
                            15 2.56
  52  0.588  0.672  0.389-  63 2.49  61 2.52  49 2.54  47 2.55  24 2.55  54 2.55  16 2.55  43 2.59
                            41 2.59
  53  0.831  0.659  0.097-  18 2.47  15 2.49  26 2.50  22 2.50  55 2.52  51 2.52  56 2.56  62 2.57
                            29 2.57
  54  0.834  0.661  0.385-  19 2.47  14 2.47  21 2.48  16 2.49  24 2.50  23 2.51  63 2.55  57 2.55
                            52 2.55
  55  0.668  0.584  0.194-  26 2.50  41 2.50  14 2.50  64 2.51  53 2.52  17 2.52  51 2.52  25 2.52
                            29 2.53  24 2.53  45 2.53  15 2.55
  56  0.082  0.914  0.095-  62 2.51  22 2.51  58 2.53  27 2.54   6 2.54  29 2.55  53 2.56  31 2.56
                            34 2.58
  57  0.085  0.916  0.384-   2 2.47  21 2.47  63 2.49  23 2.52   1 2.52   7 2.52  59 2.55  54 2.55
                            32 2.56
  58  0.334  0.916  0.098-   9 2.49  27 2.49  60 2.49   6 2.52  28 2.52  56 2.53  22 2.54  48 2.55
                            35 2.56
  59  0.340  0.920  0.386-  61 2.46   3 2.47  46 2.49   7 2.50   2 2.53  57 2.55  36 2.56  49 2.56
                            23 2.56
  60  0.582  0.919  0.099-  12 2.49  58 2.49  35 2.51  28 2.51  10 2.51  64 2.54  51 2.55  48 2.56
                            62 2.57
  61  0.582  0.918  0.391-  59 2.46  11 2.51  52 2.52  49 2.54  36 2.56  30 2.57  47 2.58   3 2.59
                            63 2.61
  62  0.834  0.914  0.097-  51 2.50  56 2.51  37 2.54  29 2.54  10 2.55  64 2.55  31 2.55  60 2.57
                            53 2.57
  63  0.838  0.915  0.387-  57 2.49  52 2.49  24 2.51  32 2.53   1 2.53  54 2.55  11 2.55  30 2.55
                            61 2.61
  64  0.668  0.834  0.195-  24 2.51  55 2.51  47 2.53  37 2.53  25 2.53  30 2.53  60 2.54  28 2.54
                            12 2.54  51 2.54  29 2.54  62 2.55
 

IMPORTANT INFORMATION: All symmetrisations will be switched off!
NOSYMM: (Re-)initialisation of all symmetry stuff for point group C_1.

 
 

Automatic generation of k-mesh.
 generate k-points for:    3    3    1
Space group operators:
 irot       det(A)        alpha          n_x          n_y          n_z        tau_x        tau_y        tau_z
    1     1.000000     0.000001     1.000000     0.000000     0.000000     0.000000     0.000000     0.000000
 
 Subroutine IBZKPT returns following result:
 ===========================================
 
 Found      5 irreducible k-points:
 
 Following reciprocal coordinates:
            Coordinates               Weight
  0.000000  0.000000  0.000000      1.000000
  0.333333  0.000000  0.000000      2.000000
  0.000000  0.333333  0.000000      2.000000
  0.333333  0.333333  0.000000      2.000000
 -0.333333  0.333333  0.000000      2.000000
 
 Following cartesian coordinates:
            Coordinates               Weight
  0.000000  0.000000  0.000000      1.000000
  0.033002  0.019054  0.000000      2.000000
  0.000000  0.038108  0.000000      2.000000
  0.033002  0.057162  0.000000      2.000000
 -0.033002  0.019054  0.000000      2.000000
 
 TETIRR: Found     24 inequivalent tetrahedra from       54


--------------------------------------------------------------------------------------------------------




 Dimension of arrays:
   k-points           NKPTS =      5   k-points in BZ     NKDIM =      5   number of bands    NBANDS=    411
   number of dos      NEDOS =    301   number of ions     NIONS =     64
   non local maximal  LDIM  =      6   non local SUM 2l+1 LMDIM =     18
   total plane-waves  NPLWV = ******
   max r-space proj   IRMAX =   8274   max aug-charges    IRDMAX=  19579
   dimension x,y,z NGX =    80 NGY =   80 NGZ =  160
   dimension x,y,z NGXF=   160 NGYF=  160 NGZF=  320
   support grid    NGXF=   160 NGYF=  160 NGZF=  320
   ions per type =              29  35
   NGX,Y,Z   is equivalent  to a cutoff of  13.17, 13.17, 12.49 a.u.
   NGXF,Y,Z  is equivalent  to a cutoff of  26.34, 26.34, 24.97 a.u.

 SYSTEM =  SQS-NiFe                                
 POSCAR =  POSCAR                                  

 Startparameter for this run:
   NWRITE =      2    write-flag & timer
   PREC   = accura    normal or accurate (medium, high low for compatibility)
   ISTART =      0    job   : 0-new  1-cont  2-samecut
   ICHARG =      2    charge: 1-file 2-atom 10-const
   ISPIN  =      2    spin polarized calculation?
   LNONCOLLINEAR =      F non collinear calculations
   LSORBIT =      F    spin-orbit coupling
   INIWAV =      1    electr: 0-lowe 1-rand  2-diag
   LASPH  =      F    aspherical Exc in radial PAW
   METAGGA=      F    non-selfconsistent MetaGGA calc.

 Electronic Relaxation 1
   ENCUT  =  520.0 eV  38.22 Ry    6.18 a.u.  18.78 18.78 39.61*2*pi/ulx,y,z
   ENINI  =  520.0     initial cutoff
   ENAUG  =  544.6 eV  augmentation charge cutoff
   NELM   =    200;   NELMIN=  2; NELMDL= -5     # of ELM steps 
   EDIFF  = 0.1E-05   stopping-criterion for ELM
   LREAL  =      T    real-space projection
   NLSPLINE    = F    spline interpolate recip. space projectors
   LCOMPAT=      F    compatible to vasp.4.4
   GGA_COMPAT  = T    GGA compatible to vasp.4.4-vasp.4.6
   LMAXPAW     = -100 max onsite density
   LMAXMIX     =    2 max onsite mixed and CHGCAR
   VOSKOWN=      0    Vosko Wilk Nusair interpolation
   ROPT   =   -0.00025  -0.00025
 Ionic relaxation
   EDIFFG = -.2E-01   stopping-criterion for IOM
   NSW    =      0    number of steps for IOM
   NBLOCK =      1;   KBLOCK =      1    inner block; outer block 
   IBRION =     -1    ionic relax: 0-MD 1-quasi-New 2-CG
   NFREE  =      0    steps in history (QN), initial steepest desc. (CG)
   ISIF   =      2    stress and relaxation
   IWAVPR =     10    prediction:  0-non 1-charg 2-wave 3-comb
   ISYM   =      0    0-nonsym 1-usesym 2-fastsym
   LCORR  =      T    Harris-Foulkes like correction to forces

   POTIM  = 0.5000    time-step for ionic-motion
   TEIN   =    0.0    initial temperature
   TEBEG  =    0.0;   TEEND  =   0.0 temperature during run
   SMASS  =  -3.00    Nose mass-parameter (am)
   estimated Nose-frequenzy (Omega)   =  0.10E-29 period in steps =****** mass=  -0.233E-26a.u.
   SCALEE = 1.0000    scale energy and forces
   NPACO  =    256;   APACO  = 16.0  distance and # of slots for P.C.
   PSTRESS=    0.0 pullay stress

  Mass of Ions in am
   POMASS =  58.69 55.85
  Ionic Valenz
   ZVAL   =  10.00  8.00
  Atomic Wigner-Seitz radii
   RWIGS  =  -1.00 -1.00
  virtual crystal weights 
   VCA    =   1.00  1.00
   NELECT =     570.0000    total number of electrons
   NUPDOWN=      -1.0000    fix difference up-down

 DOS related values:
   EMIN   =  10.00;   EMAX   =-10.00  energy-range for DOS
   EFERMI =   0.00
   ISMEAR =    -5;   SIGMA  =   0.20  broadening in eV -4-tet -1-fermi 0-gaus

 Electronic relaxation 2 (details)
   IALGO  =     68    algorithm
   LDIAG  =      T    sub-space diagonalisation (order eigenvalues)
   LSUBROT=      F    optimize rotation matrix (better conditioning)
   TURBO    =      0    0=normal 1=particle mesh
   IRESTART =      0    0=no restart 2=restart with 2 vectors
   NREBOOT  =      0    no. of reboots
   NMIN     =      0    reboot dimension
   EREF     =   0.00    reference energy to select bands
   IMIX   =      4    mixing-type and parameters
     AMIX     =   0.40;   BMIX     =  1.00
     AMIX_MAG =   1.60;   BMIX_MAG =  1.00
     AMIN     =   0.10
     WC   =   100.;   INIMIX=   1;  MIXPRE=   1;  MAXMIX= -45

 Intra band minimization:
   WEIMIN = 0.0000     energy-eigenvalue tresh-hold
   EBREAK =  0.61E-09  absolut break condition
   DEPER  =   0.30     relativ break condition  

   TIME   =   0.40     timestep for ELM

  volume/ion in A,a.u.               =      29.41       198.44
  Fermi-wavevector in a.u.,A,eV,Ry     =   1.099415  2.077594 16.445550  1.208714
  Thomas-Fermi vector in A             =   2.235809
 
 Write flags
   LWAVE        =      F    write WAVECAR
   LDOWNSAMPLE  =      F    k-point downsampling of WAVECAR
   LCHARG       =      T    write CHGCAR
   LVTOT        =      F    write LOCPOT, total local potential
   LVHAR        =      F    write LOCPOT, Hartree potential only
   LELF         =      F    write electronic localiz. function (ELF)
   LORBIT       =     11    0 simple, 1 ext, 2 COOP (PROOUT), +10 PAW based schemes


 Dipole corrections
   LMONO  =      F    monopole corrections only (constant potential shift)
   LDIPOL =      T    correct potential (dipole corrections)
   IDIPOL =      3    1-x, 2-y, 3-z, 4-all directions 
   EPSILON=  1.0000000 bulk dielectric constant

 Exchange correlation treatment:
   GGA     =    --    GGA type
   LEXCH   =     8    internal setting for exchange type
   VOSKOWN=      0    Vosko Wilk Nusair interpolation
   LHFCALC =     F    Hartree Fock is set to
   LHFONE  =     F    Hartree Fock one center treatment
   AEXX    =    0.0000 exact exchange contribution

 Linear response parameters
   LEPSILON=     F    determine dielectric tensor
   LRPA    =     F    only Hartree local field effects (RPA)
   LNABLA  =     F    use nabla operator in PAW spheres
   LVEL    =     F    velocity operator in full k-point grid
   LINTERFAST=   F  fast interpolation
   KINTER  =     0    interpolate to denser k-point grid
   CSHIFT  =0.1000    complex shift for real part using Kramers Kronig
   OMEGAMAX=  -1.0    maximum frequency
   DEG_THRESHOLD= 0.2000000E-02 threshold for treating states as degnerate
   RTIME   =   -0.100 relaxation time in fs
  (WPLASMAI=    0.000 imaginary part of plasma frequency in eV, 0.658/RTIME)
   DFIELD  = 0.0000000 0.0000000 0.0000000 field for delta impulse in time
 
 Orbital magnetization related:
   ORBITALMAG=     F  switch on orbital magnetization
   LCHIMAG   =     F  perturbation theory with respect to B field
   DQ        =  0.001000  dq finite difference perturbation B field
   LLRAUG    =     F  two centre corrections for induced B field



--------------------------------------------------------------------------------------------------------


 Static calculation
 charge density and potential will be updated during run
 spin polarized calculation
 RMM-DIIS sequential band-by-band and
  variant of blocked Davidson during initial phase
 perform sub-space diagonalisation
    before iterative eigenvector-optimisation
 modified Broyden-mixing scheme, WC =      100.0
 initial mixing is a Kerker type mixing with AMIX =  0.4000 and BMIX =      1.0000
 Hartree-type preconditioning will be used
 using additional bands          126
 real space projection scheme for non local part
 use partial core corrections
 calculate Harris-corrections to forces 
   (improved forces if not selfconsistent)
 use gradient corrections 
 use of overlap-Matrix (Vanderbilt PP)
 Fermi weights with tetrahedron method with Bloechl corrections


--------------------------------------------------------------------------------------------------------


  energy-cutoff  :      520.00
  volume of cell :     1881.98
      direct lattice vectors                 reciprocal lattice vectors
    10.100310000  0.000000000  0.000000000     0.099006862  0.057161638  0.000000000
    -5.050155000  8.747125050  0.000000000     0.000000000  0.114323277  0.000000000
     0.000000000  0.000000000 21.301690600     0.000000000  0.000000000  0.046944631

  length of vectors
    10.100310000 10.100310003 21.301690600     0.114323277  0.114323277  0.046944631


 
 k-points in units of 2pi/SCALE and weight: read from INCAR                         
   0.00000000  0.00000000  0.00000000       0.111
   0.03300229  0.01905388  0.00000000       0.222
   0.00000000  0.03810776  0.00000000       0.222
   0.03300229  0.05716164  0.00000000       0.222
  -0.03300229  0.01905388  0.00000000       0.222
 
 k-points in reciprocal lattice and weights: read from INCAR                         
   0.00000000  0.00000000  0.00000000       0.111
   0.33333333  0.00000000  0.00000000       0.222
   0.00000000  0.33333333  0.00000000       0.222
   0.33333333  0.33333333  0.00000000       0.222
  -0.33333333  0.33333333  0.00000000       0.222
 
 position of ions in fractional coordinates (direct lattice) 
   0.00002491  0.00157192  0.28884509
   0.24840929  0.99880504  0.28958172
   0.50096960  0.00379305  0.29060861
   0.99964465  0.25121572  0.28963072
   0.25066981  0.25009060  0.28885923
   0.33446800  0.16514600  0.09636487
   0.33496497  0.16516236  0.38285997
   0.74950265  0.25068365  0.29148649
   0.41837500  0.08394000  0.19264317
   0.83203200  0.16588400  0.09821039
   0.83184725  0.16422197  0.38486195
   0.66797000  0.08472300  0.19421489
   0.00093027  0.49899301  0.29081887
   0.74963897  0.50026306  0.28953721
   0.58310200  0.41320400  0.09683844
   0.58475374  0.41773173  0.38444939
   0.41961000  0.33337100  0.19266495
   0.83119700  0.41475900  0.09842584
   0.83350004  0.41645883  0.38346807
   0.91855900  0.33501600  0.19420908
   0.99882332  0.74966461  0.29011353
   0.08195100  0.66570400  0.09747927
   0.08626868  0.66704355  0.38410853
   0.75320424  0.75118201  0.29069871
   0.41737300  0.58352400  0.19475466
   0.91550800  0.58461900  0.19395095
   0.16682900  0.83490800  0.19309090
   0.41715300  0.83338800  0.19531186
   0.91985100  0.83263700  0.19392075
   0.74863750  0.00154921  0.29185211
   0.08475800  0.16932700  0.09388926
   0.08422156  0.16901438  0.38296856
   0.49610340  0.24662106  0.29043757
   0.17139600  0.08339300  0.19388126
   0.58776100  0.16931300  0.09618717
   0.59060578  0.17565665  0.38772357
   0.91693100  0.08581500  0.19262604
   0.24594166  0.49737887  0.29312410
   0.07438400  0.41509600  0.09744675
   0.07711551  0.41599063  0.38888499
   0.50274732  0.50110644  0.28972324
   0.33917200  0.41514500  0.09699001
   0.33479402  0.41309223  0.38745645
   0.17081400  0.33724200  0.19402731
   0.67264700  0.33598100  0.19452441
   0.24713932  0.75497435  0.29090726
   0.49908954  0.75097396  0.29135772
   0.33208500  0.66262100  0.09936022
   0.33258682  0.66360704  0.39032888
   0.16470600  0.58627100  0.19584874
   0.58579400  0.66826100  0.09684048
   0.58772359  0.67194612  0.38902423
   0.83088100  0.65877500  0.09658990
   0.83449940  0.66106946  0.38478658
   0.66762500  0.58426200  0.19372156
   0.08235500  0.91427100  0.09464942
   0.08493504  0.91561237  0.38406719
   0.33394400  0.91584300  0.09825017
   0.33980517  0.92045248  0.38576392
   0.58231600  0.91865200  0.09902340
   0.58151263  0.91800194  0.39133109
   0.83419400  0.91449400  0.09650569
   0.83813477  0.91511588  0.38736462
   0.66841400  0.83351100  0.19511790
 
 position of ions in cartesian coordinates  (Angst):
  -0.00768687  0.01374976  6.15288867
  -2.53510940  8.73667257  6.16858017
   5.04079275  0.03317830  6.19045464
   8.82804254  2.19741534  6.16962390
   1.26884652  2.18757378  6.15318991
   2.54421759  1.44455271  2.05273465
   2.54915450  1.44469578  8.15556464
   6.30421783  2.19276123  6.20915510
   3.80180719  0.73423368  4.10362520
   7.56604122  1.45100809  2.09204734
   7.57256864  1.43647015  8.19821020
   6.31883979  0.74108268  4.13710550
  -2.51059600  4.36475426  6.19493353
   5.04518003  4.37586354  6.16763213
   3.80276671  3.61434706  2.06282249
   3.79658405  3.65395171  8.18942193
   2.55461586  2.91603783  4.10408915
   6.30075013  3.62794884  2.09663679
   6.31542714  3.64281745  8.16851809
   7.58584793  2.93042685  4.13698173
   6.30250272  6.55741006  6.17990857
  -2.53417788  5.82299613  2.07647325
  -2.49733293  5.83471338  8.18216104
   3.81401076  6.57068298  6.19237389
   1.26871004  5.10415740  4.14860351
   6.29449804  5.11373550  4.13148313
  -2.53139019  7.30304468  4.11316261
   0.00463604  7.28974905  4.16047281
   5.08583435  7.28317996  4.13083982
   7.55364713  0.01355112  6.21694340
   0.00095448  1.48112444  1.99999997
  -0.00288494  1.47838996  8.15787769
   3.76532350  2.15722527  6.18681128
   1.31000516  0.72944900  4.12999861
   5.08151141  1.48100198  2.04894934
   5.07820819  1.53649071  8.25916759
   8.82790830  0.75063454  4.10326031
  -0.02775342  4.35063521  6.24403892
  -1.34499768  3.63089662  2.07578052
  -1.32192659  3.63872209  8.28390770
   2.54723861  4.38324070  6.17159489
   1.32919575  3.63132523  2.06605118
   1.29534361  3.61336936  8.25347739
   0.02214998  2.94989795  4.13310973
   5.09718709  2.93886782  4.14369880
  -1.31655377  6.60385502  6.19681645
   1.24842420  6.56886314  6.20641195
   0.00782269  5.79602875  2.11654066
   0.00791161  5.80465377  8.31466506
  -1.29717776  5.12818575  4.17190926
   2.54187937  5.84536253  2.06286594
   2.54275837  5.87759671  8.28687369
   5.06523981  5.76238730  2.05752816
   5.09019942  5.78245726  8.19660465
   3.79260580  5.11061278  4.12659673
  -3.78539923  7.99724277  2.01619266
  -3.76611417  8.00897592  8.18128041
  -1.25221118  8.01099325  2.09289472
  -1.21629012  8.05131294  8.21742366
   1.24223713  8.03556392  2.10936583
   1.23740570  8.02987777  8.33601370
   3.80728155  7.99919338  2.05573435
   3.84394399  8.00463303  8.25152120
   2.54182886  7.29082495  4.15634114
 


--------------------------------------------------------------------------------------------------------


 k-point  1 :   0.0000 0.0000 0.0000  plane waves:   50713
 k-point  2 :   0.3333 0.0000 0.0000  plane waves:   50672
 k-point  3 :   0.0000 0.3333 0.0000  plane waves:   50672
 k-point  4 :   0.3333 0.3333 0.0000  plane waves:   50673
 k-point  5 :  -0.3333 0.3333 0.0000  plane waves:   50672

 maximum and minimum number of plane-waves per node :      2138     2092

 maximum number of plane-waves:     50713
 maximum index in each direction: 
   IXMAX=   19   IYMAX=   18   IZMAX=   39
   IXMIN=  -19   IYMIN=  -19   IZMIN=  -39


 real space projection operators:
  total allocation   :      66542.20 KBytes
  max/ min on nodes  :       3366.84       2437.88


 parallel 3D FFT for wavefunctions:
    minimum data exchange during FFTs selected (reduces bandwidth)
 parallel 3D FFT for charge:
    minimum data exchange during FFTs selected (reduces bandwidth)


 total amount of memory used by VASP MPI-rank0   114063. kBytes
=======================================================================

   base      :      30000. kBytes
   nonlr-proj:      13042. kBytes
   fftplans  :       6403. kBytes
   grid      :      16455. kBytes
   one-center:         93. kBytes
   wavefun   :      48070. kBytes
 
     INWAV:  cpu time    0.0000: real time    0.0000
 Broyden mixing: mesh for mixing (old mesh)
   NGX = 37   NGY = 37   NGZ = 79
  (NGX  =160   NGY  =160   NGZ  =320)
  gives a total of 108151 points

 initial charge density was supplied:
 charge density of overlapping atoms calculated
 number of electron     570.0000000 magnetization     134.0000000
 keeping initial charge density in first step


--------------------------------------------------------------------------------------------------------


 Maximum index for non-local projection operator          761
 Maximum index for augmentation-charges         1117 (set IRDMAX)


--------------------------------------------------------------------------------------------------------


 First call to EWALD:  gamma=   0.144
 Maximum number of real-space cells 4x 4x 2
 Maximum number of reciprocal cells 2x 2x 4

    FEWALD:  cpu time    0.0040: real time    0.0039


--------------------------------------- Iteration      1(   1)  ---------------------------------------


    POTLOK:  cpu time    0.2410: real time    0.2547
    SETDIJ:  cpu time    0.0170: real time    0.0192
     EDDAV:  cpu time   24.9222: real time   25.5982
 BZINTS: Fermi energy: 11.878545;570.000000 electrons
         Band energy:4087.759719;  BLOECHL correction: -0.007391
       DOS:  cpu time    0.0420: real time    0.0431
    --------------------------------------------
      LOOP:  cpu time   25.2222: real time   25.9153

 eigenvalue-minimisations  :  8220
 total energy-change (2. order) : 0.4749231E+04  (-0.2389597E+05)
 number of electron     570.0000000 magnetization     134.0000000
 augmentation part      570.0000000 magnetization     134.0000000

 DIPCOR: dipole corrections for dipol
 direction  3 min pos   238,
 dipolmoment           0.000000      0.000000     -0.000014 electrons x Angstroem
 Tr[quadrupol]     -9609.723833

 energy correction for charged system         0.000000 eV
 dipol+quadrupol energy correction           -0.000000 eV
 added-field ion interaction          0.000024 eV  (added to PSCEN)


 Free energy of the ion-electron system (eV)
  ---------------------------------------------------
  alpha Z        PSCENC =      1363.74999095
  Ewald energy   TEWEN  =    188256.51722113
  -Hartree energ DENC   =   -239879.48851161
  -exchange      EXHF   =         0.00000000
  -V(xc)+E(xc)   XCENC  =      1075.99110319
  PAW double counting   =     47303.73637439   -49512.43570476
  entropy T*S    EENTRO =         0.00000000
  eigenvalues    EBANDS =      4087.75971901
  atomic energy  EATOM  =     52053.40048729
  Solvation  Ediel_sol  =         0.00000000
  ---------------------------------------------------
  free energy    TOTEN  =      4749.23067959 eV

  energy without entropy =     4749.23067959  energy(sigma->0) =     4749.23067959


--------------------------------------------------------------------------------------------------------




--------------------------------------- Iteration      1(   2)  ---------------------------------------


     EDDAV:  cpu time   25.5481: real time   26.1467
 BZINTS: Fermi energy:  1.939089;570.000000 electrons
         Band energy:-648.601784;  BLOECHL correction: -0.008175
       DOS:  cpu time    0.0430: real time    0.0442
    --------------------------------------------
      LOOP:  cpu time   25.5911: real time   26.1909

 eigenvalue-minimisations  :  8220
 total energy-change (2. order) :-0.4736362E+04  (-0.4426836E+04)
 number of electron     570.0000000 magnetization     134.0000000
 augmentation part      570.0000000 magnetization     134.0000000

 DIPCOR: dipole corrections for dipol
 direction  3 min pos   238,
 dipolmoment           0.000000      0.000000     -0.000014 electrons x Angstroem
 Tr[quadrupol]     -9609.723833

 energy correction for charged system         0.000000 eV
 dipol+quadrupol energy correction           -0.000000 eV
 added-field ion interaction          0.000024 eV  (added to PSCEN)


 Free energy of the ion-electron system (eV)
  ---------------------------------------------------
  alpha Z        PSCENC =      1363.74999095
  Ewald energy   TEWEN  =    188256.51722113
  -Hartree energ DENC   =   -239879.48851161
  -exchange      EXHF   =         0.00000000
  -V(xc)+E(xc)   XCENC  =      1075.99110319
  PAW double counting   =     47303.73637439   -49512.43570476
  entropy T*S    EENTRO =         0.00000000
  eigenvalues    EBANDS =      -648.60178416
  atomic energy  EATOM  =     52053.40048729
  Solvation  Ediel_sol  =         0.00000000
  ---------------------------------------------------
  free energy    TOTEN  =        12.86917643 eV

  energy without entropy =       12.86917643  energy(sigma->0) =       12.86917643


--------------------------------------------------------------------------------------------------------




--------------------------------------- Iteration      1(   3)  ---------------------------------------


     EDDAV:  cpu time   25.1342: real time   25.7387
 BZINTS: Fermi energy:  0.669092;570.000000 electrons
         Band energy:***********;  BLOECHL correction: -0.005536
       DOS:  cpu time    0.0410: real time    0.0416
    --------------------------------------------
      LOOP:  cpu time   25.1752: real time   25.7803

 eigenvalue-minimisations  :  8535
 total energy-change (2. order) :-0.4733830E+03  (-0.4060762E+03)
 number of electron     570.0000000 magnetization     134.0000000
 augmentation part      570.0000000 magnetization     134.0000000

 DIPCOR: dipole corrections for dipol
 direction  3 min pos   238,
 dipolmoment           0.000000      0.000000     -0.000014 electrons x Angstroem
 Tr[quadrupol]     -9609.723833

 energy correction for charged system         0.000000 eV
 dipol+quadrupol energy correction           -0.000000 eV
 added-field ion interaction          0.000024 eV  (added to PSCEN)


 Free energy of the ion-electron system (eV)
  ---------------------------------------------------
  alpha Z        PSCENC =      1363.74999095
  Ewald energy   TEWEN  =    188256.51722113
  -Hartree energ DENC   =   -239879.48851161
  -exchange      EXHF   =         0.00000000
  -V(xc)+E(xc)   XCENC  =      1075.99110319
  PAW double counting   =     47303.73637439   -49512.43570476
  entropy T*S    EENTRO =         0.00000000
  eigenvalues    EBANDS =     -1121.98474726
  atomic energy  EATOM  =     52053.40048729
  Solvation  Ediel_sol  =         0.00000000
  ---------------------------------------------------
  free energy    TOTEN  =      -460.51378667 eV

  energy without entropy =     -460.51378667  energy(sigma->0) =     -460.51378667


--------------------------------------------------------------------------------------------------------




--------------------------------------- Iteration      1(   4)  ---------------------------------------


     EDDAV:  cpu time   26.1000: real time   26.5903
 BZINTS: Fermi energy:  0.623249;570.000000 electrons
         Band energy:***********;  BLOECHL correction: -0.006853
       DOS:  cpu time    0.0390: real time    0.0398
    --------------------------------------------
      LOOP:  cpu time   26.1390: real time   26.6301

 eigenvalue-minimisations  :  8754
 total energy-change (2. order) :-0.2211417E+02  (-0.2145441E+02)
 number of electron     570.0000000 magnetization     134.0000000
 augmentation part      570.0000000 magnetization     134.0000000

 DIPCOR: dipole corrections for dipol
 direction  3 min pos   238,
 dipolmoment           0.000000      0.000000     -0.000014 electrons x Angstroem
 Tr[quadrupol]     -9609.723833

 energy correction for charged system         0.000000 eV
 dipol+quadrupol energy correction           -0.000000 eV
 added-field ion interaction          0.000024 eV  (added to PSCEN)


 Free energy of the ion-electron system (eV)
  ---------------------------------------------------
  alpha Z        PSCENC =      1363.74999095
  Ewald energy   TEWEN  =    188256.51722113
  -Hartree energ DENC   =   -239879.48851161
  -exchange      EXHF   =         0.00000000
  -V(xc)+E(xc)   XCENC  =      1075.99110319
  PAW double counting   =     47303.73637439   -49512.43570476
  entropy T*S    EENTRO =         0.00000000
  eigenvalues    EBANDS =     -1144.09891801
  atomic energy  EATOM  =     52053.40048729
  Solvation  Ediel_sol  =         0.00000000
  ---------------------------------------------------
  free energy    TOTEN  =      -482.62795742 eV

  energy without entropy =     -482.62795742  energy(sigma->0) =     -482.62795742


--------------------------------------------------------------------------------------------------------




--------------------------------------- Iteration      1(   5)  ---------------------------------------


     EDDAV:  cpu time   27.3628: real time   27.6621
 BZINTS: Fermi energy:  0.622063;570.000000 electrons
         Band energy:***********;  BLOECHL correction: -0.006846
       DOS:  cpu time    0.0400: real time    0.0396
    CHARGE:  cpu time    0.7379: real time    0.7404
    MIXING:  cpu time    0.0050: real time    0.0045
    --------------------------------------------
      LOOP:  cpu time   28.1457: real time   28.4466

 eigenvalue-minimisations  :  9339
 total energy-change (2. order) :-0.4529818E+00  (-0.4517094E+00)
 number of electron     570.0000021 magnetization     130.7274731
 augmentation part      291.0220651 magnetization     100.6718601

 DIPCOR: dipole corrections for dipol
 direction  3 min pos   238,
 dipolmoment           0.000000      0.000000     -0.000014 electrons x Angstroem
 Tr[quadrupol]     -9609.723833

 energy correction for charged system         0.000000 eV
 dipol+quadrupol energy correction           -0.000000 eV
 added-field ion interaction          0.000024 eV  (added to PSCEN)


 Broyden mixing:
  rms(total) = 0.79310E+01    rms(broyden)= 0.79308E+01
  rms(prec ) = 0.83559E+01
  weight for this iteration     100.00

 Free energy of the ion-electron system (eV)
  ---------------------------------------------------
  alpha Z        PSCENC =      1363.74999095
  Ewald energy   TEWEN  =    188256.51722113
  -Hartree energ DENC   =   -239879.48851161
  -exchange      EXHF   =         0.00000000
  -V(xc)+E(xc)   XCENC  =      1075.99110319
  PAW double counting   =     47303.73637439   -49512.43570476
  entropy T*S    EENTRO =         0.00000000
  eigenvalues    EBANDS =     -1144.55189981
  atomic energy  EATOM  =     52053.40048729
  Solvation  Ediel_sol  =         0.00000000
  ---------------------------------------------------
  free energy    TOTEN  =      -483.08093922 eV

  energy without entropy =     -483.08093922  energy(sigma->0) =     -483.08093922


--------------------------------------------------------------------------------------------------------




--------------------------------------- Iteration      1(   6)  ---------------------------------------


    POTLOK:  cpu time    0.2800: real time    0.2808
    SETDIJ:  cpu time    0.0180: real time    0.0180
    EDDIAG:  cpu time    3.7974: real time    3.8091
  RMM-DIIS:  cpu time   16.3795: real time   17.0292
    ORTHCH:  cpu time    0.6309: real time    0.6328
 BZINTS: Fermi energy: -1.403061;570.000000 electrons
         Band energy:***********;  BLOECHL correction: -0.004039
       DOS:  cpu time    0.0450: real time    0.0448
    CHARGE:  cpu time    0.7649: real time    0.7791
    MIXING:  cpu time    0.0050: real time    0.0045
    --------------------------------------------
      LOOP:  cpu time   21.9207: real time   22.5984

 eigenvalue-minimisations  :  8552
 total energy-change (2. order) :-0.5344379E+02  (-0.7307665E+02)
 number of electron     570.0000034 magnetization     128.9185747
 augmentation part      342.2740976 magnetization     112.7206287

 DIPCOR: dipole corrections for dipol
 direction  3 min pos   250,
 dipolmoment           0.000000      0.000000     -0.312118 electrons x Angstroem
 Tr[quadrupol]     -9618.814574

 energy correction for charged system         0.000000 eV
 dipol+quadrupol energy correction           -0.004684 eV
 added-field ion interaction        -13.137852 eV  (added to PSCEN)


 Broyden mixing:
  rms(total) = 0.16323E+02    rms(broyden)= 0.16323E+02
  rms(prec ) = 0.18600E+02
  weight for this iteration     100.00

 eigenvalues of (default mixing * dielectric matrix)
  average eigenvalue GAMMA=   0.1966
  0.1966

 Free energy of the ion-electron system (eV)
  ---------------------------------------------------
  alpha Z        PSCENC =      1350.60743195
  Ewald energy   TEWEN  =    188256.51722113
  -Hartree energ DENC   =   -238956.18307014
  -exchange      EXHF   =         0.00000000
  -V(xc)+E(xc)   XCENC  =      1020.99225064
  PAW double counting   =     50390.32695217   -52410.41490611
  entropy T*S    EENTRO =         0.00000000
  eigenvalues    EBANDS =     -2241.77109646
  atomic energy  EATOM  =     52053.40048729
  Solvation  Ediel_sol  =         0.00000000
  ---------------------------------------------------
  free energy    TOTEN  =      -536.52472951 eV

  energy without entropy =     -536.52472951  energy(sigma->0) =     -536.52472951


--------------------------------------------------------------------------------------------------------




--------------------------------------- Iteration      1(   7)  ---------------------------------------


    POTLOK:  cpu time    0.2430: real time    0.2434
    SETDIJ:  cpu time    0.0180: real time    0.0181
    EDDIAG:  cpu time    3.6055: real time    3.6149
  RMM-DIIS:  cpu time   15.9416: real time   15.9939
    ORTHCH:  cpu time    0.6919: real time    0.6935
 BZINTS: Fermi energy: -1.473006;570.000000 electrons
         Band energy:***********;  BLOECHL correction: -0.003765
       DOS:  cpu time    0.0430: real time    0.0431
    CHARGE:  cpu time    0.7469: real time    0.7512
    MIXING:  cpu time    0.0050: real time    0.0045
    --------------------------------------------
      LOOP:  cpu time   21.2948: real time   21.3626

 eigenvalue-minimisations  :  8612
 total energy-change (2. order) : 0.8756166E+01  (-0.2277996E+02)
 number of electron     570.0000025 magnetization     126.1203293
 augmentation part      340.2825290 magnetization      99.1788081

 DIPCOR: dipole corrections for dipol
 direction  3 min pos   248,
 dipolmoment           0.000000      0.000000      0.421028 electrons x Angstroem
 Tr[quadrupol]     -9608.731840

 energy correction for charged system         0.000000 eV
 dipol+quadrupol energy correction           -0.008522 eV
 added-field ion interaction         14.649961 eV  (added to PSCEN)


 Broyden mixing:
  rms(total) = 0.14556E+02    rms(broyden)= 0.14556E+02
  rms(prec ) = 0.17071E+02
  weight for this iteration     100.00

 eigenvalues of (default mixing * dielectric matrix)
  average eigenvalue GAMMA=   0.2423
  0.3593  0.1254

 Free energy of the ion-electron system (eV)
  ---------------------------------------------------
  alpha Z        PSCENC =      1378.39140571
  Ewald energy   TEWEN  =    188256.51722113
  -Hartree energ DENC   =   -238708.03105031
  -exchange      EXHF   =         0.00000000
  -V(xc)+E(xc)   XCENC  =      1025.16773494
  PAW double counting   =     51139.39985731   -53206.68903816
  entropy T*S    EENTRO =         0.00000000
  eigenvalues    EBANDS =     -2465.92518096
  atomic energy  EATOM  =     52053.40048729
  Solvation  Ediel_sol  =         0.00000000
  ---------------------------------------------------
  free energy    TOTEN  =      -527.76856305 eV

  energy without entropy =     -527.76856305  energy(sigma->0) =     -527.76856305


--------------------------------------------------------------------------------------------------------




--------------------------------------- Iteration      1(   8)  ---------------------------------------


    POTLOK:  cpu time    0.2480: real time    0.2495
    SETDIJ:  cpu time    0.0190: real time    0.0184
    EDDIAG:  cpu time    3.7264: real time    3.7410
  RMM-DIIS:  cpu time   16.2975: real time   16.3846
    ORTHCH:  cpu time    0.6319: real time    0.6342
 BZINTS: Fermi energy: -0.064720;570.000000 electrons
         Band energy:***********;  BLOECHL correction: -0.010672
       DOS:  cpu time    0.0420: real time    0.0426
    CHARGE:  cpu time    0.7549: real time    0.7565
    MIXING:  cpu time    0.0050: real time    0.0046
    --------------------------------------------
      LOOP:  cpu time   21.7247: real time   21.8315

 eigenvalue-minimisations  :  8759
 total energy-change (2. order) :-0.4940447E+02  (-0.9780723E+01)
 number of electron     570.0000016 magnetization     125.3544951
 augmentation part      326.8599858 magnetization     100.0911061

 DIPCOR: dipole corrections for dipol
 direction  3 min pos   249,
 dipolmoment           0.000000      0.000000     -2.157517 electrons x Angstroem
 Tr[quadrupol]     -9614.702563

 energy correction for charged system         0.000000 eV
 dipol+quadrupol energy correction           -0.223793 eV
 added-field ion interaction        -82.943926 eV  (added to PSCEN)


 Broyden mixing:
  rms(total) = 0.17546E+02    rms(broyden)= 0.17546E+02
  rms(prec ) = 0.24772E+02
  weight for this iteration     100.00

 eigenvalues of (default mixing * dielectric matrix)
  average eigenvalue GAMMA=   0.1857
  0.3251  0.1547  0.0775

 Free energy of the ion-electron system (eV)
  ---------------------------------------------------
  alpha Z        PSCENC =      1280.58224821
  Ewald energy   TEWEN  =    188256.51722113
  -Hartree energ DENC   =   -239232.07281751
  -exchange      EXHF   =         0.00000000
  -V(xc)+E(xc)   XCENC  =      1033.09982677
  PAW double counting   =     52572.86562261   -54739.66484561
  entropy T*S    EENTRO =         0.00000000
  eigenvalues    EBANDS =     -1801.90077139
  atomic energy  EATOM  =     52053.40048729
  Solvation  Ediel_sol  =         0.00000000
  ---------------------------------------------------
  free energy    TOTEN  =      -577.17302849 eV

  energy without entropy =     -577.17302849  energy(sigma->0) =     -577.17302849


--------------------------------------------------------------------------------------------------------




--------------------------------------- Iteration      1(   9)  ---------------------------------------


    POTLOK:  cpu time    0.2420: real time    0.2435
    SETDIJ:  cpu time    0.0190: real time    0.0181
    EDDIAG:  cpu time    3.6834: real time    3.7143
  RMM-DIIS:  cpu time   16.3185: real time   16.4327
    ORTHCH:  cpu time    0.6279: real time    0.6312
 BZINTS: Fermi energy: -0.493457;570.000000 electrons
         Band energy:***********;  BLOECHL correction: -0.011589
       DOS:  cpu time    0.0410: real time    0.0406
    CHARGE:  cpu time    0.7599: real time    0.7625
    MIXING:  cpu time    0.0050: real time    0.0049
    --------------------------------------------
      LOOP:  cpu time   21.6967: real time   21.8477

 eigenvalue-minimisations  :  8789
 total energy-change (2. order) : 0.1579894E+03  (-0.3233522E+01)
 number of electron     570.0000033 magnetization     123.8142682
 augmentation part      324.5768531 magnetization      95.2991167

 DIPCOR: dipole corrections for dipol
 direction  3 min pos   237,
 dipolmoment           0.000000      0.000000      0.703923 electrons x Angstroem
 Tr[quadrupol]     -9619.108179

 energy correction for charged system         0.000000 eV
 dipol+quadrupol energy correction           -0.023823 eV
 added-field ion interaction         -3.756977 eV  (added to PSCEN)


 Broyden mixing:
  rms(total) = 0.90403E+01    rms(broyden)= 0.90399E+01
  rms(prec ) = 0.11596E+02
  weight for this iteration     100.00

 eigenvalues of (default mixing * dielectric matrix)
  average eigenvalue GAMMA=   0.2689
  0.4586  0.4586  0.1072  0.0513

 Free energy of the ion-electron system (eV)
  ---------------------------------------------------
  alpha Z        PSCENC =      1359.96916742
  Ewald energy   TEWEN  =    188256.51722113
  -Hartree energ DENC   =   -239292.14628520
  -exchange      EXHF   =         0.00000000
  -V(xc)+E(xc)   XCENC  =      1034.72802976
  PAW double counting   =     52801.97235972   -54978.57957272
  entropy T*S    EENTRO =         0.00000000
  eigenvalues    EBANDS =     -1655.04503477
  atomic energy  EATOM  =     52053.40048729
  Solvation  Ediel_sol  =         0.00000000
  ---------------------------------------------------
  free energy    TOTEN  =      -419.18362736 eV

  energy without entropy =     -419.18362736  energy(sigma->0) =     -419.18362736


--------------------------------------------------------------------------------------------------------




--------------------------------------- Iteration      1(  10)  ---------------------------------------


    POTLOK:  cpu time    0.2600: real time    0.2607
    SETDIJ:  cpu time    0.0180: real time    0.0181
    EDDIAG:  cpu time    3.6075: real time    3.6235
  RMM-DIIS:  cpu time   16.1165: real time   16.1965
    ORTHCH:  cpu time    0.6639: real time    0.6674
 BZINTS: Fermi energy: -0.077520;570.000000 electrons
         Band energy:***********;  BLOECHL correction: -0.002678
       DOS:  cpu time    0.0430: real time    0.0431
    CHARGE:  cpu time    0.7909: real time    0.7948
    MIXING:  cpu time    0.0050: real time    0.0048
    --------------------------------------------
      LOOP:  cpu time   21.5047: real time   21.6090

 eigenvalue-minimisations  :  8720
 total energy-change (2. order) :-0.3453096E+02  (-0.9509131E+01)
 number of electron     570.0000021 magnetization     121.4812232
 augmentation part      326.2303738 magnetization      89.4822904

 DIPCOR: dipole corrections for dipol
 direction  3 min pos   246,
 dipolmoment           0.000000      0.000000     -0.993062 electrons x Angstroem
 Tr[quadrupol]     -9619.573826

 energy correction for charged system         0.000000 eV
 dipol+quadrupol energy correction           -0.047412 eV
 added-field ion interaction        -27.308030 eV  (added to PSCEN)


 Broyden mixing:
  rms(total) = 0.10151E+02    rms(broyden)= 0.10151E+02
  rms(prec ) = 0.12412E+02
  weight for this iteration     100.00

 eigenvalues of (default mixing * dielectric matrix)
  average eigenvalue GAMMA=   0.2974
  0.6821  0.5388  0.1097  0.1097  0.0469

 Free energy of the ion-electron system (eV)
  ---------------------------------------------------
  alpha Z        PSCENC =      1336.39452518
  Ewald energy   TEWEN  =    188256.51722113
  -Hartree energ DENC   =   -239274.42603780
  -exchange      EXHF   =         0.00000000
  -V(xc)+E(xc)   XCENC  =      1035.35358807
  PAW double counting   =     53229.65257746   -55415.04397418
  entropy T*S    EENTRO =         0.00000000
  eigenvalues    EBANDS =     -1675.56296993
  atomic energy  EATOM  =     52053.40048729
  Solvation  Ediel_sol  =         0.00000000
  ---------------------------------------------------
  free energy    TOTEN  =      -453.71458278 eV

  energy without entropy =     -453.71458278  energy(sigma->0) =     -453.71458278


--------------------------------------------------------------------------------------------------------




--------------------------------------- Iteration      1(  11)  ---------------------------------------


    POTLOK:  cpu time    0.2430: real time    0.2444
    SETDIJ:  cpu time    0.0190: real time    0.0182
    EDDIAG:  cpu time    3.7384: real time    3.7527
  RMM-DIIS:  cpu time   16.0036: real time   16.0745
    ORTHCH:  cpu time    0.6309: real time    0.6308
 BZINTS: Fermi energy:  0.076195;570.000000 electrons
         Band energy:***********;  BLOECHL correction: -0.006255
       DOS:  cpu time    0.0420: real time    0.0431
    CHARGE:  cpu time    0.7699: real time    0.7713
    MIXING:  cpu time    0.0060: real time    0.0049
    --------------------------------------------
      LOOP:  cpu time   21.4527: real time   21.5400

 eigenvalue-minimisations  :  8595
 total energy-change (2. order) :-0.6446801E+01  (-0.6529857E+01)
 number of electron     570.0000028 magnetization     119.5193261
 augmentation part      322.2505184 magnetization      89.4206551

 DIPCOR: dipole corrections for dipol
 direction  3 min pos   252,
 dipolmoment           0.000000      0.000000     -0.118751 electrons x Angstroem
 Tr[quadrupol]     -9623.303170

 energy correction for charged system         0.000000 eV
 dipol+quadrupol energy correction           -0.000678 eV
 added-field ion interaction         -5.865063 eV  (added to PSCEN)


 Broyden mixing:
  rms(total) = 0.10707E+02    rms(broyden)= 0.10707E+02
  rms(prec ) = 0.12684E+02
  weight for this iteration     100.00

 eigenvalues of (default mixing * dielectric matrix)
  average eigenvalue GAMMA=   0.2941
  0.8685  0.4923  0.1193  0.1193  0.1191  0.0459

 Free energy of the ion-electron system (eV)
  ---------------------------------------------------
  alpha Z        PSCENC =      1357.88422625
  Ewald energy   TEWEN  =    188256.51722113
  -Hartree energ DENC   =   -239406.28554393
  -exchange      EXHF   =         0.00000000
  -V(xc)+E(xc)   XCENC  =      1038.25887534
  PAW double counting   =     54046.73991639   -56274.69368696
  entropy T*S    EENTRO =         0.00000000
  eigenvalues    EBANDS =     -1531.98287922
  atomic energy  EATOM  =     52053.40048729
  Solvation  Ediel_sol  =         0.00000000
  ---------------------------------------------------
  free energy    TOTEN  =      -460.16138371 eV

  energy without entropy =     -460.16138371  energy(sigma->0) =     -460.16138371


--------------------------------------------------------------------------------------------------------




--------------------------------------- Iteration      1(  12)  ---------------------------------------


    POTLOK:  cpu time    0.2410: real time    0.2434
    SETDIJ:  cpu time    0.0190: real time    0.0179
    EDDIAG:  cpu time    3.7534: real time    3.7827
  RMM-DIIS:  cpu time   15.9366: real time   16.1128
    ORTHCH:  cpu time    0.6269: real time    0.6353
 BZINTS: Fermi energy: -0.019494;570.000000 electrons
         Band energy:***********;  BLOECHL correction: -0.006564
       DOS:  cpu time    0.0430: real time    0.0433
    CHARGE:  cpu time    0.7489: real time    0.7542
    MIXING:  cpu time    0.0050: real time    0.0054
    --------------------------------------------
      LOOP:  cpu time   21.3738: real time   21.5952

 eigenvalue-minimisations  :  8459
 total energy-change (2. order) : 0.5509563E+02  (-0.3650081E+01)
 number of electron     570.0000024 magnetization     118.9978727
 augmentation part      324.8002060 magnetization      84.9652599

 DIPCOR: dipole corrections for dipol
 direction  3 min pos   254,
 dipolmoment           0.000000      0.000000     -0.641305 electrons x Angstroem
 Tr[quadrupol]     -9623.464661

 energy correction for charged system         0.000000 eV
 dipol+quadrupol energy correction           -0.019773 eV
 added-field ion interaction        -36.353250 eV  (added to PSCEN)


 Broyden mixing:
  rms(total) = 0.51331E+01    rms(broyden)= 0.51329E+01
  rms(prec ) = 0.57854E+01
  weight for this iteration     100.00

 eigenvalues of (default mixing * dielectric matrix)
  average eigenvalue GAMMA=   0.2982
  0.9850  0.3379  0.3379  0.1699  0.1056  0.1056  0.0459

 Free energy of the ion-electron system (eV)
  ---------------------------------------------------
  alpha Z        PSCENC =      1327.37694411
  Ewald energy   TEWEN  =    188256.51722113
  -Hartree energ DENC   =   -239418.89575237
  -exchange      EXHF   =         0.00000000
  -V(xc)+E(xc)   XCENC  =      1039.70516750
  PAW double counting   =     54584.58893814   -56831.98463275
  entropy T*S    EENTRO =         0.00000000
  eigenvalues    EBANDS =     -1415.77412268
  atomic energy  EATOM  =     52053.40048729
  Solvation  Ediel_sol  =         0.00000000
  ---------------------------------------------------
  free energy    TOTEN  =      -405.06574962 eV

  energy without entropy =     -405.06574962  energy(sigma->0) =     -405.06574962


--------------------------------------------------------------------------------------------------------




--------------------------------------- Iteration      1(  13)  ---------------------------------------


    POTLOK:  cpu time    0.2590: real time    0.2621
    SETDIJ:  cpu time    0.0190: real time    0.0180
    EDDIAG:  cpu time    3.6904: real time    3.7668
  RMM-DIIS:  cpu time   16.1585: real time   16.3650
    ORTHCH:  cpu time    0.6789: real time    0.6834
 BZINTS: Fermi energy: -0.058989;570.000000 electrons
         Band energy:***********;  BLOECHL correction: -0.006451
       DOS:  cpu time    0.0430: real time    0.0436
    CHARGE:  cpu time    0.7519: real time    0.7577
    MIXING:  cpu time    0.0060: real time    0.0060
    --------------------------------------------
      LOOP:  cpu time   21.6067: real time   21.9027

 eigenvalue-minimisations  :  8587
 total energy-change (2. order) :-0.3270082E+01  (-0.2360016E+01)
 number of electron     570.0000028 magnetization     118.0799417
 augmentation part      324.7553208 magnetization      87.1107016

 DIPCOR: dipole corrections for dipol
 direction  3 min pos   238,
 dipolmoment           0.000000      0.000000      0.146943 electrons x Angstroem
 Tr[quadrupol]     -9624.606248

 energy correction for charged system         0.000000 eV
 dipol+quadrupol energy correction           -0.001038 eV
 added-field ion interaction         -0.248150 eV  (added to PSCEN)


 Broyden mixing:
  rms(total) = 0.58071E+01    rms(broyden)= 0.58070E+01
  rms(prec ) = 0.66311E+01
  weight for this iteration     100.00

 eigenvalues of (default mixing * dielectric matrix)
  average eigenvalue GAMMA=   0.3082
  1.0588  0.4159  0.4159  0.2042  0.1203  0.1023  0.1023  0.0458

 Free energy of the ion-electron system (eV)
  ---------------------------------------------------
  alpha Z        PSCENC =      1363.50077931
  Ewald energy   TEWEN  =    188256.51722113
  -Hartree energ DENC   =   -239455.67670318
  -exchange      EXHF   =         0.00000000
  -V(xc)+E(xc)   XCENC  =      1038.69848574
  PAW double counting   =     54827.87252149   -57087.69691754
  entropy T*S    EENTRO =         0.00000000
  eigenvalues    EBANDS =     -1404.95170544
  atomic energy  EATOM  =     52053.40048729
  Solvation  Ediel_sol  =         0.00000000
  ---------------------------------------------------
  free energy    TOTEN  =      -408.33583120 eV

  energy without entropy =     -408.33583120  energy(sigma->0) =     -408.33583120


--------------------------------------------------------------------------------------------------------




--------------------------------------- Iteration      1(  14)  ---------------------------------------


    POTLOK:  cpu time    0.2430: real time    0.2457
    SETDIJ:  cpu time    0.0190: real time    0.0181
    EDDIAG:  cpu time    3.7094: real time    3.7300
  RMM-DIIS:  cpu time   16.2605: real time   16.4615
    ORTHCH:  cpu time    0.7089: real time    0.7169
 BZINTS: Fermi energy: -0.049572;570.000000 electrons
         Band energy:***********;  BLOECHL correction: -0.002566
       DOS:  cpu time    0.0400: real time    0.0413
    CHARGE:  cpu time    0.7689: real time    0.7757
    MIXING:  cpu time    0.0060: real time    0.0063
    --------------------------------------------
      LOOP:  cpu time   21.7567: real time   21.9954

 eigenvalue-minimisations  :  8504
 total energy-change (2. order) : 0.5903362E+01  (-0.1545559E+01)
 number of electron     570.0000026 magnetization     117.6720931
 augmentation part      325.0859297 magnetization      85.8015992

 DIPCOR: dipole corrections for dipol
 direction  3 min pos   247,
 dipolmoment           0.000000      0.000000     -0.320479 electrons x Angstroem
 Tr[quadrupol]     -9625.249490

 energy correction for charged system         0.000000 eV
 dipol+quadrupol energy correction           -0.004938 eV
 added-field ion interaction         -9.982046 eV  (added to PSCEN)


 Broyden mixing:
  rms(total) = 0.41849E+01    rms(broyden)= 0.41848E+01
  rms(prec ) = 0.47249E+01
  weight for this iteration     100.00

 eigenvalues of (default mixing * dielectric matrix)
  average eigenvalue GAMMA=   0.3130
  1.0801  0.4753  0.4753  0.2466  0.1781  0.0458  0.1093  0.1093  0.0970

 Free energy of the ion-electron system (eV)
  ---------------------------------------------------
  alpha Z        PSCENC =      1353.76298340
  Ewald energy   TEWEN  =    188256.51722113
  -Hartree energ DENC   =   -239494.17202082
  -exchange      EXHF   =         0.00000000
  -V(xc)+E(xc)   XCENC  =      1039.82480052
  PAW double counting   =     55120.00298918   -57390.68768319
  entropy T*S    EENTRO =         0.00000000
  eigenvalues    EBANDS =     -1341.08124702
  atomic energy  EATOM  =     52053.40048729
  Solvation  Ediel_sol  =         0.00000000
  ---------------------------------------------------
  free energy    TOTEN  =      -402.43246951 eV

  energy without entropy =     -402.43246951  energy(sigma->0) =     -402.43246951


--------------------------------------------------------------------------------------------------------




--------------------------------------- Iteration      1(  15)  ---------------------------------------


    POTLOK:  cpu time    0.2430: real time    0.2469
    SETDIJ:  cpu time    0.0190: real time    0.0182
    EDDIAG:  cpu time    3.7444: real time    3.7956
  RMM-DIIS:  cpu time   16.0116: real time   16.3378
    ORTHCH:  cpu time    0.6729: real time    0.6811
 BZINTS: Fermi energy:  0.030500;570.000000 electrons
         Band energy:***********;  BLOECHL correction: -0.001767
       DOS:  cpu time    0.0420: real time    0.0419
    CHARGE:  cpu time    0.7759: real time    0.7828
    MIXING:  cpu time    0.0060: real time    0.0063
    --------------------------------------------
      LOOP:  cpu time   21.5137: real time   21.9104

 eigenvalue-minimisations  :  8541
 total energy-change (2. order) :-0.1290336E+01  (-0.8807867E+00)
 number of electron     570.0000023 magnetization     117.0883867
 augmentation part      324.4954445 magnetization      87.3200037

 DIPCOR: dipole corrections for dipol
 direction  3 min pos   251,
 dipolmoment           0.000000      0.000000     -0.371768 electrons x Angstroem
 Tr[quadrupol]     -9625.690234

 energy correction for charged system         0.000000 eV
 dipol+quadrupol energy correction           -0.006645 eV
 added-field ion interaction        -17.005075 eV  (added to PSCEN)


 Broyden mixing:
  rms(total) = 0.37691E+01    rms(broyden)= 0.37691E+01
  rms(prec ) = 0.42436E+01
  weight for this iteration     100.00

 eigenvalues of (default mixing * dielectric matrix)
  average eigenvalue GAMMA=   0.3339
  1.1261  0.6011  0.6011  0.3254  0.2009  0.0458  0.1199  0.1199  0.0997  0.0997

 Free energy of the ion-electron system (eV)
  ---------------------------------------------------
  alpha Z        PSCENC =      1346.73824715
  Ewald energy   TEWEN  =    188256.51722113
  -Hartree energ DENC   =   -239518.45072777
  -exchange      EXHF   =         0.00000000
  -V(xc)+E(xc)   XCENC  =      1039.99440957
  PAW double counting   =     55293.60827896   -57569.19322300
  entropy T*S    EENTRO =         0.00000000
  eigenvalues    EBANDS =     -1306.33749865
  atomic energy  EATOM  =     52053.40048729
  Solvation  Ediel_sol  =         0.00000000
  ---------------------------------------------------
  free energy    TOTEN  =      -403.72280533 eV

  energy without entropy =     -403.72280533  energy(sigma->0) =     -403.72280533


--------------------------------------------------------------------------------------------------------




--------------------------------------- Iteration      1(  16)  ---------------------------------------


    POTLOK:  cpu time    0.2420: real time    0.2466
    SETDIJ:  cpu time    0.0200: real time    0.0191
    EDDIAG:  cpu time    3.9024: real time    3.9541
  RMM-DIIS:  cpu time   16.1275: real time   16.4331
    ORTHCH:  cpu time    0.6349: real time    0.6435
 BZINTS: Fermi energy:  0.040257;570.000000 electrons
         Band energy:***********;  BLOECHL correction:  0.000000
       DOS:  cpu time    0.0170: real time    0.0172
    CHARGE:  cpu time    0.7669: real time    0.7732
    MIXING:  cpu time    0.0080: real time    0.0066
    --------------------------------------------
      LOOP:  cpu time   21.7187: real time   22.0934

 eigenvalue-minimisations  :  8630
 total energy-change (2. order) :-0.3500821E+01  (-0.6416721E+00)
 number of electron     570.0000030 magnetization     116.5681785
 augmentation part      324.1810886 magnetization      87.5109184

 DIPCOR: dipole corrections for dipol
 direction  3 min pos   237,
 dipolmoment           0.000000      0.000000      0.155457 electrons x Angstroem
 Tr[quadrupol]     -9626.423743

 energy correction for charged system         0.000000 eV
 dipol+quadrupol energy correction           -0.001162 eV
 added-field ion interaction         -0.829706 eV  (added to PSCEN)


 Broyden mixing:
  rms(total) = 0.35200E+01    rms(broyden)= 0.35199E+01
  rms(prec ) = 0.40428E+01
  weight for this iteration     100.00

 eigenvalues of (default mixing * dielectric matrix)
  average eigenvalue GAMMA=   0.3381
  1.1674  0.6857  0.6857  0.2795  0.2795  0.0458  0.1401  0.1401  0.1029  0.1029
  0.0890

 Free energy of the ion-electron system (eV)
  ---------------------------------------------------
  alpha Z        PSCENC =      1362.91909954
  Ewald energy   TEWEN  =    188256.51722113
  -Hartree energ DENC   =   -239544.39393160
  -exchange      EXHF   =         0.00000000
  -V(xc)+E(xc)   XCENC  =      1040.10496886
  PAW double counting   =     55509.41725082   -57790.82031317
  entropy T*S    EENTRO =         0.00000000
  eigenvalues    EBANDS =     -1294.36840887
  atomic energy  EATOM  =     52053.40048729
  Solvation  Ediel_sol  =         0.00000000
  ---------------------------------------------------
  free energy    TOTEN  =      -407.22362601 eV

  energy without entropy =     -407.22362601  energy(sigma->0) =     -407.22362601


--------------------------------------------------------------------------------------------------------




--------------------------------------- Iteration      1(  17)  ---------------------------------------


    POTLOK:  cpu time    0.2440: real time    0.2478
    SETDIJ:  cpu time    0.0210: real time    0.0209
    EDDIAG:  cpu time    3.8854: real time    3.9314
  RMM-DIIS:  cpu time   16.2335: real time   16.5114
    ORTHCH:  cpu time    0.6419: real time    0.6495
 BZINTS: Fermi energy:  0.050762;570.000000 electrons
         Band energy:***********;  BLOECHL correction: -0.002738
       DOS:  cpu time    0.0360: real time    0.0366
    CHARGE:  cpu time    0.7709: real time    0.7793
    MIXING:  cpu time    0.0070: real time    0.0060
    --------------------------------------------
      LOOP:  cpu time   21.8397: real time   22.1829

 eigenvalue-minimisations  :  8571
 total energy-change (2. order) :-0.3342386E+00  (-0.5320869E+00)
 number of electron     570.0000025 magnetization     116.0872771
 augmentation part      324.3237955 magnetization      86.7248106

 DIPCOR: dipole corrections for dipol
 direction  3 min pos   230,
 dipolmoment           0.000000      0.000000      0.358244 electrons x Angstroem
 Tr[quadrupol]     -9626.678621

 energy correction for charged system         0.000000 eV
 dipol+quadrupol energy correction           -0.006170 eV
 added-field ion interaction        -11.061255 eV  (added to PSCEN)


 Broyden mixing:
  rms(total) = 0.28156E+01    rms(broyden)= 0.28155E+01
  rms(prec ) = 0.32599E+01
  weight for this iteration     100.00

 eigenvalues of (default mixing * dielectric matrix)
  average eigenvalue GAMMA=   0.3467
  1.2099  0.7657  0.7657  0.3316  0.3316  0.1567  0.1567  0.0458  0.1040  0.1040
  0.0946  0.0946

 Free energy of the ion-electron system (eV)
  ---------------------------------------------------
  alpha Z        PSCENC =      1352.68254160
  Ewald energy   TEWEN  =    188256.51722113
  -Hartree energ DENC   =   -239558.30998811
  -exchange      EXHF   =         0.00000000
  -V(xc)+E(xc)   XCENC  =      1039.92360541
  PAW double counting   =     55688.21163458   -57973.46455900
  entropy T*S    EENTRO =         0.00000000
  eigenvalues    EBANDS =     -1266.51880752
  atomic energy  EATOM  =     52053.40048729
  Solvation  Ediel_sol  =         0.00000000
  ---------------------------------------------------
  free energy    TOTEN  =      -407.55786462 eV

  energy without entropy =     -407.55786462  energy(sigma->0) =     -407.55786462


--------------------------------------------------------------------------------------------------------




--------------------------------------- Iteration      1(  18)  ---------------------------------------


    POTLOK:  cpu time    0.2440: real time    0.2483
    SETDIJ:  cpu time    0.0190: real time    0.0186
[...]
   0.579E+02 -.554E+02 0.925E+03   -.578E+02 0.555E+02 -.924E+03   -.124E+00 0.144E-01 -.469E+00   0.856E-03 -.410E-04 0.308E-01
   -.719E+01 -.896E+00 0.273E+04   0.700E+01 0.729E+00 -.273E+04   0.206E+00 0.209E+00 -.656E+00   -.752E-03 0.223E-03 0.926E-02
   -.524E+01 -.714E+01 -.275E+04   0.524E+01 0.722E+01 0.275E+04   -.871E-02 -.948E-01 0.734E+00   -.655E-03 -.968E-03 0.102E-01
   -.104E+03 0.195E+02 0.948E+03   0.104E+03 -.194E+02 -.948E+03   -.211E+00 -.683E-01 -.371E+00   -.702E-03 -.980E-04 0.313E-01
   0.174E+01 -.344E+02 -.952E+03   -.179E+01 0.344E+02 0.952E+03   0.373E-01 0.961E-02 0.245E+00   -.328E-03 0.157E-04 0.313E-01
   -.681E+02 -.295E+02 0.274E+04   0.685E+02 0.296E+02 -.274E+04   -.337E+00 -.169E+00 -.170E-01   -.487E-03 0.116E-03 0.913E-02
   -.733E+02 -.556E+02 -.273E+04   0.734E+02 0.560E+02 0.273E+04   -.903E-01 -.444E+00 -.121E+00   0.304E-03 -.105E-03 0.102E-01
   0.153E+03 -.180E+02 -.946E+03   -.154E+03 0.181E+02 0.946E+03   0.505E+00 -.385E-01 0.201E+00   0.713E-04 -.498E-03 0.317E-01
   0.154E+02 -.180E+02 0.895E+03   -.154E+02 0.180E+02 -.895E+03   -.237E-01 0.214E-01 -.285E+00   0.663E-03 -.136E-03 0.315E-01
   0.139E+02 -.932E+01 0.961E+03   -.140E+02 0.934E+01 -.961E+03   0.113E+00 0.720E-01 -.382E+00   -.502E-03 0.988E-05 0.308E-01
   -.343E+02 -.774E+01 0.988E+03   0.344E+02 0.781E+01 -.988E+03   -.548E-01 -.413E-01 -.376E+00   -.266E-04 0.254E-03 0.308E-01
   -.715E+02 0.823E+02 0.910E+03   0.716E+02 -.824E+02 -.910E+03   -.899E-01 0.149E+00 -.924E-01   -.234E-03 0.319E-03 0.313E-01
   0.112E+03 -.660E+02 0.102E+04   -.112E+03 0.662E+02 -.102E+04   0.250E+00 -.179E+00 0.331E-01   0.209E-03 -.375E-03 0.309E-01
   -.477E+01 0.947E+02 -.757E+03   0.474E+01 -.953E+02 0.756E+03   0.600E-01 0.585E+00 0.356E+00   -.252E-03 0.201E-03 0.252E-01
   0.349E+01 0.763E-01 0.217E+04   -.338E+01 0.164E+00 -.216E+04   -.159E-01 -.131E+00 -.309E+01   0.283E-03 -.170E-03 0.655E-02
   -.519E+01 -.406E+01 -.218E+04   0.528E+01 0.407E+01 0.218E+04   -.111E+00 -.158E-01 0.189E+01   -.109E-03 0.394E-03 0.860E-02
   0.156E+02 -.322E+02 -.722E+03   -.155E+02 0.322E+02 0.722E+03   -.135E+00 0.117E-01 0.273E-01   0.630E-03 0.987E-04 0.253E-01
   0.872E+02 -.372E+02 0.808E+03   -.877E+02 0.374E+02 -.808E+03   0.508E+00 -.158E+00 -.755E-01   0.604E-03 0.271E-04 0.246E-01
   0.416E+01 0.601E+02 0.221E+04   -.434E+01 -.603E+02 -.220E+04   -.488E-03 0.308E+00 -.272E+01   -.441E-03 0.522E-03 0.690E-02
   0.216E+02 0.756E+02 -.222E+04   -.217E+02 -.759E+02 0.222E+04   0.117E+00 0.335E+00 0.265E+01   -.148E-04 -.746E-04 0.687E-02
   -.437E+02 0.348E+02 0.795E+03   0.438E+02 -.349E+02 -.795E+03   -.227E+00 0.104E+00 -.100E+00   -.725E-04 -.692E-04 0.247E-01
   -.683E+02 -.636E+02 -.790E+03   0.684E+02 0.640E+02 0.790E+03   -.937E-01 -.385E+00 0.856E-01   0.233E-03 -.997E-04 0.253E-01
   -.122E+03 -.793E+01 0.216E+04   0.123E+03 0.796E+01 -.216E+04   -.713E+00 -.181E+00 -.256E+01   -.652E-03 0.174E-03 0.707E-02
   -.111E+03 -.132E+02 -.222E+04   0.112E+03 0.133E+02 0.222E+04   -.104E+01 -.710E-01 0.273E+01   0.450E-03 -.218E-03 0.714E-02
   0.830E+02 -.537E+02 -.741E+03   -.834E+02 0.539E+02 0.741E+03   0.434E+00 -.192E+00 -.160E-01   0.331E-03 -.241E-03 0.252E-01
   0.816E+02 -.377E+02 0.217E+04   -.825E+02 0.378E+02 -.216E+04   0.609E+00 -.254E+00 -.215E+01   0.924E-03 -.290E-03 0.747E-02
   0.397E+02 -.643E+02 -.216E+04   -.405E+02 0.647E+02 0.216E+04   0.833E+00 -.321E+00 0.266E+01   -.189E-03 0.497E-03 0.758E-02
   -.708E+01 -.101E+02 0.786E+03   0.681E+01 0.100E+02 -.787E+03   0.245E+00 0.179E+00 0.144E+00   0.415E-03 -.154E-04 0.251E-01
   0.561E+02 0.964E+01 0.731E+03   -.561E+02 -.981E+01 -.731E+03   -.455E-01 0.314E-01 -.184E+00   -.549E-03 0.935E-04 0.249E-01
   -.125E+03 0.416E+02 -.772E+03   0.125E+03 -.417E+02 0.771E+03   -.504E+00 0.187E+00 0.137E+00   0.144E-03 0.461E-03 0.251E-01
   -.541E+01 0.378E+02 -.797E+03   0.553E+01 -.379E+02 0.797E+03   -.162E+00 0.172E-01 -.317E-01   0.908E-04 -.110E-03 0.253E-01
   -.389E+02 0.153E+02 0.215E+04   0.394E+02 -.155E+02 -.215E+04   -.299E+00 0.641E-01 -.189E+01   -.269E-03 0.438E-03 0.778E-02
   -.573E+02 -.111E+01 -.216E+04   0.578E+02 0.107E+01 0.216E+04   -.484E+00 0.540E-01 0.269E+01   0.647E-03 -.535E-04 0.714E-02
   -.111E+03 0.182E+02 0.720E+03   0.111E+03 -.187E+02 -.720E+03   -.537E+00 0.417E+00 -.331E+00   -.159E-03 0.290E-03 0.250E-01
   0.286E+02 -.413E+02 0.216E+04   -.288E+02 0.420E+02 -.215E+04   -.127E-01 -.614E+00 -.249E+01   0.509E-03 -.357E-03 0.749E-02
   0.554E+02 -.148E+02 -.216E+04   -.556E+02 0.154E+02 0.216E+04   0.224E+00 -.560E+00 0.232E+01   -.154E-03 -.422E-04 0.746E-02
   0.698E+02 -.742E+02 0.220E+04   -.701E+02 0.747E+02 -.219E+04   0.486E+00 -.493E+00 -.224E+01   0.173E-03 -.587E-03 0.714E-02
   0.612E+02 -.684E+02 -.221E+04   -.616E+02 0.690E+02 0.221E+04   0.428E+00 -.567E+00 0.208E+01   -.741E-03 -.200E-03 0.791E-02
   0.795E+02 -.375E+02 0.764E+03   -.796E+02 0.377E+02 -.764E+03   0.128E+00 -.263E+00 -.545E-01   0.107E-04 -.520E-03 0.246E-01
   0.491E+02 -.319E+02 0.221E+04   -.499E+02 0.319E+02 -.221E+04   0.576E+00 -.196E-01 -.247E+01   0.457E-03 -.261E-03 0.688E-02
   0.271E+02 -.145E+02 -.221E+04   -.277E+02 0.147E+02 0.221E+04   0.677E+00 -.151E+00 0.218E+01   -.164E-03 0.158E-03 0.815E-02
   -.370E+02 0.254E+02 0.220E+04   0.377E+02 -.254E+02 -.220E+04   -.678E+00 0.948E-02 -.194E+01   -.244E-03 0.239E-03 0.757E-02
   -.387E+02 0.355E+02 -.219E+04   0.392E+02 -.356E+02 0.219E+04   -.491E+00 0.119E+00 0.202E+01   0.796E-03 0.532E-03 0.788E-02
   -.272E+02 0.664E+02 0.216E+04   0.269E+02 -.670E+02 -.216E+04   0.252E+00 0.535E+00 -.197E+01   -.747E-04 0.195E-03 0.756E-02
   -.120E+02 0.646E+02 -.219E+04   0.117E+02 -.652E+02 0.219E+04   0.259E+00 0.644E+00 0.271E+01   -.436E-03 -.552E-04 0.687E-02
   0.121E+02 0.114E+02 0.216E+04   -.120E+02 -.118E+02 -.216E+04   -.888E-01 0.425E+00 -.215E+01   -.134E-03 -.171E-03 0.721E-02
   0.277E+02 0.169E+02 -.219E+04   -.273E+02 -.173E+02 0.219E+04   -.482E+00 0.456E+00 0.208E+01   -.210E-03 -.379E-03 0.759E-02
   0.151E+01 0.135E+02 0.741E+03   -.145E+01 -.133E+02 -.741E+03   -.482E-01 -.194E+00 -.559E-02   0.558E-04 -.320E-03 0.249E-01
 -----------------------------------------------------------------------------------------------
   0.240E+00 -.349E-01 -.167E+01   -.624E-12 0.316E-12 0.682E-12   -.237E+00 0.408E-01 0.479E+00   -.502E-03 -.251E-03 0.118E+01
 
 
 POSITION                                       TOTAL-FORCE (eV/Angst)
 -----------------------------------------------------------------------------------
     -0.00769      0.01375      6.15289        -0.003666     -0.013202     -0.022905
     -2.53511      8.73667      6.16858         0.023321      0.013576     -0.013916
      5.04079      0.03318      6.19045         0.009524     -0.003683      0.016342
      8.82804      2.19742      6.16962         0.033125     -0.037480      0.002814
      1.26885      2.18757      6.15319         0.011653     -0.008076      0.002924
      2.54422      1.44455      2.05273        -0.026859     -0.133368      0.398339
      2.54915      1.44470      8.15556        -0.007175      0.018459      0.006545
      6.30422      2.19276      6.20916        -0.038056     -0.000779      0.011064
      3.80181      0.73423      4.10363         0.070853     -0.017664     -0.043516
      7.56604      1.45101      2.09205         0.003891      0.027062      0.273055
      7.57257      1.43647      8.19821        -0.018979      0.012820      0.014789
      6.31884      0.74108      4.13711         0.009681      0.037468     -0.019602
     -2.51060      4.36475      6.19493        -0.029405      0.007103     -0.014996
      5.04518      4.37586      6.16763         0.006072     -0.019637     -0.016687
      3.80277      3.61435      2.06282         0.045811      0.094473      0.289983
      3.79658      3.65395      8.18942         0.007734      0.011338      0.019461
      2.55462      2.91604      4.10409        -0.054403      0.062176     -0.055158
      6.30075      3.62795      2.09664         0.016394      0.042375      0.319917
      6.31543      3.64282      8.16852        -0.010749     -0.011642      0.052480
      7.58585      2.93043      4.13698         0.013794     -0.051181     -0.197155
      6.30250      6.55741      6.17991        -0.013476     -0.004461     -0.007471
     -2.53418      5.82300      2.07647         0.064987     -0.026740      0.413635
     -2.49733      5.83471      8.18216         0.022474     -0.012985      0.038095
      3.81401      6.57068      6.19237         0.023823      0.005282      0.010306
      1.26871      5.10416      4.14860        -0.047547     -0.022411     -0.027558
      6.29450      5.11374      4.13148         0.016344      0.089412     -0.254665
     -2.53139      7.30304      4.11316        -0.001343      0.032815     -0.186724
      0.00464      7.28975      4.16047        -0.016147      0.031693     -0.056487
      5.08583      7.28318      4.13084        -0.001399     -0.020669     -0.073327
      7.55365      0.01355      6.21694         0.035570     -0.005348      0.011348
      0.00095      1.48112      2.00000         0.097657      0.108484      0.133917
     -0.00288      1.47839      8.15788        -0.013170     -0.000600      0.006888
      3.76532      2.15723      6.18681        -0.026319     -0.037077     -0.034270
      1.31001      0.72945      4.13000         0.022254      0.072926     -0.269621
      5.08151      1.48100      2.04895        -0.181014      0.128388      0.003755
      5.07821      1.53649      8.25917         0.018862     -0.035459      0.006454
      8.82791      0.75063      4.10326        -0.049709     -0.023634     -0.038614
     -0.02775      4.35064      6.24404        -0.020768      0.000301     -0.006209
     -1.34500      3.63090      2.07578         0.206634     -0.142207     -0.016414
     -1.32193      3.63872      8.28391         0.004612     -0.002532     -0.019848
      2.54724      4.38324      6.17159        -0.007771      0.009066      0.010247
      1.32920      3.63133      2.06605        -0.301147     -0.093807      0.011102
      1.29534      3.61337      8.25348        -0.011755      0.026831      0.009513
      0.02215      2.94990      4.13311        -0.023002      0.088320     -0.079729
      5.09719      2.93887      4.14370        -0.077504     -0.135342     -0.380254
     -1.31655      6.60386      6.19682        -0.014302     -0.005715      0.001872
      1.24842      6.56886      6.20641        -0.045983     -0.026289      0.044608
      0.00782      5.79603      2.11654         0.187362     -0.058081     -0.082874
      0.00791      5.80465      8.31467        -0.005488      0.005398      0.021848
     -1.29718      5.12819      4.17191         0.056536     -0.038094     -0.082222
      2.54188      5.84536      2.06287        -0.156865      0.091919     -0.148205
      2.54276      5.87760      8.28687         0.034687     -0.006332      0.008188
      5.06524      5.76239      2.05753         0.188267      0.003652      0.095608
      5.09020      5.78246      8.19660         0.009399      0.017108     -0.000267
      3.79261      5.11061      4.12660         0.022072     -0.020653     -0.119003
     -3.78540      7.99724      2.01619        -0.175862     -0.019898      0.079893
     -3.76611      8.00898      8.18128         0.015476      0.011998      0.010091
     -1.25221      8.01099      2.09289         0.051343      0.027024      0.147413
     -1.21629      8.05131      8.21742         0.001438     -0.007676     -0.021510
      1.24224      8.03556      2.10937        -0.054967     -0.103897     -0.106443
      1.23741      8.02988      8.33601         0.015752      0.011340      0.018933
      3.80728      7.99919      2.05573         0.091433     -0.026131     -0.007361
      3.84394      8.00463      8.25152        -0.018507      0.016340     -0.025707
      2.54183      7.29082      4.15634         0.014504      0.067601     -0.062710
 -----------------------------------------------------------------------------------
    total drift:                                0.002745      0.005652     -0.010010


--------------------------------------------------------------------------------------------------------



  FREE ENERGIE OF THE ION-ELECTRON SYSTEM (eV)
  ---------------------------------------------------
  free  energy   TOTEN  =      -423.94821859 eV

  energy  without entropy=     -423.94821859  energy(sigma->0) =     -423.94821859
 


--------------------------------------------------------------------------------------------------------


    POTLOK:  cpu time    0.3090: real time    0.3175


--------------------------------------------------------------------------------------------------------


     LOOP+:  cpu time 1936.4056: real time 1958.6565
    4ORBIT:  cpu time    0.0000: real time    0.0000
 


 total charge     
 
# of ion       s       p       d       tot
------------------------------------------
    1        0.503   0.504   8.318   9.326
    2        0.508   0.509   8.338   9.356
    3        0.505   0.511   8.312   9.328
    4        0.506   0.506   8.324   9.336
    5        0.510   0.515   8.328   9.353
    6        0.504   0.395   8.311   9.210
    7        0.513   0.416   8.311   9.240
    8        0.502   0.499   8.328   9.330
    9        0.498   0.495   8.318   9.311
   10        0.509   0.404   8.320   9.233
   11        0.516   0.406   8.317   9.239
   12        0.501   0.500   8.318   9.319
   13        0.501   0.500   8.321   9.322
   14        0.507   0.508   8.327   9.341
   15        0.509   0.402   8.314   9.225
   16        0.513   0.407   8.318   9.238
   17        0.507   0.507   8.318   9.333
   18        0.507   0.402   8.324   9.233
   19        0.508   0.400   8.336   9.244
   20        0.502   0.499   8.327   9.328
   21        0.498   0.498   8.322   9.319
   22        0.506   0.397   8.309   9.212
   23        0.512   0.413   8.314   9.239
   24        0.509   0.514   8.317   9.340
   25        0.514   0.523   8.312   9.349
   26        0.500   0.494   8.325   9.320
   27        0.505   0.498   8.326   9.329
   28        0.504   0.507   8.316   9.328
   29        0.503   0.503   8.316   9.322
   30        0.469   0.492   6.189   7.149
   31        0.464   0.378   6.161   7.002
   32        0.469   0.399   6.163   7.031
   33        0.470   0.499   6.177   7.146
   34        0.467   0.488   6.162   7.117
   35        0.467   0.391   6.136   6.994
   36        0.468   0.394   6.137   6.999
   37        0.468   0.489   6.192   7.149
   38        0.474   0.505   6.205   7.184
   39        0.467   0.391   6.148   7.006
   40        0.465   0.387   6.149   7.000
   41        0.470   0.494   6.195   7.159
   42        0.466   0.386   6.163   7.015
   43        0.466   0.389   6.162   7.018
   44        0.470   0.496   6.197   7.163
   45        0.468   0.494   6.174   7.135
   46        0.475   0.500   6.198   7.173
   47        0.470   0.497   6.191   7.158
   48        0.467   0.394   6.165   7.026
   49        0.470   0.396   6.163   7.029
   50        0.471   0.495   6.189   7.155
   51        0.474   0.396   6.182   7.053
   52        0.469   0.391   6.164   7.024
   53        0.466   0.395   6.150   7.011
   54        0.470   0.401   6.141   7.012
   55        0.474   0.496   6.205   7.175
   56        0.464   0.380   6.149   6.993
   57        0.467   0.396   6.158   7.021
   58        0.467   0.390   6.155   7.012
   59        0.473   0.399   6.170   7.042
   60        0.472   0.400   6.174   7.047
   61        0.469   0.389   6.164   7.023
   62        0.470   0.393   6.168   7.032
   63        0.470   0.393   6.168   7.031
   64        0.474   0.500   6.206   7.180
--------------------------------------------------
tot         31.099  28.707 457.255 517.062
 


 magnetization (x)
 
# of ion       s       p       d       tot
------------------------------------------
    1       -0.022  -0.053   0.740   0.665
    2       -0.021  -0.044   0.686   0.621
    3       -0.025  -0.059   0.771   0.686
    4       -0.022  -0.047   0.726   0.656
    5       -0.025  -0.053   0.722   0.644
    6       -0.032  -0.046   0.698   0.620
    7       -0.031  -0.048   0.733   0.653
    8       -0.020  -0.040   0.696   0.637
    9       -0.022  -0.047   0.737   0.668
   10       -0.030  -0.043   0.684   0.611
   11       -0.034  -0.038   0.706   0.634
   12       -0.022  -0.048   0.732   0.662
   13       -0.018  -0.040   0.720   0.663
   14       -0.020  -0.041   0.717   0.656
   15       -0.029  -0.042   0.713   0.642
   16       -0.030  -0.040   0.723   0.653
   17       -0.025  -0.050   0.757   0.682
   18       -0.021  -0.036   0.674   0.617
   19       -0.020  -0.029   0.630   0.582
   20       -0.020  -0.043   0.705   0.641
   21       -0.016  -0.040   0.721   0.665
   22       -0.031  -0.043   0.719   0.645
   23       -0.032  -0.045   0.722   0.645
   24       -0.027  -0.060   0.751   0.663
   25       -0.031  -0.069   0.775   0.675
   26       -0.019  -0.036   0.713   0.657
   27       -0.022  -0.042   0.713   0.649
   28       -0.024  -0.058   0.750   0.667
   29       -0.026  -0.058   0.742   0.658
   30       -0.003  -0.026   2.691   2.662
   31       -0.006  -0.026   2.746   2.713
   32        0.001  -0.022   2.749   2.729
   33        0.003  -0.017   2.753   2.739
   34       -0.001  -0.022   2.777   2.754
   35        0.006  -0.015   2.829   2.820
   36        0.007  -0.014   2.843   2.836
   37       -0.006  -0.029   2.677   2.642
   38       -0.011  -0.043   2.642   2.588
   39       -0.000  -0.022   2.789   2.766
   40        0.003  -0.019   2.794   2.778
   41       -0.004  -0.026   2.689   2.659
   42       -0.001  -0.020   2.737   2.716
   43       -0.003  -0.025   2.754   2.725
   44       -0.009  -0.038   2.665   2.618
   45        0.002  -0.018   2.746   2.731
   46       -0.003  -0.025   2.681   2.652
   47       -0.010  -0.041   2.697   2.647
   48       -0.005  -0.029   2.733   2.699
   49       -0.008  -0.034   2.750   2.707
   50       -0.003  -0.026   2.694   2.665
   51       -0.010  -0.028   2.681   2.642
   52       -0.006  -0.027   2.749   2.716
   53        0.004  -0.020   2.785   2.769
   54        0.006  -0.017   2.820   2.809
   55       -0.004  -0.021   2.665   2.640
   56        0.001  -0.016   2.784   2.769
   57        0.003  -0.018   2.771   2.756
   58        0.004  -0.014   2.772   2.761
   59       -0.001  -0.018   2.745   2.726
   60       -0.005  -0.026   2.707   2.675
   61       -0.005  -0.027   2.756   2.724
   62       -0.006  -0.028   2.722   2.688
   63       -0.004  -0.026   2.737   2.707
   64       -0.009  -0.038   2.637   2.590
--------------------------------------------------
tot         -0.800  -2.204 116.641 113.637
 
 BZINTS: Fermi energy: -0.047480;570.000000 electrons
         Band energy:***********;  BLOECHL correction: -0.008258

 total amount of memory used by VASP MPI-rank0   114063. kBytes
=======================================================================

   base      :      30000. kBytes
   nonlr-proj:      13042. kBytes
   fftplans  :       6403. kBytes
   grid      :      16455. kBytes
   one-center:         93. kBytes
   wavefun   :      48070. kBytes
 
  
  
 General timing and accounting informations for this job:
 ========================================================
  
                  Total CPU time used (sec):     2045.071
                            User time (sec):     1975.295
                          System time (sec):       69.776
                         Elapsed time (sec):     2079.233
  
                   Maximum memory used (kb):      164696.
                   Average memory used (kb):           0.
  
                          Minor page faults:       429089
                          Major page faults:            0
                 Voluntary context switches:         7958
