Automatically generated mesh
     106
Reciprocal lattice
    0.00000000000000    0.00000000000000    0.00000000000000             1
    0.25000000000000    0.00000000000000    0.00000000000000             2
    0.50000000000000    0.00000000000000    0.00000000000000             1
    0.00000000000000    0.25000000000000    0.00000000000000             2
    0.25000000000000    0.25000000000000    0.00000000000000             2
    0.50000000000000    0.25000000000000    0.00000000000000             2
   -0.25000000000000    0.25000000000000    0.00000000000000             2
    0.00000000000000    0.50000000000000    0.00000000000000             1
    0.25000000000000    0.50000000000000    0.00000000000000             2
    0.50000000000000    0.50000000000000    0.00000000000000             1
    0.00000000000000    0.00000000000000    0.07692307692308             2
    0.25000000000000    0.00000000000000    0.07692307692308             2
    0.50000000000000    0.00000000000000    0.07692307692308             2
   -0.25000000000000    0.00000000000000    0.07692307692308             2
    0.00000000000000    0.25000000000000    0.07692307692308             2
    0.25000000000000    0.25000000000000    0.07692307692308             2
    0.50000000000000    0.25000000000000    0.07692307692308             2
   -0.25000000000000    0.25000000000000    0.07692307692308             2
    0.00000000000000    0.50000000000000    0.07692307692308             2
    0.25000000000000    0.50000000000000    0.07692307692308             2
    0.50000000000000    0.50000000000000    0.07692307692308             2
   -0.25000000000000    0.50000000000000    0.07692307692308             2
    0.00000000000000   -0.25000000000000    0.07692307692308             2
    0.25000000000000   -0.25000000000000    0.07692307692308             2
    0.50000000000000   -0.25000000000000    0.07692307692308             2
   -0.25000000000000   -0.25000000000000    0.07692307692308             2
    0.00000000000000    0.00000000000000    0.15384615384615             2
    0.25000000000000    0.00000000000000    0.15384615384615             2
    0.50000000000000    0.00000000000000    0.15384615384615             2
   -0.25000000000000    0.00000000000000    0.15384615384615             2
    0.00000000000000    0.25000000000000    0.15384615384615             2
    0.25000000000000    0.25000000000000    0.15384615384615             2
    0.50000000000000    0.25000000000000    0.15384615384615             2
   -0.25000000000000    0.25000000000000    0.15384615384615             2
    0.00000000000000    0.50000000000000    0.15384615384615             2
    0.25000000000000    0.50000000000000    0.15384615384615             2
    0.50000000000000    0.50000000000000    0.15384615384615             2
   -0.25000000000000    0.50000000000000    0.15384615384615             2
    0.00000000000000   -0.25000000000000    0.15384615384615             2
    0.25000000000000   -0.25000000000000    0.15384615384615             2
    0.50000000000000   -0.25000000000000    0.15384615384615             2
   -0.25000000000000   -0.25000000000000    0.15384615384615             2
    0.00000000000000    0.00000000000000    0.23076923076923             2
    0.25000000000000    0.00000000000000    0.23076923076923             2
    0.50000000000000    0.00000000000000    0.23076923076923             2
   -0.25000000000000    0.00000000000000    0.23076923076923             2
    0.00000000000000    0.25000000000000    0.23076923076923             2
    0.25000000000000    0.25000000000000    0.23076923076923             2
    0.50000000000000    0.25000000000000    0.23076923076923             2
   -0.25000000000000    0.25000000000000    0.23076923076923             2
    0.00000000000000    0.50000000000000    0.23076923076923             2
    0.25000000000000    0.50000000000000    0.23076923076923             2
    0.50000000000000    0.50000000000000    0.23076923076923             2
   -0.25000000000000    0.50000000000000    0.23076923076923             2
    0.00000000000000   -0.25000000000000    0.23076923076923             2
    0.25000000000000   -0.25000000000000    0.23076923076923             2
    0.50000000000000   -0.25000000000000    0.23076923076923             2
   -0.25000000000000   -0.25000000000000    0.23076923076923             2
    0.00000000000000    0.00000000000000    0.30769230769231             2
    0.25000000000000    0.00000000000000    0.30769230769231             2
    0.50000000000000    0.00000000000000    0.30769230769231             2
   -0.25000000000000    0.00000000000000    0.30769230769231             2
    0.00000000000000    0.25000000000000    0.30769230769231             2
    0.25000000000000    0.25000000000000    0.30769230769231             2
    0.50000000000000    0.25000000000000    0.30769230769231             2
   -0.25000000000000    0.25000000000000    0.30769230769231             2
    0.00000000000000    0.50000000000000    0.30769230769231             2
    0.25000000000000    0.50000000000000    0.30769230769231             2
    0.50000000000000    0.50000000000000    0.30769230769231             2
   -0.25000000000000    0.50000000000000    0.30769230769231             2
    0.00000000000000   -0.25000000000000    0.30769230769231             2
    0.25000000000000   -0.25000000000000    0.30769230769231             2
    0.50000000000000   -0.25000000000000    0.30769230769231             2
   -0.25000000000000   -0.25000000000000    0.30769230769231             2
    0.00000000000000    0.00000000000000    0.38461538461539             2
    0.25000000000000    0.00000000000000    0.38461538461539             2
    0.50000000000000    0.00000000000000    0.38461538461539             2
   -0.25000000000000    0.00000000000000    0.38461538461539             2
    0.00000000000000    0.25000000000000    0.38461538461539             2
    0.25000000000000    0.25000000000000    0.38461538461539             2
    0.50000000000000    0.25000000000000    0.38461538461539             2
   -0.25000000000000    0.25000000000000    0.38461538461539             2
    0.00000000000000    0.50000000000000    0.38461538461539             2
    0.25000000000000    0.50000000000000    0.38461538461539             2
    0.50000000000000    0.50000000000000    0.38461538461539             2
   -0.25000000000000    0.50000000000000    0.38461538461539             2
    0.00000000000000   -0.25000000000000    0.38461538461539             2
    0.25000000000000   -0.25000000000000    0.38461538461539             2
    0.50000000000000   -0.25000000000000    0.38461538461539             2
   -0.25000000000000   -0.25000000000000    0.38461538461539             2
    0.00000000000000    0.00000000000000    0.46153846153846             2
    0.25000000000000    0.00000000000000    0.46153846153846             2
    0.50000000000000    0.00000000000000    0.46153846153846             2
   -0.25000000000000    0.00000000000000    0.46153846153846             2
    0.00000000000000    0.25000000000000    0.46153846153846             2
    0.25000000000000    0.25000000000000    0.46153846153846             2
    0.50000000000000    0.25000000000000    0.46153846153846             2
   -0.25000000000000    0.25000000000000    0.46153846153846             2
    0.00000000000000    0.50000000000000    0.46153846153846             2
    0.25000000000000    0.50000000000000    0.46153846153846             2
    0.50000000000000    0.50000000000000    0.46153846153846             2
   -0.25000000000000    0.50000000000000    0.46153846153846             2
    0.00000000000000   -0.25000000000000    0.46153846153846             2
    0.25000000000000   -0.25000000000000    0.46153846153846             2
    0.50000000000000   -0.25000000000000    0.46153846153846             2
   -0.25000000000000   -0.25000000000000    0.46153846153846             2
Tetrahedra
       624    0.00080128205128
         2         2         4         5        15
         2         1         2         4        15
         2         1         2        11        15
         2         2         5        15        16
         2         2        12        15        16
         2         2        11        12        15
         2         3         5         6        16
         2         2         3         5        16
         2         2         3        12        16
         2         3         6        16        17
         2         3        13        16        17
         2         3        12        13        16
         2         2         6         7        17
         2         2         3         6        17
         2         2         3        13        17
         2         2         7        17        18
         2         2        14        17        18
         2         2        13        14        17
         2         1         4         7        18
         2         1         2         7        18
         2         1         2        14        18
         2         1         4        15        18
         2         1        11        15        18
         2         1        11        14        18
         2         5         8         9        19
         2         4         5         8        19
         2         4         5        15        19
         2         5         9        19        20
         2         5        16        19        20
         2         5        15        16        19
         2         6         9        10        20
         2         5         6         9        20
         2         5         6        16        20
         2         6        10        20        21
         2         6        17        20        21
         2         6        16        17        20
         2         7         9        10        21
         2         6         7        10        21
         2         6         7        17        21
         2         7         9        21        22
         2         7        18        21        22
         2         7        17        18        21
         2         4         8         9        22
         2         4         7         9        22
         2         4         7        18        22
         2         4         8        19        22
         2         4        15        19        22
         2         4        15        18        22
         2         4         7         9        23
         2         4         8         9        23
         2         8         9        19        23
         2         7         9        23        24
         2         9        20        23        24
         2         9        19        20        23
         2         6         7        10        24
         2         7         9        10        24
         2         9        10        20        24
         2         6        10        24        25
         2        10        21        24        25
         2        10        20        21        24
         2         5         6         9        25
         2         6         9        10        25
         2         9        10        21        25
         2         5         9        25        26
         2         9        22        25        26
         2         9        21        22        25
         2         4         5         8        26
         2         5         8         9        26
         2         8         9        22        26
         2         4         8        23        26
         2         8        19        23        26
         2         8        19        22        26
         2         1         2         7        11
         2         1         4         7        11
         2         4         7        11        23
         2         2         7        11        12
         2         7        11        12        24
         2         7        11        23        24
         2         2         3         6        12
         2         2         6         7        12
         2         6         7        12        24
         2         3         6        12        13
         2         6        12        13        25
         2         6        12        24        25
         2         2         3         5        13
         2         3         5         6        13
         2         5         6        13        25
         2         2         5        13        14
         2         5        13        14        26
         2         5        13        25        26
         2         1         2         4        14
         2         2         4         5        14
         2         4         5        14        26
         2         1         4        11        14
         2         4        11        14        23
         2         4        14        23        26
         2        12        15        16        31
         2        11        12        15        31
         2        11        12        27        31
         2        12        16        31        32
         2        12        28        31        32
         2        12        27        28        31
         2        13        16        17        32
         2        12        13        16        32
         2        12        13        28        32
         2        13        17        32        33
         2        13        29        32        33
         2        13        28        29        32
         2        14        17        18        33
         2        13        14        17        33
         2        13        14        29        33
         2        14        18        33        34
         2        14        30        33        34
         2        14        29        30        33
         2        11        15        18        34
         2        11        14        18        34
         2        11        14        30        34
         2        11        15        31        34
         2        11        27        31        34
         2        11        27        30        34
         2        16        19        20        35
         2        15        16        19        35
         2        15        16        31        35
         2        16        20        35        36
         2        16        32        35        36
         2        16        31        32        35
         2        17        20        21        36
         2        16        17        20        36
         2        16        17        32        36
         2        17        21        36        37
         2        17        33        36        37
         2        17        32        33        36
         2        18        21        22        37
         2        17        18        21        37
         2        17        18        33        37
         2        18        22        37        38
         2        18        34        37        38
         2        18        33        34        37
         2        15        19        22        38
         2        15        18        22        38
         2        15        18        34        38
         2        15        19        35        38
         2        15        31        35        38
         2        15        31        34        38
         2        20        23        24        39
         2        19        20        23        39
         2        19        20        35        39
         2        20        24        39        40
         2        20        36        39        40
         2        20        35        36        39
         2        21        24        25        40
         2        20        21        24        40
         2        20        21        36        40
         2        21        25        40        41
         2        21        37        40        41
         2        21        36        37        40
         2        22        25        26        41
         2        21        22        25        41
         2        21        22        37        41
         2        22        26        41        42
         2        22        38        41        42
         2        22        37        38        41
         2        19        23        26        42
         2        19        22        26        42
         2        19        22        38        42
         2        19        23        39        42
         2        19        35        39        42
         2        19        35        38        42
         2        11        12        24        27
         2        11        23        24        27
         2        23        24        27        39
         2        12        24        27        28
         2        24        27        28        40
         2        24        27        39        40
         2        12        13        25        28
         2        12        24        25        28
         2        24        25        28        40
         2        13        25        28        29
         2        25        28        29        41
         2        25        28        40        41
         2        13        14        26        29
         2        13        25        26        29
         2        25        26        29        41
         2        14        26        29        30
         2        26        29        30        42
         2        26        29        41        42
         2        11        14        23        30
         2        14        23        26        30
         2        23        26        30        42
         2        11        23        27        30
         2        23        27        30        39
         2        23        30        39        42
         2        28        31        32        47
         2        27        28        31        47
         2        27        28        43        47
         2        28        32        47        48
         2        28        44        47        48
         2        28        43        44        47
         2        29        32        33        48
         2        28        29        32        48
         2        28        29        44        48
         2        29        33        48        49
         2        29        45        48        49
         2        29        44        45        48
         2        30        33        34        49
         2        29        30        33        49
         2        29        30        45        49
         2        30        34        49        50
         2        30        46        49        50
         2        30        45        46        49
         2        27        31        34        50
         2        27        30        34        50
         2        27        30        46        50
         2        27        31        47        50
         2        27        43        47        50
         2        27        43        46        50
         2        32        35        36        51
         2        31        32        35        51
         2        31        32        47        51
         2        32        36        51        52
         2        32        48        51        52
         2        32        47        48        51
         2        33        36        37        52
         2        32        33        36        52
         2        32        33        48        52
         2        33        37        52        53
         2        33        49        52        53
         2        33        48        49        52
         2        34        37        38        53
         2        33        34        37        53
         2        33        34        49        53
         2        34        38        53        54
         2        34        50        53        54
         2        34        49        50        53
         2        31        35        38        54
         2        31        34        38        54
         2        31        34        50        54
         2        31        35        51        54
         2        31        47        51        54
         2        31        47        50        54
         2        36        39        40        55
         2        35        36        39        55
         2        35        36        51        55
         2        36        40        55        56
         2        36        52        55        56
         2        36        51        52        55
         2        37        40        41        56
         2        36        37        40        56
         2        36        37        52        56
         2        37        41        56        57
         2        37        53        56        57
         2        37        52        53        56
         2        38        41        42        57
         2        37        38        41        57
         2        37        38        53        57
         2        38        42        57        58
         2        38        54        57        58
         2        38        53        54        57
         2        35        39        42        58
         2        35        38        42        58
         2        35        38        54        58
         2        35        39        55        58
         2        35        51        55        58
         2        35        51        54        58
         2        27        28        40        43
         2        27        39        40        43
         2        39        40        43        55
         2        28        40        43        44
         2        40        43        44        56
         2        40        43        55        56
         2        28        29        41        44
         2        28        40        41        44
         2        40        41        44        56
         2        29        41        44        45
         2        41        44        45        57
         2        41        44        56        57
         2        29        30        42        45
         2        29        41        42        45
         2        41        42        45        57
         2        30        42        45        46
         2        42        45        46        58
         2        42        45        57        58
         2        27        30        39        46
         2        30        39        42        46
         2        39        42        46        58
         2        27        39        43        46
         2        39        43        46        55
         2        39        46        55        58
         2        44        47        48        63
         2        43        44        47        63
         2        43        44        59        63
         2        44        48        63        64
         2        44        60        63        64
         2        44        59        60        63
         2        45        48        49        64
         2        44        45        48        64
         2        44        45        60        64
         2        45        49        64        65
         2        45        61        64        65
         2        45        60        61        64
         2        46        49        50        65
         2        45        46        49        65
         2        45        46        61        65
         2        46        50        65        66
         2        46        62        65        66
         2        46        61        62        65
         2        43        47        50        66
         2        43        46        50        66
         2        43        46        62        66
         2        43        47        63        66
         2        43        59        63        66
         2        43        59        62        66
         2        48        51        52        67
         2        47        48        51        67
         2        47        48        63        67
         2        48        52        67        68
         2        48        64        67        68
         2        48        63        64        67
         2        49        52        53        68
         2        48        49        52        68
         2        48        49        64        68
         2        49        53        68        69
         2        49        65        68        69
         2        49        64        65        68
         2        50        53        54        69
         2        49        50        53        69
         2        49        50        65        69
         2        50        54        69        70
         2        50        66        69        70
         2        50        65        66        69
         2        47        51        54        70
         2        47        50        54        70
         2        47        50        66        70
         2        47        51        67        70
         2        47        63        67        70
         2        47        63        66        70
         2        52        55        56        71
         2        51        52        55        71
         2        51        52        67        71
         2        52        56        71        72
         2        52        68        71        72
         2        52        67        68        71
         2        53        56        57        72
         2        52        53        56        72
         2        52        53        68        72
         2        53        57        72        73
         2        53        69        72        73
         2        53        68        69        72
         2        54        57        58        73
         2        53        54        57        73
         2        53        54        69        73
         2        54        58        73        74
         2        54        70        73        74
         2        54        69        70        73
         2        51        55        58        74
         2        51        54        58        74
         2        51        54        70        74
         2        51        55        71        74
         2        51        67        71        74
         2        51        67        70        74
         2        43        44        56        59
         2        43        55        56        59
         2        55        56        59        71
         2        44        56        59        60
         2        56        59        60        72
         2        56        59        71        72
         2        44        45        57        60
         2        44        56        57        60
         2        56        57        60        72
         2        45        57        60        61
         2        57        60        61        73
         2        57        60        72        73
         2        45        46        58        61
         2        45        57        58        61
         2        57        58        61        73
         2        46        58        61        62
         2        58        61        62        74
         2        58        61        73        74
         2        43        46        55        62
         2        46        55        58        62
         2        55        58        62        74
         2        43        55        59        62
         2        55        59        62        71
         2        55        62        71        74
         2        60        63        64        79
         2        59        60        63        79
         2        59        60        75        79
         2        60        64        79        80
         2        60        76        79        80
         2        60        75        76        79
         2        61        64        65        80
         2        60        61        64        80
         2        60        61        76        80
         2        61        65        80        81
         2        61        77        80        81
         2        61        76        77        80
         2        62        65        66        81
         2        61        62        65        81
         2        61        62        77        81
         2        62        66        81        82
         2        62        78        81        82
         2        62        77        78        81
         2        59        63        66        82
         2        59        62        66        82
         2        59        62        78        82
         2        59        63        79        82
         2        59        75        79        82
         2        59        75        78        82
         2        64        67        68        83
         2        63        64        67        83
         2        63        64        79        83
         2        64        68        83        84
         2        64        80        83        84
         2        64        79        80        83
         2        65        68        69        84
         2        64        65        68        84
         2        64        65        80        84
         2        65        69        84        85
         2        65        81        84        85
         2        65        80        81        84
         2        66        69        70        85
         2        65        66        69        85
         2        65        66        81        85
         2        66        70        85        86
         2        66        82        85        86
         2        66        81        82        85
         2        63        67        70        86
         2        63        66        70        86
         2        63        66        82        86
         2        63        67        83        86