       N       E                     dE             d eps       ncg     rms          rms(c)
DAV:   1     0.121372703656E+04    0.12137E+04   -0.57233E+04 50907   0.169E+03
DAV:   2     0.511499760839E+02   -0.11626E+04   -0.10752E+04 50880   0.355E+02
DAV:   3    -0.102258732242E+03   -0.15341E+03   -0.12347E+03 51090   0.152E+02
DAV:   4    -0.109751906761E+03   -0.74932E+01   -0.73803E+01 56529   0.407E+01
DAV:   5    -0.109876794424E+03   -0.12489E+00   -0.12475E+00 76197   0.406E+00
RMM:   6    -0.109878219901E+03   -0.14255E-02   -0.14250E-02 56357   0.533E-01
RMM:   7    -0.109878497647E+03   -0.27775E-03   -0.27538E-03 79498   0.139E-01
RMM:   8    -0.109878505388E+03   -0.77412E-05   -0.86078E-05 79712   0.238E-02
RMM:   9    -0.109878505940E+03   -0.55205E-06   -0.58590E-06 45481   0.602E-03
   1 F= -.10987851E+03 E0= -.10987851E+03  d E =0.000000E+00  mag=    25.5933
