       N       E                     dE             d eps       ncg     rms          rms(c)
DAV:   1     0.119870507460E+04    0.11987E+04   -0.60501E+04 43248   0.198E+03
DAV:   2     0.265171537227E+02   -0.11722E+04   -0.11120E+04 43248   0.404E+02
DAV:   3    -0.105124648971E+03   -0.13164E+03   -0.10861E+03 43320   0.169E+02
DAV:   4    -0.109794288916E+03   -0.46696E+01   -0.46057E+01 46944   0.379E+01
DAV:   5    -0.109879340946E+03   -0.85052E-01   -0.84984E-01 64377   0.390E+00
RMM:   6    -0.109880422561E+03   -0.10816E-02   -0.10798E-02 44918   0.531E-01
RMM:   7    -0.109880625529E+03   -0.20297E-03   -0.20032E-03 65141   0.136E-01
RMM:   8    -0.109880631251E+03   -0.57224E-05   -0.64925E-05 64673   0.245E-02
RMM:   9    -0.109880631619E+03   -0.36761E-06   -0.40241E-06 30704   0.643E-03
   1 F= -.10988063E+03 E0= -.10988063E+03  d E =0.000000E+00  mag=    25.5418
