 vasp.5.4.4.18Apr17-6-g9f103f2a35 (build Sep 06 2021 19:49:22) complex          
  
 executed on             LinuxIFC date 2021.12.28  19:37:08
 running on   24 total cores
 distrk:  each k-point on   24 cores,    1 groups
 distr:  one band on NCORES_PER_BAND=   8 cores,    3 groups


--------------------------------------------------------------------------------------------------------


 INCAR:
 POTCAR:    PAW_PBE Ni 02Aug2007                  
 POTCAR:    PAW_PBE Fe 06Sep2000                  
 POTCAR:    PAW_PBE Ni 02Aug2007                  
   VRHFIN =Ni:                                                                  
   LEXCH  = PE                                                                  
   EATOM  =  1077.6739 eV,   79.2068 Ry                                         
                                                                                
   TITEL  = PAW_PBE Ni 02Aug2007                                                
   LULTRA =        F    use ultrasoft PP ?                                      
   IUNSCR =        1    unscreen: 0-lin 1-nonlin 2-no                           
   RPACOR =    2.000    partial core radius                                     
   POMASS =   58.690; ZVAL   =   10.000    mass and valenz                      
   RCORE  =    2.300    outmost cutoff radius                                   
   RWIGS  =    2.430; RWIGS  =    1.286    wigner-seitz radius (au A)           
   ENMAX  =  269.532; ENMIN  =  202.149 eV                                      
   RCLOC  =    1.201    cutoff for local pot                                    
   LCOR   =        T    correct aug charges                                     
   LPAW   =        T    paw PP                                                  
   EAUG   =  544.565                                                            
   DEXC   =    0.000                                                            
   RMAX   =    2.357    core radius for proj-oper                               
   RAUG   =    1.300    factor for augmentation sphere                          
   RDEP   =    2.390    radius for radial grids                                 
   RDEPT  =    1.838    core radius for aug-charge                              
                                                                                
   Atomic configuration                                                         
    9 entries                                                                   
     n  l   j            E        occ.                                          
     1  0  0.50     -8206.4253   2.0000                                         
     2  0  0.50      -976.1748   2.0000                                         
     2  1  1.50      -839.0571   6.0000                                         
     3  0  0.50      -105.9991   2.0000                                         
     3  1  1.50       -66.4603   6.0000                                         
     3  2  2.50        -4.6458   9.0000                                         
     4  0  0.50        -4.4926   1.0000                                         
     4  1  1.50        -4.0817   0.0000                                         
     4  3  2.50        -1.3606   0.0000                                         
   Description                                                                  
     l       E           TYP  RCUT    TYP  RCUT                                 
     2     -4.6457903     23  2.300                                             
     2     -6.0063729     23  2.300                                             
     0     -4.4925590     23  2.300                                             
     0      5.0102601     23  2.300                                             
     1     -2.7211652     23  2.300                                             
     1     16.5183231     23  2.300                                             
  local pseudopotential read in
  partial core-charges read in
  partial kinetic energy density read in
  atomic valenz-charges read in
  non local Contribution for L=           2  read in
    real space projection operators read in
  non local Contribution for L=           2  read in
    real space projection operators read in
  non local Contribution for L=           0  read in
    real space projection operators read in
  non local Contribution for L=           0  read in
    real space projection operators read in
  non local Contribution for L=           1  read in
    real space projection operators read in
  non local Contribution for L=           1  read in
    real space projection operators read in
    PAW grid and wavefunctions read in
 
   number of l-projection  operators is LMAX  =           6
   number of lm-projection operators is LMMAX =          18
 
 POTCAR:    PAW_PBE Fe 06Sep2000                  
   VRHFIN =Fe:  d7 s1                                                           
   LEXCH  = PE                                                                  
   EATOM  =   594.3153 eV,   43.6809 Ry                                         
                                                                                
   TITEL  = PAW_PBE Fe 06Sep2000                                                
   LULTRA =        F    use ultrasoft PP ?                                      
   IUNSCR =        1    unscreen: 0-lin 1-nonlin 2-no                           
   RPACOR =    2.000    partial core radius                                     
   POMASS =   55.847; ZVAL   =    8.000    mass and valenz                      
   RCORE  =    2.300    outmost cutoff radius                                   
   RWIGS  =    2.460; RWIGS  =    1.302    wigner-seitz radius (au A)           
   ENMAX  =  267.882; ENMIN  =  200.911 eV                                      
   RCLOC  =    1.701    cutoff for local pot                                    
   LCOR   =        T    correct aug charges                                     
   LPAW   =        T    paw PP                                                  
   EAUG   =  511.368                                                            
   DEXC   =    0.000                                                            
   RMAX   =    2.356    core radius for proj-oper                               
   RAUG   =    1.300    factor for augmentation sphere                          
   RDEP   =    2.442    radius for radial grids                                 
   RDEPT  =    1.890    core radius for aug-charge                              
                                                                                
   Atomic configuration                                                         
    9 entries                                                                   
     n  l   j            E        occ.                                          
     1  0  0.50     -6993.8440   2.0000                                         
     2  0  0.50      -814.6047   2.0000                                         
     2  1  1.50      -693.3689   6.0000                                         
     3  0  0.50       -89.4732   2.0000                                         
     3  1  1.50       -55.6373   6.0000                                         
     3  2  2.50        -3.8151   7.0000                                         
     4  0  0.50        -4.2551   1.0000                                         
     4  1  1.50        -3.4015   0.0000                                         
     4  3  2.50        -1.3606   0.0000                                         
   Description                                                                  
     l       E           TYP  RCUT    TYP  RCUT                                 
     2     -3.8151135     23  2.300                                             
     2     -5.1756961     23  2.300                                             
     0     -4.2550963     23  2.300                                             
     0      7.2035603     23  2.300                                             
     1     -2.7211652     23  2.300                                             
     1     18.4316424     23  2.300                                             
  local pseudopotential read in
  partial core-charges read in
  partial kinetic energy density read in
  atomic valenz-charges read in
  non local Contribution for L=           2  read in
    real space projection operators read in
  non local Contribution for L=           2  read in
    real space projection operators read in
  non local Contribution for L=           0  read in
    real space projection operators read in
  non local Contribution for L=           0  read in
    real space projection operators read in
  non local Contribution for L=           1  read in
    real space projection operators read in
  non local Contribution for L=           1  read in
    real space projection operators read in
    PAW grid and wavefunctions read in
 
   number of l-projection  operators is LMAX  =           6
   number of lm-projection operators is LMMAX =          18
 
 Optimization of the real space projectors (new method)

 maximal supplied QI-value         = 16.25
 optimisation between [QCUT,QGAM] = [ 11.54, 23.24] = [ 37.28,151.24] Ry 
 Optimized for a Real-space Cutoff    1.45 Angstroem

   l    n(q)    QCUT    max X(q) W(low)/X(q) W(high)/X(q)  e(spline) 
   2      9    11.539    60.317    0.19E-03    0.47E-04    0.16E-06
   2      9    11.539    55.921    0.19E-03    0.48E-04    0.16E-06
   0     10    11.539    51.690    0.80E-04    0.50E-04    0.24E-06
   0     10    11.539    30.015    0.73E-04    0.45E-04    0.22E-06
   1     10    11.539    18.849    0.87E-04    0.16E-03    0.71E-07
   1     10    11.539    14.624    0.73E-04    0.13E-03    0.64E-07
 Optimization of the real space projectors (new method)

 maximal supplied QI-value         = 16.25
 optimisation between [QCUT,QGAM] = [ 11.54, 23.24] = [ 37.28,151.24] Ry 
 Optimized for a Real-space Cutoff    1.53 Angstroem

   l    n(q)    QCUT    max X(q) W(low)/X(q) W(high)/X(q)  e(spline) 
   2     10    11.539    80.901    0.11E-03    0.14E-03    0.21E-06
   2     10    11.539    75.754    0.11E-03    0.14E-03    0.22E-06
   0     11    11.539    58.752    0.52E-04    0.18E-04    0.33E-06
   0     11    11.539    30.679    0.44E-04    0.16E-04    0.30E-06
   1     10    11.539    17.977    0.53E-04    0.29E-04    0.13E-06
   1     10    11.539    13.559    0.44E-04    0.25E-04    0.11E-06
  PAW_PBE Ni 02Aug2007                  :
 energy of atom  1       EATOM=-1077.6739
 kinetic energy error for atom=    0.0030 (will be added to EATOM!!)
  PAW_PBE Fe 06Sep2000                  :
 energy of atom  2       EATOM= -594.3153
 kinetic energy error for atom=    0.0026 (will be added to EATOM!!)
 
 
 POSCAR: POSCAR                                  
  positions in direct lattice
  velocities in cartesian coordinates
 exchange correlation table for  LEXCH =        8
   RHO(1)=    0.500       N(1)  =     2000
   RHO(2)=  100.500       N(2)  =     4000
 


--------------------------------------------------------------------------------------------------------


 ion  position               nearest neighbor table
   1  0.001  0.750  0.500-  14 2.48   5 2.51   5 2.51   9 2.52   9 2.52   4 2.53   4 2.53  10 2.56
                            10 2.56   6 2.57
   2  0.249  0.502  0.500-  10 2.50  10 2.50  12 2.52  12 2.52  13 2.52  13 2.52  11 2.53   9 2.54
                             9 2.54   3 2.54
   3  0.503  0.751  0.500-  16 2.46  13 2.47  13 2.47  10 2.50  10 2.50   7 2.53   7 2.53   5 2.53
                             5 2.53   2 2.54
   4  0.997  0.999  0.000-   5 2.49  14 2.50  14 2.50  11 2.50  11 2.50   1 2.53   1 2.53  16 2.54
                            16 2.54  12 2.58
   5  0.753  0.749  1.000-   4 2.49  13 2.50   1 2.51   1 2.51   6 2.52   6 2.52   3 2.53   3 2.53
                            16 2.54  16 2.54
   6  0.745  0.497  0.500-  15 2.48  13 2.51  13 2.51   5 2.52   5 2.52   8 2.52   8 2.52   9 2.53
                             9 2.53   1 2.57
   7  0.497  1.000  1.000-  10 2.47  15 2.48  15 2.48  16 2.51  16 2.51   3 2.53   3 2.53  14 2.55
                            14 2.55   8 2.57
   8  0.754  0.251  0.000-   9 2.48  15 2.50  15 2.50  11 2.51  11 2.51   6 2.52   6 2.52  16 2.53
                            16 2.53   7 2.57
   9  0.997  0.500  1.000-   8 2.48   1 2.52   1 2.52   6 2.53   6 2.53   2 2.54   2 2.54  11 2.55
                            11 2.55  10 2.58
  10  0.256  0.750  1.000-   7 2.47   3 2.50   3 2.50   2 2.50   2 2.50  14 2.55  14 2.55   1 2.56
                             1 2.56   9 2.58
  11  0.002  0.248  0.500-   4 2.50   4 2.50  12 2.51  12 2.51   8 2.51   8 2.51   2 2.53   9 2.55
                             9 2.55  16 2.57
  12  0.252  0.254  0.000-  11 2.51  11 2.51   2 2.52   2 2.52  13 2.54  14 2.54  14 2.54  15 2.57
                            15 2.57   4 2.58
  13  0.501  0.508  0.000-   3 2.47   3 2.47   5 2.50   6 2.51   6 2.51   2 2.52   2 2.52  12 2.54
                            15 2.62  15 2.62
  14  0.243  0.999  0.500-   1 2.48   4 2.50   4 2.50  12 2.54  12 2.54  10 2.55  10 2.55   7 2.55
                             7 2.55  15 2.58
  15  0.506  0.246  0.500-   6 2.48   7 2.48   7 2.48   8 2.50   8 2.50  12 2.57  12 2.57  14 2.58
                            13 2.62  13 2.62
  16  0.744  0.997  0.500-   3 2.46   7 2.51   7 2.51   8 2.53   8 2.53   5 2.54   5 2.54   4 2.54
                             4 2.54  11 2.57
 

IMPORTANT INFORMATION: All symmetrisations will be switched off!
NOSYMM: (Re-)initialisation of all symmetry stuff for point group C_1.

 
 

Automatic generation of k-mesh.
 generate k-points for:    4    4   13
Space group operators:
 irot       det(A)        alpha          n_x          n_y          n_z        tau_x        tau_y        tau_z
    1     1.000000     0.000000     1.000000     0.000000     0.000000     0.000000     0.000000     0.000000
 
 Subroutine IBZKPT returns following result:
 ===========================================
 
 Found    106 irreducible k-points:
 
 Following reciprocal coordinates:
            Coordinates               Weight
  0.000000  0.000000  0.000000      1.000000
  0.250000  0.000000  0.000000      2.000000
  0.500000  0.000000  0.000000      1.000000
  0.000000  0.250000  0.000000      2.000000
  0.250000  0.250000  0.000000      2.000000
  0.500000  0.250000  0.000000      2.000000
 -0.250000  0.250000  0.000000      2.000000
  0.000000  0.500000  0.000000      1.000000
  0.250000  0.500000  0.000000      2.000000
  0.500000  0.500000  0.000000      1.000000
  0.000000  0.000000  0.076923      2.000000
  0.250000  0.000000  0.076923      2.000000
  0.500000  0.000000  0.076923      2.000000
 -0.250000  0.000000  0.076923      2.000000
  0.000000  0.250000  0.076923      2.000000
  0.250000  0.250000  0.076923      2.000000
  0.500000  0.250000  0.076923      2.000000
 -0.250000  0.250000  0.076923      2.000000
  0.000000  0.500000  0.076923      2.000000
  0.250000  0.500000  0.076923      2.000000
  0.500000  0.500000  0.076923      2.000000
 -0.250000  0.500000  0.076923      2.000000
  0.000000 -0.250000  0.076923      2.000000
  0.250000 -0.250000  0.076923      2.000000
  0.500000 -0.250000  0.076923      2.000000
 -0.250000 -0.250000  0.076923      2.000000
  0.000000  0.000000  0.153846      2.000000
  0.250000  0.000000  0.153846      2.000000
  0.500000  0.000000  0.153846      2.000000
 -0.250000  0.000000  0.153846      2.000000
  0.000000  0.250000  0.153846      2.000000
  0.250000  0.250000  0.153846      2.000000
  0.500000  0.250000  0.153846      2.000000
 -0.250000  0.250000  0.153846      2.000000
  0.000000  0.500000  0.153846      2.000000
  0.250000  0.500000  0.153846      2.000000
  0.500000  0.500000  0.153846      2.000000
 -0.250000  0.500000  0.153846      2.000000
  0.000000 -0.250000  0.153846      2.000000
  0.250000 -0.250000  0.153846      2.000000
  0.500000 -0.250000  0.153846      2.000000
 -0.250000 -0.250000  0.153846      2.000000
  0.000000  0.000000  0.230769      2.000000
  0.250000  0.000000  0.230769      2.000000
  0.500000  0.000000  0.230769      2.000000
 -0.250000  0.000000  0.230769      2.000000
  0.000000  0.250000  0.230769      2.000000
  0.250000  0.250000  0.230769      2.000000
  0.500000  0.250000  0.230769      2.000000
 -0.250000  0.250000  0.230769      2.000000
  0.000000  0.500000  0.230769      2.000000
  0.250000  0.500000  0.230769      2.000000
  0.500000  0.500000  0.230769      2.000000
 -0.250000  0.500000  0.230769      2.000000
  0.000000 -0.250000  0.230769      2.000000
  0.250000 -0.250000  0.230769      2.000000
  0.500000 -0.250000  0.230769      2.000000
 -0.250000 -0.250000  0.230769      2.000000
  0.000000  0.000000  0.307692      2.000000
  0.250000  0.000000  0.307692      2.000000
  0.500000  0.000000  0.307692      2.000000
 -0.250000  0.000000  0.307692      2.000000
  0.000000  0.250000  0.307692      2.000000
  0.250000  0.250000  0.307692      2.000000
  0.500000  0.250000  0.307692      2.000000
 -0.250000  0.250000  0.307692      2.000000
  0.000000  0.500000  0.307692      2.000000
  0.250000  0.500000  0.307692      2.000000
  0.500000  0.500000  0.307692      2.000000
 -0.250000  0.500000  0.307692      2.000000
  0.000000 -0.250000  0.307692      2.000000
  0.250000 -0.250000  0.307692      2.000000
  0.500000 -0.250000  0.307692      2.000000
 -0.250000 -0.250000  0.307692      2.000000
  0.000000  0.000000  0.384615      2.000000
  0.250000  0.000000  0.384615      2.000000
  0.500000  0.000000  0.384615      2.000000
 -0.250000  0.000000  0.384615      2.000000
  0.000000  0.250000  0.384615      2.000000
  0.250000  0.250000  0.384615      2.000000
  0.500000  0.250000  0.384615      2.000000
 -0.250000  0.250000  0.384615      2.000000
  0.000000  0.500000  0.384615      2.000000
  0.250000  0.500000  0.384615      2.000000
  0.500000  0.500000  0.384615      2.000000
 -0.250000  0.500000  0.384615      2.000000
  0.000000 -0.250000  0.384615      2.000000
  0.250000 -0.250000  0.384615      2.000000
  0.500000 -0.250000  0.384615      2.000000
 -0.250000 -0.250000  0.384615      2.000000
  0.000000  0.000000  0.461538      2.000000
  0.250000  0.000000  0.461538      2.000000
  0.500000  0.000000  0.461538      2.000000
 -0.250000  0.000000  0.461538      2.000000
  0.000000  0.250000  0.461538      2.000000
  0.250000  0.250000  0.461538      2.000000
  0.500000  0.250000  0.461538      2.000000
 -0.250000  0.250000  0.461538      2.000000
  0.000000  0.500000  0.461538      2.000000
  0.250000  0.500000  0.461538      2.000000
  0.500000  0.500000  0.461538      2.000000
 -0.250000  0.500000  0.461538      2.000000
  0.000000 -0.250000  0.461538      2.000000
  0.250000 -0.250000  0.461538      2.000000
  0.500000 -0.250000  0.461538      2.000000
 -0.250000 -0.250000  0.461538      2.000000
 
 Following cartesian coordinates:
            Coordinates               Weight
  0.000000 -0.000000  0.000000      1.000000
  0.062500  0.062500  0.062500      2.000000
  0.125000  0.125000  0.125000      1.000000
 -0.062500  0.062500  0.062500      2.000000
  0.000000  0.125000  0.125000      2.000000
  0.062500  0.187500  0.187500      2.000000
 -0.125000 -0.000000  0.000000      2.000000
 -0.125000  0.125000  0.125000      1.000000
 -0.062500  0.187500  0.187500      2.000000
  0.000000  0.250000  0.250000      1.000000
  0.000000 -0.076923  0.076923      2.000000
  0.062500 -0.014423  0.139423      2.000000
  0.125000  0.048077  0.201923      2.000000
 -0.062500 -0.139423  0.014423      2.000000
 -0.062500 -0.014423  0.139423      2.000000
  0.000000  0.048077  0.201923      2.000000
  0.062500  0.110577  0.264423      2.000000
 -0.125000 -0.076923  0.076923      2.000000
 -0.125000  0.048077  0.201923      2.000000
 -0.062500  0.110577  0.264423      2.000000
  0.000000  0.173077  0.326923      2.000000
 -0.187500 -0.014423  0.139423      2.000000
  0.062500 -0.139423  0.014423      2.000000
  0.125000 -0.076923  0.076923      2.000000
  0.187500 -0.014423  0.139423      2.000000
  0.000000 -0.201923 -0.048077      2.000000
  0.000000 -0.153846  0.153846      2.000000
  0.062500 -0.091346  0.216346      2.000000
  0.125000 -0.028846  0.278846      2.000000
 -0.062500 -0.216346  0.091346      2.000000
 -0.062500 -0.091346  0.216346      2.000000
  0.000000 -0.028846  0.278846      2.000000
  0.062500  0.033654  0.341346      2.000000
 -0.125000 -0.153846  0.153846      2.000000
 -0.125000 -0.028846  0.278846      2.000000
 -0.062500  0.033654  0.341346      2.000000
  0.000000  0.096154  0.403846      2.000000
 -0.187500 -0.091346  0.216346      2.000000
  0.062500 -0.216346  0.091346      2.000000
  0.125000 -0.153846  0.153846      2.000000
  0.187500 -0.091346  0.216346      2.000000
  0.000000 -0.278846  0.028846      2.000000
  0.000000 -0.230769  0.230769      2.000000
  0.062500 -0.168269  0.293269      2.000000
  0.125000 -0.105769  0.355769      2.000000
 -0.062500 -0.293269  0.168269      2.000000
 -0.062500 -0.168269  0.293269      2.000000
  0.000000 -0.105769  0.355769      2.000000
  0.062500 -0.043269  0.418269      2.000000
 -0.125000 -0.230769  0.230769      2.000000
 -0.125000 -0.105769  0.355769      2.000000
 -0.062500 -0.043269  0.418269      2.000000
  0.000000  0.019231  0.480769      2.000000
 -0.187500 -0.168269  0.293269      2.000000
  0.062500 -0.293269  0.168269      2.000000
  0.125000 -0.230769  0.230769      2.000000
  0.187500 -0.168269  0.293269      2.000000
  0.000000 -0.355769  0.105769      2.000000
  0.000000 -0.307692  0.307692      2.000000
  0.062500 -0.245192  0.370192      2.000000
  0.125000 -0.182692  0.432692      2.000000
 -0.062500 -0.370192  0.245192      2.000000
 -0.062500 -0.245192  0.370192      2.000000
  0.000000 -0.182692  0.432692      2.000000
  0.062500 -0.120192  0.495192      2.000000
 -0.125000 -0.307692  0.307692      2.000000
 -0.125000 -0.182692  0.432692      2.000000
 -0.062500 -0.120192  0.495192      2.000000
  0.000000 -0.057692  0.557692      2.000000
 -0.187500 -0.245192  0.370192      2.000000
  0.062500 -0.370192  0.245192      2.000000
  0.125000 -0.307692  0.307692      2.000000
  0.187500 -0.245192  0.370192      2.000000
  0.000000 -0.432692  0.182692      2.000000
  0.000000 -0.384615  0.384615      2.000000
  0.062500 -0.322115  0.447115      2.000000
  0.125000 -0.259615  0.509615      2.000000
 -0.062500 -0.447115  0.322115      2.000000
 -0.062500 -0.322115  0.447115      2.000000
  0.000000 -0.259615  0.509615      2.000000
  0.062500 -0.197115  0.572115      2.000000
 -0.125000 -0.384615  0.384615      2.000000
 -0.125000 -0.259615  0.509615      2.000000
 -0.062500 -0.197115  0.572115      2.000000
  0.000000 -0.134615  0.634615      2.000000
 -0.187500 -0.322115  0.447115      2.000000
  0.062500 -0.447115  0.322115      2.000000
  0.125000 -0.384615  0.384615      2.000000
  0.187500 -0.322115  0.447115      2.000000
  0.000000 -0.509615  0.259615      2.000000
  0.000000 -0.461538  0.461538      2.000000
  0.062500 -0.399038  0.524038      2.000000
  0.125000 -0.336538  0.586538      2.000000
 -0.062500 -0.524038  0.399038      2.000000
 -0.062500 -0.399038  0.524038      2.000000
  0.000000 -0.336538  0.586538      2.000000
  0.062500 -0.274038  0.649038      2.000000
 -0.125000 -0.461538  0.461538      2.000000
 -0.125000 -0.336538  0.586538      2.000000
 -0.062500 -0.274038  0.649038      2.000000
  0.000000 -0.211538  0.711538      2.000000
 -0.187500 -0.399038  0.524038      2.000000
  0.062500 -0.524038  0.399038      2.000000
  0.125000 -0.461538  0.461538      2.000000
  0.187500 -0.399038  0.524038      2.000000
  0.000000 -0.586538  0.336538      2.000000
 
 TETIRR: Found    624 inequivalent tetrahedra from     1248


--------------------------------------------------------------------------------------------------------




 Dimension of arrays:
   k-points           NKPTS =    106   k-points in BZ     NKDIM =    106   number of bands    NBANDS=    102
   number of dos      NEDOS =    301   number of ions     NIONS =     16
   non local maximal  LDIM  =      6   non local SUM 2l+1 LMDIM =     18
   total plane-waves  NPLWV =  98000
   max r-space proj   IRMAX =   8182   max aug-charges    IRDMAX=  19363
   dimension x,y,z NGX =    70 NGY =   70 NGZ =   20
   dimension x,y,z NGXF=   140 NGYF=  140 NGZF=   40
   support grid    NGXF=   140 NGYF=  140 NGZF=   40
   ions per type =               8   8
   NGX,Y,Z   is equivalent  to a cutoff of  13.30, 13.30, 13.17 a.u.
   NGXF,Y,Z  is equivalent  to a cutoff of  26.61, 26.61, 26.34 a.u.

 SYSTEM =  SQS-NiFe                                
 POSCAR =  POSCAR                                  

 Startparameter for this run:
   NWRITE =      2    write-flag & timer
   PREC   = accura    normal or accurate (medium, high low for compatibility)
   ISTART =      0    job   : 0-new  1-cont  2-samecut
   ICHARG =     11    charge: 1-file 2-atom 10-const
   ISPIN  =      2    spin polarized calculation?
   LNONCOLLINEAR =      F non collinear calculations
   LSORBIT =      F    spin-orbit coupling
   INIWAV =      1    electr: 0-lowe 1-rand  2-diag
   LASPH  =      F    aspherical Exc in radial PAW
   METAGGA=      F    non-selfconsistent MetaGGA calc.

 Electronic Relaxation 1
   ENCUT  =  520.0 eV  38.22 Ry    6.18 a.u.  16.26 16.26  4.69*2*pi/ulx,y,z
   ENINI  =  520.0     initial cutoff
   ENAUG  =  544.6 eV  augmentation charge cutoff
   NELM   =    200;   NELMIN=  2; NELMDL= -5     # of ELM steps 
   EDIFF  = 0.1E-05   stopping-criterion for ELM
   LREAL  =      T    real-space projection
   NLSPLINE    = F    spline interpolate recip. space projectors
   LCOMPAT=      F    compatible to vasp.4.4
   GGA_COMPAT  = T    GGA compatible to vasp.4.4-vasp.4.6
   LMAXPAW     = -100 max onsite density
   LMAXMIX     =    2 max onsite mixed and CHGCAR
   VOSKOWN=      0    Vosko Wilk Nusair interpolation
   ROPT   =   -0.00025  -0.00025
 Ionic relaxation
   EDIFFG = -.2E-01   stopping-criterion for IOM
   NSW    =      0    number of steps for IOM
   NBLOCK =      1;   KBLOCK =      1    inner block; outer block 
   IBRION =     -1    ionic relax: 0-MD 1-quasi-New 2-CG
   NFREE  =      0    steps in history (QN), initial steepest desc. (CG)
   ISIF   =      2    stress and relaxation
   IWAVPR =     10    prediction:  0-non 1-charg 2-wave 3-comb
   ISYM   =      0    0-nonsym 1-usesym 2-fastsym
   LCORR  =      T    Harris-Foulkes like correction to forces

   POTIM  = 0.5000    time-step for ionic-motion
   TEIN   =    0.0    initial temperature
   TEBEG  =    0.0;   TEEND  =   0.0 temperature during run
   SMASS  =  -3.00    Nose mass-parameter (am)
   estimated Nose-frequenzy (Omega)   =  0.10E-29 period in steps =****** mass=  -0.175E-26a.u.
   SCALEE = 1.0000    scale energy and forces
   NPACO  =    256;   APACO  = 16.0  distance and # of slots for P.C.
   PSTRESS=    0.0 pullay stress

  Mass of Ions in am
   POMASS =  58.69 55.85
  Ionic Valenz
   ZVAL   =  10.00  8.00
  Atomic Wigner-Seitz radii
   RWIGS  =  -1.00 -1.00
  virtual crystal weights 
   VCA    =   1.00  1.00
   NELECT =     144.0000    total number of electrons
   NUPDOWN=      -1.0000    fix difference up-down

 DOS related values:
   EMIN   =  10.00;   EMAX   =-10.00  energy-range for DOS
   EFERMI =   0.00
   ISMEAR =    -5;   SIGMA  =   0.20  broadening in eV -4-tet -1-fermi 0-gaus

 Electronic relaxation 2 (details)
   IALGO  =     68    algorithm
   LDIAG  =      T    sub-space diagonalisation (order eigenvalues)
   LSUBROT=      F    optimize rotation matrix (better conditioning)
   TURBO    =      0    0=normal 1=particle mesh
   IRESTART =      0    0=no restart 2=restart with 2 vectors
   NREBOOT  =      0    no. of reboots
   NMIN     =      0    reboot dimension
   EREF     =   0.00    reference energy to select bands
   IMIX   =      4    mixing-type and parameters
     AMIX     =   0.40;   BMIX     =  1.00
     AMIX_MAG =   1.60;   BMIX_MAG =  1.00
     AMIN     =   0.10
     WC   =   100.;   INIMIX=   1;  MIXPRE=   1;  MAXMIX= -45

 Intra band minimization:
   WEIMIN = 0.0000     energy-eigenvalue tresh-hold
   EBREAK =  0.25E-08  absolut break condition
   DEPER  =   0.30     relativ break condition  

   TIME   =   0.40     timestep for ELM

  volume/ion in A,a.u.               =      11.38        76.83
  Fermi-wavevector in a.u.,A,eV,Ry     =   1.513744  2.860562 31.176681  2.291421
  Thomas-Fermi vector in A             =   2.623494
 
 Write flags
   LWAVE        =      F    write WAVECAR
   LDOWNSAMPLE  =      F    k-point downsampling of WAVECAR
   LCHARG       =      F    write CHGCAR
   LVTOT        =      F    write LOCPOT, total local potential
   LVHAR        =      F    write LOCPOT, Hartree potential only
   LELF         =      F    write electronic localiz. function (ELF)
   LORBIT       =     11    0 simple, 1 ext, 2 COOP (PROOUT), +10 PAW based schemes


 Dipole corrections
   LMONO  =      F    monopole corrections only (constant potential shift)
   LDIPOL =      F    correct potential (dipole corrections)
   IDIPOL =      0    1-x, 2-y, 3-z, 4-all directions 
   EPSILON=  1.0000000 bulk dielectric constant

 Exchange correlation treatment:
   GGA     =    --    GGA type
   LEXCH   =     8    internal setting for exchange type
   VOSKOWN=      0    Vosko Wilk Nusair interpolation
   LHFCALC =     F    Hartree Fock is set to
   LHFONE  =     F    Hartree Fock one center treatment
   AEXX    =    0.0000 exact exchange contribution

 Linear response parameters
   LEPSILON=     F    determine dielectric tensor
   LRPA    =     F    only Hartree local field effects (RPA)
   LNABLA  =     F    use nabla operator in PAW spheres
   LVEL    =     F    velocity operator in full k-point grid
   LINTERFAST=   F  fast interpolation
   KINTER  =     0    interpolate to denser k-point grid
   CSHIFT  =0.1000    complex shift for real part using Kramers Kronig
   OMEGAMAX=  -1.0    maximum frequency
   DEG_THRESHOLD= 0.2000000E-02 threshold for treating states as degnerate
   RTIME   =   -0.100 relaxation time in fs
  (WPLASMAI=    0.000 imaginary part of plasma frequency in eV, 0.658/RTIME)
   DFIELD  = 0.0000000 0.0000000 0.0000000 field for delta impulse in time
 
 Orbital magnetization related:
   ORBITALMAG=     F  switch on orbital magnetization
   LCHIMAG   =     F  perturbation theory with respect to B field
   DQ        =  0.001000  dq finite difference perturbation B field
   LLRAUG    =     F  two centre corrections for induced B field



--------------------------------------------------------------------------------------------------------


 Static calculation
 charge density and potential remain constant during run
 spin polarized calculation
 RMM-DIIS sequential band-by-band and
  variant of blocked Davidson during initial phase
 perform sub-space diagonalisation
    before iterative eigenvector-optimisation
 no mixing
 using additional bands           30
 real space projection scheme for non local part
 use partial core corrections
 calculate Harris-corrections to forces 
   (improved forces if not selfconsistent)
 use gradient corrections 
 WARNING: stress and forces are not correct
  (second derivative of E(xc) not defined)
 use of overlap-Matrix (Vanderbilt PP)
 Fermi weights with tetrahedron method with Bloechl corrections


--------------------------------------------------------------------------------------------------------


  energy-cutoff  :      520.00
  volume of cell :      182.15
      direct lattice vectors                 reciprocal lattice vectors
     7.142000000  3.571000000  3.571000000     0.070008401  0.070008401  0.070008401
    -7.142000000  3.571000000  3.571000000    -0.070008401  0.070008401  0.070008401
     0.000000000 -1.785500000  1.785500000     0.000000000 -0.280033604  0.280033604

  length of vectors
     8.747127871  8.747127871  2.525078316     0.121258108  0.121258108  0.396027321


 
 k-points in units of 2pi/SCALE and weight: read from INCAR                         
   0.00000000 -0.00000000  0.00000000       0.005
   0.06250000  0.06250000  0.06250000       0.010
   0.12500000  0.12500000  0.12500000       0.005
  -0.06250000  0.06250000  0.06250000       0.010
   0.00000000  0.12500000  0.12500000       0.010
   0.06250000  0.18750000  0.18750000       0.010
  -0.12500000 -0.00000000  0.00000000       0.010
  -0.12500000  0.12500000  0.12500000       0.005
  -0.06250000  0.18750000  0.18750000       0.010
   0.00000000  0.25000000  0.25000000       0.005
   0.00000000 -0.07692308  0.07692308       0.010
   0.06250000 -0.01442308  0.13942308       0.010
   0.12500000  0.04807692  0.20192308       0.010
  -0.06250000 -0.13942308  0.01442308       0.010
  -0.06250000 -0.01442308  0.13942308       0.010
   0.00000000  0.04807692  0.20192308       0.010
   0.06250000  0.11057692  0.26442308       0.010
  -0.12500000 -0.07692308  0.07692308       0.010
  -0.12500000  0.04807692  0.20192308       0.010
  -0.06250000  0.11057692  0.26442308       0.010
   0.00000000  0.17307692  0.32692308       0.010
  -0.18750000 -0.01442308  0.13942308       0.010
   0.06250000 -0.13942308  0.01442308       0.010
   0.12500000 -0.07692308  0.07692308       0.010
   0.18750000 -0.01442308  0.13942308       0.010
   0.00000000 -0.20192308 -0.04807692       0.010
   0.00000000 -0.15384615  0.15384615       0.010
   0.06250000 -0.09134615  0.21634615       0.010
   0.12500000 -0.02884615  0.27884615       0.010
  -0.06250000 -0.21634615  0.09134615       0.010
  -0.06250000 -0.09134615  0.21634615       0.010
   0.00000000 -0.02884615  0.27884615       0.010
   0.06250000  0.03365385  0.34134615       0.010
  -0.12500000 -0.15384615  0.15384615       0.010
  -0.12500000 -0.02884615  0.27884615       0.010
  -0.06250000  0.03365385  0.34134615       0.010
   0.00000000  0.09615385  0.40384615       0.010
  -0.18750000 -0.09134615  0.21634615       0.010
   0.06250000 -0.21634615  0.09134615       0.010
   0.12500000 -0.15384615  0.15384615       0.010
   0.18750000 -0.09134615  0.21634615       0.010
   0.00000000 -0.27884615  0.02884615       0.010
   0.00000000 -0.23076923  0.23076923       0.010
   0.06250000 -0.16826923  0.29326923       0.010
   0.12500000 -0.10576923  0.35576923       0.010
  -0.06250000 -0.29326923  0.16826923       0.010
  -0.06250000 -0.16826923  0.29326923       0.010
   0.00000000 -0.10576923  0.35576923       0.010
   0.06250000 -0.04326923  0.41826923       0.010
  -0.12500000 -0.23076923  0.23076923       0.010
  -0.12500000 -0.10576923  0.35576923       0.010
  -0.06250000 -0.04326923  0.41826923       0.010
   0.00000000  0.01923077  0.48076923       0.010
  -0.18750000 -0.16826923  0.29326923       0.010
   0.06250000 -0.29326923  0.16826923       0.010
   0.12500000 -0.23076923  0.23076923       0.010
   0.18750000 -0.16826923  0.29326923       0.010
   0.00000000 -0.35576923  0.10576923       0.010
   0.00000000 -0.30769231  0.30769231       0.010
   0.06250000 -0.24519231  0.37019231       0.010
   0.12500000 -0.18269231  0.43269231       0.010
  -0.06250000 -0.37019231  0.24519231       0.010
  -0.06250000 -0.24519231  0.37019231       0.010
   0.00000000 -0.18269231  0.43269231       0.010
   0.06250000 -0.12019231  0.49519231       0.010
  -0.12500000 -0.30769231  0.30769231       0.010
  -0.12500000 -0.18269231  0.43269231       0.010
  -0.06250000 -0.12019231  0.49519231       0.010
   0.00000000 -0.05769231  0.55769231       0.010
  -0.18750000 -0.24519231  0.37019231       0.010
   0.06250000 -0.37019231  0.24519231       0.010
   0.12500000 -0.30769231  0.30769231       0.010
   0.18750000 -0.24519231  0.37019231       0.010
   0.00000000 -0.43269231  0.18269231       0.010
   0.00000000 -0.38461538  0.38461538       0.010
   0.06250000 -0.32211538  0.44711538       0.010
   0.12500000 -0.25961538  0.50961538       0.010
  -0.06250000 -0.44711538  0.32211538       0.010
  -0.06250000 -0.32211538  0.44711538       0.010
   0.00000000 -0.25961538  0.50961538       0.010
   0.06250000 -0.19711538  0.57211538       0.010
  -0.12500000 -0.38461538  0.38461538       0.010
  -0.12500000 -0.25961538  0.50961538       0.010
  -0.06250000 -0.19711538  0.57211538       0.010
   0.00000000 -0.13461538  0.63461538       0.010
  -0.18750000 -0.32211538  0.44711538       0.010
   0.06250000 -0.44711538  0.32211538       0.010
   0.12500000 -0.38461538  0.38461538       0.010
   0.18750000 -0.32211538  0.44711538       0.010
   0.00000000 -0.50961538  0.25961538       0.010
   0.00000000 -0.46153846  0.46153846       0.010
   0.06250000 -0.39903846  0.52403846       0.010
   0.12500000 -0.33653846  0.58653846       0.010
  -0.06250000 -0.52403846  0.39903846       0.010
  -0.06250000 -0.39903846  0.52403846       0.010
   0.00000000 -0.33653846  0.58653846       0.010
   0.06250000 -0.27403846  0.64903846       0.010
  -0.12500000 -0.46153846  0.46153846       0.010
  -0.12500000 -0.33653846  0.58653846       0.010
  -0.06250000 -0.27403846  0.64903846       0.010
   0.00000000 -0.21153846  0.71153846       0.010
  -0.18750000 -0.39903846  0.52403846       0.010
   0.06250000 -0.52403846  0.39903846       0.010
   0.12500000 -0.46153846  0.46153846       0.010
   0.18750000 -0.39903846  0.52403846       0.010
   0.00000000 -0.58653846  0.33653846       0.010
 
 k-points in reciprocal lattice and weights: read from INCAR                         
   0.00000000  0.00000000  0.00000000       0.005
   0.25000000  0.00000000  0.00000000       0.010
   0.50000000  0.00000000  0.00000000       0.005
   0.00000000  0.25000000  0.00000000       0.010
   0.25000000  0.25000000  0.00000000       0.010
   0.50000000  0.25000000  0.00000000       0.010
  -0.25000000  0.25000000  0.00000000       0.010
   0.00000000  0.50000000  0.00000000       0.005
   0.25000000  0.50000000  0.00000000       0.010
   0.50000000  0.50000000  0.00000000       0.005
   0.00000000  0.00000000  0.07692308       0.010
   0.25000000  0.00000000  0.07692308       0.010
   0.50000000  0.00000000  0.07692308       0.010
  -0.25000000  0.00000000  0.07692308       0.010
   0.00000000  0.25000000  0.07692308       0.010
   0.25000000  0.25000000  0.07692308       0.010
   0.50000000  0.25000000  0.07692308       0.010
  -0.25000000  0.25000000  0.07692308       0.010
   0.00000000  0.50000000  0.07692308       0.010
   0.25000000  0.50000000  0.07692308       0.010
   0.50000000  0.50000000  0.07692308       0.010
  -0.25000000  0.50000000  0.07692308       0.010
   0.00000000 -0.25000000  0.07692308       0.010
   0.25000000 -0.25000000  0.07692308       0.010
   0.50000000 -0.25000000  0.07692308       0.010
  -0.25000000 -0.25000000  0.07692308       0.010
   0.00000000  0.00000000  0.15384615       0.010
   0.25000000  0.00000000  0.15384615       0.010
   0.50000000  0.00000000  0.15384615       0.010
  -0.25000000  0.00000000  0.15384615       0.010
   0.00000000  0.25000000  0.15384615       0.010
   0.25000000  0.25000000  0.15384615       0.010
   0.50000000  0.25000000  0.15384615       0.010
  -0.25000000  0.25000000  0.15384615       0.010
   0.00000000  0.50000000  0.15384615       0.010
   0.25000000  0.50000000  0.15384615       0.010
   0.50000000  0.50000000  0.15384615       0.010
  -0.25000000  0.50000000  0.15384615       0.010
   0.00000000 -0.25000000  0.15384615       0.010
   0.25000000 -0.25000000  0.15384615       0.010
   0.50000000 -0.25000000  0.15384615       0.010
  -0.25000000 -0.25000000  0.15384615       0.010
   0.00000000  0.00000000  0.23076923       0.010
   0.25000000  0.00000000  0.23076923       0.010
   0.50000000  0.00000000  0.23076923       0.010
  -0.25000000  0.00000000  0.23076923       0.010
   0.00000000  0.25000000  0.23076923       0.010
   0.25000000  0.25000000  0.23076923       0.010
   0.50000000  0.25000000  0.23076923       0.010
  -0.25000000  0.25000000  0.23076923       0.010
   0.00000000  0.50000000  0.23076923       0.010
   0.25000000  0.50000000  0.23076923       0.010
   0.50000000  0.50000000  0.23076923       0.010
  -0.25000000  0.50000000  0.23076923       0.010
   0.00000000 -0.25000000  0.23076923       0.010
   0.25000000 -0.25000000  0.23076923       0.010
   0.50000000 -0.25000000  0.23076923       0.010
  -0.25000000 -0.25000000  0.23076923       0.010
   0.00000000  0.00000000  0.30769231       0.010
   0.25000000  0.00000000  0.30769231       0.010
   0.50000000  0.00000000  0.30769231       0.010
  -0.25000000  0.00000000  0.30769231       0.010
   0.00000000  0.25000000  0.30769231       0.010
   0.25000000  0.25000000  0.30769231       0.010
   0.50000000  0.25000000  0.30769231       0.010
  -0.25000000  0.25000000  0.30769231       0.010
   0.00000000  0.50000000  0.30769231       0.010
   0.25000000  0.50000000  0.30769231       0.010
   0.50000000  0.50000000  0.30769231       0.010
  -0.25000000  0.50000000  0.30769231       0.010
   0.00000000 -0.25000000  0.30769231       0.010
   0.25000000 -0.25000000  0.30769231       0.010
   0.50000000 -0.25000000  0.30769231       0.010
  -0.25000000 -0.25000000  0.30769231       0.010
   0.00000000  0.00000000  0.38461538       0.010
   0.25000000  0.00000000  0.38461538       0.010
   0.50000000  0.00000000  0.38461538       0.010
  -0.25000000  0.00000000  0.38461538       0.010
   0.00000000  0.25000000  0.38461538       0.010
   0.25000000  0.25000000  0.38461538       0.010
   0.50000000  0.25000000  0.38461538       0.010
  -0.25000000  0.25000000  0.38461538       0.010
   0.00000000  0.50000000  0.38461538       0.010
   0.25000000  0.50000000  0.38461538       0.010
   0.50000000  0.50000000  0.38461538       0.010
  -0.25000000  0.50000000  0.38461538       0.010
   0.00000000 -0.25000000  0.38461538       0.010
   0.25000000 -0.25000000  0.38461538       0.010
   0.50000000 -0.25000000  0.38461538       0.010
  -0.25000000 -0.25000000  0.38461538       0.010
   0.00000000  0.00000000  0.46153846       0.010
   0.25000000  0.00000000  0.46153846       0.010
   0.50000000  0.00000000  0.46153846       0.010
  -0.25000000  0.00000000  0.46153846       0.010
   0.00000000  0.25000000  0.46153846       0.010
   0.25000000  0.25000000  0.46153846       0.010
   0.50000000  0.25000000  0.46153846       0.010
  -0.25000000  0.25000000  0.46153846       0.010
   0.00000000  0.50000000  0.46153846       0.010
   0.25000000  0.50000000  0.46153846       0.010
   0.50000000  0.50000000  0.46153846       0.010
  -0.25000000  0.50000000  0.46153846       0.010
   0.00000000 -0.25000000  0.46153846       0.010
   0.25000000 -0.25000000  0.46153846       0.010
   0.50000000 -0.25000000  0.46153846       0.010
  -0.25000000 -0.25000000  0.46153846       0.010
 
 position of ions in fractional coordinates (direct lattice) 
   0.00105968  0.75004768  0.49999983
   0.24900968  0.50156929  0.50000025
   0.50286851  0.75148499  0.50000009
   0.99666281  0.99892245  0.00000000
   0.75330046  0.74896337  0.99999972
   0.74539952  0.49725579  0.49999980
   0.49657044  0.99958674  0.99999999
   0.75413919  0.25054794  0.00000012
   0.99650921  0.49985552  0.99999998
   0.25623239  0.75045574  0.99999989
   0.00176940  0.24777721  0.50000010
   0.25221662  0.25382241  0.00000018
   0.50066592  0.50763437  0.00000007
   0.24335898  0.99850032  0.49999998
   0.50605166  0.24637763  0.50000004
   0.74418555  0.99719856  0.49999996
 
 position of ions in cartesian coordinates  (Angst):
  -5.34927225  1.78945470  3.57495409
  -1.80378073  1.78756703  3.57306792
  -1.77561893  3.58654618  5.37204650
  -0.01613838  7.12623495  7.12623497
   0.03097544  3.57908464  7.15008364
   1.77224253  3.54477249  5.33027177
  -3.59254242  3.55727729  7.12827726
   3.59664867  3.58773752  3.58773794
   3.54710064  3.55801847  7.12901840
  -3.52974317  1.80938349  5.38038310
  -1.75698775 -0.00161925  1.78388110
  -0.01146852  1.80706506  1.80706572
  -0.04976868  3.60064018  3.60064043
  -5.39321944  3.54192963  5.32742954
   1.85459189  1.79417491  3.57967504
  -1.80701890  5.32573271  7.11123257
 


--------------------------------------------------------------------------------------------------------


 k-point  1 :   0.0000 0.0000 0.0000  plane waves:    4905
 k-point  2 :   0.2500 0.0000 0.0000  plane waves:    4928
 k-point  3 :   0.5000 0.0000 0.0000  plane waves:    4918
 k-point  4 :   0.0000 0.2500 0.0000  plane waves:    4928
 k-point  5 :   0.2500 0.2500 0.0000  plane waves:    4895
 k-point  6 :   0.5000 0.2500 0.0000  plane waves:    4921
 k-point  7 :  -0.2500 0.2500 0.0000  plane waves:    4919
 k-point  8 :   0.0000 0.5000 0.0000  plane waves:    4918
 k-point  9 :   0.2500 0.5000 0.0000  plane waves:    4921
 k-point 10 :   0.5000 0.5000 0.0000  plane waves:    4896
 k-point 11 :   0.0000 0.0000 0.0769  plane waves:    4909
 k-point 12 :   0.2500 0.0000 0.0769  plane waves:    4907
 k-point 13 :   0.5000 0.0000 0.0769  plane waves:    4916
 k-point 14 :  -0.2500 0.0000 0.0769  plane waves:    4907
 k-point 15 :   0.0000 0.2500 0.0769  plane waves:    4907
 k-point 16 :   0.2500 0.2500 0.0769  plane waves:    4911
 k-point 17 :   0.5000 0.2500 0.0769  plane waves:    4930
 k-point 18 :  -0.2500 0.2500 0.0769  plane waves:    4934
 k-point 19 :   0.0000 0.5000 0.0769  plane waves:    4916
 k-point 20 :   0.2500 0.5000 0.0769  plane waves:    4930
 k-point 21 :   0.5000 0.5000 0.0769  plane waves:    4930
 k-point 22 :  -0.2500 0.5000 0.0769  plane waves:    4930
 k-point 23 :   0.0000-0.2500 0.0769  plane waves:    4907
 k-point 24 :   0.2500-0.2500 0.0769  plane waves:    4934
 k-point 25 :   0.5000-0.2500 0.0769  plane waves:    4930
 k-point 26 :  -0.2500-0.2500 0.0769  plane waves:    4911
 k-point 27 :   0.0000 0.0000 0.1538  plane waves:    4901
 k-point 28 :   0.2500 0.0000 0.1538  plane waves:    4904
 k-point 29 :   0.5000 0.0000 0.1538  plane waves:    4910
 k-point 30 :  -0.2500 0.0000 0.1538  plane waves:    4904
 k-point 31 :   0.0000 0.2500 0.1538  plane waves:    4904
 k-point 32 :   0.2500 0.2500 0.1538  plane waves:    4922
 k-point 33 :   0.5000 0.2500 0.1538  plane waves:    4912
 k-point 34 :  -0.2500 0.2500 0.1538  plane waves:    4911
 k-point 35 :   0.0000 0.5000 0.1538  plane waves:    4910
 k-point 36 :   0.2500 0.5000 0.1538  plane waves:    4912
 k-point 37 :   0.5000 0.5000 0.1538  plane waves:    4930
 k-point 38 :  -0.2500 0.5000 0.1538  plane waves:    4912
 k-point 39 :   0.0000-0.2500 0.1538  plane waves:    4904
 k-point 40 :   0.2500-0.2500 0.1538  plane waves:    4911
 k-point 41 :   0.5000-0.2500 0.1538  plane waves:    4912
 k-point 42 :  -0.2500-0.2500 0.1538  plane waves:    4922
 k-point 43 :   0.0000 0.0000 0.2308  plane waves:    4923
 k-point 44 :   0.2500 0.0000 0.2308  plane waves:    4900
 k-point 45 :   0.5000 0.0000 0.2308  plane waves:    4890
 k-point 46 :  -0.2500 0.0000 0.2308  plane waves:    4900
 k-point 47 :   0.0000 0.2500 0.2308  plane waves:    4900
 k-point 48 :   0.2500 0.2500 0.2308  plane waves:    4896
 k-point 49 :   0.5000 0.2500 0.2308  plane waves:    4900
 k-point 50 :  -0.2500 0.2500 0.2308  plane waves:    4893
 k-point 51 :   0.0000 0.5000 0.2308  plane waves:    4890
 k-point 52 :   0.2500 0.5000 0.2308  plane waves:    4900
 k-point 53 :   0.5000 0.5000 0.2308  plane waves:    4922
 k-point 54 :  -0.2500 0.5000 0.2308  plane waves:    4900
 k-point 55 :   0.0000-0.2500 0.2308  plane waves:    4900
 k-point 56 :   0.2500-0.2500 0.2308  plane waves:    4893
 k-point 57 :   0.5000-0.2500 0.2308  plane waves:    4900
 k-point 58 :  -0.2500-0.2500 0.2308  plane waves:    4896
 k-point 59 :   0.0000 0.0000 0.3077  plane waves:    4920
 k-point 60 :   0.2500 0.0000 0.3077  plane waves:    4897
 k-point 61 :   0.5000 0.0000 0.3077  plane waves:    4882
 k-point 62 :  -0.2500 0.0000 0.3077  plane waves:    4897
 k-point 63 :   0.0000 0.2500 0.3077  plane waves:    4897
 k-point 64 :   0.2500 0.2500 0.3077  plane waves:    4888
 k-point 65 :   0.5000 0.2500 0.3077  plane waves:    4882
 k-point 66 :  -0.2500 0.2500 0.3077  plane waves:    4892
 k-point 67 :   0.0000 0.5000 0.3077  plane waves:    4882
 k-point 68 :   0.2500 0.5000 0.3077  plane waves:    4882
 k-point 69 :   0.5000 0.5000 0.3077  plane waves:    4890
 k-point 70 :  -0.2500 0.5000 0.3077  plane waves:    4882
 k-point 71 :   0.0000-0.2500 0.3077  plane waves:    4897
 k-point 72 :   0.2500-0.2500 0.3077  plane waves:    4892
 k-point 73 :   0.5000-0.2500 0.3077  plane waves:    4882
 k-point 74 :  -0.2500-0.2500 0.3077  plane waves:    4888
 k-point 75 :   0.0000 0.0000 0.3846  plane waves:    4888
 k-point 76 :   0.2500 0.0000 0.3846  plane waves:    4904
 k-point 77 :   0.5000 0.0000 0.3846  plane waves:    4904
 k-point 78 :  -0.2500 0.0000 0.3846  plane waves:    4904
 k-point 79 :   0.0000 0.2500 0.3846  plane waves:    4904
 k-point 80 :   0.2500 0.2500 0.3846  plane waves:    4907
 k-point 81 :   0.5000 0.2500 0.3846  plane waves:    4895
 k-point 82 :  -0.2500 0.2500 0.3846  plane waves:    4884
 k-point 83 :   0.0000 0.5000 0.3846  plane waves:    4904
 k-point 84 :   0.2500 0.5000 0.3846  plane waves:    4895
 k-point 85 :   0.5000 0.5000 0.3846  plane waves:    4890
 k-point 86 :  -0.2500 0.5000 0.3846  plane waves:    4895
 k-point 87 :   0.0000-0.2500 0.3846  plane waves:    4904
 k-point 88 :   0.2500-0.2500 0.3846  plane waves:    4884
 k-point 89 :   0.5000-0.2500 0.3846  plane waves:    4895
 k-point 90 :  -0.2500-0.2500 0.3846  plane waves:    4907
 k-point 91 :   0.0000 0.0000 0.4615  plane waves:    4896
 k-point 92 :   0.2500 0.0000 0.4615  plane waves:    4898
 k-point 93 :   0.5000 0.0000 0.4615  plane waves:    4910
 k-point 94 :  -0.2500 0.0000 0.4615  plane waves:    4898
 k-point 95 :   0.0000 0.2500 0.4615  plane waves:    4898
 k-point 96 :   0.2500 0.2500 0.4615  plane waves:    4916
 k-point 97 :   0.5000 0.2500 0.4615  plane waves:    4898
 k-point 98 :  -0.2500 0.2500 0.4615  plane waves:    4887
 k-point 99 :   0.0000 0.5000 0.4615  plane waves:    4910
 k-point ** :   0.2500 0.5000 0.4615  plane waves:    4898
 k-point ** :   0.5000 0.5000 0.4615  plane waves:    4892
 k-point ** :  -0.2500 0.5000 0.4615  plane waves:    4898
 k-point ** :   0.0000-0.2500 0.4615  plane waves:    4898
 k-point ** :   0.2500-0.2500 0.4615  plane waves:    4887
 k-point ** :   0.5000-0.2500 0.4615  plane waves:    4898
 k-point ** :  -0.2500-0.2500 0.4615  plane waves:    4916

 maximum and minimum number of plane-waves per node :       656      583

 maximum number of plane-waves:      4934
 maximum index in each direction: 
   IXMAX=   16   IYMAX=   16   IZMAX=    4
   IXMIN=  -16   IYMIN=  -16   IZMIN=   -5


 real space projection operators:
  total allocation   :      16310.39 KBytes
  max/ min on nodes  :       2147.20       1819.69


 parallel 3D FFT for wavefunctions:
    minimum data exchange during FFTs selected (reduces bandwidth)
 parallel 3D FFT for charge:
    minimum data exchange during FFTs selected (reduces bandwidth)


 total amount of memory used by VASP MPI-rank0   117013. kBytes
=======================================================================

   base      :      30000. kBytes
   nonlr-proj:       4765. kBytes
   fftplans  :       1555. kBytes
   grid      :       3823. kBytes
   one-center:         62. kBytes
   wavefun   :      76808. kBytes
 
     INWAV:  cpu time    0.0000: real time    0.0000
 initial charge density was supplied:
 number of electron     144.0000007 magnetization      25.5417803
 keeping initial charge density in first step


--------------------------------------------------------------------------------------------------------


 Maximum index for non-local projection operator         1108
 Maximum index for augmentation-charges          834 (set IRDMAX)


--------------------------------------------------------------------------------------------------------


 First call to EWALD:  gamma=   0.313
 Maximum number of real-space cells 2x 2x 6
 Maximum number of reciprocal cells 4x 4x 1

    FEWALD:  cpu time    0.0030: real time    0.0048


--------------------------------------- Iteration      1(   1)  ---------------------------------------


    POTLOK:  cpu time    0.0540: real time    0.0704
    SETDIJ:  cpu time    0.0150: real time    0.0203
     EDDAV:  cpu time   28.1177: real time   28.5728
 BZINTS: Fermi energy: 20.649046;144.000000 electrons
         Band energy:2038.087562;  BLOECHL correction: -0.076877
       DOS:  cpu time    0.3150: real time    0.3185
    --------------------------------------------
      LOOP:  cpu time   28.5017: real time   28.9820

 eigenvalue-minimisations  : 43248
 total energy-change (2. order) : 0.1198705E+04  (-0.6050057E+04)
 number of electron     144.0000007 magnetization      25.5417803
 augmentation part      144.0000007 magnetization      25.5417803

 Free energy of the ion-electron system (eV)
  ---------------------------------------------------
  alpha Z        PSCENC =       868.92678499
  Ewald energy   TEWEN  =    -11987.95434162
  -Hartree energ DENC   =     -2756.55083808
  -exchange      EXHF   =         0.00000000
  -V(xc)+E(xc)   XCENC  =       282.25027724
  PAW double counting   =     14811.34072228   -15433.26389351
  entropy T*S    EENTRO =         0.00000000
  eigenvalues    EBANDS =      2038.08756246
  atomic energy  EATOM  =     13375.86880085
  Solvation  Ediel_sol  =         0.00000000
  ---------------------------------------------------
  free energy    TOTEN  =      1198.70507460 eV

  energy without entropy =     1198.70507460  energy(sigma->0) =     1198.70507460


--------------------------------------------------------------------------------------------------------




--------------------------------------- Iteration      1(   2)  ---------------------------------------


     EDDAV:  cpu time   28.1607: real time   28.1991
 BZINTS: Fermi energy:  9.083316;144.000000 electrons
         Band energy: 865.899642;  BLOECHL correction: -0.051673
       DOS:  cpu time    0.3200: real time    0.3197
    --------------------------------------------
      LOOP:  cpu time   28.4807: real time   28.5188

 eigenvalue-minimisations  : 43248
 total energy-change (2. order) :-0.1172188E+04  (-0.1111993E+04)
 number of electron     144.0000007 magnetization      25.5417803
 augmentation part      144.0000007 magnetization      25.5417803

 Free energy of the ion-electron system (eV)
  ---------------------------------------------------
  alpha Z        PSCENC =       868.92678499
  Ewald energy   TEWEN  =    -11987.95434162
  -Hartree energ DENC   =     -2756.55083808
  -exchange      EXHF   =         0.00000000
  -V(xc)+E(xc)   XCENC  =       282.25027724
  PAW double counting   =     14811.34072228   -15433.26389351
  entropy T*S    EENTRO =         0.00000000
  eigenvalues    EBANDS =       865.89964158
  atomic energy  EATOM  =     13375.86880085
  Solvation  Ediel_sol  =         0.00000000
  ---------------------------------------------------
  free energy    TOTEN  =        26.51715372 eV

  energy without entropy =       26.51715372  energy(sigma->0) =       26.51715372


--------------------------------------------------------------------------------------------------------




--------------------------------------- Iteration      1(   3)  ---------------------------------------


     EDDAV:  cpu time   28.0857: real time   28.1572
 BZINTS: Fermi energy:  7.489643;144.000000 electrons
         Band energy: 734.257839;  BLOECHL correction: -0.145898
       DOS:  cpu time    0.3100: real time    0.3100
    --------------------------------------------
      LOOP:  cpu time   28.3957: real time   28.4672

 eigenvalue-minimisations  : 43320
 total energy-change (2. order) :-0.1316418E+03  (-0.1086134E+03)
 number of electron     144.0000007 magnetization      25.5417803
 augmentation part      144.0000007 magnetization      25.5417803

 Free energy of the ion-electron system (eV)
  ---------------------------------------------------
  alpha Z        PSCENC =       868.92678499
  Ewald energy   TEWEN  =    -11987.95434162
  -Hartree energ DENC   =     -2756.55083808
  -exchange      EXHF   =         0.00000000
  -V(xc)+E(xc)   XCENC  =       282.25027724
  PAW double counting   =     14811.34072228   -15433.26389351
  entropy T*S    EENTRO =         0.00000000
  eigenvalues    EBANDS =       734.25783889
  atomic energy  EATOM  =     13375.86880085
  Solvation  Ediel_sol  =         0.00000000
  ---------------------------------------------------
  free energy    TOTEN  =      -105.12464897 eV

  energy without entropy =     -105.12464897  energy(sigma->0) =     -105.12464897


--------------------------------------------------------------------------------------------------------




--------------------------------------- Iteration      1(   4)  ---------------------------------------


     EDDAV:  cpu time   30.1184: real time   30.1463
 BZINTS: Fermi energy:  7.454260;144.000000 electrons
         Band energy: 729.588199;  BLOECHL correction: -0.145570
       DOS:  cpu time    0.2940: real time    0.2935
    --------------------------------------------
      LOOP:  cpu time   30.4124: real time   30.4397

 eigenvalue-minimisations  : 46944
 total energy-change (2. order) :-0.4669640E+01  (-0.4605684E+01)
 number of electron     144.0000007 magnetization      25.5417803
 augmentation part      144.0000007 magnetization      25.5417803

 Free energy of the ion-electron system (eV)
  ---------------------------------------------------
  alpha Z        PSCENC =       868.92678499
  Ewald energy   TEWEN  =    -11987.95434162
  -Hartree energ DENC   =     -2756.55083808
  -exchange      EXHF   =         0.00000000
  -V(xc)+E(xc)   XCENC  =       282.25027724
  PAW double counting   =     14811.34072228   -15433.26389351
  entropy T*S    EENTRO =         0.00000000
  eigenvalues    EBANDS =       729.58819894
  atomic energy  EATOM  =     13375.86880085
  Solvation  Ediel_sol  =         0.00000000
  ---------------------------------------------------
  free energy    TOTEN  =      -109.79428892 eV

  energy without entropy =     -109.79428892  energy(sigma->0) =     -109.79428892


--------------------------------------------------------------------------------------------------------




--------------------------------------- Iteration      1(   5)  ---------------------------------------


     EDDAV:  cpu time   38.8491: real time   38.9250
 BZINTS: Fermi energy:  7.453605;144.000000 electrons
         Band energy: 729.503147;  BLOECHL correction: -0.145545
       DOS:  cpu time    0.3060: real time    0.3068
    --------------------------------------------
      LOOP:  cpu time   39.1550: real time   39.2318

 eigenvalue-minimisations  : 64377
 total energy-change (2. order) :-0.8505203E-01  (-0.8498433E-01)
 number of electron     144.0000007 magnetization      25.5417803
 augmentation part      144.0000007 magnetization      25.5417803

 Free energy of the ion-electron system (eV)
  ---------------------------------------------------
  alpha Z        PSCENC =       868.92678499
  Ewald energy   TEWEN  =    -11987.95434162
  -Hartree energ DENC   =     -2756.55083808
  -exchange      EXHF   =         0.00000000
  -V(xc)+E(xc)   XCENC  =       282.25027724
  PAW double counting   =     14811.34072228   -15433.26389351
  entropy T*S    EENTRO =         0.00000000
  eigenvalues    EBANDS =       729.50314691
  atomic energy  EATOM  =     13375.86880085
  Solvation  Ediel_sol  =         0.00000000
  ---------------------------------------------------
  free energy    TOTEN  =      -109.87934095 eV

  energy without entropy =     -109.87934095  energy(sigma->0) =     -109.87934095


--------------------------------------------------------------------------------------------------------




--------------------------------------- Iteration      1(   6)  ---------------------------------------


    EDDIAG:  cpu time    3.7634: real time    3.7644
  RMM-DIIS:  cpu time   20.0659: real time   20.1437
    ORTHCH:  cpu time    0.4419: real time    0.4423
 BZINTS: Fermi energy:  7.453594;144.000000 electrons
         Band energy: 729.502065;  BLOECHL correction: -0.145546
       DOS:  cpu time    0.3060: real time    0.3065
    --------------------------------------------
      LOOP:  cpu time   24.5773: real time   24.6569

 eigenvalue-minimisations  : 44918
 total energy-change (2. order) :-0.1081615E-02  (-0.1079782E-02)
 number of electron     144.0000007 magnetization      25.5417803
 augmentation part      144.0000007 magnetization      25.5417803

 Free energy of the ion-electron system (eV)
  ---------------------------------------------------
  alpha Z        PSCENC =       868.92678499
  Ewald energy   TEWEN  =    -11987.95434162
  -Hartree energ DENC   =     -2756.55083808
  -exchange      EXHF   =         0.00000000
  -V(xc)+E(xc)   XCENC  =       282.25027724
  PAW double counting   =     14811.34072228   -15433.26389351
  entropy T*S    EENTRO =         0.00000000
  eigenvalues    EBANDS =       729.50206530
  atomic energy  EATOM  =     13375.86880085
  Solvation  Ediel_sol  =         0.00000000
  ---------------------------------------------------
  free energy    TOTEN  =      -109.88042256 eV

  energy without entropy =     -109.88042256  energy(sigma->0) =     -109.88042256


--------------------------------------------------------------------------------------------------------




--------------------------------------- Iteration      1(   7)  ---------------------------------------


    EDDIAG:  cpu time    3.7684: real time    3.7714
  RMM-DIIS:  cpu time   28.3957: real time   28.4932
    ORTHCH:  cpu time    0.4219: real time    0.4216
 BZINTS: Fermi energy:  7.453592;144.000000 electrons
         Band energy: 729.501862;  BLOECHL correction: -0.145546
       DOS:  cpu time    0.3060: real time    0.3068
    --------------------------------------------
      LOOP:  cpu time   32.8920: real time   32.9930

 eigenvalue-minimisations  : 65141
 total energy-change (2. order) :-0.2029685E-03  (-0.2003239E-03)
 number of electron     144.0000007 magnetization      25.5417803
 augmentation part      144.0000007 magnetization      25.5417803

 Free energy of the ion-electron system (eV)
  ---------------------------------------------------
  alpha Z        PSCENC =       868.92678499
  Ewald energy   TEWEN  =    -11987.95434162
  -Hartree energ DENC   =     -2756.55083808
  -exchange      EXHF   =         0.00000000
  -V(xc)+E(xc)   XCENC  =       282.25027724
  PAW double counting   =     14811.34072228   -15433.26389351
  entropy T*S    EENTRO =         0.00000000
  eigenvalues    EBANDS =       729.50186233
  atomic energy  EATOM  =     13375.86880085
  Solvation  Ediel_sol  =         0.00000000
  ---------------------------------------------------
  free energy    TOTEN  =      -109.88062553 eV

  energy without entropy =     -109.88062553  energy(sigma->0) =     -109.88062553


--------------------------------------------------------------------------------------------------------




--------------------------------------- Iteration      1(   8)  ---------------------------------------


    EDDIAG:  cpu time    3.7704: real time    3.7737
  RMM-DIIS:  cpu time   28.1337: real time   28.1655
    ORTHCH:  cpu time    0.4239: real time    0.4241
 BZINTS: Fermi energy:  7.453592;144.000000 electrons
         Band energy: 729.501857;  BLOECHL correction: -0.145546
       DOS:  cpu time    0.3080: real time    0.3088
    --------------------------------------------
      LOOP:  cpu time   32.6360: real time   32.6721

 eigenvalue-minimisations  : 64673
 total energy-change (2. order) :-0.5722406E-05  (-0.6492461E-05)
 number of electron     144.0000007 magnetization      25.5417803
 augmentation part      144.0000007 magnetization      25.5417803

 Free energy of the ion-electron system (eV)
  ---------------------------------------------------
  alpha Z        PSCENC =       868.92678499
  Ewald energy   TEWEN  =    -11987.95434162
  -Hartree energ DENC   =     -2756.55083808
  -exchange      EXHF   =         0.00000000
  -V(xc)+E(xc)   XCENC  =       282.25027724
  PAW double counting   =     14811.34072228   -15433.26389351
  entropy T*S    EENTRO =         0.00000000
  eigenvalues    EBANDS =       729.50185661
  atomic energy  EATOM  =     13375.86880085
  Solvation  Ediel_sol  =         0.00000000
  ---------------------------------------------------
  free energy    TOTEN  =      -109.88063125 eV

  energy without entropy =     -109.88063125  energy(sigma->0) =     -109.88063125


--------------------------------------------------------------------------------------------------------




--------------------------------------- Iteration      1(   9)  ---------------------------------------


    EDDIAG:  cpu time    3.7614: real time    3.7613
  RMM-DIIS:  cpu time   13.7479: real time   13.9897
    ORTHCH:  cpu time    0.4389: real time    0.4425
 BZINTS: Fermi energy:  7.453592;144.000000 electrons
         Band energy: 729.501856;  BLOECHL correction: -0.145546
       DOS:  cpu time    0.3000: real time    0.3014
    --------------------------------------------
      LOOP:  cpu time   18.2482: real time   18.4949

 eigenvalue-minimisations  : 30704
 total energy-change (2. order) :-0.3676087E-06  (-0.4024145E-06)
 number of electron     144.0000007 magnetization      25.5417803
 augmentation part      144.0000007 magnetization      25.5417803

 Free energy of the ion-electron system (eV)
  ---------------------------------------------------
  alpha Z        PSCENC =       868.92678499
  Ewald energy   TEWEN  =    -11987.95434162
  -Hartree energ DENC   =     -2756.55083808
  -exchange      EXHF   =         0.00000000
  -V(xc)+E(xc)   XCENC  =       282.25027724
  PAW double counting   =     14811.34072228   -15433.26389351
  entropy T*S    EENTRO =         0.00000000
  eigenvalues    EBANDS =       729.50185624
  atomic energy  EATOM  =     13375.86880085
  Solvation  Ediel_sol  =         0.00000000
  ---------------------------------------------------
  free energy    TOTEN  =      -109.88063162 eV

  energy without entropy =     -109.88063162  energy(sigma->0) =     -109.88063162


--------------------------------------------------------------------------------------------------------




 average (electrostatic) potential at core
  the test charge radii are     0.9791  1.0103
  (the norm of the test charge is              1.0000)
       1 -83.9149       2 -83.9845       3 -83.8799       4 -83.9157       5 -83.8456
       6 -83.8945       7 -83.9322       8 -83.9728       9 -41.9296      10 -41.9458
      11 -41.8074      12 -41.7909      13 -41.9876      14 -41.8649      15 -41.9193
      16 -42.0389
 
 
 
 E-fermi :   7.4536     XC(G=0): -13.0395     alpha+bet :-14.6744


 spin component 1

 k-point     1 :       0.0000    0.0000    0.0000
  band No.  band energies     occupation 
      1      -1.3062      1.00000
      2       0.8061      1.00000
      3       0.8336      1.00000
      4       0.8458      1.00000
      5       0.8979      1.00000
      6       1.4536      1.00000
      7       1.4850      1.00000
      8       2.4922      1.00000
      9       2.5007      1.00000
     10       2.5126      1.00000
     11       3.0527      1.00000
     12       3.1361      1.00000
     13       3.1726      1.00000
     14       3.1855      1.00000
     15       3.2071      1.00000
     16       3.2535      1.00000
     17       3.3159      1.00000
     18       3.6952      1.00000
     19       3.7907      1.00000
     20       3.8437      1.00000
     21       3.9072      1.00000
     22       3.9776      1.00000
     23       4.0680      1.00000
     24       4.2166      1.00000
     25       4.2567      1.00000
     26       4.4298      1.00000
     27       4.5216      1.00000
     28       4.5629      1.00000
     29       4.5862      1.00000
     30       4.6494      1.00000
     31       4.6774      1.00000
     32       4.8475      1.00000
     33       4.8507      1.00000
     34       4.8686      1.00000
     35       4.8715      1.00000
     36       4.9091      1.00000
     37       4.9468      1.00000
     38       4.9605      1.00000
     39       5.0022      1.00000
     40       5.0415      1.00000
     41       5.0652      1.00000
     42       5.0764      1.00000
     43       5.0898      1.00000
     44       5.1246      1.00000
     45       5.1322      1.00000
     46       5.1502      1.00000
     47       5.1753      1.00000
     48       5.1980      1.00000
     49       5.2014      1.00000
     50       5.2542      1.00000
     51       5.4159      1.00000
     52       5.4494      1.00000
     53       5.5374      1.00000
     54       5.5571      1.00000
     55       5.7362      1.00000
     56       5.7413      1.00000
     57       5.7766      1.00000
     58       5.8103      1.00000
     59       5.8167      1.00000
     60       5.8370      1.00000
     61       5.8495      1.00000
     62       5.8669      1.00000
     63       5.9915      1.00000
     64       6.0018      1.00000
     65       6.0353      1.00000
     66       6.0527      1.00000
     67       6.0722      1.00000
     68       6.0898      1.00000
     69       6.1008      1.00000
     70       6.1344      1.00000
     71       6.1588      1.00000
     72       6.1782      1.00000
     73       6.2189      1.00000
     74       6.2524      1.00000
     75       6.4081      1.00000
     76       6.4255      1.00000
     77       6.7658      1.00000
     78       6.7810      1.00000
     79       6.7893      1.00000
     80       6.8105      1.00000
     81       6.8169      1.00000
     82       6.8370      1.00000
     83       6.8969      1.00000
     84       6.9102      1.00000
     85       6.9202      1.00000
     86       6.9412      1.00000
     87       7.0592      1.00000
     88       7.1955      0.75480
     89       7.2760      0.33128
     90       8.4250      0.00000
     91       8.5001      0.00000
     92       9.5536      0.00000
     93       9.7270      0.00000
     94       9.7432      0.00000
     95       9.8849      0.00000
     96       9.9418      0.00000
     97      13.2496      0.00000
     98      13.2597      0.00000
     99      15.6092      0.00000
    100      15.8373      0.00000
    101      15.9024      0.00000
    102      16.1512      0.00000

 k-point     2 :       0.2500    0.0000    0.0000
  band No.  band energies     occupation 
      1      -1.1563      1.00000
      2      -0.0177      1.00000
      3       0.6640      1.00000
      4       0.9937      1.00000
      5       1.2669      1.00000
      6       1.7046      1.00000
      7       2.0095      1.00000
      8       2.4622      1.00000
      9       2.5572      1.00000
     10       2.5651      1.00000
     11       2.5969      1.00000
     12       2.9299      1.00000
     13       3.0163      1.00000
     14       3.0714      1.00000
     15       3.1610      1.00000
     16       3.3877      1.00000
     17       3.4840      1.00000
     18       3.5696      1.00000
     19       3.7005      1.00000
     20       3.8369      1.00000
     21       3.9371      1.00000
     22       4.1065      1.00000
     23       4.1915      1.00000
     24       4.2565      1.00000
     25       4.3307      1.00000
     26       4.4578      1.00000
     27       4.5274      1.00000
     28       4.5656      1.00000
     29       4.6868      1.00000
     30       4.7319      1.00000
     31       4.8054      1.00000
     32       4.8242      1.00000
     33       4.8740      1.00000
     34       4.8905      1.00000
     35       4.9022      1.00000
     36       4.9074      1.00000
     37       4.9335      1.00000
     38       4.9852      1.00000
     39       5.0211      1.00000
     40       5.0331      1.00000
     41       5.0692      1.00000
     42       5.0732      1.00000
     43       5.1215      1.00000
     44       5.1220      1.00000
     45       5.1412      1.00000
     46       5.1495      1.00000
     47       5.1994      1.00000
     48       5.2233      1.00000
     49       5.2430      1.00000
     50       5.3259      1.00000
     51       5.3871      1.00000
     52       5.4038      1.00000
     53       5.4398      1.00000
     54       5.4979      1.00000
     55       5.5913      1.00000
     56       5.6158      1.00000
     57       5.7002      1.00000
     58       5.8037      1.00000
     59       5.8749      1.00000
     60       5.9152      1.00000
     61       5.9427      1.00000
     62       5.9659      1.00000
     63       5.9675      1.00000
     64       5.9914      1.00000
     65       6.0002      1.00000
     66       6.0398      1.00000
     67       6.0681      1.00000
     68       6.1287      1.00000
     69       6.1542      1.00000
     70       6.2420      1.00000
     71       6.2755      1.00000
     72       6.3065      1.00000
     73       6.3426      1.00000
     74       6.3734      1.00000
     75       6.3820      1.00000
     76       6.4409      1.00000
     77       6.5293      1.00000
     78       6.5349      1.00000
     79       6.7011      1.00000
     80       6.7243      1.00000
     81       6.7424      1.00000
     82       6.7877      1.00000
     83       6.8171      1.00000
     84       6.8403      1.00000
     85       6.8811      1.00000
     86       6.8906      1.00000
     87       6.9275      1.00000
     88       7.0226      1.00812
     89       7.5843      0.13786
     90       7.8932     -0.04188
     91       8.2292      0.00000
     92       9.3284      0.00000
     93       9.6119      0.00000
     94       9.9294      0.00000
     95       9.9679      0.00000
     96      11.2643      0.00000
     97      13.3574      0.00000
     98      13.9729      0.00000
     99      14.1731      0.00000
    100      14.6656      0.00000
    101      16.6354      0.00000
    102      17.0317      0.00000

 k-point     3 :       0.5000    0.0000    0.0000
  band No.  band energies     occupation 
      1      -0.7498      1.00000
      2      -0.6791      1.00000
      3       0.6948      1.00000
      4       0.7495      1.00000
      5       1.8512      1.00000
      6       1.8671      1.00000
      7       2.2308      1.00000
      8       2.2876      1.00000
      9       2.4966      1.00000
     10       2.5604      1.00000
     11       2.6960      1.00000
     12       2.7759      1.00000
     13       2.8154      1.00000
     14       2.8556      1.00000
     15       3.2390      1.00000
     16       3.3265      1.00000
     17       3.4695      1.00000
     18       3.5696      1.00000
     19       3.6813      1.00000
     20       3.8156      1.00000
     21       3.9266      1.00000
     22       4.0851      1.00000
     23       4.3166      1.00000
     24       4.3774      1.00000
     25       4.4191      1.00000
     26       4.4520      1.00000
     27       4.5484      1.00000
     28       4.6096      1.00000
     29       4.7235      1.00000
     30       4.7629      1.00000
     31       4.8297      1.00000
     32       4.8523      1.00000
     33       4.8886      1.00000
     34       4.9241      1.00000
     35       4.9333      1.00000
     36       4.9889      1.00000
     37       5.0206      1.00000
     38       5.0407      1.00000
     39       5.0421      1.00000
     40       5.0734      1.00000
     41       5.1004      1.00000
     42       5.1016      1.00000
     43       5.1276      1.00000
     44       5.1450      1.00000
     45       5.1724      1.00000
     46       5.2287      1.00000
     47       5.2545      1.00000
     48       5.2656      1.00000
     49       5.2704      1.00000
     50       5.2803      1.00000
     51       5.3744      1.00000
     52       5.4031      1.00000
     53       5.4278      1.00000
     54       5.4567      1.00000
     55       5.5444      1.00000
     56       5.5721      1.00000
     57       5.6317      1.00000
     58       5.6431      1.00000
     59       5.8562      1.00000
     60       5.8748      1.00000
     61       5.9058      1.00000
     62       5.9226      1.00000
     63       5.9381      1.00000
     64       5.9502      1.00000
     65       5.9775      1.00000
     66       5.9891      1.00000
     67       6.0197      1.00000
     68       6.0387      1.00000
     69       6.1584      1.00000
     70       6.1808      1.00000
     71       6.3289      1.00000
     72       6.3384      1.00000
     73       6.4643      1.00000
     74       6.4800      1.00000
     75       6.5609      1.00000
     76       6.5656      1.00000
     77       6.5666      1.00000
     78       6.5776      1.00000
     79       6.5883      1.00000
     80       6.6136      1.00000
     81       6.7253      1.00000
     82       6.7707      1.00000
     83       6.8199      1.00000
     84       6.8743      1.00000
     85       6.9056      1.00000
     86       6.9345      1.00000
     87       6.9411      1.00000
     88       6.9869      1.00597
     89       7.0304      1.19217
     90       7.0874      1.00282
     91       8.6607      0.00000
     92       8.7285      0.00000
     93       9.9774      0.00000
     94      10.0185      0.00000
     95      10.9583      0.00000
     96      10.9915      0.00000
     97      13.7412      0.00000
     98      13.9223      0.00000
     99      14.4442      0.00000
    100      14.5201      0.00000
    101      16.1593      0.00000
    102      16.2327      0.00000

 k-point     4 :       0.0000    0.2500    0.0000
  band No.  band energies     occupation 
      1      -1.1564      1.00000
      2      -0.0192      1.00000
      3       0.6620      1.00000
      4       1.0066      1.00000
      5       1.2649      1.00000
      6       1.6925      1.00000
      7       2.0123      1.00000
      8       2.4484      1.00000
      9       2.5422      1.00000
     10       2.5700      1.00000
     11       2.6178      1.00000
     12       2.9448      1.00000
     13       2.9861      1.00000
     14       3.0902      1.00000
     15       3.1743      1.00000
     16       3.3692      1.00000
     17       3.4948      1.00000
     18       3.5677      1.00000
     19       3.7006      1.00000
     20       3.8885      1.00000
     21       3.9067      1.00000
     22       4.1213      1.00000
     23       4.1880      1.00000
     24       4.2615      1.00000
     25       4.2949      1.00000
     26       4.4282      1.00000
     27       4.5484      1.00000
     28       4.5957      1.00000
     29       4.6493      1.00000
     30       4.7343      1.00000
     31       4.7709      1.00000
     32       4.8192      1.00000
     33       4.8705      1.00000
     34       4.8906      1.00000
     35       4.9139      1.00000
     36       4.9289      1.00000
     37       4.9325      1.00000
     38       4.9795      1.00000
     39       5.0093      1.00000
     40       5.0334      1.00000
     41       5.0512      1.00000
     42       5.0691      1.00000
     43       5.1205      1.00000
     44       5.1437      1.00000
     45       5.1473      1.00000
     46       5.1806      1.00000
     47       5.1914      1.00000
     48       5.2226      1.00000
     49       5.2438      1.00000
     50       5.3416      1.00000
     51       5.3796      1.00000
     52       5.4110      1.00000
     53       5.4796      1.00000
     54       5.5103      1.00000
     55       5.5590      1.00000
     56       5.6212      1.00000
     57       5.7067      1.00000
     58       5.7730      1.00000
     59       5.8106      1.00000
     60       5.9022      1.00000
     61       5.9368      1.00000
[...]
     94      12.5362      0.00000
     95      13.5920      0.00000
     96      13.6047      0.00000
     97      14.4678      0.00000
     98      14.4816      0.00000
     99      15.2510      0.00000
    100      15.2668      0.00000
    101      15.5040      0.00000
    102      15.5523      0.00000


--------------------------------------------------------------------------------------------------------


 soft charge-density along one line, spin component           1
         0         1         2         3         4         5         6         7         8         9
 total charge-density along one line
 
 soft charge-density along one line, spin component           2
         0         1         2         3         4         5         6         7         8         9
 total charge-density along one line
 
 pseudopotential strength for first ion, spin component:           1
 -1.948   0.002  -0.001  -0.013   0.001  -2.567   0.002  -0.001
  0.002  -1.931  -0.004   0.002   0.007   0.002  -2.552  -0.004
 -0.001  -0.004  -1.923  -0.001   0.019  -0.001  -0.004  -2.543
 -0.013   0.002  -0.001  -1.948   0.002  -0.013   0.002  -0.001
  0.001   0.007   0.019   0.002  -1.945   0.001   0.006   0.018
 -2.567   0.002  -0.001  -0.013   0.001  -3.117   0.002  -0.001
  0.002  -2.552  -0.004   0.002   0.006   0.002  -3.103  -0.003
 -0.001  -0.004  -2.543  -0.001   0.018  -0.001  -0.003  -3.095
 -0.013   0.002  -0.001  -2.567   0.001  -0.012   0.002  -0.001
  0.001   0.006   0.018   0.001  -2.564   0.001   0.006   0.017
 -0.000   0.003  -0.002  -0.000   0.004  -0.000   0.003  -0.002
 -0.000   0.005  -0.004  -0.000   0.006  -0.000   0.004  -0.003
  0.007   0.002  -0.001  -0.000  -0.002   0.007   0.002  -0.001
 -0.000   0.002   0.003   0.007   0.000  -0.000   0.002   0.003
  0.002  -0.000  -0.004   0.002   0.007   0.002  -0.000  -0.004
  0.010   0.003  -0.002  -0.000  -0.003   0.009   0.003  -0.002
 -0.000   0.003   0.004   0.010   0.000  -0.000   0.003   0.003
  0.003  -0.000  -0.006   0.003   0.010   0.003  -0.000  -0.005
 pseudopotential strength for first ion, spin component:           2
 -1.342   0.000  -0.003   0.003  -0.003  -1.990   0.000  -0.003
  0.000  -1.313  -0.006   0.000   0.011   0.000  -1.962  -0.006
 -0.003  -0.006  -1.343   0.004  -0.001  -0.003  -0.006  -1.991
  0.003   0.000   0.004  -1.342   0.001   0.003   0.000   0.004
 -0.003   0.011  -0.001   0.001  -1.342  -0.003   0.010  -0.002
 -1.990   0.000  -0.003   0.003  -0.003  -2.568   0.000  -0.003
  0.000  -1.962  -0.006   0.000   0.010   0.000  -2.540  -0.006
 -0.003  -0.006  -1.991   0.004  -0.002  -0.003  -0.006  -2.569
  0.003   0.000   0.004  -1.990   0.001   0.003   0.000   0.004
 -0.003   0.010  -0.002   0.001  -1.990  -0.002   0.010  -0.002
 -0.000   0.000  -0.000  -0.000   0.001  -0.000   0.000  -0.000
 -0.000   0.000  -0.001  -0.000   0.001  -0.000   0.000  -0.001
  0.003   0.001  -0.000  -0.000  -0.001   0.003   0.001  -0.000
 -0.000   0.001   0.001   0.003  -0.000  -0.000   0.001   0.001
  0.001  -0.000  -0.002   0.001   0.003   0.001  -0.000  -0.002
  0.004   0.001  -0.001  -0.000  -0.001   0.003   0.001  -0.001
 -0.000   0.001   0.001   0.004  -0.000  -0.000   0.001   0.001
  0.001  -0.000  -0.002   0.001   0.004   0.001  -0.000  -0.002
 total augmentation occupancy for first ion, spin component:           1
  1.800   0.000   0.000   0.000   0.000   0.000   0.000   0.000   0.000   0.000   0.000   0.000   0.000   0.000   0.000   0.000
  0.000   1.800   0.000   0.000   0.000   0.000   0.000   0.000   0.000   0.000   0.000   0.000   0.000   0.000   0.000   0.000
  0.000   0.000   1.800   0.000   0.000   0.000   0.000   0.000   0.000   0.000   0.000   0.000   0.000   0.000   0.000   0.000
  0.000   0.000   0.000   1.800   0.000   0.000   0.000   0.000   0.000   0.000   0.000   0.000   0.000   0.000   0.000   0.000
  0.000   0.000   0.000   0.000   1.800   0.000   0.000   0.000   0.000   0.000   0.000   0.000   0.000   0.000   0.000   0.000
  0.000   0.000   0.000   0.000   0.000   0.000   0.000   0.000   0.000   0.000   0.000   0.000   0.000   0.000   0.000   0.000
  0.000   0.000   0.000   0.000   0.000   0.000   0.000   0.000   0.000   0.000   0.000   0.000   0.000   0.000   0.000   0.000
  0.000   0.000   0.000   0.000   0.000   0.000   0.000   0.000   0.000   0.000   0.000   0.000   0.000   0.000   0.000   0.000
  0.000   0.000   0.000   0.000   0.000   0.000   0.000   0.000   0.000   0.000   0.000   0.000   0.000   0.000   0.000   0.000
  0.000   0.000   0.000   0.000   0.000   0.000   0.000   0.000   0.000   0.000   0.000   0.000   0.000   0.000   0.000   0.000
  0.000   0.000   0.000   0.000   0.000   0.000   0.000   0.000   0.000   0.000   1.000   0.000   0.000   0.000   0.000   0.000
  0.000   0.000   0.000   0.000   0.000   0.000   0.000   0.000   0.000   0.000   0.000   0.000   0.000   0.000   0.000   0.000
  0.000   0.000   0.000   0.000   0.000   0.000   0.000   0.000   0.000   0.000   0.000   0.000   0.000   0.000   0.000   0.000
  0.000   0.000   0.000   0.000   0.000   0.000   0.000   0.000   0.000   0.000   0.000   0.000   0.000   0.000   0.000   0.000
  0.000   0.000   0.000   0.000   0.000   0.000   0.000   0.000   0.000   0.000   0.000   0.000   0.000   0.000   0.000   0.000
  0.000   0.000   0.000   0.000   0.000   0.000   0.000   0.000   0.000   0.000   0.000   0.000   0.000   0.000   0.000   0.000
  0.000   0.000   0.000   0.000   0.000   0.000   0.000   0.000   0.000   0.000   0.000   0.000   0.000   0.000   0.000   0.000
  0.000   0.000   0.000   0.000   0.000   0.000   0.000   0.000   0.000   0.000   0.000   0.000   0.000   0.000   0.000   0.000
 total augmentation occupancy for first ion, spin component:           2
  0.180   0.000   0.000   0.000   0.000   0.000   0.000   0.000   0.000   0.000   0.000   0.000   0.000   0.000   0.000   0.000
  0.000   0.180   0.000   0.000   0.000   0.000   0.000   0.000   0.000   0.000   0.000   0.000   0.000   0.000   0.000   0.000
  0.000   0.000   0.180   0.000   0.000   0.000   0.000   0.000   0.000   0.000   0.000   0.000   0.000   0.000   0.000   0.000
  0.000   0.000   0.000   0.180   0.000   0.000   0.000   0.000   0.000   0.000   0.000   0.000   0.000   0.000   0.000   0.000
  0.000   0.000   0.000   0.000   0.180   0.000   0.000   0.000   0.000   0.000   0.000   0.000   0.000   0.000   0.000   0.000
  0.000   0.000   0.000   0.000   0.000   0.000   0.000   0.000   0.000   0.000   0.000   0.000   0.000   0.000   0.000   0.000
  0.000   0.000   0.000   0.000   0.000   0.000   0.000   0.000   0.000   0.000   0.000   0.000   0.000   0.000   0.000   0.000
  0.000   0.000   0.000   0.000   0.000   0.000   0.000   0.000   0.000   0.000   0.000   0.000   0.000   0.000   0.000   0.000
  0.000   0.000   0.000   0.000   0.000   0.000   0.000   0.000   0.000   0.000   0.000   0.000   0.000   0.000   0.000   0.000
  0.000   0.000   0.000   0.000   0.000   0.000   0.000   0.000   0.000   0.000   0.000   0.000   0.000   0.000   0.000   0.000
  0.000   0.000   0.000   0.000   0.000   0.000   0.000   0.000   0.000   0.000   0.100   0.000   0.000   0.000   0.000   0.000
  0.000   0.000   0.000   0.000   0.000   0.000   0.000   0.000   0.000   0.000   0.000   0.000   0.000   0.000   0.000   0.000
  0.000   0.000   0.000   0.000   0.000   0.000   0.000   0.000   0.000   0.000   0.000   0.000   0.000   0.000   0.000   0.000
  0.000   0.000   0.000   0.000   0.000   0.000   0.000   0.000   0.000   0.000   0.000   0.000   0.000   0.000   0.000   0.000
  0.000   0.000   0.000   0.000   0.000   0.000   0.000   0.000   0.000   0.000   0.000   0.000   0.000   0.000   0.000   0.000
  0.000   0.000   0.000   0.000   0.000   0.000   0.000   0.000   0.000   0.000   0.000   0.000   0.000   0.000   0.000   0.000
  0.000   0.000   0.000   0.000   0.000   0.000   0.000   0.000   0.000   0.000   0.000   0.000   0.000   0.000   0.000   0.000
  0.000   0.000   0.000   0.000   0.000   0.000   0.000   0.000   0.000   0.000   0.000   0.000   0.000   0.000   0.000   0.000


------------------------ aborting loop because EDIFF is reached ----------------------------------------


 


 total charge     
 
# of ion       s       p       d       tot
------------------------------------------
    1        0.499   0.493   8.302   9.294
    2        0.515   0.526   8.312   9.354
    3        0.507   0.509   8.324   9.340
    4        0.509   0.508   8.317   9.333
    5        0.493   0.485   8.303   9.281
    6        0.501   0.495   8.321   9.317
    7        0.511   0.515   8.322   9.348
    8        0.510   0.516   8.311   9.337
    9        0.469   0.493   6.185   7.148
   10        0.472   0.501   6.185   7.158
   11        0.477   0.509   6.213   7.199
   12        0.479   0.510   6.215   7.204
   13        0.471   0.499   6.181   7.152
   14        0.476   0.501   6.209   7.186
   15        0.473   0.503   6.189   7.165
   16        0.466   0.491   6.166   7.124
--------------------------------------------------
tot          7.828   8.055 116.055 131.938
 


 magnetization (x)
 
# of ion       s       p       d       tot
------------------------------------------
    1       -0.021  -0.044   0.704   0.639
    2       -0.029  -0.063   0.730   0.638
    3       -0.021  -0.046   0.650   0.583
    4       -0.025  -0.049   0.688   0.614
    5       -0.015  -0.038   0.661   0.608
    6       -0.020  -0.041   0.673   0.611
    7       -0.025  -0.054   0.690   0.611
    8       -0.024  -0.053   0.715   0.638
    9       -0.003  -0.026   2.661   2.632
   10       -0.002  -0.027   2.661   2.632
   11       -0.008  -0.037   2.555   2.509
   12       -0.013  -0.044   2.556   2.499
   13       -0.002  -0.026   2.690   2.662
   14       -0.008  -0.029   2.603   2.566
   15       -0.007  -0.035   2.652   2.610
   16        0.002  -0.019   2.729   2.712
--------------------------------------------------
tot         -0.222  -0.632  26.619  25.765
 
    CHARGE:  cpu time    0.9289: real time    0.9361
    FORLOC:  cpu time    0.0050: real time    0.0044
    FORNL :  cpu time    7.9978: real time    8.0018
    STRESS:  cpu time   24.0693: real time   24.0807
    FORCOR:  cpu time    0.0460: real time    0.0483
    FORHAR:  cpu time    0.0090: real time    0.0113
    OFIELD:  cpu time    0.0000: real time    0.0001

  FORCE on cell =-STRESS in cart. coord.  units (eV):
  Direction    XX          YY          ZZ          XY          YZ          ZX
  --------------------------------------------------------------------------------------
  Alpha Z   868.92678   868.92678   868.92678
  Ewald   -4038.62404 -3974.68010 -3974.68007   -20.64218   -65.06888   -20.64220
  Hartree   876.09099   939.16268   939.16065   -19.97848   -67.28251   -19.95992
  E(xc)    -758.84460  -759.29931  -759.29908     0.08577     0.23056     0.08701
  Local     398.69482   268.79219   268.79713    41.47434   133.58979    41.42397
  n-local  -264.98139  -268.40969  -268.41037     0.26587     1.54618     0.28847
  augment  1716.68132  1720.39593  1720.39555    -0.60192    -1.18691    -0.57879
  Kinetic  1200.50163  1203.09353  1203.09222    -0.31232    -0.78273    -0.29191
  Fock        0.00000     0.00000     0.00000     0.00000     0.00000     0.00000
  -------------------------------------------------------------------------------------
  Total      -1.55449    -2.01798    -2.01719     0.29108     1.04550     0.32664
  in kB     -13.67312   -17.75001   -17.74302     2.56034     9.19611     2.87307
  external pressure =      -16.39 kB  Pullay stress =        0.00 kB


 VOLUME and BASIS-vectors are now :
 -----------------------------------------------------------------------------
  energy-cutoff  :      520.00
  volume of cell :      182.15
      direct lattice vectors                 reciprocal lattice vectors
     7.142000000  3.571000000  3.571000000     0.070008401  0.070008401  0.070008401
    -7.142000000  3.571000000  3.571000000    -0.070008401  0.070008401  0.070008401
     0.000000000 -1.785500000  1.785500000     0.000000000 -0.280033604  0.280033604

  length of vectors
     8.747127871  8.747127871  2.525078316     0.121258108  0.121258108  0.396027321


 FORCES acting on ions
    electron-ion (+dipol)            ewald-force                    non-local-force                 convergence-correction
 -----------------------------------------------------------------------------------------------
   -.110E+03 -.499E+02 -.499E+02   0.111E+03 0.502E+02 0.502E+02   -.327E+00 -.816E-01 -.810E-01   -.403E+00 -.252E+00 -.255E+00
   -.343E+02 0.601E+02 0.601E+02   0.348E+02 -.606E+02 -.606E+02   -.637E-02 0.195E+00 0.194E+00   -.427E+00 0.230E+00 0.233E+00
   0.325E+02 0.411E+02 0.411E+02   -.328E+02 -.415E+02 -.415E+02   0.584E-01 0.976E-01 0.973E-01   0.254E+00 0.277E+00 0.277E+00
   0.342E+02 -.102E+03 -.102E+03   -.344E+02 0.103E+03 0.103E+03   0.265E+00 -.209E+00 -.209E+00   -.176E-01 -.609E+00 -.608E+00
   0.257E+02 0.170E+01 0.171E+01   -.258E+02 -.177E+01 -.176E+01   0.183E+00 -.115E+00 -.114E+00   -.897E-01 0.165E+00 0.163E+00
   -.324E+02 0.503E+02 0.503E+02   0.326E+02 -.507E+02 -.507E+02   0.867E-01 -.609E-01 -.600E-01   -.296E+00 0.428E+00 0.427E+00
   0.112E+03 0.260E+01 0.260E+01   -.113E+03 -.257E+01 -.257E+01   0.112E+00 0.357E-01 0.349E-01   0.781E+00 -.666E-01 -.667E-01
   -.369E+02 -.466E+01 -.466E+01   0.369E+02 0.459E+01 0.459E+01   -.318E+00 0.366E-02 0.280E-02   0.264E+00 0.599E-01 0.607E-01
   -.812E+02 -.964E+01 -.965E+01   0.818E+02 0.931E+01 0.931E+01   -.396E+00 0.219E+00 0.220E+00   -.264E+00 0.104E+00 0.104E+00
   0.441E+02 0.157E+02 0.157E+02   -.445E+02 -.154E+02 -.154E+02   0.248E+00 -.188E+00 -.188E+00   0.111E+00 -.748E-01 -.752E-01
   -.256E+02 -.380E+02 -.380E+02   0.258E+02 0.387E+02 0.387E+02   0.114E-01 -.493E+00 -.493E+00   -.148E+00 -.188E+00 -.188E+00
   -.411E+02 -.669E+01 -.669E+01   0.416E+02 0.658E+01 0.658E+01   -.283E+00 0.205E+00 0.204E+00   -.270E+00 -.832E-01 -.825E-01
   -.445E+02 0.961E+02 0.961E+02   0.450E+02 -.967E+02 -.967E+02   -.251E+00 0.234E+00 0.234E+00   -.266E+00 0.459E+00 0.459E+00
   0.268E+02 -.526E+02 -.526E+02   -.268E+02 0.531E+02 0.531E+02   -.110E+00 -.133E+00 -.132E+00   0.129E+00 -.369E+00 -.369E+00
   0.107E+03 0.448E+02 0.448E+02   -.108E+03 -.452E+02 -.452E+02   0.747E+00 0.171E+00 0.172E+00   0.265E+00 0.180E+00 0.181E+00
   0.240E+02 -.486E+02 -.486E+02   -.244E+02 0.488E+02 0.488E+02   -.383E-01 0.780E-01 0.772E-01   0.396E+00 -.211E+00 -.211E+00
 -----------------------------------------------------------------------------------------------
   -.296E-02 -.780E-02 -.800E-02   0.242E-12 0.355E-13 0.163E-12   -.176E-01 -.407E-01 -.402E-01   0.170E-01 0.502E-01 0.499E-01
 
 
 POSITION                                       TOTAL-FORCE (eV/Angst)
 -----------------------------------------------------------------------------------
     -5.34927      1.78945      3.57495        -0.000303     -0.013788     -0.014263
     -1.80378      1.78757      3.57307        -0.002859     -0.006749     -0.006548
     -1.77562      3.58655      5.37205        -0.019344      0.003609      0.004346
     -0.01614      7.12623      7.12623         0.000439      0.003940      0.004518
      0.03098      3.57908      7.15008         0.011337     -0.011497     -0.010907
      1.77224      3.54477      5.33027         0.010249      0.000666      0.000231
     -3.59254      3.55728      7.12828        -0.006172     -0.002430     -0.003111
      3.59665      3.58774      3.58774         0.001247     -0.007775     -0.007773
      3.54710      3.55802      7.12902         0.003587     -0.007556     -0.007418
     -3.52974      1.80938      5.38038        -0.017957      0.006222      0.006436
     -1.75699     -0.00162      1.78388         0.006613      0.009871      0.009911
     -0.01147      1.80707      1.80707         0.008591      0.004676      0.004457
     -0.04977      3.60064      3.60064         0.005390      0.002001      0.001492
     -5.39322      3.54193      5.32743        -0.006180      0.021828      0.021703
      1.85459      1.79417      3.57968         0.005019     -0.005543     -0.004724
     -1.80702      5.32573      7.11123         0.000341      0.002526      0.001649
 -----------------------------------------------------------------------------------
    total drift:                               -0.003575      0.001680      0.001656


--------------------------------------------------------------------------------------------------------



  FREE ENERGIE OF THE ION-ELECTRON SYSTEM (eV)
  ---------------------------------------------------
  free  energy   TOTEN  =      -109.88063162 eV

  energy  without entropy=     -109.88063162  energy(sigma->0) =     -109.88063162
 


--------------------------------------------------------------------------------------------------------


    POTLOK:  cpu time    0.0560: real time    0.0599


--------------------------------------------------------------------------------------------------------


     LOOP+:  cpu time  296.6009: real time  297.8283
    4ORBIT:  cpu time    0.0000: real time    0.0000
 


 total charge     
 
# of ion       s       p       d       tot
------------------------------------------
    1        0.499   0.493   8.302   9.294
    2        0.515   0.526   8.312   9.354
    3        0.507   0.509   8.324   9.340
    4        0.509   0.508   8.317   9.333
    5        0.493   0.485   8.303   9.281
    6        0.501   0.495   8.321   9.317
    7        0.511   0.515   8.322   9.348
    8        0.510   0.516   8.311   9.337
    9        0.469   0.493   6.185   7.148
   10        0.472   0.501   6.185   7.158
   11        0.477   0.509   6.213   7.199
   12        0.479   0.510   6.215   7.204
   13        0.471   0.499   6.181   7.152
   14        0.476   0.501   6.209   7.186
   15        0.473   0.503   6.189   7.165
   16        0.466   0.491   6.166   7.124
--------------------------------------------------
tot          7.828   8.055 116.055 131.938
 


 magnetization (x)
 
# of ion       s       p       d       tot
------------------------------------------
    1       -0.021  -0.044   0.704   0.639
    2       -0.029  -0.063   0.730   0.638
    3       -0.021  -0.046   0.650   0.583
    4       -0.025  -0.049   0.688   0.614
    5       -0.015  -0.038   0.661   0.608
    6       -0.020  -0.041   0.673   0.611
    7       -0.025  -0.054   0.690   0.611
    8       -0.024  -0.053   0.715   0.638
    9       -0.003  -0.026   2.661   2.632
   10       -0.002  -0.027   2.661   2.632
   11       -0.008  -0.037   2.555   2.509
   12       -0.013  -0.044   2.556   2.499
   13       -0.002  -0.026   2.690   2.662
   14       -0.008  -0.029   2.603   2.566
   15       -0.007  -0.035   2.652   2.610
   16        0.002  -0.019   2.729   2.712
--------------------------------------------------
tot         -0.222  -0.632  26.619  25.765
 
 BZINTS: Fermi energy:  7.453592;144.000000 electrons
         Band energy: 729.501856;  BLOECHL correction: -0.145546

 total amount of memory used by VASP MPI-rank0   117013. kBytes
=======================================================================

   base      :      30000. kBytes
   nonlr-proj:       4765. kBytes
   fftplans  :       1555. kBytes
   grid      :       3823. kBytes
   one-center:         62. kBytes
   wavefun   :      76808. kBytes
 
  
  
 General timing and accounting informations for this job:
 ========================================================
  
                  Total CPU time used (sec):      317.550
                            User time (sec):      310.135
                          System time (sec):        7.415
                         Elapsed time (sec):      319.290
  
                   Maximum memory used (kb):      170384.
                   Average memory used (kb):           0.
  
                          Minor page faults:        12794
                          Major page faults:            0
                 Voluntary context switches:         7344
