 vasp.5.4.4.18Apr17-6-g9f103f2a35 (build Sep 06 2021 19:49:22) complex          
  
 executed on             LinuxIFC date 2021.12.24  00:16:14
 running on   24 total cores
 distrk:  each k-point on   24 cores,    1 groups
 distr:  one band on NCORES_PER_BAND=   8 cores,    3 groups


--------------------------------------------------------------------------------------------------------


 INCAR:
 POTCAR:    PAW_PBE Ni 02Aug2007                  
 POTCAR:    PAW_PBE Fe 06Sep2000                  
 POTCAR:    PAW_PBE Ni 02Aug2007                  
   VRHFIN =Ni:                                                                  
   LEXCH  = PE                                                                  
   EATOM  =  1077.6739 eV,   79.2068 Ry                                         
                                                                                
   TITEL  = PAW_PBE Ni 02Aug2007                                                
   LULTRA =        F    use ultrasoft PP ?                                      
   IUNSCR =        1    unscreen: 0-lin 1-nonlin 2-no                           
   RPACOR =    2.000    partial core radius                                     
   POMASS =   58.690; ZVAL   =   10.000    mass and valenz                      
   RCORE  =    2.300    outmost cutoff radius                                   
   RWIGS  =    2.430; RWIGS  =    1.286    wigner-seitz radius (au A)           
   ENMAX  =  269.532; ENMIN  =  202.149 eV                                      
   RCLOC  =    1.201    cutoff for local pot                                    
   LCOR   =        T    correct aug charges                                     
   LPAW   =        T    paw PP                                                  
   EAUG   =  544.565                                                            
   DEXC   =    0.000                                                            
   RMAX   =    2.357    core radius for proj-oper                               
   RAUG   =    1.300    factor for augmentation sphere                          
   RDEP   =    2.390    radius for radial grids                                 
   RDEPT  =    1.838    core radius for aug-charge                              
                                                                                
   Atomic configuration                                                         
    9 entries                                                                   
     n  l   j            E        occ.                                          
     1  0  0.50     -8206.4253   2.0000                                         
     2  0  0.50      -976.1748   2.0000                                         
     2  1  1.50      -839.0571   6.0000                                         
     3  0  0.50      -105.9991   2.0000                                         
     3  1  1.50       -66.4603   6.0000                                         
     3  2  2.50        -4.6458   9.0000                                         
     4  0  0.50        -4.4926   1.0000                                         
     4  1  1.50        -4.0817   0.0000                                         
     4  3  2.50        -1.3606   0.0000                                         
   Description                                                                  
     l       E           TYP  RCUT    TYP  RCUT                                 
     2     -4.6457903     23  2.300                                             
     2     -6.0063729     23  2.300                                             
     0     -4.4925590     23  2.300                                             
     0      5.0102601     23  2.300                                             
     1     -2.7211652     23  2.300                                             
     1     16.5183231     23  2.300                                             
  local pseudopotential read in
  partial core-charges read in
  partial kinetic energy density read in
  atomic valenz-charges read in
  non local Contribution for L=           2  read in
    real space projection operators read in
  non local Contribution for L=           2  read in
    real space projection operators read in
  non local Contribution for L=           0  read in
    real space projection operators read in
  non local Contribution for L=           0  read in
    real space projection operators read in
  non local Contribution for L=           1  read in
    real space projection operators read in
  non local Contribution for L=           1  read in
    real space projection operators read in
    PAW grid and wavefunctions read in
 
   number of l-projection  operators is LMAX  =           6
   number of lm-projection operators is LMMAX =          18
 
 POTCAR:    PAW_PBE Fe 06Sep2000                  
   VRHFIN =Fe:  d7 s1                                                           
   LEXCH  = PE                                                                  
   EATOM  =   594.3153 eV,   43.6809 Ry                                         
                                                                                
   TITEL  = PAW_PBE Fe 06Sep2000                                                
   LULTRA =        F    use ultrasoft PP ?                                      
   IUNSCR =        1    unscreen: 0-lin 1-nonlin 2-no                           
   RPACOR =    2.000    partial core radius                                     
   POMASS =   55.847; ZVAL   =    8.000    mass and valenz                      
   RCORE  =    2.300    outmost cutoff radius                                   
   RWIGS  =    2.460; RWIGS  =    1.302    wigner-seitz radius (au A)           
   ENMAX  =  267.882; ENMIN  =  200.911 eV                                      
   RCLOC  =    1.701    cutoff for local pot                                    
   LCOR   =        T    correct aug charges                                     
   LPAW   =        T    paw PP                                                  
   EAUG   =  511.368                                                            
   DEXC   =    0.000                                                            
   RMAX   =    2.356    core radius for proj-oper                               
   RAUG   =    1.300    factor for augmentation sphere                          
   RDEP   =    2.442    radius for radial grids                                 
   RDEPT  =    1.890    core radius for aug-charge                              
                                                                                
   Atomic configuration                                                         
    9 entries                                                                   
     n  l   j            E        occ.                                          
     1  0  0.50     -6993.8440   2.0000                                         
     2  0  0.50      -814.6047   2.0000                                         
     2  1  1.50      -693.3689   6.0000                                         
     3  0  0.50       -89.4732   2.0000                                         
     3  1  1.50       -55.6373   6.0000                                         
     3  2  2.50        -3.8151   7.0000                                         
     4  0  0.50        -4.2551   1.0000                                         
     4  1  1.50        -3.4015   0.0000                                         
     4  3  2.50        -1.3606   0.0000                                         
   Description                                                                  
     l       E           TYP  RCUT    TYP  RCUT                                 
     2     -3.8151135     23  2.300                                             
     2     -5.1756961     23  2.300                                             
     0     -4.2550963     23  2.300                                             
     0      7.2035603     23  2.300                                             
     1     -2.7211652     23  2.300                                             
     1     18.4316424     23  2.300                                             
  local pseudopotential read in
  partial core-charges read in
  partial kinetic energy density read in
  atomic valenz-charges read in
  non local Contribution for L=           2  read in
    real space projection operators read in
  non local Contribution for L=           2  read in
    real space projection operators read in
  non local Contribution for L=           0  read in
    real space projection operators read in
  non local Contribution for L=           0  read in
    real space projection operators read in
  non local Contribution for L=           1  read in
    real space projection operators read in
  non local Contribution for L=           1  read in
    real space projection operators read in
    PAW grid and wavefunctions read in
 
   number of l-projection  operators is LMAX  =           6
   number of lm-projection operators is LMMAX =          18
 
 Optimization of the real space projectors (new method)

 maximal supplied QI-value         = 16.25
 optimisation between [QCUT,QGAM] = [ 11.54, 23.24] = [ 37.28,151.24] Ry 
 Optimized for a Real-space Cutoff    1.45 Angstroem

   l    n(q)    QCUT    max X(q) W(low)/X(q) W(high)/X(q)  e(spline) 
   2      9    11.539    60.317    0.19E-03    0.47E-04    0.16E-06
   2      9    11.539    55.921    0.19E-03    0.48E-04    0.16E-06
   0     10    11.539    51.690    0.80E-04    0.50E-04    0.24E-06
   0     10    11.539    30.015    0.73E-04    0.45E-04    0.22E-06
   1     10    11.539    18.849    0.87E-04    0.16E-03    0.71E-07
   1     10    11.539    14.624    0.73E-04    0.13E-03    0.64E-07
 Optimization of the real space projectors (new method)

 maximal supplied QI-value         = 16.25
 optimisation between [QCUT,QGAM] = [ 11.54, 23.24] = [ 37.28,151.24] Ry 
 Optimized for a Real-space Cutoff    1.53 Angstroem

   l    n(q)    QCUT    max X(q) W(low)/X(q) W(high)/X(q)  e(spline) 
   2     10    11.539    80.901    0.11E-03    0.14E-03    0.21E-06
   2     10    11.539    75.754    0.11E-03    0.14E-03    0.22E-06
   0     11    11.539    58.752    0.52E-04    0.18E-04    0.33E-06
   0     11    11.539    30.679    0.44E-04    0.16E-04    0.30E-06
   1     10    11.539    17.977    0.53E-04    0.29E-04    0.13E-06
   1     10    11.539    13.559    0.44E-04    0.25E-04    0.11E-06
  PAW_PBE Ni 02Aug2007                  :
 energy of atom  1       EATOM=-1077.6739
 kinetic energy error for atom=    0.0030 (will be added to EATOM!!)
  PAW_PBE Fe 06Sep2000                  :
 energy of atom  2       EATOM= -594.3153
 kinetic energy error for atom=    0.0026 (will be added to EATOM!!)
 
 
 POSCAR: POSCAR                                  
  positions in direct lattice
  velocities in cartesian coordinates
 exchange correlation table for  LEXCH =        8
   RHO(1)=    0.500       N(1)  =     2000
   RHO(2)=  100.500       N(2)  =     4000
 


--------------------------------------------------------------------------------------------------------


 ion  position               nearest neighbor table
   1  0.000  0.753  0.500-  13 2.46  12 2.48  12 2.48   9 2.51   9 2.51   5 2.53   5 2.53   7 2.53
                             2 2.53   2 2.53
   2  0.250  0.747  1.000-   9 2.46  10 2.48  10 2.48  13 2.51  13 2.51   4 2.53   4 2.53   8 2.53
                             1 2.53   1 2.53
   3  1.000  0.250  0.500-  16 2.51   5 2.51   5 2.51  15 2.52  15 2.52   4 2.53   6 2.53   6 2.53
                             9 2.55   9 2.55
   4  0.252  0.498  0.500-  11 2.50  11 2.50  10 2.51   6 2.51   6 2.51   2 2.53   2 2.53   3 2.53
                             9 2.53   9 2.53
   5  0.998  0.002  1.000-  16 2.50  16 2.50  12 2.51   3 2.51   3 2.51   1 2.53   1 2.53   6 2.53
                            13 2.53  13 2.53
   6  0.250  0.250  0.000-  11 2.51   4 2.51   4 2.51  14 2.52  14 2.52   5 2.53   3 2.53   3 2.53
                            13 2.55  13 2.55
   7  0.752  0.500  0.500-  12 2.50  12 2.50  15 2.50  15 2.50   9 2.52   9 2.52   1 2.53  11 2.54
                            11 2.54  14 2.55
   8  0.498  1.000  0.000-  10 2.50  10 2.50  14 2.50  14 2.50  13 2.52  13 2.52   2 2.53  16 2.54
                            16 2.54  15 2.55
   9  0.004  0.505  1.000-   2 2.46   1 2.51   1 2.51   7 2.52   7 2.52   4 2.53   4 2.53   3 2.55
                             3 2.55  15 2.56
  10  0.495  0.752  0.500-   2 2.48   2 2.48   8 2.50   8 2.50   4 2.51  16 2.56  11 2.57  11 2.57
                            12 2.62  12 2.62
  11  0.499  0.497  0.000-   4 2.50   4 2.50   6 2.51  14 2.52  14 2.52   7 2.54   7 2.54  12 2.56
                            10 2.57  10 2.57
  12  0.755  0.748  1.000-   1 2.48   1 2.48   7 2.50   7 2.50   5 2.51  11 2.56  16 2.57  16 2.57
                            10 2.62  10 2.62
  13  0.246  0.995  0.500-   1 2.46   2 2.51   2 2.51   8 2.52   8 2.52   5 2.53   5 2.53   6 2.55
                             6 2.55  14 2.56
  14  0.499  0.248  0.500-   8 2.50   8 2.50   6 2.52   6 2.52  11 2.52  11 2.52  15 2.53  15 2.53
                             7 2.55  13 2.56
  15  0.751  0.252  1.000-   7 2.50   7 2.50   3 2.52   3 2.52  16 2.52  16 2.52  14 2.53  14 2.53
                             8 2.55   9 2.56
  16  0.751  0.003  0.500-   5 2.50   5 2.50   3 2.51  15 2.52  15 2.52   8 2.54   8 2.54  10 2.56
                            12 2.57  12 2.57
 

IMPORTANT INFORMATION: All symmetrisations will be switched off!
NOSYMM: (Re-)initialisation of all symmetry stuff for point group C_1.

 
 

Automatic generation of k-mesh.
 generate k-points for:    4    4   13
Space group operators:
 irot       det(A)        alpha          n_x          n_y          n_z        tau_x        tau_y        tau_z
    1     1.000000     0.000000     1.000000     0.000000     0.000000     0.000000     0.000000     0.000000
 
 Subroutine IBZKPT returns following result:
 ===========================================
 
 Found    106 irreducible k-points:
 
 Following reciprocal coordinates:
            Coordinates               Weight
  0.000000  0.000000  0.000000      1.000000
  0.250000  0.000000  0.000000      2.000000
  0.500000  0.000000  0.000000      1.000000
  0.000000  0.250000  0.000000      2.000000
  0.250000  0.250000  0.000000      2.000000
  0.500000  0.250000  0.000000      2.000000
 -0.250000  0.250000  0.000000      2.000000
  0.000000  0.500000  0.000000      1.000000
  0.250000  0.500000  0.000000      2.000000
  0.500000  0.500000  0.000000      1.000000
  0.000000  0.000000  0.076923      2.000000
  0.250000  0.000000  0.076923      2.000000
  0.500000  0.000000  0.076923      2.000000
 -0.250000  0.000000  0.076923      2.000000
  0.000000  0.250000  0.076923      2.000000
  0.250000  0.250000  0.076923      2.000000
  0.500000  0.250000  0.076923      2.000000
 -0.250000  0.250000  0.076923      2.000000
  0.000000  0.500000  0.076923      2.000000
  0.250000  0.500000  0.076923      2.000000
  0.500000  0.500000  0.076923      2.000000
 -0.250000  0.500000  0.076923      2.000000
  0.000000 -0.250000  0.076923      2.000000
  0.250000 -0.250000  0.076923      2.000000
  0.500000 -0.250000  0.076923      2.000000
 -0.250000 -0.250000  0.076923      2.000000
  0.000000  0.000000  0.153846      2.000000
  0.250000  0.000000  0.153846      2.000000
  0.500000  0.000000  0.153846      2.000000
 -0.250000  0.000000  0.153846      2.000000
  0.000000  0.250000  0.153846      2.000000
  0.250000  0.250000  0.153846      2.000000
  0.500000  0.250000  0.153846      2.000000
 -0.250000  0.250000  0.153846      2.000000
  0.000000  0.500000  0.153846      2.000000
  0.250000  0.500000  0.153846      2.000000
  0.500000  0.500000  0.153846      2.000000
 -0.250000  0.500000  0.153846      2.000000
  0.000000 -0.250000  0.153846      2.000000
  0.250000 -0.250000  0.153846      2.000000
  0.500000 -0.250000  0.153846      2.000000
 -0.250000 -0.250000  0.153846      2.000000
  0.000000  0.000000  0.230769      2.000000
  0.250000  0.000000  0.230769      2.000000
  0.500000  0.000000  0.230769      2.000000
 -0.250000  0.000000  0.230769      2.000000
  0.000000  0.250000  0.230769      2.000000
  0.250000  0.250000  0.230769      2.000000
  0.500000  0.250000  0.230769      2.000000
 -0.250000  0.250000  0.230769      2.000000
  0.000000  0.500000  0.230769      2.000000
  0.250000  0.500000  0.230769      2.000000
  0.500000  0.500000  0.230769      2.000000
 -0.250000  0.500000  0.230769      2.000000
  0.000000 -0.250000  0.230769      2.000000
  0.250000 -0.250000  0.230769      2.000000
  0.500000 -0.250000  0.230769      2.000000
 -0.250000 -0.250000  0.230769      2.000000
  0.000000  0.000000  0.307692      2.000000
  0.250000  0.000000  0.307692      2.000000
  0.500000  0.000000  0.307692      2.000000
 -0.250000  0.000000  0.307692      2.000000
  0.000000  0.250000  0.307692      2.000000
  0.250000  0.250000  0.307692      2.000000
  0.500000  0.250000  0.307692      2.000000
 -0.250000  0.250000  0.307692      2.000000
  0.000000  0.500000  0.307692      2.000000
  0.250000  0.500000  0.307692      2.000000
  0.500000  0.500000  0.307692      2.000000
 -0.250000  0.500000  0.307692      2.000000
  0.000000 -0.250000  0.307692      2.000000
  0.250000 -0.250000  0.307692      2.000000
  0.500000 -0.250000  0.307692      2.000000
 -0.250000 -0.250000  0.307692      2.000000
  0.000000  0.000000  0.384615      2.000000
  0.250000  0.000000  0.384615      2.000000
  0.500000  0.000000  0.384615      2.000000
 -0.250000  0.000000  0.384615      2.000000
  0.000000  0.250000  0.384615      2.000000
  0.250000  0.250000  0.384615      2.000000
  0.500000  0.250000  0.384615      2.000000
 -0.250000  0.250000  0.384615      2.000000
  0.000000  0.500000  0.384615      2.000000
  0.250000  0.500000  0.384615      2.000000
  0.500000  0.500000  0.384615      2.000000
 -0.250000  0.500000  0.384615      2.000000
  0.000000 -0.250000  0.384615      2.000000
  0.250000 -0.250000  0.384615      2.000000
  0.500000 -0.250000  0.384615      2.000000
 -0.250000 -0.250000  0.384615      2.000000
  0.000000  0.000000  0.461538      2.000000
  0.250000  0.000000  0.461538      2.000000
  0.500000  0.000000  0.461538      2.000000
 -0.250000  0.000000  0.461538      2.000000
  0.000000  0.250000  0.461538      2.000000
  0.250000  0.250000  0.461538      2.000000
  0.500000  0.250000  0.461538      2.000000
 -0.250000  0.250000  0.461538      2.000000
  0.000000  0.500000  0.461538      2.000000
  0.250000  0.500000  0.461538      2.000000
  0.500000  0.500000  0.461538      2.000000
 -0.250000  0.500000  0.461538      2.000000
  0.000000 -0.250000  0.461538      2.000000
  0.250000 -0.250000  0.461538      2.000000
  0.500000 -0.250000  0.461538      2.000000
 -0.250000 -0.250000  0.461538      2.000000
 
 Following cartesian coordinates:
            Coordinates               Weight
  0.000000 -0.000000  0.000000      1.000000
  0.062500  0.062500  0.062500      2.000000
  0.125000  0.125000  0.125000      1.000000
 -0.062500  0.062500  0.062500      2.000000
  0.000000  0.125000  0.125000      2.000000
  0.062500  0.187500  0.187500      2.000000
 -0.125000 -0.000000  0.000000      2.000000
 -0.125000  0.125000  0.125000      1.000000
 -0.062500  0.187500  0.187500      2.000000
  0.000000  0.250000  0.250000      1.000000
  0.000000 -0.076923  0.076923      2.000000
  0.062500 -0.014423  0.139423      2.000000
  0.125000  0.048077  0.201923      2.000000
 -0.062500 -0.139423  0.014423      2.000000
 -0.062500 -0.014423  0.139423      2.000000
  0.000000  0.048077  0.201923      2.000000
  0.062500  0.110577  0.264423      2.000000
 -0.125000 -0.076923  0.076923      2.000000
 -0.125000  0.048077  0.201923      2.000000
 -0.062500  0.110577  0.264423      2.000000
  0.000000  0.173077  0.326923      2.000000
 -0.187500 -0.014423  0.139423      2.000000
  0.062500 -0.139423  0.014423      2.000000
  0.125000 -0.076923  0.076923      2.000000
  0.187500 -0.014423  0.139423      2.000000
  0.000000 -0.201923 -0.048077      2.000000
  0.000000 -0.153846  0.153846      2.000000
  0.062500 -0.091346  0.216346      2.000000
  0.125000 -0.028846  0.278846      2.000000
 -0.062500 -0.216346  0.091346      2.000000
 -0.062500 -0.091346  0.216346      2.000000
  0.000000 -0.028846  0.278846      2.000000
  0.062500  0.033654  0.341346      2.000000
 -0.125000 -0.153846  0.153846      2.000000
 -0.125000 -0.028846  0.278846      2.000000
 -0.062500  0.033654  0.341346      2.000000
  0.000000  0.096154  0.403846      2.000000
 -0.187500 -0.091346  0.216346      2.000000
  0.062500 -0.216346  0.091346      2.000000
  0.125000 -0.153846  0.153846      2.000000
  0.187500 -0.091346  0.216346      2.000000
  0.000000 -0.278846  0.028846      2.000000
  0.000000 -0.230769  0.230769      2.000000
  0.062500 -0.168269  0.293269      2.000000
  0.125000 -0.105769  0.355769      2.000000
 -0.062500 -0.293269  0.168269      2.000000
 -0.062500 -0.168269  0.293269      2.000000
  0.000000 -0.105769  0.355769      2.000000
  0.062500 -0.043269  0.418269      2.000000
 -0.125000 -0.230769  0.230769      2.000000
 -0.125000 -0.105769  0.355769      2.000000
 -0.062500 -0.043269  0.418269      2.000000
  0.000000  0.019231  0.480769      2.000000
 -0.187500 -0.168269  0.293269      2.000000
  0.062500 -0.293269  0.168269      2.000000
  0.125000 -0.230769  0.230769      2.000000
  0.187500 -0.168269  0.293269      2.000000
  0.000000 -0.355769  0.105769      2.000000
  0.000000 -0.307692  0.307692      2.000000
  0.062500 -0.245192  0.370192      2.000000
  0.125000 -0.182692  0.432692      2.000000
 -0.062500 -0.370192  0.245192      2.000000
 -0.062500 -0.245192  0.370192      2.000000
  0.000000 -0.182692  0.432692      2.000000
  0.062500 -0.120192  0.495192      2.000000
 -0.125000 -0.307692  0.307692      2.000000
 -0.125000 -0.182692  0.432692      2.000000
 -0.062500 -0.120192  0.495192      2.000000
  0.000000 -0.057692  0.557692      2.000000
 -0.187500 -0.245192  0.370192      2.000000
  0.062500 -0.370192  0.245192      2.000000
  0.125000 -0.307692  0.307692      2.000000
  0.187500 -0.245192  0.370192      2.000000
  0.000000 -0.432692  0.182692      2.000000
  0.000000 -0.384615  0.384615      2.000000
  0.062500 -0.322115  0.447115      2.000000
  0.125000 -0.259615  0.509615      2.000000
 -0.062500 -0.447115  0.322115      2.000000
 -0.062500 -0.322115  0.447115      2.000000
  0.000000 -0.259615  0.509615      2.000000
  0.062500 -0.197115  0.572115      2.000000
 -0.125000 -0.384615  0.384615      2.000000
 -0.125000 -0.259615  0.509615      2.000000
 -0.062500 -0.197115  0.572115      2.000000
  0.000000 -0.134615  0.634615      2.000000
 -0.187500 -0.322115  0.447115      2.000000
  0.062500 -0.447115  0.322115      2.000000
  0.125000 -0.384615  0.384615      2.000000
  0.187500 -0.322115  0.447115      2.000000
  0.000000 -0.509615  0.259615      2.000000
  0.000000 -0.461538  0.461538      2.000000
  0.062500 -0.399038  0.524038      2.000000
  0.125000 -0.336538  0.586538      2.000000
 -0.062500 -0.524038  0.399038      2.000000
 -0.062500 -0.399038  0.524038      2.000000
  0.000000 -0.336538  0.586538      2.000000
  0.062500 -0.274038  0.649038      2.000000
 -0.125000 -0.461538  0.461538      2.000000
 -0.125000 -0.336538  0.586538      2.000000
 -0.062500 -0.274038  0.649038      2.000000
  0.000000 -0.211538  0.711538      2.000000
 -0.187500 -0.399038  0.524038      2.000000
  0.062500 -0.524038  0.399038      2.000000
  0.125000 -0.461538  0.461538      2.000000
  0.187500 -0.399038  0.524038      2.000000
  0.000000 -0.586538  0.336538      2.000000
 
 TETIRR: Found    624 inequivalent tetrahedra from     1248


--------------------------------------------------------------------------------------------------------




 Dimension of arrays:
   k-points           NKPTS =    106   k-points in BZ     NKDIM =    106   number of bands    NBANDS=    120
   number of dos      NEDOS =    301   number of ions     NIONS =     16
   non local maximal  LDIM  =      6   non local SUM 2l+1 LMDIM =     18
   total plane-waves  NPLWV =  98000
   max r-space proj   IRMAX =   8182   max aug-charges    IRDMAX=  19363
   dimension x,y,z NGX =    70 NGY =   70 NGZ =   20
   dimension x,y,z NGXF=   140 NGYF=  140 NGZF=   40
   support grid    NGXF=   140 NGYF=  140 NGZF=   40
   ions per type =               8   8
   NGX,Y,Z   is equivalent  to a cutoff of  13.30, 13.30, 13.17 a.u.
   NGXF,Y,Z  is equivalent  to a cutoff of  26.61, 26.61, 26.34 a.u.

 SYSTEM =  SQS-NiFe                                
 POSCAR =  POSCAR                                  

 Startparameter for this run:
   NWRITE =      2    write-flag & timer
   PREC   = accura    normal or accurate (medium, high low for compatibility)
   ISTART =      0    job   : 0-new  1-cont  2-samecut
   ICHARG =     11    charge: 1-file 2-atom 10-const
   ISPIN  =      2    spin polarized calculation?
   LNONCOLLINEAR =      F non collinear calculations
   LSORBIT =      F    spin-orbit coupling
   INIWAV =      1    electr: 0-lowe 1-rand  2-diag
   LASPH  =      F    aspherical Exc in radial PAW
   METAGGA=      F    non-selfconsistent MetaGGA calc.

 Electronic Relaxation 1
   ENCUT  =  520.0 eV  38.22 Ry    6.18 a.u.  16.26 16.26  4.69*2*pi/ulx,y,z
   ENINI  =  520.0     initial cutoff
   ENAUG  =  544.6 eV  augmentation charge cutoff
   NELM   =    200;   NELMIN=  2; NELMDL= -5     # of ELM steps 
   EDIFF  = 0.1E-05   stopping-criterion for ELM
   LREAL  =      T    real-space projection
   NLSPLINE    = F    spline interpolate recip. space projectors
   LCOMPAT=      F    compatible to vasp.4.4
   GGA_COMPAT  = T    GGA compatible to vasp.4.4-vasp.4.6
   LMAXPAW     = -100 max onsite density
   LMAXMIX     =    2 max onsite mixed and CHGCAR
   VOSKOWN=      0    Vosko Wilk Nusair interpolation
   ROPT   =   -0.00025  -0.00025
 Ionic relaxation
   EDIFFG = -.2E-01   stopping-criterion for IOM
   NSW    =      0    number of steps for IOM
   NBLOCK =      1;   KBLOCK =      1    inner block; outer block 
   IBRION =     -1    ionic relax: 0-MD 1-quasi-New 2-CG
   NFREE  =      0    steps in history (QN), initial steepest desc. (CG)
   ISIF   =      2    stress and relaxation
   IWAVPR =     10    prediction:  0-non 1-charg 2-wave 3-comb
   ISYM   =      0    0-nonsym 1-usesym 2-fastsym
   LCORR  =      T    Harris-Foulkes like correction to forces

   POTIM  = 0.5000    time-step for ionic-motion
   TEIN   =    0.0    initial temperature
   TEBEG  =    0.0;   TEEND  =   0.0 temperature during run
   SMASS  =  -3.00    Nose mass-parameter (am)
   estimated Nose-frequenzy (Omega)   =  0.10E-29 period in steps =****** mass=  -0.175E-26a.u.
   SCALEE = 1.0000    scale energy and forces
   NPACO  =    256;   APACO  = 16.0  distance and # of slots for P.C.
   PSTRESS=    0.0 pullay stress

  Mass of Ions in am
   POMASS =  58.69 55.85
  Ionic Valenz
   ZVAL   =  10.00  8.00
  Atomic Wigner-Seitz radii
   RWIGS  =  -1.00 -1.00
  virtual crystal weights 
   VCA    =   1.00  1.00
   NELECT =     144.0000    total number of electrons
   NUPDOWN=      -1.0000    fix difference up-down

 DOS related values:
   EMIN   =  10.00;   EMAX   =-10.00  energy-range for DOS
   EFERMI =   0.00
   ISMEAR =    -5;   SIGMA  =   0.20  broadening in eV -4-tet -1-fermi 0-gaus

 Electronic relaxation 2 (details)
   IALGO  =     68    algorithm
   LDIAG  =      T    sub-space diagonalisation (order eigenvalues)
   LSUBROT=      F    optimize rotation matrix (better conditioning)
   TURBO    =      0    0=normal 1=particle mesh
   IRESTART =      0    0=no restart 2=restart with 2 vectors
   NREBOOT  =      0    no. of reboots
   NMIN     =      0    reboot dimension
   EREF     =   0.00    reference energy to select bands
   IMIX   =      4    mixing-type and parameters
     AMIX     =   0.40;   BMIX     =  1.00
     AMIX_MAG =   1.60;   BMIX_MAG =  1.00
     AMIN     =   0.10
     WC   =   100.;   INIMIX=   1;  MIXPRE=   1;  MAXMIX= -45

 Intra band minimization:
   WEIMIN = 0.0000     energy-eigenvalue tresh-hold
   EBREAK =  0.21E-08  absolut break condition
   DEPER  =   0.30     relativ break condition  

   TIME   =   0.40     timestep for ELM

  volume/ion in A,a.u.               =      11.38        76.83
  Fermi-wavevector in a.u.,A,eV,Ry     =   1.513744  2.860562 31.176681  2.291421
  Thomas-Fermi vector in A             =   2.623494
 
 Write flags
   LWAVE        =      F    write WAVECAR
   LDOWNSAMPLE  =      F    k-point downsampling of WAVECAR
   LCHARG       =      F    write CHGCAR
   LVTOT        =      F    write LOCPOT, total local potential
   LVHAR        =      F    write LOCPOT, Hartree potential only
   LELF         =      F    write electronic localiz. function (ELF)
   LORBIT       =     11    0 simple, 1 ext, 2 COOP (PROOUT), +10 PAW based schemes


 Dipole corrections
   LMONO  =      F    monopole corrections only (constant potential shift)
   LDIPOL =      F    correct potential (dipole corrections)
   IDIPOL =      0    1-x, 2-y, 3-z, 4-all directions 
   EPSILON=  1.0000000 bulk dielectric constant

 Exchange correlation treatment:
   GGA     =    --    GGA type
   LEXCH   =     8    internal setting for exchange type
   VOSKOWN=      0    Vosko Wilk Nusair interpolation
   LHFCALC =     F    Hartree Fock is set to
   LHFONE  =     F    Hartree Fock one center treatment
   AEXX    =    0.0000 exact exchange contribution

 Linear response parameters
   LEPSILON=     F    determine dielectric tensor
   LRPA    =     F    only Hartree local field effects (RPA)
   LNABLA  =     F    use nabla operator in PAW spheres
   LVEL    =     F    velocity operator in full k-point grid
   LINTERFAST=   F  fast interpolation
   KINTER  =     0    interpolate to denser k-point grid
   CSHIFT  =0.1000    complex shift for real part using Kramers Kronig
   OMEGAMAX=  -1.0    maximum frequency
   DEG_THRESHOLD= 0.2000000E-02 threshold for treating states as degnerate
   RTIME   =   -0.100 relaxation time in fs
  (WPLASMAI=    0.000 imaginary part of plasma frequency in eV, 0.658/RTIME)
   DFIELD  = 0.0000000 0.0000000 0.0000000 field for delta impulse in time
 
 Orbital magnetization related:
   ORBITALMAG=     F  switch on orbital magnetization
   LCHIMAG   =     F  perturbation theory with respect to B field
   DQ        =  0.001000  dq finite difference perturbation B field
   LLRAUG    =     F  two centre corrections for induced B field



--------------------------------------------------------------------------------------------------------


 Static calculation
 charge density and potential remain constant during run
 spin polarized calculation
 RMM-DIIS sequential band-by-band and
  variant of blocked Davidson during initial phase
 perform sub-space diagonalisation
    before iterative eigenvector-optimisation
 no mixing
 using additional bands           48
 real space projection scheme for non local part
 use partial core corrections
 calculate Harris-corrections to forces 
   (improved forces if not selfconsistent)
 use gradient corrections 
 WARNING: stress and forces are not correct
  (second derivative of E(xc) not defined)
 use of overlap-Matrix (Vanderbilt PP)
 Fermi weights with tetrahedron method with Bloechl corrections


--------------------------------------------------------------------------------------------------------


  energy-cutoff  :      520.00
  volume of cell :      182.15
      direct lattice vectors                 reciprocal lattice vectors
     7.142000000  3.571000000  3.571000000     0.070008401  0.070008401  0.070008401
    -7.142000000  3.571000000  3.571000000    -0.070008401  0.070008401  0.070008401
     0.000000000 -1.785500000  1.785500000     0.000000000 -0.280033604  0.280033604

  length of vectors
     8.747127871  8.747127871  2.525078316     0.121258108  0.121258108  0.396027321


 
 k-points in units of 2pi/SCALE and weight: read from INCAR                         
   0.00000000 -0.00000000  0.00000000       0.005
   0.06250000  0.06250000  0.06250000       0.010
   0.12500000  0.12500000  0.12500000       0.005
  -0.06250000  0.06250000  0.06250000       0.010
   0.00000000  0.12500000  0.12500000       0.010
   0.06250000  0.18750000  0.18750000       0.010
  -0.12500000 -0.00000000  0.00000000       0.010
  -0.12500000  0.12500000  0.12500000       0.005
  -0.06250000  0.18750000  0.18750000       0.010
   0.00000000  0.25000000  0.25000000       0.005
   0.00000000 -0.07692308  0.07692308       0.010
   0.06250000 -0.01442308  0.13942308       0.010
   0.12500000  0.04807692  0.20192308       0.010
  -0.06250000 -0.13942308  0.01442308       0.010
  -0.06250000 -0.01442308  0.13942308       0.010
   0.00000000  0.04807692  0.20192308       0.010
   0.06250000  0.11057692  0.26442308       0.010
  -0.12500000 -0.07692308  0.07692308       0.010
  -0.12500000  0.04807692  0.20192308       0.010
  -0.06250000  0.11057692  0.26442308       0.010
   0.00000000  0.17307692  0.32692308       0.010
  -0.18750000 -0.01442308  0.13942308       0.010
   0.06250000 -0.13942308  0.01442308       0.010
   0.12500000 -0.07692308  0.07692308       0.010
   0.18750000 -0.01442308  0.13942308       0.010
   0.00000000 -0.20192308 -0.04807692       0.010
   0.00000000 -0.15384615  0.15384615       0.010
   0.06250000 -0.09134615  0.21634615       0.010
   0.12500000 -0.02884615  0.27884615       0.010
  -0.06250000 -0.21634615  0.09134615       0.010
  -0.06250000 -0.09134615  0.21634615       0.010
   0.00000000 -0.02884615  0.27884615       0.010
   0.06250000  0.03365385  0.34134615       0.010
  -0.12500000 -0.15384615  0.15384615       0.010
  -0.12500000 -0.02884615  0.27884615       0.010
  -0.06250000  0.03365385  0.34134615       0.010
   0.00000000  0.09615385  0.40384615       0.010
  -0.18750000 -0.09134615  0.21634615       0.010
   0.06250000 -0.21634615  0.09134615       0.010
   0.12500000 -0.15384615  0.15384615       0.010
   0.18750000 -0.09134615  0.21634615       0.010
   0.00000000 -0.27884615  0.02884615       0.010
   0.00000000 -0.23076923  0.23076923       0.010
   0.06250000 -0.16826923  0.29326923       0.010
   0.12500000 -0.10576923  0.35576923       0.010
  -0.06250000 -0.29326923  0.16826923       0.010
  -0.06250000 -0.16826923  0.29326923       0.010
   0.00000000 -0.10576923  0.35576923       0.010
   0.06250000 -0.04326923  0.41826923       0.010
  -0.12500000 -0.23076923  0.23076923       0.010
  -0.12500000 -0.10576923  0.35576923       0.010
  -0.06250000 -0.04326923  0.41826923       0.010
   0.00000000  0.01923077  0.48076923       0.010
  -0.18750000 -0.16826923  0.29326923       0.010
   0.06250000 -0.29326923  0.16826923       0.010
   0.12500000 -0.23076923  0.23076923       0.010
   0.18750000 -0.16826923  0.29326923       0.010
   0.00000000 -0.35576923  0.10576923       0.010
   0.00000000 -0.30769231  0.30769231       0.010
   0.06250000 -0.24519231  0.37019231       0.010
   0.12500000 -0.18269231  0.43269231       0.010
  -0.06250000 -0.37019231  0.24519231       0.010
  -0.06250000 -0.24519231  0.37019231       0.010
   0.00000000 -0.18269231  0.43269231       0.010
   0.06250000 -0.12019231  0.49519231       0.010
  -0.12500000 -0.30769231  0.30769231       0.010
  -0.12500000 -0.18269231  0.43269231       0.010
  -0.06250000 -0.12019231  0.49519231       0.010
   0.00000000 -0.05769231  0.55769231       0.010
  -0.18750000 -0.24519231  0.37019231       0.010
   0.06250000 -0.37019231  0.24519231       0.010
   0.12500000 -0.30769231  0.30769231       0.010
   0.18750000 -0.24519231  0.37019231       0.010
   0.00000000 -0.43269231  0.18269231       0.010
   0.00000000 -0.38461538  0.38461538       0.010
   0.06250000 -0.32211538  0.44711538       0.010
   0.12500000 -0.25961538  0.50961538       0.010
  -0.06250000 -0.44711538  0.32211538       0.010
  -0.06250000 -0.32211538  0.44711538       0.010
   0.00000000 -0.25961538  0.50961538       0.010
   0.06250000 -0.19711538  0.57211538       0.010
  -0.12500000 -0.38461538  0.38461538       0.010
  -0.12500000 -0.25961538  0.50961538       0.010
  -0.06250000 -0.19711538  0.57211538       0.010
   0.00000000 -0.13461538  0.63461538       0.010
  -0.18750000 -0.32211538  0.44711538       0.010
   0.06250000 -0.44711538  0.32211538       0.010
   0.12500000 -0.38461538  0.38461538       0.010
   0.18750000 -0.32211538  0.44711538       0.010
   0.00000000 -0.50961538  0.25961538       0.010
   0.00000000 -0.46153846  0.46153846       0.010
   0.06250000 -0.39903846  0.52403846       0.010
   0.12500000 -0.33653846  0.58653846       0.010
  -0.06250000 -0.52403846  0.39903846       0.010
  -0.06250000 -0.39903846  0.52403846       0.010
   0.00000000 -0.33653846  0.58653846       0.010
   0.06250000 -0.27403846  0.64903846       0.010
  -0.12500000 -0.46153846  0.46153846       0.010
  -0.12500000 -0.33653846  0.58653846       0.010
  -0.06250000 -0.27403846  0.64903846       0.010
   0.00000000 -0.21153846  0.71153846       0.010
  -0.18750000 -0.39903846  0.52403846       0.010
   0.06250000 -0.52403846  0.39903846       0.010
   0.12500000 -0.46153846  0.46153846       0.010
   0.18750000 -0.39903846  0.52403846       0.010
   0.00000000 -0.58653846  0.33653846       0.010
 
 k-points in reciprocal lattice and weights: read from INCAR                         
   0.00000000  0.00000000  0.00000000       0.005
   0.25000000  0.00000000  0.00000000       0.010
   0.50000000  0.00000000  0.00000000       0.005
   0.00000000  0.25000000  0.00000000       0.010
   0.25000000  0.25000000  0.00000000       0.010
   0.50000000  0.25000000  0.00000000       0.010
  -0.25000000  0.25000000  0.00000000       0.010
   0.00000000  0.50000000  0.00000000       0.005
   0.25000000  0.50000000  0.00000000       0.010
   0.50000000  0.50000000  0.00000000       0.005
   0.00000000  0.00000000  0.07692308       0.010
   0.25000000  0.00000000  0.07692308       0.010
   0.50000000  0.00000000  0.07692308       0.010
  -0.25000000  0.00000000  0.07692308       0.010
   0.00000000  0.25000000  0.07692308       0.010
   0.25000000  0.25000000  0.07692308       0.010
   0.50000000  0.25000000  0.07692308       0.010
  -0.25000000  0.25000000  0.07692308       0.010
   0.00000000  0.50000000  0.07692308       0.010
   0.25000000  0.50000000  0.07692308       0.010
   0.50000000  0.50000000  0.07692308       0.010
  -0.25000000  0.50000000  0.07692308       0.010
   0.00000000 -0.25000000  0.07692308       0.010
   0.25000000 -0.25000000  0.07692308       0.010
   0.50000000 -0.25000000  0.07692308       0.010
  -0.25000000 -0.25000000  0.07692308       0.010
   0.00000000  0.00000000  0.15384615       0.010
   0.25000000  0.00000000  0.15384615       0.010
   0.50000000  0.00000000  0.15384615       0.010
  -0.25000000  0.00000000  0.15384615       0.010
   0.00000000  0.25000000  0.15384615       0.010
   0.25000000  0.25000000  0.15384615       0.010
   0.50000000  0.25000000  0.15384615       0.010
  -0.25000000  0.25000000  0.15384615       0.010
   0.00000000  0.50000000  0.15384615       0.010
   0.25000000  0.50000000  0.15384615       0.010
   0.50000000  0.50000000  0.15384615       0.010
  -0.25000000  0.50000000  0.15384615       0.010
   0.00000000 -0.25000000  0.15384615       0.010
   0.25000000 -0.25000000  0.15384615       0.010
   0.50000000 -0.25000000  0.15384615       0.010
  -0.25000000 -0.25000000  0.15384615       0.010
   0.00000000  0.00000000  0.23076923       0.010
   0.25000000  0.00000000  0.23076923       0.010
   0.50000000  0.00000000  0.23076923       0.010
  -0.25000000  0.00000000  0.23076923       0.010
   0.00000000  0.25000000  0.23076923       0.010
   0.25000000  0.25000000  0.23076923       0.010
   0.50000000  0.25000000  0.23076923       0.010
  -0.25000000  0.25000000  0.23076923       0.010
   0.00000000  0.50000000  0.23076923       0.010
   0.25000000  0.50000000  0.23076923       0.010
   0.50000000  0.50000000  0.23076923       0.010
  -0.25000000  0.50000000  0.23076923       0.010
   0.00000000 -0.25000000  0.23076923       0.010
   0.25000000 -0.25000000  0.23076923       0.010
   0.50000000 -0.25000000  0.23076923       0.010
  -0.25000000 -0.25000000  0.23076923       0.010
   0.00000000  0.00000000  0.30769231       0.010
   0.25000000  0.00000000  0.30769231       0.010
   0.50000000  0.00000000  0.30769231       0.010
  -0.25000000  0.00000000  0.30769231       0.010
   0.00000000  0.25000000  0.30769231       0.010
   0.25000000  0.25000000  0.30769231       0.010
   0.50000000  0.25000000  0.30769231       0.010
  -0.25000000  0.25000000  0.30769231       0.010
   0.00000000  0.50000000  0.30769231       0.010
   0.25000000  0.50000000  0.30769231       0.010
   0.50000000  0.50000000  0.30769231       0.010
  -0.25000000  0.50000000  0.30769231       0.010
   0.00000000 -0.25000000  0.30769231       0.010
   0.25000000 -0.25000000  0.30769231       0.010
   0.50000000 -0.25000000  0.30769231       0.010
  -0.25000000 -0.25000000  0.30769231       0.010
   0.00000000  0.00000000  0.38461538       0.010
   0.25000000  0.00000000  0.38461538       0.010
   0.50000000  0.00000000  0.38461538       0.010
  -0.25000000  0.00000000  0.38461538       0.010
   0.00000000  0.25000000  0.38461538       0.010
   0.25000000  0.25000000  0.38461538       0.010
   0.50000000  0.25000000  0.38461538       0.010
  -0.25000000  0.25000000  0.38461538       0.010
   0.00000000  0.50000000  0.38461538       0.010
   0.25000000  0.50000000  0.38461538       0.010
   0.50000000  0.50000000  0.38461538       0.010
  -0.25000000  0.50000000  0.38461538       0.010
   0.00000000 -0.25000000  0.38461538       0.010
   0.25000000 -0.25000000  0.38461538       0.010
   0.50000000 -0.25000000  0.38461538       0.010
  -0.25000000 -0.25000000  0.38461538       0.010
   0.00000000  0.00000000  0.46153846       0.010
   0.25000000  0.00000000  0.46153846       0.010
   0.50000000  0.00000000  0.46153846       0.010
  -0.25000000  0.00000000  0.46153846       0.010
   0.00000000  0.25000000  0.46153846       0.010
   0.25000000  0.25000000  0.46153846       0.010
   0.50000000  0.25000000  0.46153846       0.010
  -0.25000000  0.25000000  0.46153846       0.010
   0.00000000  0.50000000  0.46153846       0.010
   0.25000000  0.50000000  0.46153846       0.010
   0.50000000  0.50000000  0.46153846       0.010
  -0.25000000  0.50000000  0.46153846       0.010
   0.00000000 -0.25000000  0.46153846       0.010
   0.25000000 -0.25000000  0.46153846       0.010
   0.50000000 -0.25000000  0.46153846       0.010
  -0.25000000 -0.25000000  0.46153846       0.010
 
 position of ions in fractional coordinates (direct lattice) 
   0.00044804  0.75266698  0.50000014
   0.24958295  0.74732970  0.99999991
   0.99960398  0.25041026  0.49999977
   0.25218335  0.49820866  0.50000006
   0.99780801  0.00178124  0.99999986
   0.25039341  0.24958397  0.00000019
   0.75236799  0.50014334  0.49999988
   0.49761343  0.99987134  0.00000013
   0.00390419  0.50536886  0.99999994
   0.49468807  0.75204482  0.50000007
   0.49905795  0.49703155  0.00000013
   0.75534468  0.74795498  0.99999994
   0.24608462  0.99461805  0.50000008
   0.49904207  0.24767836  0.50000005
   0.75094710  0.25233842  0.99999995
   0.75093016  0.00296946  0.49999990
 
 position of ions in cartesian coordinates  (Angst):
  -5.37234768  1.79662351  3.58212401
  -3.55490731  1.77447524  5.34547491
   5.35074152  3.57105127  5.35655046
  -1.75711276  1.78689976  3.57239996
   7.11362319  1.78403347  5.35503298
   0.00578105  1.78541887  1.78541954
   1.80138841  3.57996816  5.36546774
  -3.58712596  5.34751787  5.34751833
  -3.58146067  0.03311419  3.60411397
  -1.83804192  3.55933302  5.34483327
   0.01447259  3.55703538  3.55703586
   0.05277724  3.58278317  7.15378296
  -5.34602581  3.53779909  5.32329939
   1.79523962  1.77378859  3.55928877
   3.56106320  1.79723269  5.36823250
   5.34193530  1.79942572  3.58492534
 


--------------------------------------------------------------------------------------------------------


 k-point  1 :   0.0000 0.0000 0.0000  plane waves:    4905
 k-point  2 :   0.2500 0.0000 0.0000  plane waves:    4928
 k-point  3 :   0.5000 0.0000 0.0000  plane waves:    4918
 k-point  4 :   0.0000 0.2500 0.0000  plane waves:    4928
 k-point  5 :   0.2500 0.2500 0.0000  plane waves:    4895
 k-point  6 :   0.5000 0.2500 0.0000  plane waves:    4921
 k-point  7 :  -0.2500 0.2500 0.0000  plane waves:    4919
 k-point  8 :   0.0000 0.5000 0.0000  plane waves:    4918
 k-point  9 :   0.2500 0.5000 0.0000  plane waves:    4921
 k-point 10 :   0.5000 0.5000 0.0000  plane waves:    4896
 k-point 11 :   0.0000 0.0000 0.0769  plane waves:    4909
 k-point 12 :   0.2500 0.0000 0.0769  plane waves:    4907
 k-point 13 :   0.5000 0.0000 0.0769  plane waves:    4916
 k-point 14 :  -0.2500 0.0000 0.0769  plane waves:    4907
 k-point 15 :   0.0000 0.2500 0.0769  plane waves:    4907
 k-point 16 :   0.2500 0.2500 0.0769  plane waves:    4911
 k-point 17 :   0.5000 0.2500 0.0769  plane waves:    4930
 k-point 18 :  -0.2500 0.2500 0.0769  plane waves:    4934
 k-point 19 :   0.0000 0.5000 0.0769  plane waves:    4916
 k-point 20 :   0.2500 0.5000 0.0769  plane waves:    4930
 k-point 21 :   0.5000 0.5000 0.0769  plane waves:    4930
 k-point 22 :  -0.2500 0.5000 0.0769  plane waves:    4930
 k-point 23 :   0.0000-0.2500 0.0769  plane waves:    4907
 k-point 24 :   0.2500-0.2500 0.0769  plane waves:    4934
 k-point 25 :   0.5000-0.2500 0.0769  plane waves:    4930
 k-point 26 :  -0.2500-0.2500 0.0769  plane waves:    4911
 k-point 27 :   0.0000 0.0000 0.1538  plane waves:    4901
 k-point 28 :   0.2500 0.0000 0.1538  plane waves:    4904
 k-point 29 :   0.5000 0.0000 0.1538  plane waves:    4910
 k-point 30 :  -0.2500 0.0000 0.1538  plane waves:    4904
 k-point 31 :   0.0000 0.2500 0.1538  plane waves:    4904
 k-point 32 :   0.2500 0.2500 0.1538  plane waves:    4922
 k-point 33 :   0.5000 0.2500 0.1538  plane waves:    4912
 k-point 34 :  -0.2500 0.2500 0.1538  plane waves:    4911
 k-point 35 :   0.0000 0.5000 0.1538  plane waves:    4910
 k-point 36 :   0.2500 0.5000 0.1538  plane waves:    4912
 k-point 37 :   0.5000 0.5000 0.1538  plane waves:    4930
 k-point 38 :  -0.2500 0.5000 0.1538  plane waves:    4912
 k-point 39 :   0.0000-0.2500 0.1538  plane waves:    4904
 k-point 40 :   0.2500-0.2500 0.1538  plane waves:    4911
 k-point 41 :   0.5000-0.2500 0.1538  plane waves:    4912
 k-point 42 :  -0.2500-0.2500 0.1538  plane waves:    4922
 k-point 43 :   0.0000 0.0000 0.2308  plane waves:    4923
 k-point 44 :   0.2500 0.0000 0.2308  plane waves:    4900
 k-point 45 :   0.5000 0.0000 0.2308  plane waves:    4890
 k-point 46 :  -0.2500 0.0000 0.2308  plane waves:    4900
 k-point 47 :   0.0000 0.2500 0.2308  plane waves:    4900
 k-point 48 :   0.2500 0.2500 0.2308  plane waves:    4896
 k-point 49 :   0.5000 0.2500 0.2308  plane waves:    4900
 k-point 50 :  -0.2500 0.2500 0.2308  plane waves:    4893
 k-point 51 :   0.0000 0.5000 0.2308  plane waves:    4890
 k-point 52 :   0.2500 0.5000 0.2308  plane waves:    4900
 k-point 53 :   0.5000 0.5000 0.2308  plane waves:    4922
 k-point 54 :  -0.2500 0.5000 0.2308  plane waves:    4900
 k-point 55 :   0.0000-0.2500 0.2308  plane waves:    4900
 k-point 56 :   0.2500-0.2500 0.2308  plane waves:    4893
 k-point 57 :   0.5000-0.2500 0.2308  plane waves:    4900
 k-point 58 :  -0.2500-0.2500 0.2308  plane waves:    4896
 k-point 59 :   0.0000 0.0000 0.3077  plane waves:    4920
 k-point 60 :   0.2500 0.0000 0.3077  plane waves:    4897
 k-point 61 :   0.5000 0.0000 0.3077  plane waves:    4882
 k-point 62 :  -0.2500 0.0000 0.3077  plane waves:    4897
 k-point 63 :   0.0000 0.2500 0.3077  plane waves:    4897
 k-point 64 :   0.2500 0.2500 0.3077  plane waves:    4888
 k-point 65 :   0.5000 0.2500 0.3077  plane waves:    4882
 k-point 66 :  -0.2500 0.2500 0.3077  plane waves:    4892
 k-point 67 :   0.0000 0.5000 0.3077  plane waves:    4882
 k-point 68 :   0.2500 0.5000 0.3077  plane waves:    4882
 k-point 69 :   0.5000 0.5000 0.3077  plane waves:    4890
 k-point 70 :  -0.2500 0.5000 0.3077  plane waves:    4882
 k-point 71 :   0.0000-0.2500 0.3077  plane waves:    4897
 k-point 72 :   0.2500-0.2500 0.3077  plane waves:    4892
 k-point 73 :   0.5000-0.2500 0.3077  plane waves:    4882
 k-point 74 :  -0.2500-0.2500 0.3077  plane waves:    4888
 k-point 75 :   0.0000 0.0000 0.3846  plane waves:    4888
 k-point 76 :   0.2500 0.0000 0.3846  plane waves:    4904
 k-point 77 :   0.5000 0.0000 0.3846  plane waves:    4904
 k-point 78 :  -0.2500 0.0000 0.3846  plane waves:    4904
 k-point 79 :   0.0000 0.2500 0.3846  plane waves:    4904
 k-point 80 :   0.2500 0.2500 0.3846  plane waves:    4907
 k-point 81 :   0.5000 0.2500 0.3846  plane waves:    4895
 k-point 82 :  -0.2500 0.2500 0.3846  plane waves:    4884
 k-point 83 :   0.0000 0.5000 0.3846  plane waves:    4904
 k-point 84 :   0.2500 0.5000 0.3846  plane waves:    4895
 k-point 85 :   0.5000 0.5000 0.3846  plane waves:    4890
 k-point 86 :  -0.2500 0.5000 0.3846  plane waves:    4895
 k-point 87 :   0.0000-0.2500 0.3846  plane waves:    4904
 k-point 88 :   0.2500-0.2500 0.3846  plane waves:    4884
 k-point 89 :   0.5000-0.2500 0.3846  plane waves:    4895
 k-point 90 :  -0.2500-0.2500 0.3846  plane waves:    4907
 k-point 91 :   0.0000 0.0000 0.4615  plane waves:    4896
 k-point 92 :   0.2500 0.0000 0.4615  plane waves:    4898
 k-point 93 :   0.5000 0.0000 0.4615  plane waves:    4910
 k-point 94 :  -0.2500 0.0000 0.4615  plane waves:    4898
 k-point 95 :   0.0000 0.2500 0.4615  plane waves:    4898
 k-point 96 :   0.2500 0.2500 0.4615  plane waves:    4916
 k-point 97 :   0.5000 0.2500 0.4615  plane waves:    4898
 k-point 98 :  -0.2500 0.2500 0.4615  plane waves:    4887
 k-point 99 :   0.0000 0.5000 0.4615  plane waves:    4910
 k-point ** :   0.2500 0.5000 0.4615  plane waves:    4898
 k-point ** :   0.5000 0.5000 0.4615  plane waves:    4892
 k-point ** :  -0.2500 0.5000 0.4615  plane waves:    4898
 k-point ** :   0.0000-0.2500 0.4615  plane waves:    4898
 k-point ** :   0.2500-0.2500 0.4615  plane waves:    4887
 k-point ** :   0.5000-0.2500 0.4615  plane waves:    4898
 k-point ** :  -0.2500-0.2500 0.4615  plane waves:    4916

 maximum and minimum number of plane-waves per node :       656      583

 maximum number of plane-waves:      4934
 maximum index in each direction: 
   IXMAX=   16   IYMAX=   16   IZMAX=    4
   IXMIN=  -16   IYMIN=  -16   IZMIN=   -5


 real space projection operators:
  total allocation   :      16302.66 KBytes
  max/ min on nodes  :       2132.58       1831.22


 parallel 3D FFT for wavefunctions:
    minimum data exchange during FFTs selected (reduces bandwidth)
 parallel 3D FFT for charge:
    minimum data exchange during FFTs selected (reduces bandwidth)


 total amount of memory used by VASP MPI-rank0   130583. kBytes
=======================================================================

   base      :      30000. kBytes
   nonlr-proj:       4781. kBytes
   fftplans  :       1555. kBytes
   grid      :       3823. kBytes
   one-center:         62. kBytes
   wavefun   :      90362. kBytes
 
     INWAV:  cpu time    0.0010: real time    0.0002
 initial charge density was supplied:
 number of electron     143.9999976 magnetization      25.5932622
 keeping initial charge density in first step


--------------------------------------------------------------------------------------------------------


 Maximum index for non-local projection operator         1104
 Maximum index for augmentation-charges          816 (set IRDMAX)


--------------------------------------------------------------------------------------------------------


 First call to EWALD:  gamma=   0.313
 Maximum number of real-space cells 2x 2x 6
 Maximum number of reciprocal cells 4x 4x 1

    FEWALD:  cpu time    0.0020: real time    0.0015


--------------------------------------- Iteration      1(   1)  ---------------------------------------


    POTLOK:  cpu time    0.0470: real time    0.0506
    SETDIJ:  cpu time    0.0100: real time    0.0102
     EDDAV:  cpu time   33.1600: real time   33.2741
 BZINTS: Fermi energy: 20.708803;144.000000 electrons
         Band energy:2053.065167;  BLOECHL correction: -0.062246
       DOS:  cpu time    0.3759: real time    0.3764
    --------------------------------------------
      LOOP:  cpu time   33.5929: real time   33.7113

 eigenvalue-minimisations  : 50907
 total energy-change (2. order) : 0.1213727E+04  (-0.5723276E+04)
 number of electron     143.9999976 magnetization      25.5932622
 augmentation part      143.9999976 magnetization      25.5932622

 Free energy of the ion-electron system (eV)
  ---------------------------------------------------
  alpha Z        PSCENC =       868.92678499
  Ewald energy   TEWEN  =    -11987.26109534
  -Hartree energ DENC   =     -2757.17409437
  -exchange      EXHF   =         0.00000000
  -V(xc)+E(xc)   XCENC  =       282.27715520
  PAW double counting   =     14811.71560377   -15433.69128587
  entropy T*S    EENTRO =         0.00000000
  eigenvalues    EBANDS =      2053.06516732
  atomic energy  EATOM  =     13375.86880085
  Solvation  Ediel_sol  =         0.00000000
  ---------------------------------------------------
  free energy    TOTEN  =      1213.72703656 eV

  energy without entropy =     1213.72703656  energy(sigma->0) =     1213.72703656


--------------------------------------------------------------------------------------------------------




--------------------------------------- Iteration      1(   2)  ---------------------------------------


     EDDAV:  cpu time   33.4329: real time   33.5921
 BZINTS: Fermi energy:  9.340514;144.000000 electrons
         Band energy: 890.488107;  BLOECHL correction: -0.044531
       DOS:  cpu time    0.3769: real time    0.3767
    --------------------------------------------
      LOOP:  cpu time   33.8099: real time   33.9689

 eigenvalue-minimisations  : 50880
 total energy-change (2. order) :-0.1162577E+04  (-0.1075215E+04)
 number of electron     143.9999976 magnetization      25.5932622
 augmentation part      143.9999976 magnetization      25.5932622

 Free energy of the ion-electron system (eV)
  ---------------------------------------------------
  alpha Z        PSCENC =       868.92678499
  Ewald energy   TEWEN  =    -11987.26109534
  -Hartree energ DENC   =     -2757.17409437
  -exchange      EXHF   =         0.00000000
  -V(xc)+E(xc)   XCENC  =       282.27715520
  PAW double counting   =     14811.71560377   -15433.69128587
  entropy T*S    EENTRO =         0.00000000
  eigenvalues    EBANDS =       890.48810685
  atomic energy  EATOM  =     13375.86880085
  Solvation  Ediel_sol  =         0.00000000
  ---------------------------------------------------
  free energy    TOTEN  =        51.14997608 eV

  energy without entropy =       51.14997608  energy(sigma->0) =       51.14997608


--------------------------------------------------------------------------------------------------------




--------------------------------------- Iteration      1(   3)  ---------------------------------------


     EDDAV:  cpu time   33.2499: real time   33.3440
 BZINTS: Fermi energy:  7.516814;144.000000 electrons
         Band energy: 737.079399;  BLOECHL correction: -0.147995
       DOS:  cpu time    0.3669: real time    0.3678
    --------------------------------------------
      LOOP:  cpu time   33.6169: real time   33.7118

 eigenvalue-minimisations  : 51090
 total energy-change (2. order) :-0.1534087E+03  (-0.1234736E+03)
 number of electron     143.9999976 magnetization      25.5932622
 augmentation part      143.9999976 magnetization      25.5932622

 Free energy of the ion-electron system (eV)
  ---------------------------------------------------
  alpha Z        PSCENC =       868.92678499
  Ewald energy   TEWEN  =    -11987.26109534
  -Hartree energ DENC   =     -2757.17409437
  -exchange      EXHF   =         0.00000000
  -V(xc)+E(xc)   XCENC  =       282.27715520
  PAW double counting   =     14811.71560377   -15433.69128587
  entropy T*S    EENTRO =         0.00000000
  eigenvalues    EBANDS =       737.07939852
  atomic energy  EATOM  =     13375.86880085
  Solvation  Ediel_sol  =         0.00000000
  ---------------------------------------------------
  free energy    TOTEN  =      -102.25873224 eV

  energy without entropy =     -102.25873224  energy(sigma->0) =     -102.25873224


--------------------------------------------------------------------------------------------------------




--------------------------------------- Iteration      1(   4)  ---------------------------------------


     EDDAV:  cpu time   36.1465: real time   36.3283
 BZINTS: Fermi energy:  7.466177;144.000000 electrons
         Band energy: 729.586224;  BLOECHL correction: -0.148896
       DOS:  cpu time    0.3519: real time    0.3523
    --------------------------------------------
      LOOP:  cpu time   36.4985: real time   36.6806

 eigenvalue-minimisations  : 56529
 total energy-change (2. order) :-0.7493175E+01  (-0.7380311E+01)
 number of electron     143.9999976 magnetization      25.5932622
 augmentation part      143.9999976 magnetization      25.5932622

 Free energy of the ion-electron system (eV)
  ---------------------------------------------------
  alpha Z        PSCENC =       868.92678499
  Ewald energy   TEWEN  =    -11987.26109534
  -Hartree energ DENC   =     -2757.17409437
  -exchange      EXHF   =         0.00000000
  -V(xc)+E(xc)   XCENC  =       282.27715520
  PAW double counting   =     14811.71560377   -15433.69128587
  entropy T*S    EENTRO =         0.00000000
  eigenvalues    EBANDS =       729.58622400
  atomic energy  EATOM  =     13375.86880085
  Solvation  Ediel_sol  =         0.00000000
  ---------------------------------------------------
  free energy    TOTEN  =      -109.75190676 eV

  energy without entropy =     -109.75190676  energy(sigma->0) =     -109.75190676


--------------------------------------------------------------------------------------------------------




--------------------------------------- Iteration      1(   5)  ---------------------------------------


     EDDAV:  cpu time   46.0090: real time   46.1857
 BZINTS: Fermi energy:  7.465282;144.000000 electrons
         Band energy: 729.461336;  BLOECHL correction: -0.148885
       DOS:  cpu time    0.3679: real time    0.3673
    --------------------------------------------
      LOOP:  cpu time   46.3769: real time   46.5530

 eigenvalue-minimisations  : 76197
 total energy-change (2. order) :-0.1248877E+00  (-0.1247531E+00)
 number of electron     143.9999976 magnetization      25.5932622
 augmentation part      143.9999976 magnetization      25.5932622

 Free energy of the ion-electron system (eV)
  ---------------------------------------------------
  alpha Z        PSCENC =       868.92678499
  Ewald energy   TEWEN  =    -11987.26109534
  -Hartree energ DENC   =     -2757.17409437
  -exchange      EXHF   =         0.00000000
  -V(xc)+E(xc)   XCENC  =       282.27715520
  PAW double counting   =     14811.71560377   -15433.69128587
  entropy T*S    EENTRO =         0.00000000
  eigenvalues    EBANDS =       729.46133634
  atomic energy  EATOM  =     13375.86880085
  Solvation  Ediel_sol  =         0.00000000
  ---------------------------------------------------
  free energy    TOTEN  =      -109.87679442 eV

  energy without entropy =     -109.87679442  energy(sigma->0) =     -109.87679442


--------------------------------------------------------------------------------------------------------




--------------------------------------- Iteration      1(   6)  ---------------------------------------


    EDDIAG:  cpu time    4.6113: real time    4.6186
  RMM-DIIS:  cpu time   24.1663: real time   24.2538
    ORTHCH:  cpu time    0.6379: real time    0.6404
 BZINTS: Fermi energy:  7.465271;144.000000 electrons
         Band energy: 729.459911;  BLOECHL correction: -0.148885
       DOS:  cpu time    0.3769: real time    0.3773
    --------------------------------------------
      LOOP:  cpu time   29.7925: real time   29.8900

 eigenvalue-minimisations  : 56357
 total energy-change (2. order) :-0.1425477E-02  (-0.1424975E-02)
 number of electron     143.9999976 magnetization      25.5932622
 augmentation part      143.9999976 magnetization      25.5932622

 Free energy of the ion-electron system (eV)
  ---------------------------------------------------
  alpha Z        PSCENC =       868.92678499
  Ewald energy   TEWEN  =    -11987.26109534
  -Hartree energ DENC   =     -2757.17409437
  -exchange      EXHF   =         0.00000000
  -V(xc)+E(xc)   XCENC  =       282.27715520
  PAW double counting   =     14811.71560377   -15433.69128587
  entropy T*S    EENTRO =         0.00000000
  eigenvalues    EBANDS =       729.45991086
  atomic energy  EATOM  =     13375.86880085
  Solvation  Ediel_sol  =         0.00000000
  ---------------------------------------------------
  free energy    TOTEN  =      -109.87821990 eV

  energy without entropy =     -109.87821990  energy(sigma->0) =     -109.87821990


--------------------------------------------------------------------------------------------------------




--------------------------------------- Iteration      1(   7)  ---------------------------------------


    EDDIAG:  cpu time    4.5133: real time    4.5172
  RMM-DIIS:  cpu time   33.4129: real time   33.4910
    ORTHCH:  cpu time    0.5469: real time    0.5489
 BZINTS: Fermi energy:  7.465269;144.000000 electrons
         Band energy: 729.459633;  BLOECHL correction: -0.148885
       DOS:  cpu time    0.3589: real time    0.3591
    --------------------------------------------
      LOOP:  cpu time   38.8321: real time   38.9162

 eigenvalue-minimisations  : 79498
 total energy-change (2. order) :-0.2777458E-03  (-0.2753763E-03)
 number of electron     143.9999976 magnetization      25.5932622
 augmentation part      143.9999976 magnetization      25.5932622

 Free energy of the ion-electron system (eV)
  ---------------------------------------------------
  alpha Z        PSCENC =       868.92678499
  Ewald energy   TEWEN  =    -11987.26109534
  -Hartree energ DENC   =     -2757.17409437
  -exchange      EXHF   =         0.00000000
  -V(xc)+E(xc)   XCENC  =       282.27715520
  PAW double counting   =     14811.71560377   -15433.69128587
  entropy T*S    EENTRO =         0.00000000
  eigenvalues    EBANDS =       729.45963311
  atomic energy  EATOM  =     13375.86880085
  Solvation  Ediel_sol  =         0.00000000
  ---------------------------------------------------
  free energy    TOTEN  =      -109.87849765 eV

  energy without entropy =     -109.87849765  energy(sigma->0) =     -109.87849765


--------------------------------------------------------------------------------------------------------




--------------------------------------- Iteration      1(   8)  ---------------------------------------


    EDDIAG:  cpu time    4.5543: real time    4.5566
  RMM-DIIS:  cpu time   33.8009: real time   34.0228
    ORTHCH:  cpu time    0.5829: real time    0.5906
 BZINTS: Fermi energy:  7.465269;144.000000 electrons
         Band energy: 729.459625;  BLOECHL correction: -0.148885
       DOS:  cpu time    0.3569: real time    0.3574
    --------------------------------------------
      LOOP:  cpu time   39.2950: real time   39.5274

 eigenvalue-minimisations  : 79712
 total energy-change (2. order) :-0.7741188E-05  (-0.8607842E-05)
 number of electron     143.9999976 magnetization      25.5932622
 augmentation part      143.9999976 magnetization      25.5932622

 Free energy of the ion-electron system (eV)
  ---------------------------------------------------
  alpha Z        PSCENC =       868.92678499
  Ewald energy   TEWEN  =    -11987.26109534
  -Hartree energ DENC   =     -2757.17409437
  -exchange      EXHF   =         0.00000000
  -V(xc)+E(xc)   XCENC  =       282.27715520
  PAW double counting   =     14811.71560377   -15433.69128587
  entropy T*S    EENTRO =         0.00000000
  eigenvalues    EBANDS =       729.45962537
  atomic energy  EATOM  =     13375.86880085
  Solvation  Ediel_sol  =         0.00000000
  ---------------------------------------------------
  free energy    TOTEN  =      -109.87850539 eV

  energy without entropy =     -109.87850539  energy(sigma->0) =     -109.87850539


--------------------------------------------------------------------------------------------------------




--------------------------------------- Iteration      1(   9)  ---------------------------------------


    EDDIAG:  cpu time    4.5173: real time    4.5414
  RMM-DIIS:  cpu time   20.1579: real time   20.2241
    ORTHCH:  cpu time    0.5489: real time    0.5571
 BZINTS: Fermi energy:  7.465269;144.000000 electrons
         Band energy: 729.459625;  BLOECHL correction: -0.148885
       DOS:  cpu time    0.3499: real time    0.3502
    --------------------------------------------
      LOOP:  cpu time   25.5741: real time   25.6728

 eigenvalue-minimisations  : 45481
 total energy-change (2. order) :-0.5520524E-06  (-0.5859047E-06)
 number of electron     143.9999976 magnetization      25.5932622
 augmentation part      143.9999976 magnetization      25.5932622

 Free energy of the ion-electron system (eV)
  ---------------------------------------------------
  alpha Z        PSCENC =       868.92678499
  Ewald energy   TEWEN  =    -11987.26109534
  -Hartree energ DENC   =     -2757.17409437
  -exchange      EXHF   =         0.00000000
  -V(xc)+E(xc)   XCENC  =       282.27715520
  PAW double counting   =     14811.71560377   -15433.69128587
  entropy T*S    EENTRO =         0.00000000
  eigenvalues    EBANDS =       729.45962482
  atomic energy  EATOM  =     13375.86880085
  Solvation  Ediel_sol  =         0.00000000
  ---------------------------------------------------
  free energy    TOTEN  =      -109.87850594 eV

  energy without entropy =     -109.87850594  energy(sigma->0) =     -109.87850594


--------------------------------------------------------------------------------------------------------




 average (electrostatic) potential at core
  the test charge radii are     0.9791  1.0103
  (the norm of the test charge is              1.0000)
       1 -83.8661       2 -83.8662       3 -83.9200       4 -83.8906       5 -83.8909
       6 -83.9197       7 -83.9881       8 -83.9886       9 -42.0166      10 -41.9210
      11 -41.8777      12 -41.9210      13 -42.0168      14 -41.8334      15 -41.8334
      16 -41.8782
 
 
 
 E-fermi :   7.4653     XC(G=0): -13.0395     alpha+bet :-14.6744


 spin component 1

 k-point     1 :       0.0000    0.0000    0.0000
  band No.  band energies     occupation 
      1      -1.3059      1.00000
      2       0.8098      1.00000
      3       0.8284      1.00000
      4       0.8518      1.00000
      5       0.8925      1.00000
      6       1.4530      1.00000
      7       1.4829      1.00000
      8       2.4873      1.00000
      9       2.4948      1.00000
     10       2.5110      1.00000
     11       3.0384      1.00000
     12       3.1548      1.00000
     13       3.1788      1.00000
     14       3.2097      1.00000
     15       3.2315      1.00000
     16       3.2455      1.00000
     17       3.2576      1.00000
     18       3.7269      1.00000
     19       3.7932      1.00000
     20       3.8184      1.00000
     21       3.9066      1.00000
     22       3.9578      1.00000
     23       4.0730      1.00000
     24       4.2221      1.00000
     25       4.2569      1.00000
     26       4.4577      1.00000
     27       4.5003      1.00000
     28       4.5622      1.00000
     29       4.5822      1.00000
     30       4.6667      1.00000
     31       4.6960      1.00000
     32       4.8491      1.00000
     33       4.8501      1.00000
     34       4.8563      1.00000
     35       4.8574      1.00000
     36       4.9045      1.00000
     37       4.9460      1.00000
     38       4.9643      1.00000
     39       4.9996      1.00000
     40       5.0437      1.00000
     41       5.0661      1.00000
     42       5.0765      1.00000
     43       5.0833      1.00000
     44       5.1134      1.00000
     45       5.1236      1.00000
     46       5.1580      1.00000
     47       5.1636      1.00000
     48       5.1854      1.00000
     49       5.2016      1.00000
     50       5.2389      1.00000
     51       5.4149      1.00000
     52       5.4446      1.00000
     53       5.5383      1.00000
     54       5.5598      1.00000
     55       5.7144      1.00000
     56       5.7539      1.00000
     57       5.7755      1.00000
     58       5.7957      1.00000
     59       5.8089      1.00000
     60       5.8291      1.00000
     61       5.8481      1.00000
     62       5.8631      1.00000
     63       6.0069      1.00000
     64       6.0184      1.00000
     65       6.0290      1.00000
     66       6.0744      1.00000
     67       6.0854      1.00000
     68       6.0860      1.00000
     69       6.1113      1.00000
     70       6.1257      1.00000
     71       6.1563      1.00000
     72       6.1619      1.00000
     73       6.1785      1.00000
     74       6.2336      1.00000
     75       6.4040      1.00000
     76       6.4209      1.00000
     77       6.7631      1.00000
     78       6.7941      1.00000
     79       6.7947      1.00000
     80       6.8117      1.00000
     81       6.8200      1.00000
     82       6.8416      1.00000
     83       6.8826      1.00000
     84       6.9190      1.00000
     85       6.9402      1.00000
     86       6.9971      1.00000
     87       7.0502      1.00000
     88       7.1854      0.78441
     89       7.1963      0.56341
     90       8.4503      0.00000
     91       8.4760      0.00000
     92       9.6427      0.00000
     93       9.7218      0.00000
     94       9.7271      0.00000
     95       9.8306      0.00000
     96       9.9137      0.00000
     97      13.2561      0.00000
     98      13.2640      0.00000
     99      15.7783      0.00000
    100      15.8450      0.00000
    101      15.9313      0.00000
    102      15.9357      0.00000
    103      16.6537      0.00000
    104      18.7977      0.00000
    105      18.8620      0.00000
    106      20.0515      0.00000
    107      20.1749      0.00000
    108      21.5098      0.00000
    109      21.5686      0.00000
    110      21.5692      0.00000
    111      21.6192      0.00000
    112      21.7243      0.00000
    113      21.7421      0.00000
    114      21.8626      0.00000
    115      21.8730      0.00000
    116      21.8733      0.00000
    117      22.0572      0.00000
    118      25.1679      0.00000
    119      25.1831      0.00000
    120      25.2818      0.00000

 k-point     2 :       0.2500    0.0000    0.0000
  band No.  band energies     occupation 
      1      -1.1561      1.00000
      2      -0.0163      1.00000
      3       0.6626      1.00000
      4       0.9920      1.00000
      5       1.2669      1.00000
      6       1.7031      1.00000
      7       2.0069      1.00000
      8       2.4581      1.00000
      9       2.5493      1.00000
     10       2.5731      1.00000
     11       2.5861      1.00000
     12       2.9382      1.00000
     13       3.0046      1.00000
     14       3.0638      1.00000
     15       3.1860      1.00000
     16       3.3684      1.00000
     17       3.5193      1.00000
     18       3.5528      1.00000
     19       3.7049      1.00000
     20       3.8278      1.00000
     21       3.9155      1.00000
     22       4.1134      1.00000
     23       4.1943      1.00000
     24       4.2825      1.00000
     25       4.3186      1.00000
     26       4.4577      1.00000
     27       4.5287      1.00000
     28       4.5679      1.00000
     29       4.6767      1.00000
     30       4.7292      1.00000
     31       4.8026      1.00000
     32       4.8287      1.00000
     33       4.8734      1.00000
     34       4.8775      1.00000
     35       4.9051      1.00000
     36       4.9074      1.00000
     37       4.9459      1.00000
     38       4.9806      1.00000
     39       5.0127      1.00000
     40       5.0383      1.00000
     41       5.0731      1.00000
     42       5.0747      1.00000
     43       5.1043      1.00000
     44       5.1266      1.00000
     45       5.1292      1.00000
     46       5.1514      1.00000
     47       5.1987      1.00000
     48       5.2244      1.00000
     49       5.2363      1.00000
     50       5.3323      1.00000
     51       5.3722      1.00000
     52       5.3960      1.00000
     53       5.4480      1.00000
     54       5.4850      1.00000
     55       5.5816      1.00000
     56       5.6160      1.00000
     57       5.7003      1.00000
     58       5.7904      1.00000
     59       5.8603      1.00000
     60       5.9061      1.00000
     61       5.9501      1.00000
     62       5.9689      1.00000
     63       5.9795      1.00000
     64       5.9849      1.00000
     65       5.9919      1.00000
     66       6.0350      1.00000
     67       6.0960      1.00000
     68       6.1351      1.00000
     69       6.1541      1.00000
     70       6.2387      1.00000
     71       6.2399      1.00000
     72       6.2990      1.00000
     73       6.3415      1.00000
     74       6.3630      1.00000
     75       6.3918      1.00000
     76       6.4267      1.00000
     77       6.5310      1.00000
     78       6.6081      1.00000
     79       6.6999      1.00000
     80       6.7292      1.00000
     81       6.7462      1.00000
     82       6.7624      1.00000
     83       6.7915      1.00000
     84       6.8175      1.00000
     85       6.8707      1.00000
     86       6.8892      1.00000
     87       6.9304      1.00000
     88       7.0162      1.01700
     89       7.5837      0.17609
     90       7.8905     -0.03831
     91       8.2365      0.00000
     92       9.3169      0.00000
     93       9.6135      0.00000
     94       9.9390      0.00000
     95       9.9567      0.00000
     96      11.2577      0.00000
     97      13.3675      0.00000
     98      13.9948      0.00000
     99      14.1563      0.00000
    100      14.6679      0.00000
    101      16.6341      0.00000
    102      17.0282      0.00000
    103      17.3995      0.00000
    104      18.3130      0.00000
    105      18.7908      0.00000
    106      19.5334      0.00000
    107      19.7900      0.00000
    108      19.8492      0.00000
    109      20.6975      0.00000
    110      20.8806      0.00000
    111      21.0773      0.00000
    112      22.1044      0.00000
    113      22.3719      0.00000
    114      22.7175      0.00000
    115      22.9160      0.00000
    116      23.8336      0.00000
    117      23.8395      0.00000
    118      23.9798      0.00000
    119      24.6940      0.00000
    120      25.4314      0.00000

 k-point     3 :       0.5000    0.0000    0.0000
  band No.  band energies     occupation 
      1      -0.7553      1.00000
      2      -0.6721      1.00000
      3       0.6909      1.00000
      4       0.7513      1.00000
      5       1.8560      1.00000
      6       1.8606      1.00000
      7       2.2088      1.00000
      8       2.2977      1.00000
      9       2.4868      1.00000
     10       2.5898      1.00000
     11       2.6658      1.00000
     12       2.7499      1.00000
     13       2.8309      1.00000
     14       2.8700      1.00000
     15       3.2179      1.00000
     16       3.3931      1.00000
     17       3.4569      1.00000
     18       3.5615      1.00000
     19       3.6556      1.00000
     20       3.8292      1.00000
     21       3.9026      1.00000
     22       4.1047      1.00000
     23       4.3059      1.00000
     24       4.3658      1.00000
     25       4.4476      1.00000
     26       4.4917      1.00000
     27       4.5219      1.00000
     28       4.5899      1.00000
     29       4.7168      1.00000
     30       4.7303      1.00000
     31       4.8493      1.00000
     32       4.8882      1.00000
     33       4.8932      1.00000
     34       4.9131      1.00000
     35       4.9193      1.00000
     36       4.9684      1.00000
     37       4.9982      1.00000
     38       5.0249      1.00000
     39       5.0691      1.00000
     40       5.0701      1.00000
     41       5.0871      1.00000
     42       5.0919      1.00000
     43       5.1586      1.00000
     44       5.1616      1.00000
     45       5.1677      1.00000
     46       5.2248      1.00000
     47       5.2516      1.00000
     48       5.2523      1.00000
     49       5.2813      1.00000
     50       5.2852      1.00000
     51       5.3478      1.00000
     52       5.3731      1.00000
     53       5.4316      1.00000
     54       5.4874      1.00000
     55       5.5473      1.00000
     56       5.5884      1.00000
     57       5.6113      1.00000
     58       5.6591      1.00000
     59       5.8569      1.00000
     60       5.8719      1.00000
     61       5.8849      1.00000
     62       5.9052      1.00000
     63       5.9559      1.00000
     64       5.9659      1.00000
     65       5.9736      1.00000
     66       5.9804      1.00000
     67       5.9993      1.00000
     68       6.0709      1.00000
     69       6.1412      1.00000
     70       6.1707      1.00000
     71       6.3126      1.00000
     72       6.3163      1.00000
     73       6.4567      1.00000
     74       6.4664      1.00000
     75       6.5491      1.00000
     76       6.5679      1.00000
     77       6.5808      1.00000
     78       6.5811      1.00000
     79       6.6022      1.00000
     80       6.6055      1.00000
     81       6.7363      1.00000
     82       6.7556      1.00000
     83       6.8182      1.00000
     84       6.8700      1.00000
     85       6.8918      1.00000
     86       6.9302      1.00000
     87       6.9438      1.00000
     88       6.9816      1.00499
     89       7.0317      1.18385
     90       7.0976      1.01700
     91       8.6341      0.00000
     92       8.7462      0.00000
     93       9.9939      0.00000
     94       9.9969      0.00000
     95      10.9479      0.00000
     96      11.0075      0.00000
     97      13.7389      0.00000
     98      13.9273      0.00000
     99      14.4224      0.00000
    100      14.5447      0.00000
    101      16.1710      0.00000
    102      16.2328      0.00000
    103      17.9323      0.00000
    104      18.1404      0.00000
    105      19.1150      0.00000
    106      19.4734      0.00000
    107      19.9329      0.00000
    108      20.1012      0.00000
    109      20.1578      0.00000
    110      20.4208      0.00000
    111      20.9987      0.00000
    112      21.0861      0.00000
    113      22.7084      0.00000
    114      22.8507      0.00000
    115      23.8869      0.00000
    116      24.0716      0.00000
    117      24.1818      0.00000
    118      24.2366      0.00000
    119      24.9213      0.00000
    120      25.2415      0.00000

 k-point     4 :       0.0000    0.2500    0.0000
  band No.  band energies     occupation 
      1      -1.1558      1.00000
      2      -0.0204      1.00000
      3       0.6620      1.00000
      4       1.0097      1.00000
      5       1.2613      1.00000
      6       1.6918      1.00000
      7       2.0118      1.00000
[...]
    112      18.8092      0.00000
    113      19.4939      0.00000
    114      19.5187      0.00000
    115      19.6581      0.00000
    116      19.9456      0.00000
    117      20.0926      0.00000
    118      20.1875      0.00000
    119      20.6953      0.00000
    120      21.4492      0.00000


--------------------------------------------------------------------------------------------------------


 soft charge-density along one line, spin component           1
         0         1         2         3         4         5         6         7         8         9
 total charge-density along one line
 
 soft charge-density along one line, spin component           2
         0         1         2         3         4         5         6         7         8         9
 total charge-density along one line
 
 pseudopotential strength for first ion, spin component:           1
 -1.886   0.003  -0.003  -0.016  -0.001  -2.508   0.003  -0.003
  0.003  -1.875  -0.006   0.002   0.010   0.003  -2.498  -0.006
 -0.003  -0.006  -1.867   0.003   0.017  -0.003  -0.006  -2.490
 -0.016   0.002   0.003  -1.886   0.002  -0.015   0.002   0.003
 -0.001   0.010   0.017   0.002  -1.886  -0.001   0.010   0.016
 -2.508   0.003  -0.003  -0.015  -0.001  -3.061   0.002  -0.003
  0.003  -2.498  -0.006   0.002   0.010   0.002  -3.052  -0.005
 -0.003  -0.006  -2.490   0.003   0.016  -0.003  -0.005  -3.043
 -0.015   0.002   0.003  -2.508   0.002  -0.014   0.002   0.002
 -0.001   0.010   0.016   0.002  -2.509  -0.001   0.009   0.016
 -0.001   0.003  -0.002  -0.001   0.003  -0.001   0.003  -0.002
 -0.001   0.006  -0.003  -0.001   0.005  -0.001   0.005  -0.003
 -0.001  -0.003   0.002   0.000   0.003  -0.001  -0.003   0.002
  0.000  -0.003  -0.004  -0.001   0.000   0.000  -0.003  -0.003
 -0.003   0.000   0.001  -0.003  -0.001  -0.003   0.000   0.001
 -0.001  -0.004   0.002   0.000   0.004  -0.001  -0.004   0.002
  0.000  -0.004  -0.005  -0.001   0.000   0.000  -0.004  -0.004
 -0.004   0.000   0.001  -0.004  -0.001  -0.004   0.000   0.001
 pseudopotential strength for first ion, spin component:           2
 -1.330   0.001   0.001  -0.000   0.002  -1.978   0.001   0.001
  0.001  -1.300  -0.008   0.000   0.013   0.001  -1.949  -0.007
  0.001  -0.008  -1.327  -0.002  -0.004   0.001  -0.007  -1.976
 -0.000   0.000  -0.002  -1.330   0.001   0.000   0.000  -0.002
  0.002   0.013  -0.004   0.001  -1.322   0.002   0.013  -0.004
 -1.978   0.001   0.001   0.000   0.002  -2.557   0.001   0.001
  0.001  -1.949  -0.007   0.000   0.013   0.001  -2.529  -0.007
  0.001  -0.007  -1.976  -0.002  -0.004   0.001  -0.007  -2.555
  0.000   0.000  -0.002  -1.978   0.001   0.000   0.000  -0.002
  0.002   0.013  -0.004   0.001  -1.971   0.002   0.012  -0.004
 -0.000   0.001  -0.000  -0.000   0.000  -0.000   0.001  -0.000
 -0.000   0.001  -0.000  -0.000   0.000  -0.000   0.001  -0.000
 -0.001  -0.001   0.001   0.000   0.001  -0.001  -0.001   0.001
  0.000  -0.001  -0.001  -0.001  -0.000   0.000  -0.001  -0.001
 -0.001   0.000   0.000  -0.001  -0.001  -0.001   0.000   0.000
 -0.001  -0.001   0.001   0.000   0.001  -0.001  -0.001   0.001
  0.000  -0.001  -0.002  -0.001  -0.000   0.000  -0.001  -0.002
 -0.002   0.000   0.000  -0.002  -0.001  -0.002   0.000   0.000
 total augmentation occupancy for first ion, spin component:           1
  1.800   0.000   0.000   0.000   0.000   0.000   0.000   0.000   0.000   0.000   0.000   0.000   0.000   0.000   0.000   0.000
  0.000   1.800   0.000   0.000   0.000   0.000   0.000   0.000   0.000   0.000   0.000   0.000   0.000   0.000   0.000   0.000
  0.000   0.000   1.800   0.000   0.000   0.000   0.000   0.000   0.000   0.000   0.000   0.000   0.000   0.000   0.000   0.000
  0.000   0.000   0.000   1.800   0.000   0.000   0.000   0.000   0.000   0.000   0.000   0.000   0.000   0.000   0.000   0.000
  0.000   0.000   0.000   0.000   1.800   0.000   0.000   0.000   0.000   0.000   0.000   0.000   0.000   0.000   0.000   0.000
  0.000   0.000   0.000   0.000   0.000   0.000   0.000   0.000   0.000   0.000   0.000   0.000   0.000   0.000   0.000   0.000
  0.000   0.000   0.000   0.000   0.000   0.000   0.000   0.000   0.000   0.000   0.000   0.000   0.000   0.000   0.000   0.000
  0.000   0.000   0.000   0.000   0.000   0.000   0.000   0.000   0.000   0.000   0.000   0.000   0.000   0.000   0.000   0.000
  0.000   0.000   0.000   0.000   0.000   0.000   0.000   0.000   0.000   0.000   0.000   0.000   0.000   0.000   0.000   0.000
  0.000   0.000   0.000   0.000   0.000   0.000   0.000   0.000   0.000   0.000   0.000   0.000   0.000   0.000   0.000   0.000
  0.000   0.000   0.000   0.000   0.000   0.000   0.000   0.000   0.000   0.000   1.000   0.000   0.000   0.000   0.000   0.000
  0.000   0.000   0.000   0.000   0.000   0.000   0.000   0.000   0.000   0.000   0.000   0.000   0.000   0.000   0.000   0.000
  0.000   0.000   0.000   0.000   0.000   0.000   0.000   0.000   0.000   0.000   0.000   0.000   0.000   0.000   0.000   0.000
  0.000   0.000   0.000   0.000   0.000   0.000   0.000   0.000   0.000   0.000   0.000   0.000   0.000   0.000   0.000   0.000
  0.000   0.000   0.000   0.000   0.000   0.000   0.000   0.000   0.000   0.000   0.000   0.000   0.000   0.000   0.000   0.000
  0.000   0.000   0.000   0.000   0.000   0.000   0.000   0.000   0.000   0.000   0.000   0.000   0.000   0.000   0.000   0.000
  0.000   0.000   0.000   0.000   0.000   0.000   0.000   0.000   0.000   0.000   0.000   0.000   0.000   0.000   0.000   0.000
  0.000   0.000   0.000   0.000   0.000   0.000   0.000   0.000   0.000   0.000   0.000   0.000   0.000   0.000   0.000   0.000
 total augmentation occupancy for first ion, spin component:           2
  0.720   0.000   0.000   0.000   0.000   0.000   0.000   0.000   0.000   0.000   0.000   0.000   0.000   0.000   0.000   0.000
  0.000   0.720   0.000   0.000   0.000   0.000   0.000   0.000   0.000   0.000   0.000   0.000   0.000   0.000   0.000   0.000
  0.000   0.000   0.720   0.000   0.000   0.000   0.000   0.000   0.000   0.000   0.000   0.000   0.000   0.000   0.000   0.000
  0.000   0.000   0.000   0.720   0.000   0.000   0.000   0.000   0.000   0.000   0.000   0.000   0.000   0.000   0.000   0.000
  0.000   0.000   0.000   0.000   0.720   0.000   0.000   0.000   0.000   0.000   0.000   0.000   0.000   0.000   0.000   0.000
  0.000   0.000   0.000   0.000   0.000   0.000   0.000   0.000   0.000   0.000   0.000   0.000   0.000   0.000   0.000   0.000
  0.000   0.000   0.000   0.000   0.000   0.000   0.000   0.000   0.000   0.000   0.000   0.000   0.000   0.000   0.000   0.000
  0.000   0.000   0.000   0.000   0.000   0.000   0.000   0.000   0.000   0.000   0.000   0.000   0.000   0.000   0.000   0.000
  0.000   0.000   0.000   0.000   0.000   0.000   0.000   0.000   0.000   0.000   0.000   0.000   0.000   0.000   0.000   0.000
  0.000   0.000   0.000   0.000   0.000   0.000   0.000   0.000   0.000   0.000   0.000   0.000   0.000   0.000   0.000   0.000
  0.000   0.000   0.000   0.000   0.000   0.000   0.000   0.000   0.000   0.000   0.400   0.000   0.000   0.000   0.000   0.000
  0.000   0.000   0.000   0.000   0.000   0.000   0.000   0.000   0.000   0.000   0.000   0.000   0.000   0.000   0.000   0.000
  0.000   0.000   0.000   0.000   0.000   0.000   0.000   0.000   0.000   0.000   0.000   0.000   0.000   0.000   0.000   0.000
  0.000   0.000   0.000   0.000   0.000   0.000   0.000   0.000   0.000   0.000   0.000   0.000   0.000   0.000   0.000   0.000
  0.000   0.000   0.000   0.000   0.000   0.000   0.000   0.000   0.000   0.000   0.000   0.000   0.000   0.000   0.000   0.000
  0.000   0.000   0.000   0.000   0.000   0.000   0.000   0.000   0.000   0.000   0.000   0.000   0.000   0.000   0.000   0.000
  0.000   0.000   0.000   0.000   0.000   0.000   0.000   0.000   0.000   0.000   0.000   0.000   0.000   0.000   0.000   0.000
  0.000   0.000   0.000   0.000   0.000   0.000   0.000   0.000   0.000   0.000   0.000   0.000   0.000   0.000   0.000   0.000


------------------------ aborting loop because EDIFF is reached ----------------------------------------


 


 total charge     
 
# of ion       s       p       d       tot
------------------------------------------
    1        0.505   0.508   8.325   9.339
    2        0.505   0.508   8.325   9.339
    3        0.499   0.494   8.300   9.293
    4        0.502   0.497   8.317   9.316
    5        0.502   0.497   8.317   9.317
    6        0.499   0.494   8.300   9.292
    7        0.515   0.527   8.309   9.352
    8        0.515   0.527   8.310   9.352
    9        0.466   0.491   6.168   7.126
   10        0.473   0.503   6.185   7.160
   11        0.476   0.500   6.204   7.180
   12        0.473   0.503   6.185   7.160
   13        0.466   0.491   6.169   7.126
   14        0.478   0.511   6.212   7.201
   15        0.478   0.511   6.212   7.201
   16        0.476   0.500   6.205   7.180
--------------------------------------------------
tot          7.830   8.061 116.044 131.935
 


 magnetization (x)
 
# of ion       s       p       d       tot
------------------------------------------
    1       -0.020  -0.047   0.646   0.579
    2       -0.020  -0.047   0.646   0.579
    3       -0.020  -0.045   0.712   0.647
    4       -0.020  -0.041   0.676   0.615
    5       -0.020  -0.041   0.676   0.615
    6       -0.020  -0.045   0.712   0.647
    7       -0.029  -0.064   0.737   0.645
    8       -0.029  -0.064   0.737   0.644
    9        0.002  -0.020   2.720   2.702
   10       -0.006  -0.034   2.661   2.620
   11       -0.007  -0.028   2.618   2.583
   12       -0.006  -0.034   2.661   2.620
   13        0.002  -0.020   2.720   2.702
   14       -0.008  -0.036   2.575   2.532
   15       -0.008  -0.036   2.575   2.532
   16       -0.007  -0.028   2.618   2.583
--------------------------------------------------
tot         -0.219  -0.628  26.690  25.843
 
    CHARGE:  cpu time    0.9279: real time    0.9286
    FORLOC:  cpu time    0.0040: real time    0.0036
    FORNL :  cpu time    8.9726: real time    8.9914
    STRESS:  cpu time   27.0029: real time   27.1101
    FORCOR:  cpu time    0.0450: real time    0.0455
    FORHAR:  cpu time    0.0080: real time    0.0079
    OFIELD:  cpu time    0.0000: real time    0.0003

  FORCE on cell =-STRESS in cart. coord.  units (eV):
  Direction    XX          YY          ZZ          XY          YZ          ZX
  --------------------------------------------------------------------------------------
  Alpha Z   868.92678   868.92678   868.92678
  Ewald   -4038.78544 -3974.25281 -3974.25276   -59.04868   -65.68720   -59.04873
  Hartree   875.19822   940.07425   940.07758   -58.55339   -67.70900   -58.50213
  E(xc)    -758.87838  -759.31910  -759.31877     0.06766     0.24749     0.06629
  Local     399.79209   267.27912   267.26540   117.81797   134.91454   117.67272
  n-local  -264.76298  -268.04200  -268.04303     0.37020     1.52378     0.41307
  augment  1716.69905  1720.44519  1720.45645    -0.27229    -1.35412    -0.22862
  Kinetic  1200.42265  1202.98984  1202.99038    -0.05854    -0.89051    -0.01422
  Fock        0.00000     0.00000     0.00000     0.00000     0.00000     0.00000
  -------------------------------------------------------------------------------------
  Total      -1.38802    -1.89873    -1.89798     0.32294     1.04497     0.35838
  in kB     -12.20886   -16.70103   -16.69446     2.84055     9.19150     3.15225
  external pressure =      -15.20 kB  Pullay stress =        0.00 kB


 VOLUME and BASIS-vectors are now :
 -----------------------------------------------------------------------------
  energy-cutoff  :      520.00
  volume of cell :      182.15
      direct lattice vectors                 reciprocal lattice vectors
     7.142000000  3.571000000  3.571000000     0.070008401  0.070008401  0.070008401
    -7.142000000  3.571000000  3.571000000    -0.070008401  0.070008401  0.070008401
     0.000000000 -1.785500000  1.785500000     0.000000000 -0.280033604  0.280033604

  length of vectors
     8.747127871  8.747127871  2.525078316     0.121258108  0.121258108  0.396027321


 FORCES acting on ions
    electron-ion (+dipol)            ewald-force                    non-local-force                 convergence-correction
 -----------------------------------------------------------------------------------------------
   0.348E+02 0.430E+02 0.430E+02   -.347E+02 -.431E+02 -.431E+02   -.220E+00 0.958E-01 0.951E-01   0.843E-01 0.795E-01 0.804E-01
   -.349E+02 -.429E+02 -.429E+02   0.347E+02 0.431E+02 0.431E+02   0.217E+00 -.929E-01 -.925E-01   -.447E-01 -.125E+00 -.125E+00
   0.100E+03 0.443E+02 0.443E+02   -.101E+03 -.446E+02 -.446E+02   0.395E+00 0.333E-01 0.348E-01   0.267E+00 0.248E+00 0.247E+00
   -.371E+02 -.487E+02 -.487E+02   0.370E+02 0.490E+02 0.490E+02   0.913E-01 -.965E-02 -.965E-02   0.330E-02 -.268E+00 -.267E+00
   0.371E+02 0.487E+02 0.487E+02   -.371E+02 -.490E+02 -.490E+02   -.968E-01 0.762E-02 0.800E-02   0.345E-01 0.278E+00 0.276E+00
   -.100E+03 -.443E+02 -.443E+02   0.101E+03 0.446E+02 0.446E+02   -.396E+00 -.375E-01 -.387E-01   -.286E+00 -.188E+00 -.188E+00
   0.427E+02 0.590E+02 0.590E+02   -.428E+02 -.593E+02 -.593E+02   -.240E-01 0.128E+00 0.129E+00   0.120E+00 0.153E+00 0.151E+00
   -.427E+02 -.590E+02 -.590E+02   0.429E+02 0.593E+02 0.593E+02   0.253E-01 -.134E+00 -.134E+00   -.147E+00 -.146E+00 -.145E+00
   0.156E+02 0.501E+02 0.501E+02   -.158E+02 -.500E+02 -.500E+02   0.534E-01 -.516E-01 -.514E-01   0.187E+00 0.279E-01 0.267E-01
   -.112E+03 -.557E+02 -.557E+02   0.113E+03 0.559E+02 0.559E+02   -.620E+00 -.153E+00 -.153E+00   -.108E+00 -.918E-01 -.931E-01
   -.255E+02 -.562E+02 -.562E+02   0.257E+02 0.564E+02 0.564E+02   -.900E-01 -.922E-01 -.922E-01   -.100E+00 -.116E+00 -.114E+00
   0.112E+03 0.557E+02 0.557E+02   -.113E+03 -.559E+02 -.559E+02   0.619E+00 0.157E+00 0.156E+00   0.155E+00 0.488E-01 0.501E-01
   -.155E+02 -.501E+02 -.501E+02   0.158E+02 0.500E+02 0.500E+02   -.529E-01 0.517E-01 0.514E-01   -.201E+00 -.257E-01 -.244E-01
   -.254E+02 -.361E+02 -.361E+02   0.256E+02 0.367E+02 0.367E+02   -.783E-01 -.411E+00 -.412E+00   -.149E+00 -.151E+00 -.151E+00
   0.254E+02 0.361E+02 0.361E+02   -.255E+02 -.367E+02 -.367E+02   0.814E-01 0.410E+00 0.410E+00   0.881E-01 0.185E+00 0.185E+00
   0.255E+02 0.562E+02 0.562E+02   -.257E+02 -.564E+02 -.564E+02   0.897E-01 0.921E-01 0.921E-01   0.107E+00 0.109E+00 0.108E+00
 -----------------------------------------------------------------------------------------------
   -.520E-02 -.831E-02 -.821E-02   0.384E-12 -.497E-13 0.171E-12   -.616E-02 -.702E-02 -.687E-02   0.104E-01 0.178E-01 0.175E-01
 
 
 POSITION                                       TOTAL-FORCE (eV/Angst)
 -----------------------------------------------------------------------------------
     -5.37235      1.79662      3.58212        -0.018658     -0.006916     -0.006820
     -3.55491      1.77448      5.34547         0.018714      0.006767      0.006691
      5.35074      3.57105      5.35655         0.002482     -0.010197     -0.009221
     -1.75711      1.78690      3.57240         0.004677      0.004761      0.005001
      7.11362      1.78403      5.35503        -0.004557     -0.004984     -0.005251
      0.00578      1.78542      1.78542        -0.002625      0.009286      0.008297
      1.80139      3.57997      5.36547        -0.001271     -0.008197     -0.008125
     -3.58713      5.34752      5.34752         0.002023      0.008828      0.008764
     -3.58146      0.03311      3.60411        -0.008373      0.001909      0.001601
     -1.83804      3.55933      5.34483         0.004207      0.005381      0.005188
      0.01447      3.55704      3.55704         0.000686     -0.005035     -0.004688
      0.05278      3.58278      7.15378        -0.005817     -0.003949     -0.003753
     -5.34603      3.53780      5.32330         0.007932     -0.002525     -0.002213
      1.79524      1.77379      3.55929        -0.002505     -0.002520     -0.002081
      3.56106      1.79723      5.36823         0.003544      0.002158      0.001719
      5.34194      1.79943      3.58493        -0.000459      0.005233      0.004891
 -----------------------------------------------------------------------------------
    total drift:                               -0.000934      0.002475      0.002467


--------------------------------------------------------------------------------------------------------



  FREE ENERGIE OF THE ION-ELECTRON SYSTEM (eV)
  ---------------------------------------------------
  free  energy   TOTEN  =      -109.87850594 eV

  energy  without entropy=     -109.87850594  energy(sigma->0) =     -109.87850594
 


--------------------------------------------------------------------------------------------------------


    POTLOK:  cpu time    0.0540: real time    0.0538


--------------------------------------------------------------------------------------------------------


     LOOP+:  cpu time  354.5971: real time  355.9761
    4ORBIT:  cpu time    0.0000: real time    0.0000
 


 total charge     
 
# of ion       s       p       d       tot
------------------------------------------
    1        0.505   0.508   8.325   9.339
    2        0.505   0.508   8.325   9.339
    3        0.499   0.494   8.300   9.293
    4        0.502   0.497   8.317   9.316
    5        0.502   0.497   8.317   9.317
    6        0.499   0.494   8.300   9.292
    7        0.515   0.527   8.309   9.352
    8        0.515   0.527   8.310   9.352
    9        0.466   0.491   6.168   7.126
   10        0.473   0.503   6.185   7.160
   11        0.476   0.500   6.204   7.180
   12        0.473   0.503   6.185   7.160
   13        0.466   0.491   6.169   7.126
   14        0.478   0.511   6.212   7.201
   15        0.478   0.511   6.212   7.201
   16        0.476   0.500   6.205   7.180
--------------------------------------------------
tot          7.830   8.061 116.044 131.935
 


 magnetization (x)
 
# of ion       s       p       d       tot
------------------------------------------
    1       -0.020  -0.047   0.646   0.579
    2       -0.020  -0.047   0.646   0.579
    3       -0.020  -0.045   0.712   0.647
    4       -0.020  -0.041   0.676   0.615
    5       -0.020  -0.041   0.676   0.615
    6       -0.020  -0.045   0.712   0.647
    7       -0.029  -0.064   0.737   0.645
    8       -0.029  -0.064   0.737   0.644
    9        0.002  -0.020   2.720   2.702
   10       -0.006  -0.034   2.661   2.620
   11       -0.007  -0.028   2.618   2.583
   12       -0.006  -0.034   2.661   2.620
   13        0.002  -0.020   2.720   2.702
   14       -0.008  -0.036   2.575   2.532
   15       -0.008  -0.036   2.575   2.532
   16       -0.007  -0.028   2.618   2.583
--------------------------------------------------
tot         -0.219  -0.628  26.690  25.843
 
 BZINTS: Fermi energy:  7.465269;144.000000 electrons
         Band energy: 729.459625;  BLOECHL correction: -0.148885

 total amount of memory used by VASP MPI-rank0   130583. kBytes
=======================================================================

   base      :      30000. kBytes
   nonlr-proj:       4781. kBytes
   fftplans  :       1555. kBytes
   grid      :       3823. kBytes
   one-center:         62. kBytes
   wavefun   :      90362. kBytes
 
  
  
 General timing and accounting informations for this job:
 ========================================================
  
                  Total CPU time used (sec):      378.779
                            User time (sec):      370.387
                          System time (sec):        8.393
                         Elapsed time (sec):      380.371
  
                   Maximum memory used (kb):      188868.
                   Average memory used (kb):           0.
  
                          Minor page faults:        13088
                          Major page faults:            0
                 Voluntary context switches:         1493
