SQS-NiFe                                
           1
     7.142000    3.571000    3.571000
    -7.142000    3.571000    3.571000
     0.000000   -1.785500    1.785500
   Ni   Fe
   8   8
Direct configuration=     1
   0.00044804  0.75266698  0.50000014
   0.24958295  0.74732970  0.99999991
   0.99960398  0.25041026  0.49999977
   0.25218335  0.49820866  0.50000006
   0.99780801  0.00178124  0.99999986
   0.25039341  0.24958397  0.00000019
   0.75236799  0.50014334  0.49999988
   0.49761343  0.99987134  0.00000013
   0.00390419  0.50536886  0.99999994
   0.49468807  0.75204482  0.50000007
   0.49905795  0.49703155  0.00000013
   0.75534468  0.74795498  0.99999994
   0.24608462  0.99461805  0.50000008
   0.49904207  0.24767836  0.50000005
   0.75094710  0.25233842  0.99999995
   0.75093016  0.00296946  0.49999990
