       N       E                     dE             d eps       ncg     rms          rms(c)
DAV:   1    -0.454633216253E+03   -0.45463E+03   -0.85231E-02  8403   0.260E+00    0.735E-01
RMM:   2    -0.454745941496E+03   -0.11273E+00   -0.11260E-01  8082   0.111E+00    0.305E+00
RMM:   3    -0.454709264004E+03    0.36677E-01   -0.34329E-02  8115   0.534E-01    0.136E+00
RMM:   4    -0.454722814712E+03   -0.13551E-01   -0.11938E-02  8360   0.273E-01    0.171E+00
RMM:   5    -0.454716508666E+03    0.63060E-02   -0.52341E-03  8471   0.183E-01    0.117E+00
RMM:   6    -0.454709086492E+03    0.74222E-02   -0.27111E-03  8138   0.142E-01    0.375E-01
RMM:   7    -0.454709567659E+03   -0.48117E-03   -0.14840E-03  8294   0.965E-02    0.491E-01
RMM:   8    -0.454708600130E+03    0.96753E-03   -0.89190E-04  8308   0.793E-02    0.303E-01
RMM:   9    -0.454708448485E+03    0.15165E-03   -0.72961E-04  8355   0.686E-02    0.303E-01
RMM:  10    -0.454707643694E+03    0.80479E-03   -0.52367E-04  8315   0.569E-02    0.258E-01
RMM:  11    -0.454707429901E+03    0.21379E-03   -0.38314E-04  8327   0.507E-02    0.220E-01
RMM:  12    -0.454707355036E+03    0.74864E-04   -0.25468E-04  8317   0.387E-02    0.196E-01
RMM:  13    -0.454707305171E+03    0.49866E-04   -0.15880E-04  8249   0.324E-02    0.144E-01
RMM:  14    -0.454707660310E+03   -0.35514E-03   -0.14064E-04  8166   0.266E-02    0.166E-01
RMM:  15    -0.454707799916E+03   -0.13961E-03   -0.10013E-04  8283   0.235E-02    0.120E-01
RMM:  16    -0.454708139917E+03   -0.34000E-03   -0.13556E-04  8189   0.228E-02    0.142E-01
RMM:  17    -0.454708148183E+03   -0.82667E-05   -0.18183E-04  8300   0.249E-02    0.947E-02
RMM:  18    -0.454708097849E+03    0.50334E-04   -0.95380E-05  8493   0.198E-02    0.100E-01
RMM:  19    -0.454707853844E+03    0.24401E-03   -0.14163E-04  8224   0.202E-02    0.627E-02
RMM:  20    -0.454707771118E+03    0.82726E-04   -0.40808E-05  8558   0.130E-02    0.513E-02
RMM:  21    -0.454705767166E+03    0.20040E-02   -0.41073E-05  8338   0.117E-02    0.526E-02
RMM:  22    -0.454705772210E+03   -0.50447E-05   -0.10339E-05  8539   0.707E-03    0.396E-02
RMM:  23    -0.454705828849E+03   -0.56639E-04   -0.19231E-06  5356   0.328E-03    0.385E-02
RMM:  24    -0.454705854925E+03   -0.26076E-04   -0.50779E-06  7451   0.564E-03    0.405E-02
RMM:  25    -0.454706051781E+03   -0.19686E-03   -0.19470E-05  8218   0.922E-03    0.345E-02
RMM:  26    -0.454706190720E+03   -0.13894E-03   -0.11615E-05  8186   0.797E-03    0.309E-02
RMM:  27    -0.454706807468E+03   -0.61675E-03   -0.16541E-05  8135   0.731E-03    0.284E-02
RMM:  28    -0.454707012736E+03   -0.20527E-03   -0.84619E-06  8086   0.625E-03    0.190E-02
RMM:  29    -0.454707250819E+03   -0.23808E-03   -0.13119E-05  8142   0.646E-03    0.213E-02
RMM:  30    -0.454707320453E+03   -0.69634E-04   -0.42439E-06  6511   0.430E-03    0.125E-02
RMM:  31    -0.454707452892E+03   -0.13244E-03   -0.80867E-06  7481   0.428E-03    0.150E-02
RMM:  32    -0.454707518709E+03   -0.65817E-04   -0.32993E-06  5928   0.326E-03    0.720E-03
RMM:  33    -0.454707604291E+03   -0.85583E-04   -0.39081E-06  6057   0.267E-03    0.882E-03
RMM:  34    -0.454707656554E+03   -0.52263E-04   -0.22446E-06  5695   0.265E-03    0.378E-03
RMM:  35    -0.454707698609E+03   -0.42054E-04   -0.17905E-06  5426   0.182E-03    0.445E-03
RMM:  36    -0.454707719667E+03   -0.21059E-04   -0.80618E-07  5166   0.175E-03    0.202E-03
RMM:  37    -0.454707735209E+03   -0.15542E-04   -0.62645E-07  4927   0.115E-03    0.221E-03
RMM:  38    -0.454707742793E+03   -0.75837E-05   -0.25197E-07  4675   0.105E-03    0.113E-03
RMM:  39    -0.454707751259E+03   -0.84659E-05   -0.22315E-07  4330   0.661E-04    0.106E-03
RMM:  40    -0.454707754231E+03   -0.29725E-05   -0.78077E-08  3893   0.591E-04    0.739E-04
RMM:  41    -0.454707759634E+03   -0.54029E-05   -0.11398E-07  3251   0.447E-04    0.594E-04
RMM:  42    -0.454707761584E+03   -0.19497E-05   -0.47285E-08  2945   0.419E-04    0.611E-04
RMM:  43    -0.454707764642E+03   -0.30583E-05   -0.87459E-08  3151   0.409E-04    0.485E-04
RMM:  44    -0.454707765797E+03   -0.11547E-05   -0.33893E-08  2427   0.370E-04    0.442E-04
RMM:  45    -0.454707766818E+03   -0.10219E-05   -0.10013E-07  3137   0.394E-04    0.326E-04
RMM:  46    -0.454707767145E+03   -0.32642E-06   -0.26701E-08  2451   0.369E-04
   1 F= -.47044755E+03 E0= -.47044755E+03  d E =0.000000E+00  mag=    84.1875
