       N       E                     dE             d eps       ncg     rms          rms(c)
DAV:   1     0.478221301656E+04    0.47822E+04   -0.24330E+05  8220   0.149E+03
DAV:   2     0.257534338165E+02   -0.47565E+04   -0.44528E+04  8220   0.348E+02
DAV:   3    -0.452253584210E+03   -0.47801E+03   -0.41090E+03  8532   0.159E+02
DAV:   4    -0.474650291295E+03   -0.22397E+02   -0.21722E+02  8808   0.368E+01
DAV:   5    -0.475103474722E+03   -0.45318E+00   -0.45202E+00  9375   0.478E+00    0.806E+01
RMM:   6    -0.597765070266E+03   -0.12266E+03   -0.80140E+02  8937   0.803E+01    0.177E+02
RMM:   7    -0.524481630692E+03    0.73283E+02   -0.25723E+02  8719   0.425E+01    0.147E+02
RMM:   8    -0.683432662115E+03   -0.15895E+03   -0.97694E+01  8838   0.249E+01    0.212E+02
RMM:   9    -0.408196951471E+03    0.27524E+03   -0.43643E+01  8618   0.166E+01    0.765E+01
RMM:  10    -0.464265028181E+03   -0.56068E+02   -0.95021E+01  8511   0.230E+01    0.122E+02
RMM:  11    -0.427342987568E+03    0.36922E+02   -0.71980E+01  8579   0.226E+01    0.870E+01
RMM:  12    -0.396826962686E+03    0.30516E+02   -0.34484E+01  8531   0.158E+01    0.493E+01
RMM:  13    -0.389550844319E+03    0.72761E+01   -0.13154E+01  8554   0.918E+00    0.369E+01
RMM:  14    -0.396083382767E+03   -0.65325E+01   -0.12766E+01  8593   0.883E+00    0.446E+01
RMM:  15    -0.393515720246E+03    0.25677E+01   -0.69440E+00  8482   0.684E+00    0.236E+01
RMM:  16    -0.397284046794E+03   -0.37683E+01   -0.37912E+00  8641   0.453E+00    0.311E+01
RMM:  17    -0.398079389731E+03   -0.79534E+00   -0.39543E+00  8429   0.465E+00    0.224E+01
RMM:  18    -0.399323453043E+03   -0.12441E+01   -0.27123E+00  8465   0.385E+00    0.182E+01
RMM:  19    -0.404624897925E+03   -0.53014E+01   -0.35725E+00  8392   0.369E+00    0.191E+01
RMM:  20    -0.406127304641E+03   -0.15024E+01   -0.22674E+00  8485   0.339E+00    0.152E+01
RMM:  21    -0.408481166438E+03   -0.23539E+01   -0.24011E+00  8432   0.267E+00    0.144E+01
RMM:  22    -0.409502931790E+03   -0.10218E+01   -0.17105E+00  8435   0.265E+00    0.103E+01
RMM:  23    -0.411043603302E+03   -0.15407E+01   -0.12979E+00  8419   0.240E+00    0.113E+01
RMM:  24    -0.411517162973E+03   -0.47356E+00   -0.86792E-01  8492   0.206E+00    0.784E+00
RMM:  25    -0.412224675719E+03   -0.70751E+00   -0.61549E-01  8472   0.164E+00    0.725E+00
RMM:  26    -0.412516016200E+03   -0.29134E+00   -0.29399E-01  8456   0.114E+00    0.385E+00
RMM:  27    -0.413312589782E+03   -0.79657E+00   -0.27137E-01  8449   0.831E-01    0.550E+00
RMM:  28    -0.413563909640E+03   -0.25132E+00   -0.11106E-01  8517   0.611E-01    0.412E+00
RMM:  29    -0.413912458310E+03   -0.34855E+00   -0.17413E-01  8506   0.635E-01    0.294E+00
RMM:  30    -0.414014430131E+03   -0.10197E+00   -0.55451E-02  8625   0.455E-01    0.207E+00
RMM:  31    -0.414160778452E+03   -0.14635E+00   -0.34963E-02  8540   0.301E-01    0.182E+00
RMM:  32    -0.414213949976E+03   -0.53172E-01   -0.15693E-02  8636   0.252E-01    0.161E+00
RMM:  33    -0.414321113031E+03   -0.10716E+00   -0.31486E-02  8468   0.261E-01    0.131E+00
RMM:  34    -0.414360118989E+03   -0.39006E-01   -0.13056E-02  8568   0.209E-01    0.890E-01
RMM:  35    -0.414412718516E+03   -0.52600E-01   -0.23312E-02  8494   0.198E-01    0.787E-01
RMM:  36    -0.414425200720E+03   -0.12482E-01   -0.58773E-03  8633   0.137E-01    0.563E-01
RMM:  37    -0.414469380954E+03   -0.44180E-01   -0.10175E-02  8504   0.125E-01    0.524E-01
RMM:  38    -0.414484768449E+03   -0.15387E-01   -0.31098E-03  8624   0.986E-02    0.395E-01
RMM:  39    -0.414531362120E+03   -0.46594E-01   -0.86631E-03  8475   0.112E-01    0.538E-01
RMM:  40    -0.414549493053E+03   -0.18131E-01   -0.18868E-03  8623   0.734E-02    0.587E-01
RMM:  41    -0.414587780251E+03   -0.38287E-01   -0.25221E-03  8588   0.673E-02    0.769E-01
RMM:  42    -0.414612325708E+03   -0.24545E-01   -0.10922E-03  8661   0.629E-02    0.117E+00
RMM:  43    -0.414645441116E+03   -0.33115E-01   -0.77204E-04  8500   0.444E-02    0.107E+00
RMM:  44    -0.414666683530E+03   -0.21242E-01   -0.57216E-04  8563   0.440E-02    0.923E-01
RMM:  45    -0.414700918298E+03   -0.34235E-01   -0.96175E-04  8490   0.435E-02    0.387E-01
RMM:  46    -0.414726983870E+03   -0.26066E-01   -0.54652E-04  8608   0.391E-02    0.200E-01
RMM:  47    -0.414779455448E+03   -0.52472E-01   -0.11358E-03  8510   0.411E-02    0.474E-01
RMM:  48    -0.414800722546E+03   -0.21267E-01   -0.43351E-04  8629   0.339E-02    0.602E-01
RMM:  49    -0.414823621594E+03   -0.22899E-01   -0.59609E-04  8548   0.314E-02    0.695E-01
RMM:  50    -0.414829464562E+03   -0.58430E-02   -0.16817E-04  8662   0.207E-02    0.647E-01
RMM:  51    -0.414834160324E+03   -0.46958E-02   -0.14419E-04  8596   0.184E-02    0.553E-01
RMM:  52    -0.414835668118E+03   -0.15078E-02   -0.54014E-05  8716   0.144E-02    0.469E-01
RMM:  53    -0.414836316127E+03   -0.64801E-03   -0.31434E-05  8644   0.112E-02    0.370E-01
RMM:  54    -0.414838465188E+03   -0.21491E-02   -0.45375E-05  8564   0.111E-02    0.313E-01
RMM:  55    -0.414840627993E+03   -0.21628E-02   -0.48570E-05  8553   0.114E-02    0.266E-01
RMM:  56    -0.414842934453E+03   -0.23065E-02   -0.99787E-05  8510   0.131E-02    0.130E-01
RMM:  57    -0.414844431548E+03   -0.14971E-02   -0.37733E-05  8571   0.101E-02    0.112E-01
RMM:  58    -0.414846331453E+03   -0.18999E-02   -0.46336E-05  8510   0.822E-03    0.112E-01
RMM:  59    -0.414846941504E+03   -0.61005E-03   -0.17168E-05  8410   0.653E-03    0.867E-02
RMM:  60    -0.414847826560E+03   -0.88506E-03   -0.40163E-05  8508   0.622E-03    0.154E-02
RMM:  61    -0.414848099372E+03   -0.27281E-03   -0.18105E-05  8107   0.587E-03    0.310E-02
RMM:  62    -0.414848082388E+03    0.16984E-04   -0.53095E-06  7009   0.425E-03    0.295E-02
RMM:  63    -0.414848096837E+03   -0.14450E-04   -0.34258E-06  6184   0.315E-03    0.117E-02
RMM:  64    -0.414848087626E+03    0.92114E-05   -0.49026E-06  6329   0.315E-03    0.156E-02
RMM:  65    -0.414848081343E+03    0.62834E-05   -0.22442E-06  5938   0.250E-03    0.229E-02
RMM:  66    -0.414848126837E+03   -0.45495E-04   -0.91179E-07  5281   0.191E-03    0.277E-02
RMM:  67    -0.414848170856E+03   -0.44019E-04   -0.15138E-06  5770   0.200E-03    0.363E-02
RMM:  68    -0.414848213979E+03   -0.43122E-04   -0.20601E-06  5866   0.166E-03    0.389E-02
RMM:  69    -0.414848243840E+03   -0.29861E-04   -0.10335E-06  5746   0.141E-03    0.279E-02
RMM:  70    -0.414848275924E+03   -0.32085E-04   -0.72059E-07  5583   0.119E-03    0.167E-02
RMM:  71    -0.414848337863E+03   -0.61939E-04   -0.10285E-06  5642   0.141E-03    0.127E-02
RMM:  72    -0.414848349480E+03   -0.11617E-04   -0.57034E-07  5508   0.136E-03    0.125E-02
RMM:  73    -0.414848373114E+03   -0.23634E-04   -0.59112E-07  5453   0.890E-04    0.208E-02
RMM:  74    -0.414848379302E+03   -0.61882E-05   -0.14998E-07  5011   0.802E-04    0.188E-02
RMM:  75    -0.414848402812E+03   -0.23509E-04   -0.82384E-07  5236   0.107E-03    0.688E-03
RMM:  76    -0.414848417610E+03   -0.14799E-04   -0.23697E-07  5032   0.105E-03    0.664E-03
RMM:  77    -0.414848423038E+03   -0.54283E-05   -0.17343E-07  5019   0.776E-04    0.122E-02
RMM:  78    -0.414848423586E+03   -0.54757E-06   -0.41632E-08  4625   0.537E-04
   1 F= -.41484842E+03 E0= -.41484842E+03  d E =0.000000E+00  mag=   105.9540
