       N       E                     dE             d eps       ncg     rms          rms(c)
DAV:   1     0.433226284757E+04    0.43323E+04   -0.22993E+05 32640   0.140E+03
DAV:   2    -0.639515290201E+02   -0.43962E+04   -0.40898E+04 32640   0.328E+02
DAV:   3    -0.438020336145E+03   -0.37407E+03   -0.31846E+03 34098   0.135E+02
DAV:   4    -0.453046794674E+03   -0.15026E+02   -0.14657E+02 34770   0.293E+01
DAV:   5    -0.453307139237E+03   -0.26034E+00   -0.26017E+00 36768   0.330E+00
RMM:   6    -0.453315554384E+03   -0.84151E-02   -0.84163E-02 33845   0.539E-01
RMM:   7    -0.453317877322E+03   -0.23229E-02   -0.23187E-02 49806   0.196E-01
RMM:   8    -0.453317928854E+03   -0.51533E-04   -0.49968E-04 48885   0.252E-02
RMM:   9    -0.453317952390E+03   -0.23536E-04   -0.23428E-04 29814   0.747E-03
RMM:  10    -0.453317954181E+03   -0.17911E-05   -0.12344E-05 21504   0.349E-03
RMM:  11    -0.453317954898E+03   -0.71697E-06   -0.69223E-06 20783   0.213E-03
   1 F= -.45331795E+03 E0= -.45331795E+03  d E =0.000000E+00  mag=   134.8113
