 vasp.5.4.4.18Apr17-6-g9f103f2a35 (build Sep 06 2021 19:49:22) complex          
  
 executed on             LinuxIFC date 2022.01.05  17:41:12
 running on   72 total cores
 distrk:  each k-point on   72 cores,    1 groups
 distr:  one band on NCORES_PER_BAND=  24 cores,    3 groups


--------------------------------------------------------------------------------------------------------


 INCAR:
 POTCAR:    PAW_PBE Fe 06Sep2000                  
 POTCAR:    PAW_PBE Ni 02Aug2007                  

 ----------------------------------------------------------------------------- 
|                                                                             |
|           W    W    AA    RRRRR   N    N  II  N    N   GGGG   !!!           |
|           W    W   A  A   R    R  NN   N  II  NN   N  G    G  !!!           |
|           W    W  A    A  R    R  N N  N  II  N N  N  G       !!!           |
|           W WW W  AAAAAA  RRRRR   N  N N  II  N  N N  G  GGG   !            |
|           WW  WW  A    A  R   R   N   NN  II  N   NN  G    G                |
|           W    W  A    A  R    R  N    N  II  N    N   GGGG   !!!           |
|                                                                             |
|      For optimal performance we recommend to set                            |
|        NCORE= 4 - approx SQRT( number of cores)                             |
|      NCORE specifies how many cores store one orbital (NPAR=cpu/NCORE).     |
|      This setting can  greatly improve the performance of VASP for DFT.     |
|      The default,   NCORE=1            might be grossly inefficient         |
|      on modern multi-core architectures or massively parallel machines.     |
|      Do your own testing !!!!                                               |
|      Unfortunately you need to use the default for GW and RPA calculations. |
|      (for HF NCORE is supported but not extensively tested yet)             |
|                                                                             |
 ----------------------------------------------------------------------------- 

 POTCAR:    PAW_PBE Fe 06Sep2000                  
   VRHFIN =Fe:  d7 s1                                                           
   LEXCH  = PE                                                                  
   EATOM  =   594.3153 eV,   43.6809 Ry                                         
                                                                                
   TITEL  = PAW_PBE Fe 06Sep2000                                                
   LULTRA =        F    use ultrasoft PP ?                                      
   IUNSCR =        1    unscreen: 0-lin 1-nonlin 2-no                           
   RPACOR =    2.000    partial core radius                                     
   POMASS =   55.847; ZVAL   =    8.000    mass and valenz                      
   RCORE  =    2.300    outmost cutoff radius                                   
   RWIGS  =    2.460; RWIGS  =    1.302    wigner-seitz radius (au A)           
   ENMAX  =  267.882; ENMIN  =  200.911 eV                                      
   RCLOC  =    1.701    cutoff for local pot                                    
   LCOR   =        T    correct aug charges                                     
   LPAW   =        T    paw PP                                                  
   EAUG   =  511.368                                                            
   DEXC   =    0.000                                                            
   RMAX   =    2.356    core radius for proj-oper                               
   RAUG   =    1.300    factor for augmentation sphere                          
   RDEP   =    2.442    radius for radial grids                                 
   RDEPT  =    1.890    core radius for aug-charge                              
                                                                                
   Atomic configuration                                                         
    9 entries                                                                   
     n  l   j            E        occ.                                          
     1  0  0.50     -6993.8440   2.0000                                         
     2  0  0.50      -814.6047   2.0000                                         
     2  1  1.50      -693.3689   6.0000                                         
     3  0  0.50       -89.4732   2.0000                                         
     3  1  1.50       -55.6373   6.0000                                         
     3  2  2.50        -3.8151   7.0000                                         
     4  0  0.50        -4.2551   1.0000                                         
     4  1  1.50        -3.4015   0.0000                                         
     4  3  2.50        -1.3606   0.0000                                         
   Description                                                                  
     l       E           TYP  RCUT    TYP  RCUT                                 
     2     -3.8151135     23  2.300                                             
     2     -5.1756961     23  2.300                                             
     0     -4.2550963     23  2.300                                             
     0      7.2035603     23  2.300                                             
     1     -2.7211652     23  2.300                                             
     1     18.4316424     23  2.300                                             
  local pseudopotential read in
  partial core-charges read in
  partial kinetic energy density read in
  atomic valenz-charges read in
  non local Contribution for L=           2  read in
    real space projection operators read in
  non local Contribution for L=           2  read in
    real space projection operators read in
  non local Contribution for L=           0  read in
    real space projection operators read in
  non local Contribution for L=           0  read in
    real space projection operators read in
  non local Contribution for L=           1  read in
    real space projection operators read in
  non local Contribution for L=           1  read in
    real space projection operators read in
    PAW grid and wavefunctions read in
 
   number of l-projection  operators is LMAX  =           6
   number of lm-projection operators is LMMAX =          18
 
 POTCAR:    PAW_PBE Ni 02Aug2007                  
   VRHFIN =Ni:                                                                  
   LEXCH  = PE                                                                  
   EATOM  =  1077.6739 eV,   79.2068 Ry                                         
                                                                                
   TITEL  = PAW_PBE Ni 02Aug2007                                                
   LULTRA =        F    use ultrasoft PP ?                                      
   IUNSCR =        1    unscreen: 0-lin 1-nonlin 2-no                           
   RPACOR =    2.000    partial core radius                                     
   POMASS =   58.690; ZVAL   =   10.000    mass and valenz                      
   RCORE  =    2.300    outmost cutoff radius                                   
   RWIGS  =    2.430; RWIGS  =    1.286    wigner-seitz radius (au A)           
   ENMAX  =  269.532; ENMIN  =  202.149 eV                                      
   RCLOC  =    1.201    cutoff for local pot                                    
   LCOR   =        T    correct aug charges                                     
   LPAW   =        T    paw PP                                                  
   EAUG   =  544.565                                                            
   DEXC   =    0.000                                                            
   RMAX   =    2.357    core radius for proj-oper                               
   RAUG   =    1.300    factor for augmentation sphere                          
   RDEP   =    2.390    radius for radial grids                                 
   RDEPT  =    1.838    core radius for aug-charge                              
                                                                                
   Atomic configuration                                                         
    9 entries                                                                   
     n  l   j            E        occ.                                          
     1  0  0.50     -8206.4253   2.0000                                         
     2  0  0.50      -976.1748   2.0000                                         
     2  1  1.50      -839.0571   6.0000                                         
     3  0  0.50      -105.9991   2.0000                                         
     3  1  1.50       -66.4603   6.0000                                         
     3  2  2.50        -4.6458   9.0000                                         
     4  0  0.50        -4.4926   1.0000                                         
     4  1  1.50        -4.0817   0.0000                                         
     4  3  2.50        -1.3606   0.0000                                         
   Description                                                                  
     l       E           TYP  RCUT    TYP  RCUT                                 
     2     -4.6457903     23  2.300                                             
     2     -6.0063729     23  2.300                                             
     0     -4.4925590     23  2.300                                             
     0      5.0102601     23  2.300                                             
     1     -2.7211652     23  2.300                                             
     1     16.5183231     23  2.300                                             
  local pseudopotential read in
  partial core-charges read in
  partial kinetic energy density read in
  atomic valenz-charges read in
  non local Contribution for L=           2  read in
    real space projection operators read in
  non local Contribution for L=           2  read in
    real space projection operators read in
  non local Contribution for L=           0  read in
    real space projection operators read in
  non local Contribution for L=           0  read in
    real space projection operators read in
  non local Contribution for L=           1  read in
    real space projection operators read in
  non local Contribution for L=           1  read in
    real space projection operators read in
    PAW grid and wavefunctions read in
 
   number of l-projection  operators is LMAX  =           6
   number of lm-projection operators is LMMAX =          18
 
 Optimization of the real space projectors (new method)

 maximal supplied QI-value         = 16.25
 optimisation between [QCUT,QGAM] = [ 11.54, 23.24] = [ 37.28,151.24] Ry 
 Optimized for a Real-space Cutoff    1.53 Angstroem

   l    n(q)    QCUT    max X(q) W(low)/X(q) W(high)/X(q)  e(spline) 
   2     10    11.539    80.901    0.11E-03    0.14E-03    0.21E-06
   2     10    11.539    75.754    0.11E-03    0.14E-03    0.22E-06
   0     11    11.539    58.752    0.52E-04    0.18E-04    0.33E-06
   0     11    11.539    30.679    0.44E-04    0.16E-04    0.30E-06
   1     10    11.539    17.977    0.53E-04    0.29E-04    0.13E-06
   1     10    11.539    13.559    0.44E-04    0.25E-04    0.11E-06
 Optimization of the real space projectors (new method)

 maximal supplied QI-value         = 16.25
 optimisation between [QCUT,QGAM] = [ 11.54, 23.24] = [ 37.28,151.24] Ry 
 Optimized for a Real-space Cutoff    1.45 Angstroem

   l    n(q)    QCUT    max X(q) W(low)/X(q) W(high)/X(q)  e(spline) 
   2      9    11.539    60.317    0.19E-03    0.47E-04    0.16E-06
   2      9    11.539    55.921    0.19E-03    0.48E-04    0.16E-06
   0     10    11.539    51.690    0.80E-04    0.50E-04    0.24E-06
   0     10    11.539    30.015    0.73E-04    0.45E-04    0.22E-06
   1     10    11.539    18.849    0.87E-04    0.16E-03    0.71E-07
   1     10    11.539    14.624    0.73E-04    0.13E-03    0.64E-07
  PAW_PBE Fe 06Sep2000                  :
 energy of atom  1       EATOM= -594.3153
 kinetic energy error for atom=    0.0026 (will be added to EATOM!!)
  PAW_PBE Ni 02Aug2007                  :
 energy of atom  2       EATOM=-1077.6739
 kinetic energy error for atom=    0.0030 (will be added to EATOM!!)
 
 
 POSCAR: POSCAR                                  
  positions in direct lattice
  velocities in cartesian coordinates
 exchange correlation table for  LEXCH =        8
   RHO(1)=    0.500       N(1)  =     2000
   RHO(2)=  100.500       N(2)  =     4000
 


--------------------------------------------------------------------------------------------------------


 ion  position               nearest neighbor table
   1  0.002  0.999  0.195-  26 2.50  48 2.51  40 2.52   4 2.53  64 2.54  49 2.54  33 2.55  52 2.56
                            46 2.56   5 2.56   7 2.58   3 2.60
   2  0.499  0.996  0.194-   3 2.47  41 2.50  62 2.51  29 2.52  27 2.52  48 2.53   9 2.55  13 2.55
                            51 2.55  61 2.57  50 2.58  10 2.59
   3  0.743  0.996  0.193-  44 2.46   2 2.47  29 2.47  13 2.49  33 2.53  52 2.53  51 2.54  61 2.55
                            12 2.55  64 2.57  49 2.59   1 2.60
   4  0.249  0.253  0.195-  49 2.49  55 2.51  16 2.52  17 2.53   1 2.53  50 2.54   6 2.54   5 2.55
                            48 2.58  18 2.60  21 2.60   7 2.62
   5  0.083  0.168  0.293-  56 2.45  12 2.48  53 2.49  64 2.51  54 2.52  40 2.54  18 2.54  49 2.54
                             4 2.55   6 2.56   1 2.56   8 2.57
   6  0.335  0.167  0.291-  20 2.51  40 2.52  50 2.52  11 2.53   4 2.54  48 2.54  41 2.55   5 2.56
                            18 2.56   9 2.58   8 2.63  22 2.65
   7  0.168  0.081  0.095-  42 2.50  21 2.52  10 2.54  46 2.54  55 2.55  52 2.55  48 2.55   1 2.58
                             4 2.62
   8  0.165  0.082  0.393-  56 2.51  11 2.51  47 2.51  22 2.53  43 2.54  53 2.55   5 2.57  40 2.58
                             6 2.63
   9  0.592  0.170  0.290-  51 2.47  12 2.50  61 2.50  23 2.51  20 2.54  14 2.54   2 2.55  41 2.55
                            50 2.56   6 2.58  25 2.58  11 2.62
  10  0.422  0.087  0.095-  21 2.43  24 2.47  13 2.50  62 2.52   7 2.54  50 2.55   2 2.59  48 2.60
                            42 2.61
  11  0.415  0.086  0.390-  25 2.49   8 2.51  22 2.52   6 2.53  14 2.54  63 2.55  41 2.56  43 2.58
                             9 2.62
  12  0.837  0.166  0.290-  64 2.47   5 2.48  49 2.49  53 2.50  61 2.50   9 2.50  58 2.51  54 2.52
                            51 2.54   3 2.55  23 2.56  14 2.60
  13  0.667  0.083  0.097-   3 2.49  10 2.50  52 2.52  57 2.54  62 2.54  51 2.54   2 2.55  44 2.56
                            24 2.58
  14  0.668  0.089  0.390-  25 2.48  58 2.50  53 2.51  45 2.52  61 2.53   9 2.54  11 2.54  63 2.57
                            12 2.60
  15  0.003  0.511  0.193-  27 2.44  26 2.45  31 2.45  38 2.46  19 2.48  28 2.55  57 2.56  23 2.57
                            54 2.57  16 2.58  51 2.60  49 2.63
  16  0.256  0.506  0.196-  27 2.45  29 2.47  17 2.48  54 2.51   4 2.52  59 2.54  30 2.57  31 2.57
                            18 2.57  49 2.58  15 2.58  55 2.58
  17  0.500  0.503  0.196-  29 2.48  16 2.48  33 2.50   4 2.53  59 2.53  50 2.54  20 2.57  34 2.57
                            19 2.58  18 2.58  36 2.61  21 2.64
  18  0.333  0.419  0.296-  56 2.45  60 2.48  30 2.50  54 2.51   5 2.54  20 2.54  22 2.55   6 2.56
                            34 2.57  16 2.57  17 2.58   4 2.60
  19  0.757  0.508  0.195-  26 2.40  15 2.48  33 2.48  38 2.50  36 2.53  23 2.56  35 2.56  51 2.57
                            17 2.58  50 2.60  20 2.61  24 2.63
  20  0.583  0.416  0.294-   6 2.51  25 2.52   9 2.54  34 2.54  18 2.54  35 2.56  23 2.56  17 2.57
                            50 2.58  22 2.61  19 2.61  37 2.62
  21  0.420  0.327  0.095-  24 2.41  10 2.43  50 2.49   7 2.52  55 2.56  36 2.58   4 2.60  59 2.61
                            17 2.64
  22  0.413  0.334  0.395-  60 2.50  56 2.50  11 2.52   8 2.53  25 2.54  18 2.55  37 2.56  20 2.61
                             6 2.65
  23  0.838  0.420  0.292-  58 2.45  54 2.50  28 2.51   9 2.51  35 2.55  19 2.56  12 2.56  20 2.56
                            51 2.57  15 2.57  39 2.60  25 2.61
  24  0.662  0.335  0.094-  21 2.41  10 2.47  36 2.48  57 2.56  50 2.56  38 2.57  13 2.58  51 2.61
                            19 2.63
  25  0.663  0.332  0.391-  14 2.48  11 2.49  20 2.52  37 2.54  22 2.54  58 2.55  39 2.57   9 2.58
                            23 2.61
  26  0.992  0.747  0.194-  19 2.40  46 2.45  15 2.45  33 2.48  38 2.48   1 2.50  35 2.55  48 2.57
                            40 2.58  42 2.59  27 2.63  28 2.63
  27  0.251  0.746  0.195-  15 2.44  16 2.45  31 2.48  29 2.52   2 2.52  62 2.53  28 2.55  41 2.55
                            48 2.56  30 2.57  26 2.63  42 2.63
  28  0.087  0.667  0.294-  23 2.51  54 2.51  32 2.52  43 2.52  41 2.54  27 2.55  40 2.55  30 2.55
                            15 2.55  35 2.57  39 2.59  26 2.63
  29  0.502  0.749  0.196-  16 2.47   3 2.47  17 2.48  33 2.49  27 2.52   2 2.52  44 2.52  30 2.54
                            59 2.55  34 2.57  61 2.58  62 2.58
  30  0.342  0.671  0.295-  63 2.44  60 2.49  41 2.50  18 2.50  61 2.51  34 2.51  32 2.52  29 2.54
                            28 2.55  16 2.57  27 2.57  54 2.59
  31  0.164  0.589  0.099-  15 2.45  42 2.46  38 2.47  27 2.48  62 2.51  57 2.53  16 2.57  59 2.60
                            55 2.61
  32  0.167  0.576  0.389-  56 2.48  60 2.48  58 2.49  28 2.52  30 2.52  54 2.53  63 2.55  39 2.56
                            43 2.59
  33  0.748  0.749  0.192-  44 2.43  26 2.48  19 2.48  29 2.49  17 2.50  36 2.50  46 2.50   3 2.53
                             1 2.55  34 2.59  64 2.60  35 2.62
  34  0.590  0.671  0.295-  35 2.47  45 2.48  64 2.49  30 2.51  20 2.54  61 2.54  60 2.55  18 2.57
                            29 2.57  37 2.57  17 2.57  33 2.59
  35  0.835  0.670  0.295-  34 2.47  47 2.50  40 2.53  64 2.53  23 2.55  26 2.55  20 2.56  19 2.56
                            28 2.57  39 2.59  37 2.60  33 2.62
  36  0.672  0.585  0.096-  46 2.47  24 2.48  38 2.49  33 2.50  44 2.50  19 2.53  59 2.55  21 2.58
                            17 2.61
  37  0.667  0.585  0.395-  47 2.52  60 2.53  25 2.54  39 2.54  22 2.56  34 2.57  45 2.58  35 2.60
                            20 2.62
  38  0.919  0.587  0.098-  46 2.43  15 2.46  42 2.47  31 2.47  26 2.48  36 2.49  19 2.50  57 2.52
                            24 2.57
  39  0.918  0.584  0.394-  43 2.47  58 2.52  37 2.54  32 2.56  25 2.57  47 2.58  35 2.59  28 2.59
                            23 2.60
  40  0.086  0.919  0.292-   6 2.52   1 2.52  35 2.53  48 2.53   5 2.54  28 2.55  43 2.56  64 2.57
                            47 2.57  41 2.57   8 2.58  26 2.58
  41  0.340  0.917  0.292-  63 2.47  61 2.49  30 2.50   2 2.50  28 2.54   9 2.55  27 2.55   6 2.55
                            11 2.56  40 2.57  48 2.58  43 2.64
  42  0.163  0.832  0.095-  46 2.45  31 2.46  38 2.47   7 2.50  62 2.53  48 2.57  26 2.59  10 2.61
                            27 2.63
  43  0.162  0.830  0.392-  39 2.47  28 2.52   8 2.54  63 2.54  47 2.54  40 2.56  11 2.58  32 2.59
                            41 2.64
  44  0.669  0.831  0.100-  33 2.43   3 2.46  52 2.50  36 2.50  59 2.51  29 2.52  46 2.54  13 2.56
                            62 2.59
  45  0.662  0.837  0.389-  61 2.45  34 2.48  63 2.48  14 2.52  60 2.53  53 2.53  47 2.55  64 2.56
                            37 2.58
  46  0.919  0.827  0.098-  38 2.43  26 2.45  42 2.45  36 2.47  33 2.50   7 2.54  44 2.54   1 2.56
                            52 2.57
  47  0.914  0.836  0.390-  35 2.50   8 2.51  53 2.52  37 2.52  64 2.54  43 2.54  45 2.55  40 2.57
                            39 2.58
  48  0.249  0.998  0.194-   1 2.51   2 2.53  40 2.53   6 2.54  50 2.55   7 2.55  27 2.56  42 2.57
                            26 2.57  41 2.58   4 2.58  10 2.60
  49  0.001  0.250  0.195-  12 2.49   4 2.49  54 2.50   1 2.54   5 2.54  51 2.55  55 2.56  52 2.57
                            16 2.58  57 2.58   3 2.59  15 2.63
  50  0.499  0.252  0.194-  21 2.49   6 2.52  51 2.53   4 2.54  17 2.54  48 2.55  10 2.55   9 2.56
                            24 2.56   2 2.58  20 2.58  19 2.60
  51  0.749  0.251  0.194-   9 2.47  50 2.53  57 2.54  13 2.54  12 2.54   3 2.54  49 2.55   2 2.55
                            19 2.57  23 2.57  15 2.60  24 2.61
  52  0.914  0.079  0.097-  44 2.50  13 2.52   3 2.53   7 2.55   1 2.56  49 2.57  46 2.57  55 2.59
                            57 2.59
  53  0.914  0.086  0.387-   5 2.49  12 2.50  56 2.50  64 2.50  58 2.50  14 2.51  47 2.52  45 2.53
                             8 2.55
  54  0.084  0.417  0.290-  23 2.50  49 2.50  58 2.51  28 2.51  18 2.51  16 2.51   5 2.52  12 2.52
                            32 2.53  56 2.54  15 2.57  30 2.59
  55  0.171  0.334  0.097-   4 2.51  59 2.52   7 2.55  49 2.56  21 2.56  16 2.58  52 2.59  57 2.59
                            31 2.61
  56  0.164  0.329  0.387-  18 2.45   5 2.45  32 2.48  53 2.50  22 2.50   8 2.51  58 2.52  54 2.54
                            60 2.56
  57  0.916  0.336  0.096-  38 2.52  31 2.53  13 2.54  51 2.54  24 2.56  15 2.56  49 2.58  55 2.59
                            52 2.59
  58  0.917  0.334  0.385-  23 2.45  32 2.49  14 2.50  53 2.50  54 2.51  12 2.51  39 2.52  56 2.52
                            25 2.55
  59  0.419  0.585  0.097-  44 2.51  55 2.52  17 2.53  16 2.54  29 2.55  62 2.55  36 2.55  31 2.60
                            21 2.61
  60  0.416  0.583  0.391-  18 2.48  32 2.48  30 2.49  22 2.50  45 2.53  37 2.53  63 2.54  34 2.55
                            56 2.56
  61  0.589  0.921  0.294-  45 2.45  64 2.48  41 2.49  12 2.50   9 2.50  30 2.51  63 2.52  14 2.53
                            34 2.54   3 2.55   2 2.57  29 2.58
  62  0.415  0.834  0.097-   2 2.51  31 2.51  10 2.52  27 2.53  42 2.53  13 2.54  59 2.55  29 2.58
                            44 2.59
  63  0.415  0.833  0.388-  30 2.44  41 2.47  45 2.48  61 2.52  43 2.54  60 2.54  32 2.55  11 2.55
                            14 2.57
  64  0.833  0.920  0.292-  12 2.47  61 2.48  34 2.49  53 2.50   5 2.51  35 2.53   1 2.54  47 2.54
                            45 2.56  40 2.57   3 2.57  33 2.60
 

IMPORTANT INFORMATION: All symmetrisations will be switched off!
NOSYMM: (Re-)initialisation of all symmetry stuff for point group C_1.

 
 

Automatic generation of k-mesh.
 generate k-points for:    4    4    2
Space group operators:
 irot       det(A)        alpha          n_x          n_y          n_z        tau_x        tau_y        tau_z
    1     1.000000     0.000000     1.000000     0.000000     0.000000     0.000000     0.000000     0.000000
 
 Subroutine IBZKPT returns following result:
 ===========================================
 
 Found     20 irreducible k-points:
 
 Following reciprocal coordinates:
            Coordinates               Weight
  0.000000  0.000000  0.000000      1.000000
  0.250000  0.000000  0.000000      2.000000
  0.500000  0.000000  0.000000      1.000000
  0.000000  0.250000  0.000000      2.000000
  0.250000  0.250000  0.000000      2.000000
  0.500000  0.250000  0.000000      2.000000
 -0.250000  0.250000  0.000000      2.000000
  0.000000  0.500000  0.000000      1.000000
  0.250000  0.500000  0.000000      2.000000
  0.500000  0.500000  0.000000      1.000000
  0.000000  0.000000  0.500000      1.000000
  0.250000  0.000000  0.500000      2.000000
  0.500000  0.000000  0.500000      1.000000
  0.000000  0.250000  0.500000      2.000000
  0.250000  0.250000  0.500000      2.000000
  0.500000  0.250000  0.500000      2.000000
 -0.250000  0.250000  0.500000      2.000000
  0.000000  0.500000  0.500000      1.000000
  0.250000  0.500000  0.500000      2.000000
  0.500000  0.500000  0.500000      1.000000
 
 Following cartesian coordinates:
            Coordinates               Weight
  0.000000  0.000000  0.000000      1.000000
  0.024724  0.014274  0.000000      2.000000
  0.049448  0.028549  0.000000      1.000000
  0.000000  0.028549  0.000000      2.000000
  0.024724  0.042823  0.000000      2.000000
  0.049448  0.057098  0.000000      2.000000
 -0.024724  0.014274  0.000000      2.000000
  0.000000  0.057098  0.000000      1.000000
  0.024724  0.071372  0.000000      2.000000
  0.049448  0.085646  0.000000      1.000000
  0.000000  0.000000  0.023459      1.000000
  0.024724  0.014274  0.023459      2.000000
  0.049448  0.028549  0.023459      1.000000
  0.000000  0.028549  0.023459      2.000000
  0.024724  0.042823  0.023459      2.000000
  0.049448  0.057098  0.023459      2.000000
 -0.024724  0.014274  0.023459      2.000000
  0.000000  0.057098  0.023459      1.000000
  0.024724  0.071372  0.023459      2.000000
  0.049448  0.085646  0.023459      1.000000
 
 TETIRR: Found     96 inequivalent tetrahedra from      192


--------------------------------------------------------------------------------------------------------




 Dimension of arrays:
   k-points           NKPTS =     20   k-points in BZ     NKDIM =     20   number of bands    NBANDS=    408
   number of dos      NEDOS =    301   number of ions     NIONS =     64
   non local maximal  LDIM  =      6   non local SUM 2l+1 LMDIM =     18
   total plane-waves  NPLWV = ******
   max r-space proj   IRMAX =   8251   max aug-charges    IRDMAX=  19525
   dimension x,y,z NGX =    80 NGY =   80 NGZ =  160
   dimension x,y,z NGXF=   160 NGYF=  160 NGZF=  320
   support grid    NGXF=   160 NGYF=  160 NGZF=  320
   ions per type =              47  17
   NGX,Y,Z   is equivalent  to a cutoff of  13.15, 13.15, 12.48 a.u.
   NGXF,Y,Z  is equivalent  to a cutoff of  26.31, 26.31, 24.96 a.u.

 SYSTEM =  SQS-NiFe                                
 POSCAR =  POSCAR                                  

 Startparameter for this run:
   NWRITE =      2    write-flag & timer
   PREC   = accura    normal or accurate (medium, high low for compatibility)
   ISTART =      0    job   : 0-new  1-cont  2-samecut
   ICHARG =     11    charge: 1-file 2-atom 10-const
   ISPIN  =      2    spin polarized calculation?
   LNONCOLLINEAR =      F non collinear calculations
   LSORBIT =      F    spin-orbit coupling
   INIWAV =      1    electr: 0-lowe 1-rand  2-diag
   LASPH  =      F    aspherical Exc in radial PAW
   METAGGA=      F    non-selfconsistent MetaGGA calc.

 Electronic Relaxation 1
   ENCUT  =  520.0 eV  38.22 Ry    6.18 a.u.  18.80 18.80 39.63*2*pi/ulx,y,z
   ENINI  =  520.0     initial cutoff
   ENAUG  =  544.6 eV  augmentation charge cutoff
   NELM   =    200;   NELMIN=  2; NELMDL= -5     # of ELM steps 
   EDIFF  = 0.1E-05   stopping-criterion for ELM
   LREAL  =      T    real-space projection
   NLSPLINE    = F    spline interpolate recip. space projectors
   LCOMPAT=      F    compatible to vasp.4.4
   GGA_COMPAT  = T    GGA compatible to vasp.4.4-vasp.4.6
   LMAXPAW     = -100 max onsite density
   LMAXMIX     =    2 max onsite mixed and CHGCAR
   VOSKOWN=      0    Vosko Wilk Nusair interpolation
   ROPT   =   -0.00025  -0.00025
 Ionic relaxation
   EDIFFG = -.2E-01   stopping-criterion for IOM
   NSW    =      0    number of steps for IOM
   NBLOCK =      1;   KBLOCK =      1    inner block; outer block 
   IBRION =     -1    ionic relax: 0-MD 1-quasi-New 2-CG
   NFREE  =      0    steps in history (QN), initial steepest desc. (CG)
   ISIF   =      2    stress and relaxation
   IWAVPR =     10    prediction:  0-non 1-charg 2-wave 3-comb
   ISYM   =      0    0-nonsym 1-usesym 2-fastsym
   LCORR  =      T    Harris-Foulkes like correction to forces

   POTIM  = 0.5000    time-step for ionic-motion
   TEIN   =    0.0    initial temperature
   TEBEG  =    0.0;   TEEND  =   0.0 temperature during run
   SMASS  =  -3.00    Nose mass-parameter (am)
   estimated Nose-frequenzy (Omega)   =  0.10E-29 period in steps =****** mass=  -0.234E-26a.u.
   SCALEE = 1.0000    scale energy and forces
   NPACO  =    256;   APACO  = 16.0  distance and # of slots for P.C.
   PSTRESS=    0.0 pullay stress

  Mass of Ions in am
   POMASS =  55.85 58.69
  Ionic Valenz
   ZVAL   =   8.00 10.00
  Atomic Wigner-Seitz radii
   RWIGS  =  -1.00 -1.00
  virtual crystal weights 
   VCA    =   1.00  1.00
   NELECT =     546.0000    total number of electrons
   NUPDOWN=      -1.0000    fix difference up-down

 DOS related values:
   EMIN   =  10.00;   EMAX   =-10.00  energy-range for DOS
   EFERMI =   0.00
   ISMEAR =    -5;   SIGMA  =   0.20  broadening in eV -4-tet -1-fermi 0-gaus

 Electronic relaxation 2 (details)
   IALGO  =     68    algorithm
   LDIAG  =      T    sub-space diagonalisation (order eigenvalues)
   LSUBROT=      F    optimize rotation matrix (better conditioning)
   TURBO    =      0    0=normal 1=particle mesh
   IRESTART =      0    0=no restart 2=restart with 2 vectors
   NREBOOT  =      0    no. of reboots
   NMIN     =      0    reboot dimension
   EREF     =   0.00    reference energy to select bands
   IMIX   =      4    mixing-type and parameters
     AMIX     =   0.40;   BMIX     =  1.00
     AMIX_MAG =   1.60;   BMIX_MAG =  1.00
     AMIN     =   0.10
     WC   =   100.;   INIMIX=   1;  MIXPRE=   1;  MAXMIX= -45

 Intra band minimization:
   WEIMIN = 0.0000     energy-eigenvalue tresh-hold
   EBREAK =  0.61E-09  absolut break condition
   DEPER  =   0.30     relativ break condition  

   TIME   =   0.40     timestep for ELM

  volume/ion in A,a.u.               =      29.49       199.00
  Fermi-wavevector in a.u.,A,eV,Ry     =   1.082752  2.046105 15.950816  1.172352
  Thomas-Fermi vector in A             =   2.218801
 
 Write flags
   LWAVE        =      F    write WAVECAR
   LDOWNSAMPLE  =      F    k-point downsampling of WAVECAR
   LCHARG       =      F    write CHGCAR
   LVTOT        =      F    write LOCPOT, total local potential
   LVHAR        =      F    write LOCPOT, Hartree potential only
   LELF         =      F    write electronic localiz. function (ELF)
   LORBIT       =     11    0 simple, 1 ext, 2 COOP (PROOUT), +10 PAW based schemes


 Dipole corrections
   LMONO  =      F    monopole corrections only (constant potential shift)
   LDIPOL =      T    correct potential (dipole corrections)
   IDIPOL =      3    1-x, 2-y, 3-z, 4-all directions 
   EPSILON=  1.0000000 bulk dielectric constant

 Exchange correlation treatment:
   GGA     =    --    GGA type
   LEXCH   =     8    internal setting for exchange type
   VOSKOWN=      0    Vosko Wilk Nusair interpolation
   LHFCALC =     F    Hartree Fock is set to
   LHFONE  =     F    Hartree Fock one center treatment
   AEXX    =    0.0000 exact exchange contribution

 Linear response parameters
   LEPSILON=     F    determine dielectric tensor
   LRPA    =     F    only Hartree local field effects (RPA)
   LNABLA  =     F    use nabla operator in PAW spheres
   LVEL    =     F    velocity operator in full k-point grid
   LINTERFAST=   F  fast interpolation
   KINTER  =     0    interpolate to denser k-point grid
   CSHIFT  =0.1000    complex shift for real part using Kramers Kronig
   OMEGAMAX=  -1.0    maximum frequency
   DEG_THRESHOLD= 0.2000000E-02 threshold for treating states as degnerate
   RTIME   =   -0.100 relaxation time in fs
  (WPLASMAI=    0.000 imaginary part of plasma frequency in eV, 0.658/RTIME)
   DFIELD  = 0.0000000 0.0000000 0.0000000 field for delta impulse in time
 
 Orbital magnetization related:
   ORBITALMAG=     F  switch on orbital magnetization
   LCHIMAG   =     F  perturbation theory with respect to B field
   DQ        =  0.001000  dq finite difference perturbation B field
   LLRAUG    =     F  two centre corrections for induced B field



--------------------------------------------------------------------------------------------------------


 Static calculation
 charge density and potential remain constant during run
 spin polarized calculation
 RMM-DIIS sequential band-by-band and
  variant of blocked Davidson during initial phase
 perform sub-space diagonalisation
    before iterative eigenvector-optimisation
 no mixing
 using additional bands          135
 real space projection scheme for non local part
 use partial core corrections
 calculate Harris-corrections to forces 
   (improved forces if not selfconsistent)
 use gradient corrections 
 WARNING: stress and forces are not correct
  (second derivative of E(xc) not defined)
 use of overlap-Matrix (Vanderbilt PP)
 Fermi weights with tetrahedron method with Bloechl corrections


--------------------------------------------------------------------------------------------------------


  energy-cutoff  :      520.00
  volume of cell :     1887.25
      direct lattice vectors                 reciprocal lattice vectors
    10.111630000  0.000000000  0.000000000     0.098896024  0.057097646  0.000000000
    -5.055815000  8.756928450  0.000000000     0.000000000  0.114195292  0.000000000
     0.000000000  0.000000000 21.313618150     0.000000000  0.000000000  0.046918360

  length of vectors
    10.111630000 10.111629997 21.313618150     0.114195292  0.114195292  0.046918360


 
 k-points in units of 2pi/SCALE and weight: read from INCAR                         
   0.00000000  0.00000000  0.00000000       0.031
   0.02472401  0.01427441  0.00000000       0.062
   0.04944801  0.02854882  0.00000000       0.031
   0.00000000  0.02854882  0.00000000       0.062
   0.02472401  0.04282323  0.00000000       0.062
   0.04944801  0.05709765  0.00000000       0.062
  -0.02472401  0.01427441  0.00000000       0.062
   0.00000000  0.05709765  0.00000000       0.031
   0.02472401  0.07137206  0.00000000       0.062
   0.04944801  0.08564647  0.00000000       0.031
   0.00000000  0.00000000  0.02345918       0.031
   0.02472401  0.01427441  0.02345918       0.062
   0.04944801  0.02854882  0.02345918       0.031
   0.00000000  0.02854882  0.02345918       0.062
   0.02472401  0.04282323  0.02345918       0.062
   0.04944801  0.05709765  0.02345918       0.062
  -0.02472401  0.01427441  0.02345918       0.062
   0.00000000  0.05709765  0.02345918       0.031
   0.02472401  0.07137206  0.02345918       0.062
   0.04944801  0.08564647  0.02345918       0.031
 
 k-points in reciprocal lattice and weights: read from INCAR                         
   0.00000000  0.00000000  0.00000000       0.031
   0.25000000  0.00000000  0.00000000       0.062
   0.50000000  0.00000000  0.00000000       0.031
   0.00000000  0.25000000  0.00000000       0.062
   0.25000000  0.25000000  0.00000000       0.062
   0.50000000  0.25000000  0.00000000       0.062
  -0.25000000  0.25000000  0.00000000       0.062
   0.00000000  0.50000000  0.00000000       0.031
   0.25000000  0.50000000  0.00000000       0.062
   0.50000000  0.50000000  0.00000000       0.031
   0.00000000  0.00000000  0.50000000       0.031
   0.25000000  0.00000000  0.50000000       0.062
   0.50000000  0.00000000  0.50000000       0.031
   0.00000000  0.25000000  0.50000000       0.062
   0.25000000  0.25000000  0.50000000       0.062
   0.50000000  0.25000000  0.50000000       0.062
  -0.25000000  0.25000000  0.50000000       0.062
   0.00000000  0.50000000  0.50000000       0.031
   0.25000000  0.50000000  0.50000000       0.062
   0.50000000  0.50000000  0.50000000       0.031
 
 position of ions in fractional coordinates (direct lattice) 
   0.00194700  0.99920000  0.19504711
   0.49880600  0.99647600  0.19436468
   0.74316000  0.99645900  0.19265379
   0.24913600  0.25322600  0.19502823
   0.08272449  0.16774674  0.29339966
   0.33531437  0.16735577  0.29088626
   0.16766300  0.08094400  0.09476087
   0.16493434  0.08233413  0.39265750
   0.59152171  0.16986182  0.29019656
   0.42207800  0.08742500  0.09459963
   0.41540814  0.08641663  0.38963823
   0.83695021  0.16636832  0.28994309
   0.66737600  0.08327700  0.09665914
   0.66778368  0.08873198  0.39023189
   0.00320800  0.51090900  0.19273630
   0.25586900  0.50577700  0.19556308
   0.49960200  0.50304900  0.19575715
   0.33316951  0.41947420  0.29589146
   0.75679100  0.50804300  0.19452824
   0.58278318  0.41605103  0.29403079
   0.42032800  0.32671800  0.09530328
   0.41289162  0.33406473  0.39458799
   0.83821311  0.42007972  0.29224465
   0.66249300  0.33542400  0.09383672
   0.66313604  0.33207732  0.39119879
   0.99180600  0.74702800  0.19393325
   0.25104600  0.74563900  0.19525367
   0.08731166  0.66699607  0.29395879
   0.50153700  0.74905700  0.19574495
   0.34189891  0.67116886  0.29502427
   0.16407000  0.58904200  0.09862191
   0.16726943  0.57603288  0.38888129
   0.74777500  0.74863100  0.19226885
   0.59007253  0.67051867  0.29495862
   0.83459116  0.67007801  0.29467697
   0.67214400  0.58529400  0.09617600
   0.66742481  0.58513840  0.39545387
   0.91907500  0.58733100  0.09791739
   0.91841290  0.58412047  0.39396727
   0.08644653  0.91880587  0.29216034
   0.34025398  0.91719920  0.29200775
   0.16274300  0.83153600  0.09454501
   0.16166734  0.82961935  0.39169686
   0.66878300  0.83083000  0.09953909
   0.66184460  0.83682111  0.38886378
   0.91852300  0.82706000  0.09806963
   0.91382838  0.83647976  0.38989718
   0.24916500  0.99813100  0.19381878
   0.00129700  0.24974200  0.19480424
   0.49933100  0.25162700  0.19359363
   0.74944200  0.25071300  0.19395097
   0.91424100  0.07929400  0.09685844
   0.91429312  0.08552795  0.38732131
   0.08409159  0.41736363  0.28993421
   0.17077300  0.33437100  0.09693223
   0.16380647  0.32948078  0.38734897
   0.91567000  0.33646400  0.09645316
   0.91652895  0.33416464  0.38531459
   0.41923600  0.58471500  0.09724687
   0.41628744  0.58288618  0.39087148
   0.58870570  0.92088247  0.29386585
   0.41467000  0.83428900  0.09748597
   0.41467461  0.83348278  0.38805031
   0.83327574  0.91981444  0.29170636
 
 position of ions in cartesian coordinates  (Angst):
  -5.03208300  8.74992291  4.15715962
   0.00574341  8.72606903  4.14261457
   2.47664659  8.72592017  4.10614932
   1.23890724  2.21748196  4.15675722
  -0.01161702  1.46894622  6.25340836
   2.54445504  1.46552254  6.19983871
   1.28610833  0.70882082  2.01969700
   1.25148893  0.72099409  8.36895195
   5.12245877  1.48746778  6.18513866
   3.82589194  0.76557447  2.01626039
   3.76354689  0.75674425  8.30460038
   7.62180344  1.45687547  6.17973640
   6.32722608  0.72925073  2.06015600
   6.30376902  0.77701956  8.31725347
  -2.55062328  4.47399356  4.10790790
   0.03013771  4.42905300  4.16815681
   2.50846789  4.40516410  4.17229315
   1.24810283  3.67330552  6.30651763
   5.08381916  4.44889620  4.14610063
   3.78941085  3.64332908  6.26686002
   2.59837545  2.86104615  2.03125772
   2.48603780  2.92538093  8.41009771
   6.35185550  3.67860801  6.22879085
   5.00304240  2.93728397  2.00000002
   5.02646479  2.90797737  8.33786154
   6.25193994  6.54167075  4.13341924
  -1.23132858  6.52950737  4.16156216
  -2.48934551  5.84083688  6.26532532
   1.28426296  6.55943855  4.17203312
   0.06384965  5.87737771  6.28803461
  -1.31907225  5.15819865  2.10198973
  -1.22094907  5.04427872  8.28846741
   3.77628428  6.55570810  4.09794485
   2.57657672  5.87168401  6.28663544
   5.05128656  5.86782516  6.28063238
   3.83733325  5.12537768  2.04985854
   3.79040128  5.12401507  8.42855269
   6.32390946  5.14321554  2.08697386
   6.33344641  5.11510115  8.39686798
  -3.77119720  8.04591723  6.22699388
  -1.19666707  8.03184774  6.22374172
  -2.55849518  7.28170126  2.01509624
  -2.55968165  7.26491728  8.34847720
   2.56196347  7.27551886  2.12153816
   2.46151503  7.32798258  8.28809404
   5.10630237  7.24250524  2.09021865
   5.01120754  7.32499339  8.31011952
  -2.52690139  8.74056175  4.13097947
  -1.24953457  2.18697282  4.15198319
   3.77687076  2.20347964  4.12618071
   6.31052166  2.19547580  4.13379691
   8.84357093  0.69437188  2.06440380
   8.81258022  0.74896211  8.25521842
  -1.25981024  3.65482341  6.17954704
   0.03627547  2.92806292  2.06597654
  -0.00944350  2.88523963  8.25580807
   7.55781650  2.94639117  2.05576582
   7.57812697  2.92625586  8.21244805
   1.28294845  5.12030742  2.07268265
   1.26237982  5.10429260  8.33088537
   1.29696282  8.06410189  6.26334461
  -0.02502123  7.30580908  2.07777874
  -0.02089844  7.29874903  8.27075619
   3.77536439  8.05474920  6.21731796
 


--------------------------------------------------------------------------------------------------------


 k-point  1 :   0.0000 0.0000 0.0000  plane waves:   50797
 k-point  2 :   0.2500 0.0000 0.0000  plane waves:   50801
 k-point  3 :   0.5000 0.0000 0.0000  plane waves:   50846
 k-point  4 :   0.0000 0.2500 0.0000  plane waves:   50801
 k-point  5 :   0.2500 0.2500 0.0000  plane waves:   50821
 k-point  6 :   0.5000 0.2500 0.0000  plane waves:   50821
 k-point  7 :  -0.2500 0.2500 0.0000  plane waves:   50801
 k-point  8 :   0.0000 0.5000 0.0000  plane waves:   50846
 k-point  9 :   0.2500 0.5000 0.0000  plane waves:   50821
 k-point 10 :   0.5000 0.5000 0.0000  plane waves:   50846
 k-point 11 :   0.0000 0.0000 0.5000  plane waves:   50804
 k-point 12 :   0.2500 0.0000 0.5000  plane waves:   50826
 k-point 13 :   0.5000 0.0000 0.5000  plane waves:   50804
 k-point 14 :   0.0000 0.2500 0.5000  plane waves:   50826
 k-point 15 :   0.2500 0.2500 0.5000  plane waves:   50842
 k-point 16 :   0.5000 0.2500 0.5000  plane waves:   50842
 k-point 17 :  -0.2500 0.2500 0.5000  plane waves:   50826
 k-point 18 :   0.0000 0.5000 0.5000  plane waves:   50804
 k-point 19 :   0.2500 0.5000 0.5000  plane waves:   50842
 k-point 20 :   0.5000 0.5000 0.5000  plane waves:   50804

 maximum and minimum number of plane-waves per node :      2152     2086

 maximum number of plane-waves:     50846
 maximum index in each direction: 
   IXMAX=   19   IYMAX=   18   IZMAX=   39
   IXMIN=  -19   IYMIN=  -19   IZMIN=  -40


 real space projection operators:
  total allocation   :      68531.91 KBytes
  max/ min on nodes  :       3466.83       2507.91


 parallel 3D FFT for wavefunctions:
    minimum data exchange during FFTs selected (reduces bandwidth)
 parallel 3D FFT for charge:
    minimum data exchange during FFTs selected (reduces bandwidth)


 total amount of memory used by VASP MPI-rank0   255421. kBytes
=======================================================================

   base      :      30000. kBytes
   nonlr-proj:      13158. kBytes
   fftplans  :       6403. kBytes
   grid      :      16455. kBytes
   one-center:         93. kBytes
   wavefun   :     189312. kBytes
 
     INWAV:  cpu time    0.0000: real time    0.0001
 initial charge density was supplied:
 number of electron     545.9999927 magnetization     134.8113350
 keeping initial charge density in first step


--------------------------------------------------------------------------------------------------------


 Maximum index for non-local projection operator          764
 Maximum index for augmentation-charges         1127 (set IRDMAX)


--------------------------------------------------------------------------------------------------------


 First call to EWALD:  gamma=   0.143
 Maximum number of real-space cells 4x 4x 2
 Maximum number of reciprocal cells 2x 2x 4

    FEWALD:  cpu time    0.0040: real time    0.0038


--------------------------------------- Iteration      1(   1)  ---------------------------------------


    POTLOK:  cpu time    0.2460: real time    0.2524
    SETDIJ:  cpu time    0.0180: real time    0.0206
     EDDAV:  cpu time   97.5412: real time   97.7554
 BZINTS: Fermi energy: 10.438720;546.000000 electrons
         Band energy:3425.987006;  BLOECHL correction: -0.011594
       DOS:  cpu time    0.1920: real time    0.1921
    --------------------------------------------
      LOOP:  cpu time   97.9971: real time   98.2205

 eigenvalue-minimisations  : 32640
 total energy-change (2. order) : 0.4332263E+04  (-0.2299273E+05)
 number of electron     545.9999927 magnetization     134.8113350
 augmentation part      545.9999927 magnetization     134.8113350

 DIPCOR: dipole corrections for dipol
 direction  3 min pos   234,
 dipolmoment           0.000000      0.000000      0.004830 electrons x Angstroem
 Tr[quadrupol]     -9240.372736

 energy correction for charged system         0.000000 eV
 dipol+quadrupol energy correction           -0.000001 eV
 added-field ion interaction         -0.081678 eV  (added to PSCEN)


 Free energy of the ion-electron system (eV)
  ---------------------------------------------------
  alpha Z        PSCENC =      1425.46827110
  Ewald energy   TEWEN  =    164298.40388444
  -Hartree energ DENC   =   -210206.23524425
  -exchange      EXHF   =         0.00000000
  -V(xc)+E(xc)   XCENC  =       726.29441589
  PAW double counting   =     51735.95201809   -53326.70912699
  entropy T*S    EENTRO =         0.00000000
  eigenvalues    EBANDS =      3425.98700640
  atomic energy  EATOM  =     46253.10162290
  Solvation  Ediel_sol  =         0.00000000
  ---------------------------------------------------
  free energy    TOTEN  =      4332.26284757 eV

  energy without entropy =     4332.26284757  energy(sigma->0) =     4332.26284757


--------------------------------------------------------------------------------------------------------




--------------------------------------- Iteration      1(   2)  ---------------------------------------


     EDDAV:  cpu time   99.0989: real time   99.3300
 BZINTS: Fermi energy:  0.827465;546.000000 electrons
         Band energy:-970.227370;  BLOECHL correction: -0.010828
       DOS:  cpu time    0.1940: real time    0.1945
    --------------------------------------------
      LOOP:  cpu time   99.2929: real time   99.5245

 eigenvalue-minimisations  : 32640
 total energy-change (2. order) :-0.4396214E+04  (-0.4089806E+04)
 number of electron     545.9999927 magnetization     134.8113350
 augmentation part      545.9999927 magnetization     134.8113350

 DIPCOR: dipole corrections for dipol
 direction  3 min pos   234,
 dipolmoment           0.000000      0.000000      0.004830 electrons x Angstroem
 Tr[quadrupol]     -9240.372736

 energy correction for charged system         0.000000 eV
 dipol+quadrupol energy correction           -0.000001 eV
 added-field ion interaction         -0.081678 eV  (added to PSCEN)


 Free energy of the ion-electron system (eV)
  ---------------------------------------------------
  alpha Z        PSCENC =      1425.46827110
  Ewald energy   TEWEN  =    164298.40388444
  -Hartree energ DENC   =   -210206.23524425
  -exchange      EXHF   =         0.00000000
  -V(xc)+E(xc)   XCENC  =       726.29441589
  PAW double counting   =     51735.95201809   -53326.70912699
  entropy T*S    EENTRO =         0.00000000
  eigenvalues    EBANDS =      -970.22737019
  atomic energy  EATOM  =     46253.10162290
  Solvation  Ediel_sol  =         0.00000000
  ---------------------------------------------------
  free energy    TOTEN  =       -63.95152902 eV

  energy without entropy =      -63.95152902  energy(sigma->0) =      -63.95152902


--------------------------------------------------------------------------------------------------------




--------------------------------------- Iteration      1(   3)  ---------------------------------------


     EDDAV:  cpu time  100.9227: real time  101.0881
 BZINTS: Fermi energy: -0.218231;546.000000 electrons
         Band energy:***********;  BLOECHL correction: -0.147102
       DOS:  cpu time    0.1940: real time    0.1939
    --------------------------------------------
      LOOP:  cpu time  101.1166: real time  101.2819

 eigenvalue-minimisations  : 34098
 total energy-change (2. order) :-0.3740688E+03  (-0.3184590E+03)
 number of electron     545.9999927 magnetization     134.8113350
 augmentation part      545.9999927 magnetization     134.8113350

 DIPCOR: dipole corrections for dipol
 direction  3 min pos   234,
 dipolmoment           0.000000      0.000000      0.004830 electrons x Angstroem
 Tr[quadrupol]     -9240.372736

 energy correction for charged system         0.000000 eV
 dipol+quadrupol energy correction           -0.000001 eV
 added-field ion interaction         -0.081678 eV  (added to PSCEN)


 Free energy of the ion-electron system (eV)
  ---------------------------------------------------
  alpha Z        PSCENC =      1425.46827110
  Ewald energy   TEWEN  =    164298.40388444
  -Hartree energ DENC   =   -210206.23524425
  -exchange      EXHF   =         0.00000000
  -V(xc)+E(xc)   XCENC  =       726.29441589
  PAW double counting   =     51735.95201809   -53326.70912699
  entropy T*S    EENTRO =         0.00000000
  eigenvalues    EBANDS =     -1344.29617732
  atomic energy  EATOM  =     46253.10162290
  Solvation  Ediel_sol  =         0.00000000
  ---------------------------------------------------
  free energy    TOTEN  =      -438.02033615 eV

  energy without entropy =     -438.02033615  energy(sigma->0) =     -438.02033615


--------------------------------------------------------------------------------------------------------




--------------------------------------- Iteration      1(   4)  ---------------------------------------


     EDDAV:  cpu time  102.7764: real time  103.1947
 BZINTS: Fermi energy: -0.258672;546.000000 electrons
         Band energy:***********;  BLOECHL correction: -0.145310
       DOS:  cpu time    0.1860: real time    0.1857
    --------------------------------------------
      LOOP:  cpu time  102.9623: real time  103.3804

 eigenvalue-minimisations  : 34770
 total energy-change (2. order) :-0.1502646E+02  (-0.1465739E+02)
 number of electron     545.9999927 magnetization     134.8113350
 augmentation part      545.9999927 magnetization     134.8113350

 DIPCOR: dipole corrections for dipol
 direction  3 min pos   234,
 dipolmoment           0.000000      0.000000      0.004830 electrons x Angstroem
 Tr[quadrupol]     -9240.372736

 energy correction for charged system         0.000000 eV
 dipol+quadrupol energy correction           -0.000001 eV
 added-field ion interaction         -0.081678 eV  (added to PSCEN)


 Free energy of the ion-electron system (eV)
  ---------------------------------------------------
  alpha Z        PSCENC =      1425.46827110
  Ewald energy   TEWEN  =    164298.40388444
  -Hartree energ DENC   =   -210206.23524425
  -exchange      EXHF   =         0.00000000
  -V(xc)+E(xc)   XCENC  =       726.29441589
  PAW double counting   =     51735.95201809   -53326.70912699
  entropy T*S    EENTRO =         0.00000000
  eigenvalues    EBANDS =     -1359.32263585
  atomic energy  EATOM  =     46253.10162290
  Solvation  Ediel_sol  =         0.00000000
  ---------------------------------------------------
  free energy    TOTEN  =      -453.04679467 eV

  energy without entropy =     -453.04679467  energy(sigma->0) =     -453.04679467


--------------------------------------------------------------------------------------------------------




--------------------------------------- Iteration      1(   5)  ---------------------------------------


     EDDAV:  cpu time  108.1906: real time  108.4781
 BZINTS: Fermi energy: -0.259498;546.000000 electrons
         Band energy:***********;  BLOECHL correction: -0.145085
       DOS:  cpu time    0.1820: real time    0.1820
    --------------------------------------------
      LOOP:  cpu time  108.3725: real time  108.6601

 eigenvalue-minimisations  : 36768
 total energy-change (2. order) :-0.2603446E+00  (-0.2601708E+00)
 number of electron     545.9999927 magnetization     134.8113350
 augmentation part      545.9999927 magnetization     134.8113350

 DIPCOR: dipole corrections for dipol
 direction  3 min pos   234,
 dipolmoment           0.000000      0.000000      0.004830 electrons x Angstroem
 Tr[quadrupol]     -9240.372736

 energy correction for charged system         0.000000 eV
 dipol+quadrupol energy correction           -0.000001 eV
 added-field ion interaction         -0.081678 eV  (added to PSCEN)


 Free energy of the ion-electron system (eV)
  ---------------------------------------------------
  alpha Z        PSCENC =      1425.46827110
  Ewald energy   TEWEN  =    164298.40388444
  -Hartree energ DENC   =   -210206.23524425
  -exchange      EXHF   =         0.00000000
  -V(xc)+E(xc)   XCENC  =       726.29441589
  PAW double counting   =     51735.95201809   -53326.70912699
  entropy T*S    EENTRO =         0.00000000
  eigenvalues    EBANDS =     -1359.58298041
  atomic energy  EATOM  =     46253.10162290
  Solvation  Ediel_sol  =         0.00000000
  ---------------------------------------------------
  free energy    TOTEN  =      -453.30713924 eV

  energy without entropy =     -453.30713924  energy(sigma->0) =     -453.30713924


--------------------------------------------------------------------------------------------------------




--------------------------------------- Iteration      1(   6)  ---------------------------------------


    EDDIAG:  cpu time   14.3468: real time   14.3746
  RMM-DIIS:  cpu time   62.2565: real time   62.7089
    ORTHCH:  cpu time    2.5826: real time    2.5980
 BZINTS: Fermi energy: -0.259530;546.000000 electrons
         Band energy:***********;  BLOECHL correction: -0.145078
       DOS:  cpu time    0.1810: real time    0.1819
    --------------------------------------------
      LOOP:  cpu time   79.3669: real time   79.8634

 eigenvalue-minimisations  : 33845
 total energy-change (2. order) :-0.8415148E-02  (-0.8416255E-02)
 number of electron     545.9999927 magnetization     134.8113350
 augmentation part      545.9999927 magnetization     134.8113350

 DIPCOR: dipole corrections for dipol
 direction  3 min pos   234,
 dipolmoment           0.000000      0.000000      0.004830 electrons x Angstroem
 Tr[quadrupol]     -9240.372736

 energy correction for charged system         0.000000 eV
 dipol+quadrupol energy correction           -0.000001 eV
 added-field ion interaction         -0.081678 eV  (added to PSCEN)


 Free energy of the ion-electron system (eV)
  ---------------------------------------------------
  alpha Z        PSCENC =      1425.46827110
  Ewald energy   TEWEN  =    164298.40388444
  -Hartree energ DENC   =   -210206.23524425
  -exchange      EXHF   =         0.00000000
  -V(xc)+E(xc)   XCENC  =       726.29441589
  PAW double counting   =     51735.95201809   -53326.70912699
  entropy T*S    EENTRO =         0.00000000
  eigenvalues    EBANDS =     -1359.59139556
  atomic energy  EATOM  =     46253.10162290
  Solvation  Ediel_sol  =         0.00000000
  ---------------------------------------------------
  free energy    TOTEN  =      -453.31555438 eV

  energy without entropy =     -453.31555438  energy(sigma->0) =     -453.31555438


--------------------------------------------------------------------------------------------------------




--------------------------------------- Iteration      1(   7)  ---------------------------------------


    EDDIAG:  cpu time   14.5578: real time   14.6474
  RMM-DIIS:  cpu time   90.2643: real time   91.0089
    ORTHCH:  cpu time    2.5626: real time    2.5720
 BZINTS: Fermi energy: -0.259536;546.000000 electrons
         Band energy:***********;  BLOECHL correction: -0.145077
       DOS:  cpu time    0.1820: real time    0.1814
    --------------------------------------------
      LOOP:  cpu time  107.5666: real time  108.4097

 eigenvalue-minimisations  : 49806
 total energy-change (2. order) :-0.2322937E-02  (-0.2318721E-02)
 number of electron     545.9999927 magnetization     134.8113350
 augmentation part      545.9999927 magnetization     134.8113350

 DIPCOR: dipole corrections for dipol
 direction  3 min pos   234,
 dipolmoment           0.000000      0.000000      0.004830 electrons x Angstroem
 Tr[quadrupol]     -9240.372736

 energy correction for charged system         0.000000 eV
 dipol+quadrupol energy correction           -0.000001 eV
 added-field ion interaction         -0.081678 eV  (added to PSCEN)


 Free energy of the ion-electron system (eV)
  ---------------------------------------------------
  alpha Z        PSCENC =      1425.46827110
  Ewald energy   TEWEN  =    164298.40388444
  -Hartree energ DENC   =   -210206.23524425
  -exchange      EXHF   =         0.00000000
  -V(xc)+E(xc)   XCENC  =       726.29441589
  PAW double counting   =     51735.95201809   -53326.70912699
  entropy T*S    EENTRO =         0.00000000
  eigenvalues    EBANDS =     -1359.59371849
  atomic energy  EATOM  =     46253.10162290
  Solvation  Ediel_sol  =         0.00000000
  ---------------------------------------------------
  free energy    TOTEN  =      -453.31787732 eV

  energy without entropy =     -453.31787732  energy(sigma->0) =     -453.31787732


--------------------------------------------------------------------------------------------------------




--------------------------------------- Iteration      1(   8)  ---------------------------------------


    EDDIAG:  cpu time   14.6868: real time   14.7441
  RMM-DIIS:  cpu time   88.9775: real time   89.5980
    ORTHCH:  cpu time    2.5716: real time    2.5861
 BZINTS: Fermi energy: -0.259536;546.000000 electrons
         Band energy:***********;  BLOECHL correction: -0.145077
       DOS:  cpu time    0.1770: real time    0.1769
    --------------------------------------------
      LOOP:  cpu time  106.4128: real time  107.1051

 eigenvalue-minimisations  : 48885
 total energy-change (2. order) :-0.5153261E-04  (-0.4996755E-04)
 number of electron     545.9999927 magnetization     134.8113350
 augmentation part      545.9999927 magnetization     134.8113350

 DIPCOR: dipole corrections for dipol
 direction  3 min pos   234,
 dipolmoment           0.000000      0.000000      0.004830 electrons x Angstroem
 Tr[quadrupol]     -9240.372736

 energy correction for charged system         0.000000 eV
 dipol+quadrupol energy correction           -0.000001 eV
 added-field ion interaction         -0.081678 eV  (added to PSCEN)


 Free energy of the ion-electron system (eV)
  ---------------------------------------------------
  alpha Z        PSCENC =      1425.46827110
  Ewald energy   TEWEN  =    164298.40388444
  -Hartree energ DENC   =   -210206.23524425
  -exchange      EXHF   =         0.00000000
  -V(xc)+E(xc)   XCENC  =       726.29441589
  PAW double counting   =     51735.95201809   -53326.70912699
  entropy T*S    EENTRO =         0.00000000
  eigenvalues    EBANDS =     -1359.59377003
  atomic energy  EATOM  =     46253.10162290
  Solvation  Ediel_sol  =         0.00000000
  ---------------------------------------------------
  free energy    TOTEN  =      -453.31792885 eV

  energy without entropy =     -453.31792885  energy(sigma->0) =     -453.31792885


--------------------------------------------------------------------------------------------------------




--------------------------------------- Iteration      1(   9)  ---------------------------------------


    EDDIAG:  cpu time   14.6168: real time   14.7345
  RMM-DIIS:  cpu time   55.4276: real time   55.7123
    ORTHCH:  cpu time    2.5556: real time    2.5626
 BZINTS: Fermi energy: -0.259536;546.000000 electrons
         Band energy:***********;  BLOECHL correction: -0.145077
       DOS:  cpu time    0.1810: real time    0.1811
    --------------------------------------------
      LOOP:  cpu time   72.7809: real time   73.1905

 eigenvalue-minimisations  : 29814
 total energy-change (2. order) :-0.2353554E-04  (-0.2342800E-04)
 number of electron     545.9999927 magnetization     134.8113350
 augmentation part      545.9999927 magnetization     134.8113350

 DIPCOR: dipole corrections for dipol
 direction  3 min pos   234,
 dipolmoment           0.000000      0.000000      0.004830 electrons x Angstroem
 Tr[quadrupol]     -9240.372736

 energy correction for charged system         0.000000 eV
 dipol+quadrupol energy correction           -0.000001 eV
 added-field ion interaction         -0.081678 eV  (added to PSCEN)


 Free energy of the ion-electron system (eV)
  ---------------------------------------------------
  alpha Z        PSCENC =      1425.46827110
  Ewald energy   TEWEN  =    164298.40388444
  -Hartree energ DENC   =   -210206.23524425
  -exchange      EXHF   =         0.00000000
  -V(xc)+E(xc)   XCENC  =       726.29441589
  PAW double counting   =     51735.95201809   -53326.70912699
  entropy T*S    EENTRO =         0.00000000
  eigenvalues    EBANDS =     -1359.59379356
  atomic energy  EATOM  =     46253.10162290
  Solvation  Ediel_sol  =         0.00000000
  ---------------------------------------------------
  free energy    TOTEN  =      -453.31795239 eV

  energy without entropy =     -453.31795239  energy(sigma->0) =     -453.31795239


--------------------------------------------------------------------------------------------------------




--------------------------------------- Iteration      1(  10)  ---------------------------------------


    EDDIAG:  cpu time   14.6128: real time   14.6473
  RMM-DIIS:  cpu time   41.0408: real time   41.1036
    ORTHCH:  cpu time    2.5646: real time    2.5803
 BZINTS: Fermi energy: -0.259536;546.000000 electrons
         Band energy:***********;  BLOECHL correction: -0.145077
       DOS:  cpu time    0.1790: real time    0.1790
    --------------------------------------------
      LOOP:  cpu time   58.3971: real time   58.5102

 eigenvalue-minimisations  : 21504
 total energy-change (2. order) :-0.1791137E-05  (-0.1234396E-05)
 number of electron     545.9999927 magnetization     134.8113350
 augmentation part      545.9999927 magnetization     134.8113350

 DIPCOR: dipole corrections for dipol
 direction  3 min pos   234,
 dipolmoment           0.000000      0.000000      0.004830 electrons x Angstroem
 Tr[quadrupol]     -9240.372736

 energy correction for charged system         0.000000 eV
 dipol+quadrupol energy correction           -0.000001 eV
 added-field ion interaction         -0.081678 eV  (added to PSCEN)


 Free energy of the ion-electron system (eV)
  ---------------------------------------------------
  alpha Z        PSCENC =      1425.46827110
  Ewald energy   TEWEN  =    164298.40388444
  -Hartree energ DENC   =   -210206.23524425
  -exchange      EXHF   =         0.00000000
  -V(xc)+E(xc)   XCENC  =       726.29441589
  PAW double counting   =     51735.95201809   -53326.70912699
  entropy T*S    EENTRO =         0.00000000
  eigenvalues    EBANDS =     -1359.59379535
  atomic energy  EATOM  =     46253.10162290
  Solvation  Ediel_sol  =         0.00000000
  ---------------------------------------------------
  free energy    TOTEN  =      -453.31795418 eV

  energy without entropy =     -453.31795418  energy(sigma->0) =     -453.31795418


--------------------------------------------------------------------------------------------------------




--------------------------------------- Iteration      1(  11)  ---------------------------------------


    EDDIAG:  cpu time   14.4588: real time   14.4683
  RMM-DIIS:  cpu time   40.0929: real time   40.1670
    ORTHCH:  cpu time    2.5726: real time    2.5753
 BZINTS: Fermi energy: -0.259536;546.000000 electrons
         Band energy:***********;  BLOECHL correction: -0.145077
       DOS:  cpu time    0.1570: real time    0.1572
    --------------------------------------------
      LOOP:  cpu time   57.2813: real time   57.3678

 eigenvalue-minimisations  : 20783
 total energy-change (2. order) :-0.7169729E-06  (-0.6922300E-06)
 number of electron     545.9999927 magnetization     134.8113350
 augmentation part      545.9999927 magnetization     134.8113350

 DIPCOR: dipole corrections for dipol
 direction  3 min pos   234,
 dipolmoment           0.000000      0.000000      0.004830 electrons x Angstroem
 Tr[quadrupol]     -9240.372736

 energy correction for charged system         0.000000 eV
 dipol+quadrupol energy correction           -0.000001 eV
 added-field ion interaction         -0.081678 eV  (added to PSCEN)


 Free energy of the ion-electron system (eV)
  ---------------------------------------------------
  alpha Z        PSCENC =      1425.46827110
  Ewald energy   TEWEN  =    164298.40388444
  -Hartree energ DENC   =   -210206.23524425
  -exchange      EXHF   =         0.00000000
  -V(xc)+E(xc)   XCENC  =       726.29441589
  PAW double counting   =     51735.95201809   -53326.70912699
  entropy T*S    EENTRO =         0.00000000
  eigenvalues    EBANDS =     -1359.59379607
  atomic energy  EATOM  =     46253.10162290
  Solvation  Ediel_sol  =         0.00000000
  ---------------------------------------------------
  free energy    TOTEN  =      -453.31795490 eV

  energy without entropy =     -453.31795490  energy(sigma->0) =     -453.31795490


--------------------------------------------------------------------------------------------------------




 average (electrostatic) potential at core
  the test charge radii are     1.0103  0.9791
  (the norm of the test charge is              1.0000)
       1 -49.5413       2 -49.5265       3 -49.5192       4 -49.5000       5 -49.5791
       6 -49.4864       7 -49.5649       8 -49.5131       9 -49.4828      10 -49.5103
      11 -49.4596      12 -49.6051      13 -49.5901      14 -49.5468      15 -49.5339
      16 -49.5152      17 -49.5221      18 -49.5078      19 -49.5016      20 -49.4490
      21 -49.5446      22 -49.5371      23 -49.5163      24 -49.5387      25 -49.4510
      26 -49.4760      27 -49.4674      28 -49.4500      29 -49.4704      30 -49.4727
      31 -49.5692      32 -49.6187      33 -49.4136      34 -49.4616      35 -49.4760
      36 -49.4735      37 -49.5129      38 -49.5016      39 -49.5204      40 -49.4649
      41 -49.4724      42 -49.5345      43 -49.5077      44 -49.4447      45 -49.5887
      46 -49.4417      47 -49.4864      48 -91.6193      49 -91.5968      50 -91.6101
      51 -91.6250      52 -91.3866      53 -91.4419      54 -91.5977      55 -91.3305
      56 -91.4214      57 -91.3298      58 -91.4470      59 -91.3338      60 -91.4287
      61 -91.6773      62 -91.4101      63 -91.4546      64 -91.6547
 
 
 
 E-fermi :  -0.2595     XC(G=0):  -5.9898     alpha+bet : -5.4738


 spin component 1

 k-point     1 :       0.0000    0.0000    0.0000
  band No.  band energies     occupation 
      1      -8.4355      1.00000
      2      -7.2505      1.00000
      3      -6.6108      1.00000
      4      -6.5881      1.00000
      5      -6.5535      1.00000
      6      -6.5360      1.00000
      7      -6.5139      1.00000
      8      -6.4709      1.00000
      9      -5.8272      1.00000
     10      -5.6646      1.00000
     11      -5.6376      1.00000
     12      -5.6268      1.00000
     13      -5.5951      1.00000
     14      -5.5725      1.00000
     15      -5.5618      1.00000
     16      -5.2774      1.00000
     17      -5.1102      1.00000
     18      -5.0670      1.00000
     19      -5.0275      1.00000
     20      -5.0214      1.00000
     21      -4.9808      1.00000
     22      -4.9354      1.00000
     23      -4.6547      1.00000
     24      -4.6424      1.00000
     25      -4.6296      1.00000
     26      -4.6166      1.00000
     27      -4.6104      1.00000
     28      -4.5958      1.00000
     29      -4.5876      1.00000
     30      -4.5738      1.00000
     31      -4.5497      1.00000
     32      -4.5426      1.00000
     33      -4.5324      1.00000
     34      -4.5126      1.00000
     35      -4.4932      1.00000
     36      -4.4740      1.00000
     37      -4.4696      1.00000
     38      -4.4644      1.00000
     39      -4.4551      1.00000
     40      -4.4479      1.00000
     41      -4.4321      1.00000
     42      -4.4275      1.00000
     43      -4.4088      1.00000
     44      -4.3993      1.00000
     45      -4.3915      1.00000
     46      -4.3884      1.00000
     47      -4.3732      1.00000
     48      -4.3651      1.00000
     49      -4.3512      1.00000
     50      -4.3367      1.00000
     51      -4.3244      1.00000
     52      -4.2846      1.00000
     53      -4.2729      1.00000
     54      -4.2561      1.00000
     55      -4.2416      1.00000
     56      -4.2303      1.00000
     57      -4.2159      1.00000
     58      -4.2065      1.00000
     59      -4.1981      1.00000
     60      -4.1800      1.00000
     61      -4.1363      1.00000
     62      -4.0662      1.00000
     63      -4.0498      1.00000
     64      -4.0390      1.00000
     65      -3.9436      1.00000
     66      -3.9143      1.00000
     67      -3.8940      1.00000
     68      -3.8818      1.00000
     69      -3.8715      1.00000
     70      -3.8601      1.00000
     71      -3.8500      1.00000
     72      -3.8321      1.00000
     73      -3.8268      1.00000
     74      -3.8238      1.00000
     75      -3.8120      1.00000
     76      -3.8023      1.00000
     77      -3.7867      1.00000
     78      -3.7841      1.00000
     79      -3.7715      1.00000
     80      -3.7564      1.00000
     81      -3.7453      1.00000
     82      -3.7251      1.00000
     83      -3.6220      1.00000
     84      -3.6063      1.00000
     85      -3.5751      1.00000
     86      -3.5590      1.00000
     87      -3.5558      1.00000
     88      -3.5338      1.00000
     89      -3.5254      1.00000
     90      -3.5057      1.00000
     91      -3.4958      1.00000
     92      -3.4900      1.00000
     93      -3.4833      1.00000
     94      -3.4672      1.00000
     95      -3.4553      1.00000
     96      -3.4537      1.00000
     97      -3.4415      1.00000
     98      -3.4309      1.00000
     99      -3.4141      1.00000
    100      -3.3899      1.00000
    101      -3.3790      1.00000
    102      -3.3568      1.00000
    103      -3.3325      1.00000
    104      -3.3220      1.00000
    105      -3.3167      1.00000
    106      -3.2917      1.00000
    107      -3.2841      1.00000
    108      -3.2404      1.00000
    109      -3.2348      1.00000
    110      -3.2193      1.00000
    111      -3.2033      1.00000
    112      -3.1845      1.00000
    113      -3.1530      1.00000
    114      -3.1333      1.00000
    115      -3.1064      1.00000
    116      -3.0989      1.00000
    117      -3.0869      1.00000
    118      -3.0760      1.00000
    119      -3.0675      1.00000
    120      -3.0606      1.00000
    121      -3.0527      1.00000
    122      -3.0426      1.00000
    123      -3.0378      1.00000
    124      -3.0216      1.00000
    125      -3.0163      1.00000
    126      -3.0029      1.00000
    127      -2.9930      1.00000
    128      -2.9858      1.00000
    129      -2.9719      1.00000
    130      -2.9636      1.00000
    131      -2.9496      1.00000
    132      -2.9123      1.00000
    133      -2.8850      1.00000
    134      -2.8724      1.00000
    135      -2.8507      1.00000
    136      -2.8371      1.00000
    137      -2.8167      1.00000
    138      -2.8027      1.00000
    139      -2.7986      1.00000
    140      -2.7895      1.00000
    141      -2.7840      1.00000
    142      -2.7782      1.00000
    143      -2.7739      1.00000
    144      -2.7680      1.00000
    145      -2.7615      1.00000
    146      -2.7491      1.00000
    147      -2.7424      1.00000
    148      -2.7337      1.00000
    149      -2.7242      1.00000
    150      -2.7131      1.00000
    151      -2.7068      1.00000
    152      -2.6954      1.00000
    153      -2.6771      1.00000
    154      -2.6737      1.00000
    155      -2.6682      1.00000
    156      -2.6549      1.00000
    157      -2.6497      1.00000
    158      -2.6462      1.00000
    159      -2.6382      1.00000
    160      -2.6326      1.00000
    161      -2.6302      1.00000
    162      -2.6237      1.00000
    163      -2.6119      1.00000
    164      -2.6019      1.00000
    165      -2.6004      1.00000
    166      -2.5963      1.00000
    167      -2.5902      1.00000
    168      -2.5763      1.00000
    169      -2.5617      1.00000
    170      -2.5602      1.00000
    171      -2.5589      1.00000
    172      -2.5540      1.00000
    173      -2.5453      1.00000
    174      -2.5378      1.00000
    175      -2.5218      1.00000
    176      -2.5196      1.00000
    177      -2.5123      1.00000
    178      -2.5055      1.00000
    179      -2.4948      1.00000
    180      -2.4930      1.00000
    181      -2.4838      1.00000
    182      -2.4799      1.00000
    183      -2.4631      1.00000
    184      -2.4588      1.00000
    185      -2.4547      1.00000
    186      -2.4542      1.00000
    187      -2.4397      1.00000
    188      -2.4391      1.00000
    189      -2.4307      1.00000
    190      -2.4094      1.00000
    191      -2.3998      1.00000
    192      -2.3876      1.00000
    193      -2.3756      1.00000
    194      -2.3712      1.00000
    195      -2.3583      1.00000
    196      -2.3478      1.00000
    197      -2.3401      1.00000
    198      -2.3372      1.00000
    199      -2.3250      1.00000
    200      -2.3126      1.00000
    201      -2.2903      1.00000
    202      -2.1786      1.00000
    203      -2.1633      1.00000
    204      -2.1490      1.00000
    205      -2.1294      1.00000
    206      -2.1252      1.00000
    207      -2.1150      1.00000
    208      -2.1049      1.00000
    209      -2.0946      1.00000
    210      -2.0903      1.00000
    211      -2.0717      1.00000
    212      -2.0565      1.00000
    213      -2.0519      1.00000
    214      -2.0404      1.00000
    215      -2.0330      1.00000
    216      -2.0226      1.00000
    217      -2.0152      1.00000
    218      -2.0070      1.00000
    219      -2.0022      1.00000
    220      -1.9700      1.00000
    221      -1.9458      1.00000
    222      -1.9444      1.00000
    223      -1.9181      1.00000
    224      -1.9138      1.00000
    225      -1.9109      1.00000
    226      -1.8912      1.00000
    227      -1.8838      1.00000
    228      -1.8703      1.00000
    229      -1.8687      1.00000
    230      -1.8616      1.00000
    231      -1.8370      1.00000
    232      -1.8046      1.00000
    233      -1.7737      1.00000
    234      -1.7576      1.00000
    235      -1.7527      1.00000
    236      -1.7366      1.00000
    237      -1.7230      1.00000
    238      -1.7109      1.00000
    239      -1.7020      1.00000
    240      -1.6990      1.00000
    241      -1.6863      1.00000
    242      -1.6847      1.00000
    243      -1.6710      1.00000
    244      -1.6677      1.00000
    245      -1.6626      1.00000
    246      -1.6580      1.00000
    247      -1.6499      1.00000
    248      -1.6426      1.00000
    249      -1.6390      1.00000
    250      -1.6312      1.00000
    251      -1.6283      1.00000
    252      -1.6204      1.00000
    253      -1.6176      1.00000
    254      -1.6120      1.00000
    255      -1.6010      1.00000
    256      -1.5931      1.00000
    257      -1.5893      1.00000
    258      -1.5802      1.00000
    259      -1.5658      1.00000
    260      -1.5650      1.00000
    261      -1.5590      1.00000
    262      -1.5575      1.00000
    263      -1.5459      1.00000
    264      -1.5365      1.00000
    265      -1.5286      1.00000
    266      -1.5194      1.00000
    267      -1.5133      1.00000
    268      -1.5058      1.00000
    269      -1.4979      1.00000
    270      -1.4933      1.00000
    271      -1.4919      1.00000
    272      -1.4769      1.00000
    273      -1.4644      1.00000
    274      -1.4472      1.00000
    275      -1.4366      1.00000
    276      -1.4313      1.00000
    277      -1.4196      1.00000
    278      -1.4109      1.00000
    279      -1.4068      1.00000
    280      -1.4011      1.00000
    281      -1.3904      1.00000
    282      -1.3801      1.00000
    283      -1.3462      1.00000
    284      -1.2946      1.00000
    285      -1.2687      1.00000
    286      -1.2615      1.00000
    287      -1.2584      1.00000
    288      -1.2349      1.00000
    289      -1.2252      1.00000
    290      -1.2124      1.00000
    291      -1.1988      1.00000
    292      -1.1944      1.00000
    293      -1.1886      1.00000
    294      -1.1584      1.00000
    295      -1.1459      1.00000
    296      -1.1362      1.00000
    297      -1.1130      1.00000
    298      -1.0944      1.00000
    299      -1.0420      1.00000
    300      -1.0286      1.00000
    301      -1.0155      1.00000
    302      -0.9996      1.00000
    303      -0.9943      1.00000
    304      -0.9849      1.00000
    305      -0.9705      1.00000
    306      -0.9550      1.00000
    307      -0.9353      1.00000
    308      -0.9187      1.00000
    309      -0.9100      1.00000
    310      -0.8982      1.00000
    311      -0.8947      1.00000
    312      -0.8930      1.00000
    313      -0.8791      1.00000
    314      -0.8731      1.00000
    315      -0.8652      1.00000
    316      -0.8585      1.00000
    317      -0.8493      1.00000
    318      -0.8370      1.00000
    319      -0.8018      1.00000
    320      -0.7484      1.00000
    321      -0.7420      1.00000
    322      -0.7352      1.00000
    323      -0.7122      1.00000
    324      -0.6951      1.00000
    325      -0.6866      1.00000
    326      -0.6843      1.00000
    327      -0.6705      1.00000
    328      -0.6663      1.00000
    329      -0.6581      1.00000
    330      -0.6460      1.00000
    331      -0.6368      1.00000
    332      -0.6188      1.00000
    333      -0.6061      1.00000
    334      -0.5897      1.00000
    335      -0.5728      1.00000
    336      -0.5686      1.00000
    337      -0.4654      1.00000
    338      -0.4443      1.00000
    339      -0.4269      1.00000
    340      -0.4083      1.36306
    341      -0.3835      0.57510
    342      -0.3608      0.42920
    343      -0.2249      0.00000
    344       0.3715      0.00000
    345       0.3953      0.00000
    346       0.4096      0.00000
    347       1.0046      0.00000
    348       1.0328      0.00000
    349       1.0442      0.00000
    350       1.0619      0.00000
    351       1.0852      0.00000
    352       1.1060      0.00000
    353       1.3920      0.00000
    354       1.4198      0.00000
    355       1.4618      0.00000
    356       1.4619      0.00000
    357       1.4987      0.00000
    358       1.5037      0.00000
    359       1.5229      0.00000
    360       1.5561      0.00000
    361       1.5649      0.00000
    362       1.5658      0.00000
    363       1.5963      0.00000
    364       1.6154      0.00000
    365       1.6540      0.00000
    366       1.6902      0.00000
    367       1.7165      0.00000
    368       2.2936      0.00000
    369       2.3193      0.00000
    370       2.3555      0.00000
    371       2.3695      0.00000
    372       2.4127      0.00000
    373       2.4405      0.00000
    374       2.8328      0.00000
    375       2.8635      0.00000
    376       2.8843      0.00000
    377       2.9000      0.00000
    378       2.9121      0.00000
    379       2.9282      0.00000
    380       3.2431      0.00000
    381       3.2704      0.00000
    382       3.3059      0.00000
    383       3.3452      0.00000
    384       3.3921      0.00000
    385       3.4592      0.00000
    386       4.2687      0.00000
    387       4.3284      0.00000
    388       4.9277      0.00000
    389       4.9412      0.00000
    390       4.9630      0.00000
    391       4.9711      0.00000
    392       4.9756      0.00000
    393       5.0045      0.00000
    394       5.6793      0.00000
    395       5.9180      0.00000
    396       5.9446      0.00000
    397       5.9807      0.00000
    398       5.9941      0.00000
    399       5.9961      0.00000
    400       6.0372      0.00000
[...]
   -.367E+02 0.454E+01 0.627E+03   0.369E+02 -.474E+01 -.625E+03   0.156E+00 -.797E-01 -.740E+00   -.198E+00 -.209E+00 -.651E+00
   -.918E+02 0.114E+02 -.666E+03   0.926E+02 -.113E+02 0.665E+03   -.485E+00 0.106E+00 0.913E+00   -.289E+00 -.221E+00 0.104E+00
   0.348E+02 -.167E+02 0.640E+03   -.352E+02 0.165E+02 -.639E+03   -.224E+00 -.861E+00 -.236E+00   0.115E-01 -.259E+00 -.476E+00
   -.887E+01 -.187E+02 -.714E+03   0.880E+01 0.189E+02 0.714E+03   -.209E-01 -.802E-01 0.438E-01   0.693E-01 -.179E+00 0.207E+00
   -.211E+01 -.187E+02 0.202E+04   0.250E+01 0.188E+02 -.202E+04   -.963E+00 0.743E+00 -.245E+01   -.196E+00 -.281E+00 -.947E+00
   -.726E+02 0.322E+02 -.203E+04   0.732E+02 -.324E+02 0.202E+04   -.551E+00 0.247E+00 0.298E+01   -.873E-01 -.128E+00 0.955E+00
   0.894E+02 -.622E+02 -.678E+03   -.902E+02 0.628E+02 0.677E+03   0.595E+00 -.214E+00 0.380E+00   0.213E+00 -.369E+00 0.135E+00
   0.104E+02 -.286E+02 0.205E+04   -.108E+02 0.290E+02 -.205E+04   0.881E+00 0.138E-01 -.200E+01   0.191E-01 -.493E+00 -.968E+00
   0.385E+02 -.210E+02 -.200E+04   -.392E+02 0.208E+02 0.200E+04   0.576E+00 0.390E+00 0.241E+01   0.198E+00 -.188E+00 0.955E+00
   -.975E+01 -.514E+01 0.640E+03   0.100E+02 0.552E+01 -.639E+03   0.568E+00 0.265E+00 -.203E+00   0.912E-02 0.309E+00 -.454E+00
   0.366E+02 -.109E+02 0.634E+03   -.369E+02 0.109E+02 -.633E+03   -.232E+00 0.656E+00 -.723E+00   0.803E-01 0.115E+00 -.637E+00
   0.539E+02 -.524E+02 -.692E+03   -.539E+02 0.527E+02 0.692E+03   0.462E-01 -.417E+00 0.205E+00   0.429E-01 0.401E-01 0.424E+00
   -.948E+01 0.205E+02 0.642E+03   0.954E+01 -.207E+02 -.640E+03   -.382E+00 -.982E-02 -.693E+00   0.651E-01 0.374E+00 -.662E+00
   0.252E+02 0.400E+01 -.651E+03   -.255E+02 -.421E+01 0.650E+03   0.395E+00 0.151E+00 0.777E+00   -.369E-01 0.311E-01 0.310E+00
   0.109E+02 -.176E+02 0.200E+04   -.113E+02 0.178E+02 -.199E+04   0.848E+00 -.555E+00 -.292E+01   0.234E+00 -.902E-01 -.106E+01
   0.645E+02 -.657E+02 -.202E+04   -.649E+02 0.661E+02 0.202E+04   0.396E+00 -.490E+00 0.268E+01   -.245E-01 0.671E-01 0.105E+01
   -.227E+02 0.345E+02 0.685E+03   0.227E+02 -.348E+02 -.684E+03   0.157E+00 0.208E+00 0.371E+00   -.183E+00 0.532E+00 -.601E+00
   -.514E+02 0.703E+02 -.676E+03   0.515E+02 -.709E+02 0.675E+03   -.133E+00 0.201E+00 0.460E+00   0.189E-02 0.332E+00 0.348E+00
   -.242E+02 0.360E+02 -.711E+03   0.244E+02 -.364E+02 0.711E+03   -.195E+00 0.140E+00 0.249E+00   -.932E-02 0.254E+00 0.413E+00
   -.590E+01 0.813E+01 0.201E+04   0.653E+01 -.850E+01 -.200E+04   -.676E+00 -.118E+00 -.280E+01   -.330E+00 0.170E+00 -.122E+01
   -.489E+02 0.167E+02 -.204E+04   0.493E+02 -.167E+02 0.203E+04   -.543E+00 -.146E+00 0.312E+01   0.119E+00 0.206E+00 0.103E+01
   0.261E+02 -.130E+02 0.200E+04   -.264E+02 0.131E+02 -.200E+04   0.107E-01 -.544E+00 -.207E+01   0.164E+00 -.294E-01 -.113E+01
   0.378E+02 -.299E+02 -.203E+04   -.379E+02 0.304E+02 0.202E+04   0.328E-01 -.650E+00 0.291E+01   0.599E-01 0.131E+00 0.104E+01
   -.379E+02 0.308E+02 -.694E+03   0.381E+02 -.313E+02 0.694E+03   0.115E-01 0.251E+00 0.369E-01   -.174E+00 0.215E+00 0.381E+00
   0.769E+02 -.133E+02 -.675E+03   -.774E+02 0.134E+02 0.674E+03   0.359E+00 -.204E+00 0.543E+00   0.109E+00 0.132E+00 0.215E+00
   0.135E+02 -.773E+01 0.203E+04   -.140E+02 0.745E+01 -.202E+04   0.527E+00 0.370E+00 -.241E+01   0.141E+00 0.316E+00 -.110E+01
   0.274E+02 -.152E+02 -.201E+04   -.280E+02 0.151E+02 0.200E+04   0.589E+00 0.593E-01 0.259E+01   -.195E-01 0.381E-01 0.945E+00
   -.183E+02 0.153E+02 0.200E+04   0.186E+02 -.157E+02 -.200E+04   -.494E+00 0.228E-01 -.277E+01   -.618E-01 0.376E+00 -.103E+01
   -.466E+02 0.291E+02 -.205E+04   0.470E+02 -.297E+02 0.205E+04   -.394E+00 0.259E+00 0.256E+01   0.213E-01 0.375E+00 0.834E+00
   -.831E+00 0.494E+01 0.200E+04   0.936E+00 -.541E+01 -.200E+04   -.205E+00 0.548E+00 -.238E+01   -.217E+00 0.491E+00 -.110E+01
   -.492E+02 0.475E+02 -.201E+04   0.496E+02 -.482E+02 0.201E+04   -.382E+00 0.490E+00 0.200E+01   -.166E-01 0.211E+00 0.852E+00
   0.144E+02 0.334E+02 0.836E+03   -.143E+02 -.339E+02 -.834E+03   0.498E-01 0.294E+00 -.469E+00   -.166E-01 0.302E+00 -.906E+00
   -.311E+02 0.752E+00 0.834E+03   0.311E+02 -.382E+00 -.833E+03   -.312E+00 0.112E+00 -.701E+00   0.199E-01 -.382E+00 -.544E+00
   0.214E+02 -.433E+02 0.826E+03   -.214E+02 0.439E+02 -.824E+03   0.270E+00 -.234E+00 -.420E+00   0.440E-01 -.397E+00 -.883E+00
   0.575E+02 -.349E+02 0.840E+03   -.579E+02 0.356E+02 -.839E+03   0.895E-01 0.174E+00 -.656E+00   0.282E+00 -.598E+00 -.651E+00
   -.254E+02 0.656E+02 0.254E+04   0.257E+02 -.660E+02 -.253E+04   0.109E+00 0.859E+00 -.129E+01   -.168E+00 0.192E-01 -.103E+01
   -.232E+02 0.635E+02 -.254E+04   0.233E+02 -.638E+02 0.253E+04   -.786E-02 0.368E+00 0.959E+00   -.163E+00 -.863E-01 0.831E+00
   0.803E+01 -.793E+02 -.755E+03   -.810E+01 0.801E+02 0.755E+03   0.626E-01 -.254E+00 0.346E+00   0.113E-01 -.510E+00 0.104E+00
   -.443E+02 -.118E+02 0.252E+04   0.448E+02 0.121E+02 -.252E+04   -.621E+00 -.662E-01 -.169E+01   -.494E-01 -.300E+00 -.107E+01
   -.655E+02 0.120E+02 -.251E+04   0.661E+02 -.119E+02 0.251E+04   -.353E+00 0.131E+00 0.711E+00   -.257E+00 -.243E+00 0.100E+01
   0.373E+02 -.397E+02 0.255E+04   -.379E+02 0.405E+02 -.255E+04   0.572E+00 -.346E+00 -.836E+00   0.289E+00 -.546E+00 -.114E+01
   0.101E+03 -.445E+02 -.249E+04   -.102E+03 0.449E+02 0.249E+04   0.473E+00 -.559E-01 0.368E+00   0.135E+00 -.337E+00 0.970E+00
   -.406E+02 0.581E+01 0.250E+04   0.410E+02 -.581E+01 -.250E+04   -.435E+00 -.118E+00 -.158E+01   -.983E-01 -.198E-01 -.145E+01
   -.612E+02 0.295E+01 -.253E+04   0.617E+02 -.302E+01 0.253E+04   -.303E+00 -.122E+00 0.137E+01   -.194E+00 0.206E+00 0.131E+01
   0.431E+02 0.475E+01 -.831E+03   -.434E+02 -.528E+01 0.830E+03   0.331E-01 -.626E-01 0.690E+00   0.300E+00 0.594E+00 0.235E+00
   0.108E+02 -.156E+02 0.250E+04   -.112E+02 0.156E+02 -.250E+04   0.348E+00 -.532E+00 -.110E+01   0.211E+00 0.337E+00 -.136E+01
   0.748E+02 -.415E+02 -.252E+04   -.751E+02 0.416E+02 0.252E+04   0.245E+00 -.233E+00 0.523E+00   -.652E-02 0.131E+00 0.125E+01
   -.819E+02 0.792E+02 -.795E+03   0.824E+02 -.802E+02 0.794E+03   -.292E+00 0.374E+00 0.557E+00   -.228E+00 0.629E+00 0.246E+00
 -----------------------------------------------------------------------------------------------
   0.536E+00 0.383E+00 0.103E+02   -.284E-13 0.426E-13 0.284E-11   -.585E+00 -.256E+00 -.186E+01   0.501E-01 -.133E+00 -.842E+01
 
 
 POSITION                                       TOTAL-FORCE (eV/Angst)
 -----------------------------------------------------------------------------------
     -5.03208      8.74992      4.15716        -0.315740      0.321589     -0.186310
      0.00574      8.72607      4.14261        -0.350018      0.490991     -0.152788
      2.47665      8.72592      4.10615         0.586532      0.409268      0.388741
      1.23891      2.21748      4.15676         0.328616     -0.241055     -0.352879
     -0.01162      1.46895      6.25341         0.040410      0.017402      0.022292
      2.54446      1.46552      6.19984        -0.002788     -0.005007      0.008814
      1.28611      0.70882      2.01970        -0.103872      0.141298      0.212456
      1.25149      0.72099      8.36895         0.002356     -0.004327     -0.014993
      5.12246      1.48747      6.18514        -0.008053     -0.003493      0.029420
      3.82589      0.76557      2.01626        -0.181497     -0.237682      0.227324
      3.76355      0.75674      8.30460        -0.026065      0.041406     -0.018084
      7.62180      1.45688      6.17974         0.002727     -0.008176      0.032103
      6.32723      0.72925      2.06016         0.040339      0.097041     -0.071009
      6.30377      0.77702      8.31725        -0.041005      0.033947     -0.045137
     -2.55062      4.47399      4.10791         0.418470     -1.596109      0.377965
      0.03014      4.42905      4.16816        -0.281789     -0.647219     -0.218117
      2.50847      4.40516      4.17229         0.221593     -0.480988     -0.221439
      1.24810      3.67331      6.30652         0.027029      0.018865      0.006302
      5.08382      4.44890      4.14610        -0.579535     -1.377108      0.221853
      3.78941      3.64333      6.26686        -0.015393     -0.018267      0.025100
      2.59838      2.86105      2.03126        -0.767291      0.589399      0.126478
      2.48604      2.92538      8.41010        -0.023132     -0.000879     -0.061381
      6.35186      3.67861      6.22879         0.008649      0.010099     -0.028667
      5.00304      2.93728      2.00000         0.559364     -0.067667      0.316701
      5.02646      2.90798      8.33786         0.002851     -0.008668     -0.030955
      6.25194      6.54167      4.13342         0.844429      0.954059      0.588270
     -1.23133      6.52951      4.16156        -0.420126      0.745815     -0.138539
     -2.48935      5.84084      6.26533         0.027405     -0.021011     -0.014967
      1.28426      6.55944      4.17203        -0.259020      0.147019     -0.188186
      0.06385      5.87738      6.28803         0.026186     -0.030180     -0.001973
     -1.31907      5.15820      2.10199         0.766084     -0.467889     -0.366091
     -1.22095      5.04428      8.28847        -0.000930     -0.026495     -0.014866
      3.77628      6.55571      4.09794        -0.021172      0.462448      0.837246
      2.57658      5.87168      6.28664         0.021330     -0.011534     -0.011783
      5.05129      5.86783      6.28063         0.034057     -0.001658      0.019435
      3.83733      5.12538      2.04986        -0.370900     -0.316187     -0.420685
      3.79040      5.12402      8.42855        -0.035254      0.009415     -0.004678
      6.32391      5.14322      2.08697        -0.159914     -0.440996     -0.786121
      6.33345      5.11510      8.39687        -0.016364     -0.025359     -0.041417
     -3.77120      8.04592      6.22699        -0.004935      0.018270      0.028225
     -1.19667      8.03185      6.22374        -0.004206      0.031035     -0.000155
     -2.55850      7.28170      2.01510         0.195773      0.401454      0.107079
     -2.55968      7.26492      8.34848        -0.050422      0.033283     -0.048029
      2.56196      7.27552      2.12154        -0.327698      0.022884     -0.359294
      2.46152      7.32798      8.28809        -0.022054      0.023542     -0.011050
      5.10630      7.24251      2.09022        -0.316800      0.575993     -0.687700
      5.01121      7.32499      8.31012        -0.036083      0.020240      0.001363
     -2.52690      8.74056      4.13098         0.165561      0.093406     -0.255214
     -1.24953      2.18697      4.15198        -0.303987      0.099948     -0.453125
      3.77687      2.20348      4.12618         0.324180     -0.097604      0.049356
      6.31052      2.19548      4.13380         0.057666      0.295225     -0.328372
      8.84357      0.69437      2.06440         0.188353      0.387599      0.459999
      8.81258      0.74896      8.25522        -0.021588      0.010541     -0.011716
     -1.25981      3.65482      6.17955         0.003725      0.021598      0.004095
      0.03628      2.92806      2.06598        -0.199143     -0.061466      0.467736
     -0.00944      2.88524      8.25581        -0.009953      0.007239     -0.011989
      7.55782      2.94639      2.05577         0.225012     -0.066299      0.555861
      7.57813      2.92626      8.21245         0.002772      0.021154     -0.038655
      1.28295      5.12031      2.07268        -0.092458     -0.134350      0.287875
      1.26238      5.10429      8.33089         0.011233      0.007225     -0.017751
      1.29696      8.06410      6.26334         0.032051      0.001762      0.000621
     -0.02502      7.30581      2.07778         0.213322     -0.164631      0.233760
     -0.02090      7.29875      8.27076        -0.015399     -0.002928     -0.042116
      3.77536      8.05475      6.21732         0.006508      0.002773      0.019762
 -----------------------------------------------------------------------------------
    total drift:                                0.001927     -0.005113      0.051538


--------------------------------------------------------------------------------------------------------



  FREE ENERGIE OF THE ION-ELECTRON SYSTEM (eV)
  ---------------------------------------------------
  free  energy   TOTEN  =      -453.31795490 eV

  energy  without entropy=     -453.31795490  energy(sigma->0) =     -453.31795490
 


--------------------------------------------------------------------------------------------------------


    POTLOK:  cpu time    0.2640: real time    0.2633


--------------------------------------------------------------------------------------------------------


     LOOP+:  cpu time 1087.7616: real time 1092.1440
    4ORBIT:  cpu time    0.0000: real time    0.0000
 


 total charge     
 
# of ion       s       p       d       tot
------------------------------------------
    1        0.468   0.491   6.201   7.160
    2        0.471   0.497   6.208   7.177
    3        0.476   0.501   6.217   7.195
    4        0.466   0.487   6.200   7.153
    5        0.476   0.505   6.205   7.186
    6        0.469   0.494   6.208   7.170
    7        0.469   0.375   6.154   6.998
    8        0.471   0.383   6.164   7.018
    9        0.475   0.504   6.214   7.193
   10        0.473   0.397   6.172   7.042
   11        0.473   0.394   6.185   7.051
   12        0.474   0.499   6.200   7.172
   13        0.472   0.381   6.147   7.000
   14        0.469   0.380   6.163   7.012
   15        0.485   0.513   6.229   7.227
   16        0.476   0.500   6.216   7.192
   17        0.474   0.499   6.215   7.188
   18        0.475   0.504   6.213   7.192
   19        0.482   0.514   6.228   7.225
   20        0.470   0.497   6.211   7.179
   21        0.475   0.393   6.171   7.039
   22        0.469   0.384   6.167   7.019
   23        0.474   0.497   6.214   7.185
   24        0.472   0.393   6.170   7.035
   25        0.475   0.394   6.183   7.052
   26        0.494   0.539   6.249   7.283
   27        0.484   0.519   6.234   7.237
   28        0.476   0.509   6.218   7.203
   29        0.485   0.516   6.245   7.246
   30        0.479   0.508   6.240   7.226
   31        0.480   0.395   6.172   7.047
   32        0.466   0.388   6.145   6.999
   33        0.492   0.537   6.257   7.286
   34        0.475   0.503   6.230   7.208
   35        0.474   0.506   6.215   7.195
   36        0.485   0.409   6.196   7.090
   37        0.469   0.380   6.160   7.009
   38        0.499   0.444   6.222   7.165
   39        0.469   0.382   6.170   7.021
   40        0.471   0.500   6.213   7.185
   41        0.475   0.499   6.218   7.191
   42        0.477   0.401   6.171   7.049
   43        0.470   0.388   6.163   7.021
   44        0.478   0.403   6.193   7.075
   45        0.469   0.392   6.164   7.025
   46        0.494   0.431   6.219   7.143
   47        0.472   0.399   6.171   7.042
   48        0.500   0.501   8.305   9.307
   49        0.491   0.473   8.311   9.275
   50        0.500   0.501   8.307   9.307
   51        0.499   0.491   8.309   9.299
   52        0.494   0.363   8.305   9.161
   53        0.509   0.400   8.316   9.225
   54        0.510   0.510   8.334   9.354
   55        0.483   0.344   8.306   9.133
   56        0.513   0.401   8.327   9.241
   57        0.488   0.355   8.309   9.152
   58        0.511   0.406   8.322   9.239
   59        0.493   0.365   8.323   9.181
   60        0.513   0.398   8.323   9.234
   61        0.519   0.534   8.324   9.377
   62        0.505   0.387   8.318   9.210
   63        0.512   0.400   8.318   9.231
   64        0.511   0.519   8.319   9.349
--------------------------------------------------
tot         30.912  28.673 432.696 492.281
 


 magnetization (x)
 
# of ion       s       p       d       tot
------------------------------------------
    1       -0.010  -0.035   2.652   2.607
    2       -0.009  -0.037   2.632   2.586
    3       -0.011  -0.033   2.605   2.561
    4       -0.011  -0.038   2.628   2.580
    5       -0.009  -0.032   2.634   2.593
    6       -0.015  -0.048   2.629   2.567
    7       -0.002  -0.006   2.780   2.772
    8       -0.005  -0.017   2.754   2.732
    9       -0.015  -0.047   2.597   2.535
   10       -0.001  -0.023   2.723   2.699
   11       -0.008  -0.024   2.700   2.668
   12       -0.004  -0.022   2.649   2.623
   13        0.000  -0.007   2.788   2.782
   14        0.002  -0.008   2.759   2.753
   15       -0.014  -0.037   2.598   2.548
   16       -0.011  -0.033   2.600   2.557
   17       -0.013  -0.040   2.630   2.577
   18       -0.013  -0.039   2.600   2.548
   19       -0.017  -0.047   2.608   2.544
   20       -0.019  -0.053   2.608   2.536
   21       -0.000  -0.017   2.742   2.725
   22       -0.002  -0.018   2.762   2.742
   23       -0.014  -0.036   2.612   2.562
   24       -0.000  -0.020   2.744   2.724
   25       -0.007  -0.022   2.701   2.671
   26       -0.019  -0.055   2.557   2.482
   27       -0.018  -0.051   2.562   2.494
   28       -0.019  -0.055   2.582   2.509
   29       -0.014  -0.037   2.542   2.491
   30       -0.012  -0.034   2.551   2.505
   31       -0.002  -0.009   2.758   2.748
   32        0.004  -0.012   2.813   2.804
   33       -0.020  -0.056   2.501   2.425
   34       -0.014  -0.040   2.572   2.518
   35       -0.016  -0.052   2.613   2.545
   36       -0.008  -0.018   2.692   2.666
   37       -0.006  -0.020   2.767   2.741
   38       -0.009  -0.028   2.652   2.614
   39       -0.005  -0.019   2.758   2.734
   40       -0.016  -0.051   2.611   2.544
   41       -0.014  -0.040   2.587   2.533
   42       -0.002  -0.018   2.746   2.726
   43       -0.006  -0.025   2.762   2.732
   44       -0.002  -0.014   2.681   2.665
   45        0.005  -0.011   2.767   2.760
   46       -0.010  -0.025   2.635   2.601
   47       -0.006  -0.027   2.728   2.696
   48       -0.034  -0.072   0.767   0.660
   49       -0.025  -0.042   0.726   0.659
   50       -0.033  -0.069   0.760   0.658
   51       -0.032  -0.058   0.747   0.658
   52       -0.027  -0.026   0.735   0.682
   53       -0.027  -0.035   0.713   0.651
   54       -0.031  -0.054   0.692   0.607
   55       -0.024  -0.020   0.719   0.675
   56       -0.028  -0.031   0.698   0.640
   57       -0.026  -0.026   0.706   0.653
   58       -0.030  -0.037   0.711   0.644
   59       -0.028  -0.026   0.699   0.646
   60       -0.030  -0.034   0.712   0.648
   61       -0.034  -0.069   0.731   0.629
   62       -0.032  -0.033   0.718   0.653
   63       -0.033  -0.036   0.731   0.662
   64       -0.032  -0.064   0.741   0.645
--------------------------------------------------
tot         -0.921  -2.168 137.481 134.393
 
 BZINTS: Fermi energy: -0.259536;546.000000 electrons
         Band energy:***********;  BLOECHL correction: -0.145077

 total amount of memory used by VASP MPI-rank0   255421. kBytes
=======================================================================

   base      :      30000. kBytes
   nonlr-proj:      13158. kBytes
   fftplans  :       6403. kBytes
   grid      :      16455. kBytes
   one-center:         93. kBytes
   wavefun   :     189312. kBytes
 
  
  
 General timing and accounting informations for this job:
 ========================================================
  
                  Total CPU time used (sec):     1199.950
                            User time (sec):     1183.465
                          System time (sec):       16.484
                         Elapsed time (sec):     1213.477
  
                   Maximum memory used (kb):      354692.
                   Average memory used (kb):           0.
  
                          Minor page faults:        26948
                          Major page faults:            0
                 Voluntary context switches:         7672
