       N       E                     dE             d eps       ncg     rms          rms(c)
DAV:   1    -0.428799934676E+03   -0.42880E+03   -0.22213E+03 33396   0.684E+01
RMM:   2    -0.443854001595E+03   -0.15054E+02   -0.15040E+02 32978   0.318E+01
RMM:   3    -0.444420001585E+03   -0.56600E+00   -0.91547E+00 37976   0.474E+00
RMM:   4    -0.444429101060E+03   -0.90995E-02   -0.66926E-01 41476   0.191E+00
RMM:   5    -0.444439709198E+03   -0.10608E-01   -0.12462E-01 46305   0.365E-01
RMM:   6    -0.444439424061E+03    0.28514E-03   -0.88501E-03 50919   0.128E-01
RMM:   7    -0.444439517251E+03   -0.93190E-04   -0.18898E-03 46918   0.419E-02
RMM:   8    -0.444439521762E+03   -0.45109E-05   -0.31319E-04 43924   0.120E-02
RMM:   9    -0.444439523193E+03   -0.14313E-05   -0.91554E-05 27164   0.477E-03
RMM:  10    -0.444439523536E+03   -0.34223E-06   -0.30210E-05 21108   0.284E-03
RMM:  11    -0.444439523473E+03    0.62631E-07   -0.87168E-06 19580   0.189E-03
   1 F= -.45997301E+03 E0= -.45997301E+03  d E =0.000000E+00  mag=   101.5087
