 vasp.5.4.4.18Apr17-6-g9f103f2a35 (build Dec 15 2018 21:27:11) complex          
  
 executed on             LinuxIFC date 2022.02.12  16:02:30
 running on   48 total cores
 distrk:  each k-point on   48 cores,    1 groups
 distr:  one band on NCORES_PER_BAND=  24 cores,    2 groups


--------------------------------------------------------------------------------------------------------


 INCAR:
 POTCAR:    PAW_PBE Ni 02Aug2007                  
 POTCAR:    PAW_PBE Fe 06Sep2000                  
 POTCAR:    PAW_PBE O 08Apr2002                   

 ----------------------------------------------------------------------------- 
|                                                                             |
|           W    W    AA    RRRRR   N    N  II  N    N   GGGG   !!!           |
|           W    W   A  A   R    R  NN   N  II  NN   N  G    G  !!!           |
|           W    W  A    A  R    R  N N  N  II  N N  N  G       !!!           |
|           W WW W  AAAAAA  RRRRR   N  N N  II  N  N N  G  GGG   !            |
|           WW  WW  A    A  R   R   N   NN  II  N   NN  G    G                |
|           W    W  A    A  R    R  N    N  II  N    N   GGGG   !!!           |
|                                                                             |
|      For optimal performance we recommend to set                            |
|        NCORE= 4 - approx SQRT( number of cores)                             |
|      NCORE specifies how many cores store one orbital (NPAR=cpu/NCORE).     |
|      This setting can  greatly improve the performance of VASP for DFT.     |
|      The default,   NCORE=1            might be grossly inefficient         |
|      on modern multi-core architectures or massively parallel machines.     |
|      Do your own testing !!!!                                               |
|      Unfortunately you need to use the default for GW and RPA calculations. |
|      (for HF NCORE is supported but not extensively tested yet)             |
|                                                                             |
 ----------------------------------------------------------------------------- 

 POTCAR:    PAW_PBE Ni 02Aug2007                  
   VRHFIN =Ni:                                                                  
   LEXCH  = PE                                                                  
   EATOM  =  1077.6739 eV,   79.2068 Ry                                         
                                                                                
   TITEL  = PAW_PBE Ni 02Aug2007                                                
   LULTRA =        F    use ultrasoft PP ?                                      
   IUNSCR =        1    unscreen: 0-lin 1-nonlin 2-no                           
   RPACOR =    2.000    partial core radius                                     
   POMASS =   58.690; ZVAL   =   10.000    mass and valenz                      
   RCORE  =    2.300    outmost cutoff radius                                   
   RWIGS  =    2.430; RWIGS  =    1.286    wigner-seitz radius (au A)           
   ENMAX  =  269.532; ENMIN  =  202.149 eV                                      
   RCLOC  =    1.201    cutoff for local pot                                    
   LCOR   =        T    correct aug charges                                     
   LPAW   =        T    paw PP                                                  
   EAUG   =  544.565                                                            
   DEXC   =    0.000                                                            
   RMAX   =    2.357    core radius for proj-oper                               
   RAUG   =    1.300    factor for augmentation sphere                          
   RDEP   =    2.390    radius for radial grids                                 
   RDEPT  =    1.838    core radius for aug-charge                              
                                                                                
   Atomic configuration                                                         
    9 entries                                                                   
     n  l   j            E        occ.                                          
     1  0  0.50     -8206.4253   2.0000                                         
     2  0  0.50      -976.1748   2.0000                                         
     2  1  1.50      -839.0571   6.0000                                         
     3  0  0.50      -105.9991   2.0000                                         
     3  1  1.50       -66.4603   6.0000                                         
     3  2  2.50        -4.6458   9.0000                                         
     4  0  0.50        -4.4926   1.0000                                         
     4  1  1.50        -4.0817   0.0000                                         
     4  3  2.50        -1.3606   0.0000                                         
   Description                                                                  
     l       E           TYP  RCUT    TYP  RCUT                                 
     2     -4.6457903     23  2.300                                             
     2     -6.0063729     23  2.300                                             
     0     -4.4925590     23  2.300                                             
     0      5.0102601     23  2.300                                             
     1     -2.7211652     23  2.300                                             
     1     16.5183231     23  2.300                                             
  local pseudopotential read in
  partial core-charges read in
  partial kinetic energy density read in
  atomic valenz-charges read in
  non local Contribution for L=           2  read in
    real space projection operators read in
  non local Contribution for L=           2  read in
    real space projection operators read in
  non local Contribution for L=           0  read in
    real space projection operators read in
  non local Contribution for L=           0  read in
    real space projection operators read in
  non local Contribution for L=           1  read in
    real space projection operators read in
  non local Contribution for L=           1  read in
    real space projection operators read in
    PAW grid and wavefunctions read in
 
   number of l-projection  operators is LMAX  =           6
   number of lm-projection operators is LMMAX =          18
 
 POTCAR:    PAW_PBE Fe 06Sep2000                  
   VRHFIN =Fe:  d7 s1                                                           
   LEXCH  = PE                                                                  
   EATOM  =   594.3153 eV,   43.6809 Ry                                         
                                                                                
   TITEL  = PAW_PBE Fe 06Sep2000                                                
   LULTRA =        F    use ultrasoft PP ?                                      
   IUNSCR =        1    unscreen: 0-lin 1-nonlin 2-no                           
   RPACOR =    2.000    partial core radius                                     
   POMASS =   55.847; ZVAL   =    8.000    mass and valenz                      
   RCORE  =    2.300    outmost cutoff radius                                   
   RWIGS  =    2.460; RWIGS  =    1.302    wigner-seitz radius (au A)           
   ENMAX  =  267.882; ENMIN  =  200.911 eV                                      
   RCLOC  =    1.701    cutoff for local pot                                    
   LCOR   =        T    correct aug charges                                     
   LPAW   =        T    paw PP                                                  
   EAUG   =  511.368                                                            
   DEXC   =    0.000                                                            
   RMAX   =    2.356    core radius for proj-oper                               
   RAUG   =    1.300    factor for augmentation sphere                          
   RDEP   =    2.442    radius for radial grids                                 
   RDEPT  =    1.890    core radius for aug-charge                              
                                                                                
   Atomic configuration                                                         
    9 entries                                                                   
     n  l   j            E        occ.                                          
     1  0  0.50     -6993.8440   2.0000                                         
     2  0  0.50      -814.6047   2.0000                                         
     2  1  1.50      -693.3689   6.0000                                         
     3  0  0.50       -89.4732   2.0000                                         
     3  1  1.50       -55.6373   6.0000                                         
     3  2  2.50        -3.8151   7.0000                                         
     4  0  0.50        -4.2551   1.0000                                         
     4  1  1.50        -3.4015   0.0000                                         
     4  3  2.50        -1.3606   0.0000                                         
   Description                                                                  
     l       E           TYP  RCUT    TYP  RCUT                                 
     2     -3.8151135     23  2.300                                             
     2     -5.1756961     23  2.300                                             
     0     -4.2550963     23  2.300                                             
     0      7.2035603     23  2.300                                             
     1     -2.7211652     23  2.300                                             
     1     18.4316424     23  2.300                                             
  local pseudopotential read in
  partial core-charges read in
  partial kinetic energy density read in
  atomic valenz-charges read in
  non local Contribution for L=           2  read in
    real space projection operators read in
  non local Contribution for L=           2  read in
    real space projection operators read in
  non local Contribution for L=           0  read in
    real space projection operators read in
  non local Contribution for L=           0  read in
    real space projection operators read in
  non local Contribution for L=           1  read in
    real space projection operators read in
  non local Contribution for L=           1  read in
    real space projection operators read in
    PAW grid and wavefunctions read in
 
   number of l-projection  operators is LMAX  =           6
   number of lm-projection operators is LMMAX =          18
 
 POTCAR:    PAW_PBE O 08Apr2002                   
   VRHFIN =O: s2p4                                                              
   LEXCH  = PE                                                                  
   EATOM  =   432.3788 eV,   31.7789 Ry                                         
                                                                                
   TITEL  = PAW_PBE O 08Apr2002                                                 
   LULTRA =        F    use ultrasoft PP ?                                      
   IUNSCR =        1    unscreen: 0-lin 1-nonlin 2-no                           
   RPACOR =    1.200    partial core radius                                     
   POMASS =   16.000; ZVAL   =    6.000    mass and valenz                      
   RCORE  =    1.520    outmost cutoff radius                                   
   RWIGS  =    1.550; RWIGS  =    0.820    wigner-seitz radius (au A)           
   ENMAX  =  400.000; ENMIN  =  300.000 eV                                      
   ICORE  =        2    local potential                                         
   LCOR   =        T    correct aug charges                                     
   LPAW   =        T    paw PP                                                  
   EAUG   =  605.392                                                            
   DEXC   =    0.000                                                            
   RMAX   =    1.553    core radius for proj-oper                               
   RAUG   =    1.300    factor for augmentation sphere                          
   RDEP   =    1.550    radius for radial grids                                 
   RDEPT  =    1.329    core radius for aug-charge                              
                                                                                
   Atomic configuration                                                         
    4 entries                                                                   
     n  l   j            E        occ.                                          
     1  0  0.50      -514.6923   2.0000                                         
     2  0  0.50       -23.9615   2.0000                                         
     2  1  0.50        -9.0305   4.0000                                         
     3  2  1.50        -9.5241   0.0000                                         
   Description                                                                  
     l       E           TYP  RCUT    TYP  RCUT                                 
     0    -23.9615318     23  1.200                                             
     0     -9.5240782     23  1.200                                             
     1     -9.0304911     23  1.520                                             
     1      8.1634956     23  1.520                                             
     2     -9.5240782      7  1.500                                             
  local pseudopotential read in
  partial core-charges read in
  partial kinetic energy density read in
  kinetic energy density of atom read in
  atomic valenz-charges read in
  non local Contribution for L=           0  read in
    real space projection operators read in
  non local Contribution for L=           0  read in
    real space projection operators read in
  non local Contribution for L=           1  read in
    real space projection operators read in
  non local Contribution for L=           1  read in
    real space projection operators read in
    PAW grid and wavefunctions read in
 
   number of l-projection  operators is LMAX  =           4
   number of lm-projection operators is LMMAX =           8
 
 Optimization of the real space projectors (new method)

 maximal supplied QI-value         = 16.25
 optimisation between [QCUT,QGAM] = [ 11.54, 23.24] = [ 37.28,151.24] Ry 
 Optimized for a Real-space Cutoff    1.45 Angstroem

   l    n(q)    QCUT    max X(q) W(low)/X(q) W(high)/X(q)  e(spline) 
   2      9    11.539    60.317    0.19E-03    0.47E-04    0.16E-06
   2      9    11.539    55.921    0.19E-03    0.48E-04    0.16E-06
   0     10    11.539    51.690    0.80E-04    0.50E-04    0.24E-06
   0     10    11.539    30.015    0.73E-04    0.45E-04    0.22E-06
   1     10    11.539    18.849    0.87E-04    0.16E-03    0.71E-07
   1     10    11.539    14.624    0.73E-04    0.13E-03    0.64E-07
 Optimization of the real space projectors (new method)

 maximal supplied QI-value         = 16.25
 optimisation between [QCUT,QGAM] = [ 11.54, 23.24] = [ 37.28,151.24] Ry 
 Optimized for a Real-space Cutoff    1.53 Angstroem

   l    n(q)    QCUT    max X(q) W(low)/X(q) W(high)/X(q)  e(spline) 
   2     10    11.539    80.901    0.11E-03    0.14E-03    0.21E-06
   2     10    11.539    75.754    0.11E-03    0.14E-03    0.22E-06
   0     11    11.539    58.752    0.52E-04    0.18E-04    0.33E-06
   0     11    11.539    30.679    0.44E-04    0.16E-04    0.30E-06
   1     10    11.539    17.977    0.53E-04    0.29E-04    0.13E-06
   1     10    11.539    13.559    0.44E-04    0.25E-04    0.11E-06
 Optimization of the real space projectors (new method)

 maximal supplied QI-value         = 24.76
 optimisation between [QCUT,QGAM] = [ 11.64, 23.27] = [ 37.91,151.63] Ry 
 Optimized for a Real-space Cutoff    1.14 Angstroem

   l    n(q)    QCUT    max X(q) W(low)/X(q) W(high)/X(q)  e(spline) 
   0      8    11.635    20.381    0.10E-03    0.33E-03    0.24E-06
   0      8    11.635    15.268    0.11E-03    0.35E-03    0.26E-06
   1      7    11.635     5.964    0.24E-03    0.31E-03    0.30E-06
   1      7    11.635     5.382    0.22E-03    0.25E-03    0.26E-06
  PAW_PBE Ni 02Aug2007                  :
 energy of atom  1       EATOM=-1077.6739
 kinetic energy error for atom=    0.0030 (will be added to EATOM!!)
  PAW_PBE Fe 06Sep2000                  :
 energy of atom  2       EATOM= -594.3153
 kinetic energy error for atom=    0.0026 (will be added to EATOM!!)
  PAW_PBE O 08Apr2002                   :
 energy of atom  3       EATOM= -432.3788
 kinetic energy error for atom=    0.0208 (will be added to EATOM!!)
 
 
 POSCAR: POSCAR                                  
  positions in direct lattice
  velocities in cartesian coordinates
 exchange correlation table for  LEXCH =        8
   RHO(1)=    0.500       N(1)  =     2000
   RHO(2)=  100.500       N(2)  =     4000

 VTST: version 3.2, (02/03/18)

 CHAIN: initializing optimizer
 
 OPT: Using VASP Dynamics algorithm
 CHAIN: Read ICHAIN            0
 
 POSCAR: POSCAR                                  
  positions in direct lattice
  velocities in cartesian coordinates
 


--------------------------------------------------------------------------------------------------------


 ion  position               nearest neighbor table
   1  0.999  0.001  0.191-  35 2.46  23 2.50  32 2.50  59 2.51   5 2.52  40 2.52  37 2.52  62 2.52
                             2 2.53   4 2.53  21 2.54  34 2.54
   2  0.248  0.999  0.192-  59 2.46  50 2.47  36 2.48   6 2.49  37 2.50   3 2.51  28 2.52   5 2.52
                            21 2.53   1 2.53  60 2.54   8 2.56
   3  0.499  0.002  0.192-  39 2.47  36 2.49  30 2.50  60 2.51  34 2.51   2 2.51   8 2.52  11 2.52
                             7 2.53  61 2.54  50 2.54  51 2.54
   4  0.998  0.251  0.192-  35 2.46  42 2.49  19 2.50  34 2.50  43 2.50  13 2.50   7 2.53   1 2.53
                            40 2.53  10 2.54   5 2.55  46 2.55
   5  0.249  0.249  0.191-  35 2.46  36 2.48  45 2.50  37 2.50  46 2.50   1 2.52  42 2.52   2 2.52
                             6 2.53  16 2.54   4 2.55  44 2.55
   6  0.334  0.164  0.288-  36 2.47  38 2.47   9 2.48  17 2.49   2 2.49  15 2.53   5 2.53  45 2.53
                            59 2.54  60 2.55  35 2.55  39 2.55
   7  0.749  0.253  0.193-  39 2.43  18 2.46  14 2.49  48 2.49  13 2.51  34 2.51   4 2.53   3 2.53
                            11 2.54  10 2.54  36 2.55  19 2.55
   8  0.418  0.084  0.094-  37 2.49  36 2.51  16 2.51   3 2.52  11 2.52  30 2.53  28 2.53  48 2.56
                             2 2.56
   9  0.416  0.084  0.383-  68 1.86  38 2.45   6 2.48  17 2.50  60 2.52  12 2.53  29 2.53  31 2.54
                            49 2.54  39 2.55
  10  0.834  0.168  0.290-  41 2.45  20 2.47  39 2.49  12 2.49  43 2.49  18 2.51  34 2.51  35 2.52
                             4 2.54   7 2.54  61 2.55  62 2.56
  11  0.668  0.085  0.096-  34 2.51  40 2.51  48 2.51   8 2.52   3 2.52  19 2.53  30 2.54  63 2.54
                             7 2.54
  12  0.667  0.086  0.385-  68 1.85  41 2.45  20 2.47  10 2.49  39 2.52   9 2.53  61 2.53  49 2.55
                            31 2.56  64 2.56
  13  0.999  0.499  0.193-  43 2.44  22 2.46  53 2.50   4 2.50  42 2.51  18 2.51   7 2.51  19 2.52
                            50 2.52  21 2.53  14 2.53  26 2.55
  14  0.748  0.499  0.192-  56 2.47  15 2.48  44 2.48   7 2.49  48 2.49  18 2.50  57 2.52  26 2.52
                            21 2.52  23 2.53  13 2.53  36 2.57
  15  0.583  0.415  0.287-  49 2.44  56 2.47  14 2.48  18 2.49  44 2.49  45 2.50  36 2.50  17 2.52
                             6 2.53  39 2.53  55 2.55  58 2.62
  16  0.420  0.333  0.094-  36 2.51   8 2.51  37 2.52  57 2.52  44 2.52  46 2.53  24 2.54  48 2.54
                             5 2.54
  17  0.413  0.330  0.382-  66 1.88  38 2.44  45 2.48   6 2.49   9 2.50  15 2.52  49 2.52  25 2.53
                            47 2.55  58 2.59
  18  0.829  0.414  0.288-  49 2.43   7 2.46  56 2.47  39 2.47  43 2.48  15 2.49  14 2.50  13 2.51
                            10 2.51  20 2.52  22 2.53  27 2.56
  19  0.919  0.335  0.096-  48 2.49   4 2.50  40 2.51  53 2.51  13 2.52  11 2.53  26 2.54  46 2.54
                             7 2.55
  20  0.911  0.331  0.385-  67 1.86  10 2.47  12 2.47  41 2.48  49 2.52  47 2.52  18 2.52  43 2.54
                            27 2.59  54 2.62
  21  0.998  0.749  0.193-  59 2.44  50 2.48  23 2.48  22 2.49  32 2.50  56 2.51  26 2.52  14 2.52
                             2 2.53  13 2.53   1 2.54  28 2.55
  22  0.080  0.663  0.287-  29 2.45  43 2.46  50 2.46  13 2.46  21 2.49  54 2.50  59 2.51  56 2.52
                            18 2.53  60 2.53  52 2.56  27 2.56
  23  0.753  0.752  0.192-  21 2.48  62 2.48  63 2.49   1 2.50  32 2.51  57 2.52  56 2.53  14 2.53
                            44 2.54  55 2.56  51 2.57  34 2.58
  24  0.417  0.584  0.096-  46 2.49  44 2.50  51 2.51  57 2.52  30 2.52  63 2.53  16 2.54  42 2.56
                            53 2.57
  25  0.409  0.580  0.385-  66 1.89  52 2.46  54 2.48  47 2.52  31 2.53  55 2.53  17 2.53  45 2.54
                            64 2.55  58 2.56
  26  0.916  0.585  0.095-  48 2.48  32 2.48  57 2.50  53 2.51  21 2.52  14 2.52  28 2.53  19 2.54
                            13 2.55
  27  0.910  0.587  0.385-  67 1.88  33 2.44  58 2.46  56 2.47  49 2.50  29 2.55  18 2.56  22 2.56
                            20 2.59  54 2.60
  28  0.167  0.835  0.095-  32 2.48  37 2.49  53 2.50   2 2.52  50 2.53   8 2.53  26 2.53  30 2.54
                            21 2.55
  29  0.164  0.836  0.378-  60 2.41  59 2.42  22 2.45  38 2.48  33 2.51  54 2.51   9 2.53  27 2.55
                            31 2.55
  30  0.417  0.833  0.097-  51 2.49   3 2.50  53 2.52  24 2.52   8 2.53  11 2.54  28 2.54  63 2.54
                            50 2.55
  31  0.414  0.832  0.386-  68 1.86  54 2.46  52 2.49  60 2.50  64 2.52  25 2.53  61 2.53   9 2.54
                            29 2.55  12 2.56
  32  0.920  0.833  0.095-  28 2.48  26 2.48   1 2.50  21 2.50  23 2.51  57 2.53  37 2.54  63 2.54
                            40 2.57
  33  0.913  0.829  0.385-  65 1.91  27 2.44  58 2.47  29 2.51  62 2.53  64 2.54  56 2.54  59 2.58
                            41 2.60  38 2.61
  34  0.749  0.005  0.193-   4 2.50  11 2.51  61 2.51   7 2.51  10 2.51   3 2.51  62 2.51  63 2.54
                             1 2.54  51 2.55  40 2.57  23 2.58
  35  0.082  0.165  0.284-   1 2.46   5 2.46   4 2.46  47 2.48  10 2.52  62 2.53  59 2.54   6 2.55
                            45 2.55  38 2.58  43 2.59  41 2.63
  36  0.493  0.245  0.192-   6 2.47   5 2.48   2 2.48   3 2.49  15 2.50  16 2.51   8 2.51  44 2.52
                            39 2.52   7 2.55  14 2.57  48 2.57
  37  0.171  0.083  0.095-  28 2.49   8 2.49   2 2.50   5 2.50  16 2.52   1 2.52  32 2.54  46 2.57
                            40 2.58
  38  0.174  0.086  0.384-  65 1.85  17 2.44   9 2.45   6 2.47  29 2.48  47 2.55  35 2.58  59 2.58
                            33 2.61  41 2.67
  39  0.587  0.166  0.286-   7 2.43   3 2.47  18 2.47  10 2.49  49 2.50  61 2.50  36 2.52  12 2.52
                            15 2.53   9 2.55   6 2.55  60 2.57
  40  0.917  0.086  0.094-  19 2.51  11 2.51   1 2.52  63 2.53   4 2.53  46 2.55  34 2.57  32 2.57
                            37 2.58
  41  0.908  0.084  0.385-  65 1.84  12 2.45  10 2.45  20 2.48  64 2.52  47 2.53  62 2.56  33 2.60
                            35 2.63  38 2.67
  42  0.246  0.497  0.194-  45 2.48  43 2.48   4 2.49  13 2.51  46 2.51   5 2.52  53 2.54  52 2.54
                            51 2.55  24 2.56  44 2.58  50 2.59
  43  0.077  0.419  0.287-  13 2.44  47 2.45  22 2.46  42 2.48  18 2.48  10 2.49   4 2.50  20 2.54
                            54 2.54  52 2.56  35 2.59  45 2.63
  44  0.503  0.500  0.191-  14 2.48  15 2.49  57 2.49  24 2.50  45 2.50  36 2.52  16 2.52  55 2.52
                            23 2.54   5 2.55  51 2.55  42 2.58
  45  0.336  0.416  0.286-  42 2.48  17 2.48  55 2.48  47 2.49   5 2.50  15 2.50  44 2.50   6 2.53
                            52 2.54  25 2.54  35 2.55  43 2.63
  46  0.171  0.337  0.096-  24 2.49   5 2.50  42 2.51  16 2.53  19 2.54   4 2.55  53 2.55  40 2.55
                            37 2.57
  47  0.160  0.331  0.379-  43 2.45  35 2.48  45 2.49  25 2.52  20 2.52  41 2.53  38 2.55  17 2.55
                            54 2.58
  48  0.673  0.336  0.096-  26 2.48  19 2.49  14 2.49   7 2.49  11 2.51  57 2.53  16 2.54   8 2.56
                            36 2.57
  49  0.666  0.337  0.380-  18 2.43  15 2.44  27 2.50  39 2.50  20 2.52  17 2.52  58 2.52   9 2.54
                            12 2.55
  50  0.245  0.753  0.193-  60 2.45  22 2.46   2 2.47  21 2.48  53 2.51  13 2.52  28 2.53   3 2.54
                            30 2.55  52 2.57  51 2.57  42 2.59
  51  0.498  0.750  0.193-  55 2.49  30 2.49  61 2.51  24 2.51  52 2.52  63 2.52   3 2.54  44 2.55
                            34 2.55  42 2.55  23 2.57  50 2.57
  52  0.335  0.666  0.290-  25 2.46  54 2.46  55 2.47  60 2.48  31 2.49  61 2.50  51 2.52  42 2.54
                            45 2.54  43 2.56  22 2.56  50 2.57
  53  0.165  0.586  0.097-  13 2.50  28 2.50  50 2.51  26 2.51  19 2.51  30 2.52  42 2.54  46 2.55
                            24 2.57
  54  0.170  0.590  0.384-  67 1.84  31 2.46  52 2.46  25 2.48  22 2.50  29 2.51  43 2.54  47 2.58
                            27 2.60  20 2.62
  55  0.578  0.665  0.288-  64 2.47  52 2.47  45 2.48  51 2.49  61 2.52  44 2.52  25 2.53  62 2.54
                            15 2.55  58 2.56  56 2.56  23 2.56
  56  0.829  0.658  0.288-  27 2.47  18 2.47  14 2.47  15 2.47  21 2.51  22 2.52  23 2.53  33 2.54
                            58 2.54  59 2.56  55 2.56  62 2.56
  57  0.668  0.584  0.095-  44 2.49  26 2.50  63 2.51  23 2.52  14 2.52  16 2.52  24 2.52  32 2.53
                            48 2.53
  58  0.667  0.588  0.387-  66 1.82  27 2.46  33 2.47  64 2.48  49 2.52  56 2.54  55 2.56  25 2.56
                            17 2.59  15 2.62
  59  0.082  0.913  0.285-  29 2.42  21 2.44   2 2.46   1 2.51  22 2.51  62 2.52   6 2.54  35 2.54
                            60 2.55  56 2.56  33 2.58  38 2.58
  60  0.333  0.911  0.288-  29 2.41  50 2.45  52 2.48  61 2.49  31 2.50   3 2.51   9 2.52  22 2.53
                             2 2.54   6 2.55  59 2.55  39 2.57
  61  0.582  0.916  0.289-  64 2.46  60 2.49  39 2.50  52 2.50  51 2.51  34 2.51  55 2.52  31 2.53
                            12 2.53   3 2.54  62 2.54  10 2.55
  62  0.832  0.914  0.287-  23 2.48  64 2.50  34 2.51   1 2.52  59 2.52  35 2.53  33 2.53  61 2.54
                            55 2.54  10 2.56  41 2.56  56 2.56
  63  0.668  0.834  0.097-  23 2.49  57 2.51  51 2.52  40 2.53  24 2.53  30 2.54  34 2.54  11 2.54
                            32 2.54
  64  0.663  0.830  0.382-  61 2.46  55 2.47  58 2.48  62 2.50  41 2.52  31 2.52  33 2.54  25 2.55
                            12 2.56
  65  0.004  0.009  0.436-  41 1.84  38 1.85  33 1.91
  66  0.499  0.497  0.439-  58 1.82  17 1.88  25 1.89
  67  0.003  0.503  0.436-  54 1.84  20 1.86  27 1.88
  68  0.499  0.002  0.438-  12 1.85   9 1.86  31 1.86
 

IMPORTANT INFORMATION: All symmetrisations will be switched off!
NOSYMM: (Re-)initialisation of all symmetry stuff for point group C_1.

 
 

Automatic generation of k-mesh.
 generate k-points for:    4    4    2
Space group operators:
 irot       det(A)        alpha          n_x          n_y          n_z        tau_x        tau_y        tau_z
    1     1.000000     0.000000     1.000000     0.000000     0.000000     0.000000     0.000000     0.000000
 
 Subroutine IBZKPT returns following result:
 ===========================================
 
 Found     20 irreducible k-points:
 
 Following reciprocal coordinates:
            Coordinates               Weight
  0.000000  0.000000  0.000000      1.000000
  0.250000  0.000000  0.000000      2.000000
  0.500000  0.000000  0.000000      1.000000
  0.000000  0.250000  0.000000      2.000000
  0.250000  0.250000  0.000000      2.000000
  0.500000  0.250000  0.000000      2.000000
 -0.250000  0.250000  0.000000      2.000000
  0.000000  0.500000  0.000000      1.000000
  0.250000  0.500000  0.000000      2.000000
  0.500000  0.500000  0.000000      1.000000
  0.000000  0.000000  0.500000      1.000000
  0.250000  0.000000  0.500000      2.000000
  0.500000  0.000000  0.500000      1.000000
  0.000000  0.250000  0.500000      2.000000
  0.250000  0.250000  0.500000      2.000000
  0.500000  0.250000  0.500000      2.000000
 -0.250000  0.250000  0.500000      2.000000
  0.000000  0.500000  0.500000      1.000000
  0.250000  0.500000  0.500000      2.000000
  0.500000  0.500000  0.500000      1.000000
 
 Following cartesian coordinates:
            Coordinates               Weight
  0.000000  0.000000  0.000000      1.000000
  0.024752  0.014290  0.000000      2.000000
  0.049503  0.028581  0.000000      1.000000
  0.000000  0.028581  0.000000      2.000000
  0.024752  0.042871  0.000000      2.000000
  0.049503  0.057162  0.000000      2.000000
 -0.024752  0.014290  0.000000      2.000000
  0.000000  0.057162  0.000000      1.000000
  0.024752  0.071452  0.000000      2.000000
  0.049503  0.085742  0.000000      1.000000
  0.000000  0.000000  0.023525      1.000000
  0.024752  0.014290  0.023525      2.000000
  0.049503  0.028581  0.023525      1.000000
  0.000000  0.028581  0.023525      2.000000
  0.024752  0.042871  0.023525      2.000000
  0.049503  0.057162  0.023525      2.000000
 -0.024752  0.014290  0.023525      2.000000
  0.000000  0.057162  0.023525      1.000000
  0.024752  0.071452  0.023525      2.000000
  0.049503  0.085742  0.023525      1.000000
 
 TETIRR: Found     96 inequivalent tetrahedra from      192


--------------------------------------------------------------------------------------------------------




 Dimension of arrays:
   k-points           NKPTS =     20   k-points in BZ     NKDIM =     20   number of bands    NBANDS=    396
   number of dos      NEDOS =    301   number of ions     NIONS =     68
   non local maximal  LDIM  =      6   non local SUM 2l+1 LMDIM =     18
   total plane-waves  NPLWV = ******
   max r-space proj   IRMAX =   8292   max aug-charges    IRDMAX=  19623
   dimension x,y,z NGX =    80 NGY =   80 NGZ =  160
   dimension x,y,z NGXF=   160 NGYF=  160 NGZF=  320
   support grid    NGXF=   160 NGYF=  160 NGZF=  320
   ions per type =              33  31   4
   NGX,Y,Z   is equivalent  to a cutoff of  13.17, 13.17, 12.52 a.u.
   NGXF,Y,Z  is equivalent  to a cutoff of  26.34, 26.34, 25.03 a.u.

 SYSTEM =  SQS-NiFe                                
 POSCAR =  POSCAR                                  

 Startparameter for this run:
   NWRITE =      2    write-flag & timer
   PREC   = accura    normal or accurate (medium, high low for compatibility)
   ISTART =      1    job   : 0-new  1-cont  2-samecut
   ICHARG =     11    charge: 1-file 2-atom 10-const
   ISPIN  =      2    spin polarized calculation?
   LNONCOLLINEAR =      F non collinear calculations
   LSORBIT =      F    spin-orbit coupling
   INIWAV =      1    electr: 0-lowe 1-rand  2-diag
   LASPH  =      F    aspherical Exc in radial PAW
   METAGGA=      F    non-selfconsistent MetaGGA calc.

 Electronic Relaxation 1
   ENCUT  =  520.0 eV  38.22 Ry    6.18 a.u.  18.78 18.78 39.52*2*pi/ulx,y,z
   ENINI  =  520.0     initial cutoff
   ENAUG  =  605.4 eV  augmentation charge cutoff
   NELM   =    200;   NELMIN=  2; NELMDL=  0     # of ELM steps 
   EDIFF  = 0.1E-05   stopping-criterion for ELM
   LREAL  =      T    real-space projection
   NLSPLINE    = F    spline interpolate recip. space projectors
   LCOMPAT=      F    compatible to vasp.4.4
   GGA_COMPAT  = T    GGA compatible to vasp.4.4-vasp.4.6
   LMAXPAW     = -100 max onsite density
   LMAXMIX     =    2 max onsite mixed and CHGCAR
   VOSKOWN=      0    Vosko Wilk Nusair interpolation
   ROPT   =   -0.00025  -0.00025  -0.00025
 Ionic relaxation
   EDIFFG = -.2E-01   stopping-criterion for IOM
   NSW    =      0    number of steps for IOM
   NBLOCK =      1;   KBLOCK =      1    inner block; outer block 
   IBRION =     -1    ionic relax: 0-MD 1-quasi-New 2-CG
   NFREE  =      0    steps in history (QN), initial steepest desc. (CG)
   ISIF   =      2    stress and relaxation
   IWAVPR =     10    prediction:  0-non 1-charg 2-wave 3-comb
   ISYM   =      0    0-nonsym 1-usesym 2-fastsym
   LCORR  =      T    Harris-Foulkes like correction to forces

   POTIM  = 0.5000    time-step for ionic-motion
   TEIN   =    0.0    initial temperature
   TEBEG  =    0.0;   TEEND  =   0.0 temperature during run
   SMASS  =  -3.00    Nose mass-parameter (am)
   estimated Nose-frequenzy (Omega)   =  0.10E-29 period in steps =****** mass=  -0.233E-26a.u.
   SCALEE = 1.0000    scale energy and forces
   NPACO  =    256;   APACO  = 16.0  distance and # of slots for P.C.
   PSTRESS=    0.0 pullay stress

  Mass of Ions in am
   POMASS =  58.69 55.85 16.00
  Ionic Valenz
   ZVAL   =  10.00  8.00  6.00
  Atomic Wigner-Seitz radii
   RWIGS  =  -1.00 -1.00 -1.00
  virtual crystal weights 
   VCA    =   1.00  1.00  1.00
   NELECT =     602.0000    total number of electrons
   NUPDOWN=      -1.0000    fix difference up-down

 DOS related values:
   EMIN   =  10.00;   EMAX   =-10.00  energy-range for DOS
   EFERMI =   0.00
   ISMEAR =    -5;   SIGMA  =   0.20  broadening in eV -4-tet -1-fermi 0-gaus

 Electronic relaxation 2 (details)
   IALGO  =     68    algorithm
   LDIAG  =      T    sub-space diagonalisation (order eigenvalues)
   LSUBROT=      F    optimize rotation matrix (better conditioning)
   TURBO    =      0    0=normal 1=particle mesh
   IRESTART =      0    0=no restart 2=restart with 2 vectors
   NREBOOT  =      0    no. of reboots
   NMIN     =      0    reboot dimension
   EREF     =   0.00    reference energy to select bands
   IMIX   =      4    mixing-type and parameters
     AMIX     =   0.40;   BMIX     =  1.00
     AMIX_MAG =   1.60;   BMIX_MAG =  1.00
     AMIN     =   0.10
     WC   =   100.;   INIMIX=   1;  MIXPRE=   1;  MAXMIX= -45

 Intra band minimization:
   WEIMIN = 0.0000     energy-eigenvalue tresh-hold
   EBREAK =  0.63E-09  absolut break condition
   DEPER  =   0.30     relativ break condition  

   TIME   =   0.40     timestep for ELM

  volume/ion in A,a.u.               =      27.61       186.35
  Fermi-wavevector in a.u.,A,eV,Ry     =   1.120456  2.117355 17.081047  1.255422
  Thomas-Fermi vector in A             =   2.257103
 
 Write flags
   LWAVE        =      F    write WAVECAR
   LDOWNSAMPLE  =      F    k-point downsampling of WAVECAR
   LCHARG       =      F    write CHGCAR
   LVTOT        =      F    write LOCPOT, total local potential
   LVHAR        =      F    write LOCPOT, Hartree potential only
   LELF         =      F    write electronic localiz. function (ELF)
   LORBIT       =     11    0 simple, 1 ext, 2 COOP (PROOUT), +10 PAW based schemes


 Dipole corrections
   LMONO  =      F    monopole corrections only (constant potential shift)
   LDIPOL =      T    correct potential (dipole corrections)
   IDIPOL =      3    1-x, 2-y, 3-z, 4-all directions 
   EPSILON=  1.0000000 bulk dielectric constant

 Exchange correlation treatment:
   GGA     =    --    GGA type
   LEXCH   =     8    internal setting for exchange type
   VOSKOWN=      0    Vosko Wilk Nusair interpolation
   LHFCALC =     F    Hartree Fock is set to
   LHFONE  =     F    Hartree Fock one center treatment
   AEXX    =    0.0000 exact exchange contribution

 Linear response parameters
   LEPSILON=     F    determine dielectric tensor
   LRPA    =     F    only Hartree local field effects (RPA)
   LNABLA  =     F    use nabla operator in PAW spheres
   LVEL    =     F    velocity operator in full k-point grid
   LINTERFAST=   F  fast interpolation
   KINTER  =     0    interpolate to denser k-point grid
   CSHIFT  =0.1000    complex shift for real part using Kramers Kronig
   OMEGAMAX=  -1.0    maximum frequency
   DEG_THRESHOLD= 0.2000000E-02 threshold for treating states as degnerate
   RTIME   =   -0.100 relaxation time in fs
  (WPLASMAI=    0.000 imaginary part of plasma frequency in eV, 0.658/RTIME)
   DFIELD  = 0.0000000 0.0000000 0.0000000 field for delta impulse in time
 
 Orbital magnetization related:
   ORBITALMAG=     F  switch on orbital magnetization
   LCHIMAG   =     F  perturbation theory with respect to B field
   DQ        =  0.001000  dq finite difference perturbation B field
   LLRAUG    =     F  two centre corrections for induced B field



--------------------------------------------------------------------------------------------------------


 Static calculation
 charge density and potential remain constant during run
 spin polarized calculation
 RMM-DIIS sequential band-by-band and
  variant of blocked Davidson during initial phase
 perform sub-space diagonalisation
    before iterative eigenvector-optimisation
 no mixing
 using additional bands           95
 real space projection scheme for non local part
 use partial core corrections
 calculate Harris-corrections to forces 
   (improved forces if not selfconsistent)
 use gradient corrections 
 WARNING: stress and forces are not correct
  (second derivative of E(xc) not defined)
 use of overlap-Matrix (Vanderbilt PP)
 Fermi weights with tetrahedron method with Bloechl corrections


--------------------------------------------------------------------------------------------------------


  energy-cutoff  :      520.00
  volume of cell :     1877.75
      direct lattice vectors                 reciprocal lattice vectors
    10.100310000  0.000000000  0.000000000     0.099006862  0.057161638  0.000000000
    -5.050155000  8.747125050  0.000000000     0.000000000  0.114323277  0.000000000
     0.000000000  0.000000000 21.253800000     0.000000000  0.000000000  0.047050410

  length of vectors
    10.100310000 10.100310003 21.253800000     0.114323277  0.114323277  0.047050410


 
 old parameters found on file WAVECAR:
  energy-cutoff  :      520.00
  volume of cell :     1877.75
      direct lattice vectors                 reciprocal lattice vectors
    10.100310000  0.000000000  0.000000000     0.099006862  0.057161638  0.000000000
    -5.050155000  8.747125050  0.000000000     0.000000000  0.114323277  0.000000000
     0.000000000  0.000000000 21.253800000     0.000000000  0.000000000  0.047050410

  length of vectors

 
 k-points in units of 2pi/SCALE and weight: read from INCAR                         
   0.00000000  0.00000000  0.00000000       0.031
   0.02475172  0.01429041  0.00000000       0.062
   0.04950343  0.02858082  0.00000000       0.031
   0.00000000  0.02858082  0.00000000       0.062
   0.02475172  0.04287123  0.00000000       0.062
   0.04950343  0.05716164  0.00000000       0.062
  -0.02475172  0.01429041  0.00000000       0.062
   0.00000000  0.05716164  0.00000000       0.031
   0.02475172  0.07145205  0.00000000       0.062
   0.04950343  0.08574246  0.00000000       0.031
   0.00000000  0.00000000  0.02352520       0.031
   0.02475172  0.01429041  0.02352520       0.062
   0.04950343  0.02858082  0.02352520       0.031
   0.00000000  0.02858082  0.02352520       0.062
   0.02475172  0.04287123  0.02352520       0.062
   0.04950343  0.05716164  0.02352520       0.062
  -0.02475172  0.01429041  0.02352520       0.062
   0.00000000  0.05716164  0.02352520       0.031
   0.02475172  0.07145205  0.02352520       0.062
   0.04950343  0.08574246  0.02352520       0.031
 
 k-points in reciprocal lattice and weights: read from INCAR                         
   0.00000000  0.00000000  0.00000000       0.031
   0.25000000  0.00000000  0.00000000       0.062
   0.50000000  0.00000000  0.00000000       0.031
   0.00000000  0.25000000  0.00000000       0.062
   0.25000000  0.25000000  0.00000000       0.062
   0.50000000  0.25000000  0.00000000       0.062
  -0.25000000  0.25000000  0.00000000       0.062
   0.00000000  0.50000000  0.00000000       0.031
   0.25000000  0.50000000  0.00000000       0.062
   0.50000000  0.50000000  0.00000000       0.031
   0.00000000  0.00000000  0.50000000       0.031
   0.25000000  0.00000000  0.50000000       0.062
   0.50000000  0.00000000  0.50000000       0.031
   0.00000000  0.25000000  0.50000000       0.062
   0.25000000  0.25000000  0.50000000       0.062
   0.50000000  0.25000000  0.50000000       0.062
  -0.25000000  0.25000000  0.50000000       0.062
   0.00000000  0.50000000  0.50000000       0.031
   0.25000000  0.50000000  0.50000000       0.062
   0.50000000  0.50000000  0.50000000       0.031
 
 position of ions in fractional coordinates (direct lattice) 
   0.99904300  0.00064200  0.19052300
   0.24849100  0.99862800  0.19205500
   0.49902500  0.00192700  0.19180600
   0.99813900  0.25067400  0.19194200
   0.24921500  0.24886200  0.19118600
   0.33359345  0.16362379  0.28756926
   0.74893500  0.25278100  0.19317500
   0.41837500  0.08394000  0.09411800
   0.41592131  0.08436259  0.38322126
   0.83405898  0.16807991  0.29026508
   0.66797000  0.08472300  0.09569300
   0.66674705  0.08583981  0.38506474
   0.99908600  0.49910800  0.19304000
   0.74816900  0.49871100  0.19204600
   0.58274622  0.41461973  0.28662330
   0.41961000  0.33337100  0.09414000
   0.41251540  0.33032575  0.38228783
   0.82904613  0.41409277  0.28796231
   0.91855900  0.33501600  0.09568700
   0.91098470  0.33076744  0.38523403
   0.99765800  0.74896900  0.19256000
   0.08020058  0.66335225  0.28715386
   0.75346500  0.75172800  0.19162900
   0.41737300  0.58352400  0.09623400
   0.40934856  0.57954203  0.38505099
   0.91550800  0.58461900  0.09542900
   0.91038477  0.58650452  0.38530933
   0.16682900  0.83490800  0.09456700
   0.16422081  0.83580495  0.37802504
   0.41715300  0.83338800  0.09679300
   0.41402470  0.83208811  0.38581158
   0.91985100  0.83263700  0.09539800
   0.91329103  0.82915062  0.38477159
   0.74918200  0.00453800  0.19311300
   0.08189193  0.16453940  0.28443200
   0.49319000  0.24544000  0.19167800
   0.17139600  0.08339300  0.09535900
   0.17381778  0.08610749  0.38353373
   0.58713170  0.16610686  0.28633155
   0.91693100  0.08581500  0.09410100
   0.90796414  0.08357329  0.38547197
   0.24596400  0.49669300  0.19369900
   0.07685239  0.41856641  0.28733087
   0.50297300  0.49962100  0.19096300
   0.33570118  0.41552098  0.28649290
   0.17081400  0.33724200  0.09550500
   0.16019717  0.33088681  0.37862207
   0.67264700  0.33598100  0.09600300
   0.66553897  0.33742817  0.38042340
   0.24490500  0.75270000  0.19343600
   0.49840300  0.74988300  0.19260700
   0.33489395  0.66642098  0.29043945
   0.16470600  0.58627100  0.09733100
   0.16951332  0.59028898  0.38388139
   0.57822675  0.66472196  0.28833561
   0.82867807  0.65832301  0.28804318
   0.66762500  0.58426200  0.09519900
   0.66688827  0.58750981  0.38744904
   0.08150806  0.91266343  0.28525812
   0.33327520  0.91133051  0.28835019
   0.58156818  0.91561099  0.28875777
   0.83226167  0.91399090  0.28738013
   0.66841400  0.83351100  0.09659800
   0.66259940  0.83032860  0.38220766
   0.00431087  0.00862833  0.43583937
   0.49942193  0.49682507  0.43853203
   0.00253998  0.50287742  0.43642531
   0.49936569  0.00249764  0.43833054
 
 position of ions in cartesian coordinates  (Angst):
  10.08740180  0.00561565  4.04933774
  -2.53339006  8.73512399  4.08189856
   5.03057555  0.01685571  4.07660636
   8.81557077  2.19267682  4.07949688
   1.26035708  2.17682703  4.06342901
   2.54307174  1.43123773  6.11193945
   6.28789244  2.21110702  4.10570281
   3.80180719  0.73423368  2.00036515
   3.77488999  0.73793015  8.14490812
   7.57542463  1.47021600  6.16923599
   6.31883979  0.74108268  2.03383988
   6.30084755  0.75085158  8.18408907
   7.57050555  4.36576009  4.10283355
   5.03817098  4.36228748  4.08170727
   3.79202358  3.62673063  6.09183439
   2.55461586  2.91603783  2.00083273
   2.49833716  2.88940067  8.12506904
   6.28239029  3.62212122  6.12029343
   7.58584793  2.93042685  2.03371236
   7.53080108  2.89326413  8.18768701
   6.29424553  6.55132550  4.09263173
  -2.53998091  5.80242507  6.10311064
   3.81388716  6.57545882  4.07284444
   1.26871004  5.10415740  2.04533819
   1.20777024  5.06932663  8.18379664
   6.29449804  5.11373550  2.02822888
   6.23322973  5.13022835  8.18928738
  -2.53139019  7.30304468  2.00990810
  -2.56226347  7.31089040  8.03446854
   0.00463604  7.28974905  2.05721906
  -0.02039611  7.27837877  8.19996221
   5.08583435  7.28317996  2.02757001
   5.03718331  7.25268420  8.17785842
   7.54405284  0.03969445  4.10438508
  -0.00381554  1.43924669  6.04526083
   3.74186185  2.14689437  4.07388588
   1.31000516  0.72944900  2.02674111
   1.32075727  0.75319299  8.15154918
   5.09134679  1.45295746  6.08563347
   8.82790830  0.75063454  2.00000383
   8.74866117  0.73102602  8.19274420
  -0.02406399  4.34463578  4.11683981
  -1.33759228  3.66125277  6.10687277
   2.55701973  4.37024736  4.05868941
   1.29224057  3.63461401  6.08906282
   0.02214998  2.94989795  2.02984417
  -0.05298863  2.89430833  8.04715777
   5.09718709  2.93886782  2.04042856
   5.01808541  2.95152639  8.08544280
  -1.32763525  6.58396103  4.11125006
   1.24699942  6.55932037  4.09363066
   0.01700353  5.82926762  6.17294205
  -1.29717776  5.12818575  2.06865361
  -1.26891374  5.16333151  8.15893825
   2.48332049  5.81440613  6.12822737
   5.04527215  5.75843366  6.12201216
   3.79260580  5.11061278  2.02334051
   3.76876269  5.13902176  8.23476449
  -3.78583517  7.98318117  6.06281895
  -1.23617752  7.97152190  6.12853734
   1.25004145  8.00896386  6.13719983
   3.79030517  7.99479272  6.10791980
   2.54182886  7.29082495  2.05307457
   2.49917123  7.26298809  8.12336520
  -0.00003327  0.07547309  9.26324282
   2.53527268  4.34579101  9.32047211
  -2.51395431  4.39873167  9.27569617
   5.03113473  0.02184721  9.31618961
 


--------------------------------------------------------------------------------------------------------


 k-point  1 :   0.0000 0.0000 0.0000  plane waves:   50641
 k-point  2 :   0.2500 0.0000 0.0000  plane waves:   50515
 k-point  3 :   0.5000 0.0000 0.0000  plane waves:   50582
 k-point  4 :   0.0000 0.2500 0.0000  plane waves:   50515
 k-point  5 :   0.2500 0.2500 0.0000  plane waves:   50569
 k-point  6 :   0.5000 0.2500 0.0000  plane waves:   50569
 k-point  7 :  -0.2500 0.2500 0.0000  plane waves:   50515
 k-point  8 :   0.0000 0.5000 0.0000  plane waves:   50582
 k-point  9 :   0.2500 0.5000 0.0000  plane waves:   50569
 k-point 10 :   0.5000 0.5000 0.0000  plane waves:   50582
 k-point 11 :   0.0000 0.0000 0.5000  plane waves:   50528
 k-point 12 :   0.2500 0.0000 0.5000  plane waves:   50544
 k-point 13 :   0.5000 0.0000 0.5000  plane waves:   50564
 k-point 14 :   0.0000 0.2500 0.5000  plane waves:   50544
 k-point 15 :   0.2500 0.2500 0.5000  plane waves:   50528
 k-point 16 :   0.5000 0.2500 0.5000  plane waves:   50528
 k-point 17 :  -0.2500 0.2500 0.5000  plane waves:   50544
 k-point 18 :   0.0000 0.5000 0.5000  plane waves:   50564
 k-point 19 :   0.2500 0.5000 0.5000  plane waves:   50528
 k-point 20 :   0.5000 0.5000 0.5000  plane waves:   50564

 maximum and minimum number of plane-waves per node :      2132     2072

 maximum number of plane-waves:     50641
 maximum index in each direction: 
   IXMAX=   19   IYMAX=   18   IZMAX=   39
   IXMIN=  -19   IYMIN=  -19   IZMIN=  -40


 real space projection operators:
  total allocation   :      66769.73 KBytes
  max/ min on nodes  :       3360.86       2428.98


 parallel 3D FFT for wavefunctions:
    minimum data exchange during FFTs selected (reduces bandwidth)
 parallel 3D FFT for charge:
    minimum data exchange during FFTs selected (reduces bandwidth)


 total amount of memory used by VASP MPI-rank0   350066. kBytes
=======================================================================

   base      :      30000. kBytes
   nonlr-proj:      13635. kBytes
   fftplans  :       8122. kBytes
   grid      :      22220. kBytes
   one-center:         93. kBytes
   wavefun   :     275996. kBytes
 
     INWAV:  cpu time   41.2656: real time   41.6883
 initial charge density was supplied:
 number of electron     602.0000035 magnetization     101.5087167
 keeping initial charge density in first step


--------------------------------------------------------------------------------------------------------


 Maximum index for non-local projection operator          761
 Maximum index for augmentation-charges         1120 (set IRDMAX)


--------------------------------------------------------------------------------------------------------


 First call to EWALD:  gamma=   0.144
 Maximum number of real-space cells 4x 4x 2
 Maximum number of reciprocal cells 2x 2x 4

    FEWALD:  cpu time    0.0056: real time    0.0056


--------------------------------------- Iteration      1(   1)  ---------------------------------------


    POTLOK:  cpu time    0.5011: real time    0.5290
    SETDIJ:  cpu time    0.0331: real time    0.0331
     EDDAV:  cpu time  218.6904: real time  219.3769
 BZINTS: Fermi energy: -0.002396;602.000000 electrons
         Band energy:***********;  BLOECHL correction: -0.008258
       DOS:  cpu time    0.1882: real time    0.1882
    --------------------------------------------
      LOOP:  cpu time  219.4127: real time  220.1273

 eigenvalue-minimisations  : 33396
 total energy-change (2. order) :-0.4287999E+03  (-0.2221338E+03)
 number of electron     602.0000035 magnetization     101.5087167
 augmentation part      602.0000035 magnetization     101.5087167

 DIPCOR: dipole corrections for dipol
 direction  3 min pos   240,
 dipolmoment           0.000000      0.000000      0.294906 electrons x Angstroem
 Tr[quadrupol]    -10359.026729

 energy correction for charged system         0.000000 eV
 dipol+quadrupol energy correction           -0.004191 eV
 added-field ion interaction          0.032383 eV  (added to PSCEN)


 Free energy of the ion-electron system (eV)
  ---------------------------------------------------
  alpha Z        PSCENC =      1427.89655485
  Ewald energy   TEWEN  =    195291.99291852
  -Hartree energ DENC   =   -249990.79124150
  -exchange      EXHF   =         0.00000000
  -V(xc)+E(xc)   XCENC  =      1260.50085816
  PAW double counting   =     61086.00714696   -63639.48964774
  entropy T*S    EENTRO =         0.00000000
  eigenvalues    EBANDS =     -1581.18191212
  atomic energy  EATOM  =     55716.26538818
  Solvation  Ediel_sol  =         0.00000000
  ---------------------------------------------------
  free energy    TOTEN  =      -428.79993468 eV

  energy without entropy =     -428.79993468  energy(sigma->0) =     -428.79993468


--------------------------------------------------------------------------------------------------------




--------------------------------------- Iteration      1(   2)  ---------------------------------------


    EDDIAG:  cpu time   28.8144: real time   28.8304
  RMM-DIIS:  cpu time  120.9698: real time  121.0025
    ORTHCH:  cpu time    6.9811: real time    6.9815
 BZINTS: Fermi energy: -0.027859;602.000000 electrons
         Band energy:***********;  BLOECHL correction: -0.005067
       DOS:  cpu time    0.2166: real time    0.2166
    --------------------------------------------
      LOOP:  cpu time  156.9819: real time  157.0309

 eigenvalue-minimisations  : 32978
 total energy-change (2. order) :-0.1505407E+02  (-0.1504014E+02)
 number of electron     602.0000035 magnetization     101.5087167
 augmentation part      602.0000035 magnetization     101.5087167

 DIPCOR: dipole corrections for dipol
 direction  3 min pos   240,
 dipolmoment           0.000000      0.000000      0.294906 electrons x Angstroem
 Tr[quadrupol]    -10359.026729

 energy correction for charged system         0.000000 eV
 dipol+quadrupol energy correction           -0.004191 eV
 added-field ion interaction          0.032383 eV  (added to PSCEN)


 Free energy of the ion-electron system (eV)
  ---------------------------------------------------
  alpha Z        PSCENC =      1427.89655485
  Ewald energy   TEWEN  =    195291.99291852
  -Hartree energ DENC   =   -249990.79124150
  -exchange      EXHF   =         0.00000000
  -V(xc)+E(xc)   XCENC  =      1260.50085816
  PAW double counting   =     61086.00714696   -63639.48964774
  entropy T*S    EENTRO =         0.00000000
  eigenvalues    EBANDS =     -1596.23597904
  atomic energy  EATOM  =     55716.26538818
  Solvation  Ediel_sol  =         0.00000000
  ---------------------------------------------------
  free energy    TOTEN  =      -443.85400160 eV

  energy without entropy =     -443.85400160  energy(sigma->0) =     -443.85400160


--------------------------------------------------------------------------------------------------------




--------------------------------------- Iteration      1(   3)  ---------------------------------------


    EDDIAG:  cpu time   28.9281: real time   28.9431
  RMM-DIIS:  cpu time  137.8456: real time  137.8765
    ORTHCH:  cpu time    6.9614: real time    6.9618
 BZINTS: Fermi energy: -0.028636;602.000000 electrons
         Band energy:***********;  BLOECHL correction: -0.005074
       DOS:  cpu time    0.2232: real time    0.2232
    --------------------------------------------
      LOOP:  cpu time  173.9584: real time  174.0047

 eigenvalue-minimisations  : 37976
 total energy-change (2. order) :-0.5660000E+00  (-0.9154656E+00)
 number of electron     602.0000035 magnetization     101.5087167
 augmentation part      602.0000035 magnetization     101.5087167

 DIPCOR: dipole corrections for dipol
 direction  3 min pos   240,
 dipolmoment           0.000000      0.000000      0.294906 electrons x Angstroem
 Tr[quadrupol]    -10359.026729

 energy correction for charged system         0.000000 eV
 dipol+quadrupol energy correction           -0.004191 eV
 added-field ion interaction          0.032383 eV  (added to PSCEN)


 Free energy of the ion-electron system (eV)
  ---------------------------------------------------
  alpha Z        PSCENC =      1427.89655485
  Ewald energy   TEWEN  =    195291.99291852
  -Hartree energ DENC   =   -249990.79124150
  -exchange      EXHF   =         0.00000000
  -V(xc)+E(xc)   XCENC  =      1260.50085816
  PAW double counting   =     61086.00714696   -63639.48964774
  entropy T*S    EENTRO =         0.00000000
  eigenvalues    EBANDS =     -1596.80197903
  atomic energy  EATOM  =     55716.26538818
  Solvation  Ediel_sol  =         0.00000000
  ---------------------------------------------------
  free energy    TOTEN  =      -444.42000159 eV

  energy without entropy =     -444.42000159  energy(sigma->0) =     -444.42000159


--------------------------------------------------------------------------------------------------------




--------------------------------------- Iteration      1(   4)  ---------------------------------------


    EDDIAG:  cpu time   28.9538: real time   28.9656
  RMM-DIIS:  cpu time  150.6335: real time  150.6464
    ORTHCH:  cpu time    6.9672: real time    6.9672
 BZINTS: Fermi energy: -0.028644;602.000000 electrons
         Band energy:***********;  BLOECHL correction: -0.005136
       DOS:  cpu time    0.2173: real time    0.2173
    --------------------------------------------
      LOOP:  cpu time  186.7718: real time  186.7964

 eigenvalue-minimisations  : 41476
 total energy-change (2. order) :-0.9099475E-02  (-0.6692611E-01)
 number of electron     602.0000035 magnetization     101.5087167
 augmentation part      602.0000035 magnetization     101.5087167

 DIPCOR: dipole corrections for dipol
 direction  3 min pos   240,
 dipolmoment           0.000000      0.000000      0.294906 electrons x Angstroem
 Tr[quadrupol]    -10359.026729

 energy correction for charged system         0.000000 eV
 dipol+quadrupol energy correction           -0.004191 eV
 added-field ion interaction          0.032383 eV  (added to PSCEN)


 Free energy of the ion-electron system (eV)
  ---------------------------------------------------
  alpha Z        PSCENC =      1427.89655485
  Ewald energy   TEWEN  =    195291.99291852
  -Hartree energ DENC   =   -249990.79124150
  -exchange      EXHF   =         0.00000000
  -V(xc)+E(xc)   XCENC  =      1260.50085816
  PAW double counting   =     61086.00714696   -63639.48964774
  entropy T*S    EENTRO =         0.00000000
  eigenvalues    EBANDS =     -1596.81107851
  atomic energy  EATOM  =     55716.26538818
  Solvation  Ediel_sol  =         0.00000000
  ---------------------------------------------------
  free energy    TOTEN  =      -444.42910106 eV

  energy without entropy =     -444.42910106  energy(sigma->0) =     -444.42910106


--------------------------------------------------------------------------------------------------------




--------------------------------------- Iteration      1(   5)  ---------------------------------------


    EDDIAG:  cpu time   28.9555: real time   28.9677
  RMM-DIIS:  cpu time  166.7785: real time  166.7906
    ORTHCH:  cpu time    6.9817: real time    6.9821
 BZINTS: Fermi energy: -0.028675;602.000000 electrons
         Band energy:***********;  BLOECHL correction: -0.005146
       DOS:  cpu time    0.2184: real time    0.2184
    --------------------------------------------
      LOOP:  cpu time  202.9340: real time  202.9588

 eigenvalue-minimisations  : 46305
 total energy-change (2. order) :-0.1060814E-01  (-0.1246196E-01)
 number of electron     602.0000035 magnetization     101.5087167
 augmentation part      602.0000035 magnetization     101.5087167

 DIPCOR: dipole corrections for dipol
 direction  3 min pos   240,
 dipolmoment           0.000000      0.000000      0.294906 electrons x Angstroem
 Tr[quadrupol]    -10359.026729

 energy correction for charged system         0.000000 eV
 dipol+quadrupol energy correction           -0.004191 eV
 added-field ion interaction          0.032383 eV  (added to PSCEN)


 Free energy of the ion-electron system (eV)
  ---------------------------------------------------
  alpha Z        PSCENC =      1427.89655485
  Ewald energy   TEWEN  =    195291.99291852
  -Hartree energ DENC   =   -249990.79124150
  -exchange      EXHF   =         0.00000000
  -V(xc)+E(xc)   XCENC  =      1260.50085816
  PAW double counting   =     61086.00714696   -63639.48964774
  entropy T*S    EENTRO =         0.00000000
  eigenvalues    EBANDS =     -1596.82168664
  atomic energy  EATOM  =     55716.26538818
  Solvation  Ediel_sol  =         0.00000000
  ---------------------------------------------------
  free energy    TOTEN  =      -444.43970920 eV

  energy without entropy =     -444.43970920  energy(sigma->0) =     -444.43970920


--------------------------------------------------------------------------------------------------------




--------------------------------------- Iteration      1(   6)  ---------------------------------------


    EDDIAG:  cpu time   28.9466: real time   28.9633
  RMM-DIIS:  cpu time  183.8120: real time  183.8514
    ORTHCH:  cpu time    6.9580: real time    6.9585
 BZINTS: Fermi energy: -0.028676;602.000000 electrons
         Band energy:***********;  BLOECHL correction: -0.005146
       DOS:  cpu time    0.2247: real time    0.2247
    --------------------------------------------
      LOOP:  cpu time  219.9412: real time  219.9979

 eigenvalue-minimisations  : 50919
 total energy-change (2. order) : 0.2851367E-03  (-0.8850098E-03)
 number of electron     602.0000035 magnetization     101.5087167
 augmentation part      602.0000035 magnetization     101.5087167

 DIPCOR: dipole corrections for dipol
 direction  3 min pos   240,
 dipolmoment           0.000000      0.000000      0.294906 electrons x Angstroem
 Tr[quadrupol]    -10359.026729

 energy correction for charged system         0.000000 eV
 dipol+quadrupol energy correction           -0.004191 eV
 added-field ion interaction          0.032383 eV  (added to PSCEN)


 Free energy of the ion-electron system (eV)
  ---------------------------------------------------
  alpha Z        PSCENC =      1427.89655485
  Ewald energy   TEWEN  =    195291.99291852
  -Hartree energ DENC   =   -249990.79124150
  -exchange      EXHF   =         0.00000000
  -V(xc)+E(xc)   XCENC  =      1260.50085816
  PAW double counting   =     61086.00714696   -63639.48964774
  entropy T*S    EENTRO =         0.00000000
  eigenvalues    EBANDS =     -1596.82140151
  atomic energy  EATOM  =     55716.26538818
  Solvation  Ediel_sol  =         0.00000000
  ---------------------------------------------------
  free energy    TOTEN  =      -444.43942406 eV

  energy without entropy =     -444.43942406  energy(sigma->0) =     -444.43942406


--------------------------------------------------------------------------------------------------------




--------------------------------------- Iteration      1(   7)  ---------------------------------------


    EDDIAG:  cpu time   28.9303: real time   28.9491
  RMM-DIIS:  cpu time  169.5388: real time  169.5753
    ORTHCH:  cpu time    6.9561: real time    6.9570
 BZINTS: Fermi energy: -0.028677;602.000000 electrons
         Band energy:***********;  BLOECHL correction: -0.005147
       DOS:  cpu time    0.2185: real time    0.2185
    --------------------------------------------
      LOOP:  cpu time  205.6438: real time  205.6999

 eigenvalue-minimisations  : 46918
 total energy-change (2. order) :-0.9318991E-04  (-0.1889793E-03)
 number of electron     602.0000035 magnetization     101.5087167
 augmentation part      602.0000035 magnetization     101.5087167

 DIPCOR: dipole corrections for dipol
 direction  3 min pos   240,
 dipolmoment           0.000000      0.000000      0.294906 electrons x Angstroem
 Tr[quadrupol]    -10359.026729

 energy correction for charged system         0.000000 eV
 dipol+quadrupol energy correction           -0.004191 eV
 added-field ion interaction          0.032383 eV  (added to PSCEN)


 Free energy of the ion-electron system (eV)
  ---------------------------------------------------
  alpha Z        PSCENC =      1427.89655485
  Ewald energy   TEWEN  =    195291.99291852
  -Hartree energ DENC   =   -249990.79124150
  -exchange      EXHF   =         0.00000000
  -V(xc)+E(xc)   XCENC  =      1260.50085816
  PAW double counting   =     61086.00714696   -63639.48964774
  entropy T*S    EENTRO =         0.00000000
  eigenvalues    EBANDS =     -1596.82149470
  atomic energy  EATOM  =     55716.26538818
  Solvation  Ediel_sol  =         0.00000000
  ---------------------------------------------------
  free energy    TOTEN  =      -444.43951725 eV

  energy without entropy =     -444.43951725  energy(sigma->0) =     -444.43951725


--------------------------------------------------------------------------------------------------------




--------------------------------------- Iteration      1(   8)  ---------------------------------------


    EDDIAG:  cpu time   28.9440: real time   28.9617
  RMM-DIIS:  cpu time  160.2595: real time  160.2944
    ORTHCH:  cpu time    6.9786: real time    6.9791
 BZINTS: Fermi energy: -0.028677;602.000000 electrons
         Band energy:***********;  BLOECHL correction: -0.005147
       DOS:  cpu time    0.2087: real time    0.2087
    --------------------------------------------
      LOOP:  cpu time  196.3909: real time  196.4440

 eigenvalue-minimisations  : 43924
 total energy-change (2. order) :-0.4510948E-05  (-0.3131897E-04)
 number of electron     602.0000035 magnetization     101.5087167
 augmentation part      602.0000035 magnetization     101.5087167

 DIPCOR: dipole corrections for dipol
 direction  3 min pos   240,
 dipolmoment           0.000000      0.000000      0.294906 electrons x Angstroem
 Tr[quadrupol]    -10359.026729

 energy correction for charged system         0.000000 eV
 dipol+quadrupol energy correction           -0.004191 eV
 added-field ion interaction          0.032383 eV  (added to PSCEN)


 Free energy of the ion-electron system (eV)
  ---------------------------------------------------
  alpha Z        PSCENC =      1427.89655485
  Ewald energy   TEWEN  =    195291.99291852
  -Hartree energ DENC   =   -249990.79124150
  -exchange      EXHF   =         0.00000000
  -V(xc)+E(xc)   XCENC  =      1260.50085816
  PAW double counting   =     61086.00714696   -63639.48964774
  entropy T*S    EENTRO =         0.00000000
  eigenvalues    EBANDS =     -1596.82149921
  atomic energy  EATOM  =     55716.26538818
  Solvation  Ediel_sol  =         0.00000000
  ---------------------------------------------------
  free energy    TOTEN  =      -444.43952176 eV

  energy without entropy =     -444.43952176  energy(sigma->0) =     -444.43952176


--------------------------------------------------------------------------------------------------------




--------------------------------------- Iteration      1(   9)  ---------------------------------------


    EDDIAG:  cpu time   28.9493: real time   28.9638
  RMM-DIIS:  cpu time  102.4475: real time  102.4583
    ORTHCH:  cpu time    6.9391: real time    6.9431
 BZINTS: Fermi energy: -0.028677;602.000000 electrons
         Band energy:***********;  BLOECHL correction: -0.005147
       DOS:  cpu time    0.2035: real time    0.2035
    --------------------------------------------
      LOOP:  cpu time  138.5393: real time  138.5687

 eigenvalue-minimisations  : 27164
 total energy-change (2. order) :-0.1431326E-05  (-0.9155432E-05)
 number of electron     602.0000035 magnetization     101.5087167
 augmentation part      602.0000035 magnetization     101.5087167

 DIPCOR: dipole corrections for dipol
 direction  3 min pos   240,
 dipolmoment           0.000000      0.000000      0.294906 electrons x Angstroem
 Tr[quadrupol]    -10359.026729

 energy correction for charged system         0.000000 eV
 dipol+quadrupol energy correction           -0.004191 eV
 added-field ion interaction          0.032383 eV  (added to PSCEN)


 Free energy of the ion-electron system (eV)
  ---------------------------------------------------
  alpha Z        PSCENC =      1427.89655485
  Ewald energy   TEWEN  =    195291.99291852
  -Hartree energ DENC   =   -249990.79124150
  -exchange      EXHF   =         0.00000000
  -V(xc)+E(xc)   XCENC  =      1260.50085816
  PAW double counting   =     61086.00714696   -63639.48964774
  entropy T*S    EENTRO =         0.00000000
  eigenvalues    EBANDS =     -1596.82150064
  atomic energy  EATOM  =     55716.26538818
  Solvation  Ediel_sol  =         0.00000000
  ---------------------------------------------------
  free energy    TOTEN  =      -444.43952319 eV

  energy without entropy =     -444.43952319  energy(sigma->0) =     -444.43952319


--------------------------------------------------------------------------------------------------------




--------------------------------------- Iteration      1(  10)  ---------------------------------------


    EDDIAG:  cpu time   28.9298: real time   28.9445
  RMM-DIIS:  cpu time   82.1372: real time   82.1433
    ORTHCH:  cpu time    6.9723: real time    6.9729
 BZINTS: Fermi energy: -0.028677;602.000000 electrons
         Band energy:***********;  BLOECHL correction: -0.005147
       DOS:  cpu time    0.2184: real time    0.2184
    --------------------------------------------
      LOOP:  cpu time  118.2577: real time  118.2791

 eigenvalue-minimisations  : 21108
 total energy-change (2. order) :-0.3422319E-06  (-0.3021002E-05)
 number of electron     602.0000035 magnetization     101.5087167
 augmentation part      602.0000035 magnetization     101.5087167

 DIPCOR: dipole corrections for dipol
 direction  3 min pos   240,
 dipolmoment           0.000000      0.000000      0.294906 electrons x Angstroem
 Tr[quadrupol]    -10359.026729

 energy correction for charged system         0.000000 eV
 dipol+quadrupol energy correction           -0.004191 eV
 added-field ion interaction          0.032383 eV  (added to PSCEN)


 Free energy of the ion-electron system (eV)
  ---------------------------------------------------
  alpha Z        PSCENC =      1427.89655485
  Ewald energy   TEWEN  =    195291.99291852
  -Hartree energ DENC   =   -249990.79124150
  -exchange      EXHF   =         0.00000000
  -V(xc)+E(xc)   XCENC  =      1260.50085816
  PAW double counting   =     61086.00714696   -63639.48964774
  entropy T*S    EENTRO =         0.00000000
  eigenvalues    EBANDS =     -1596.82150098
  atomic energy  EATOM  =     55716.26538818
  Solvation  Ediel_sol  =         0.00000000
  ---------------------------------------------------
  free energy    TOTEN  =      -444.43952354 eV

  energy without entropy =     -444.43952354  energy(sigma->0) =     -444.43952354


--------------------------------------------------------------------------------------------------------




--------------------------------------- Iteration      1(  11)  ---------------------------------------


    EDDIAG:  cpu time   28.9345: real time   28.9481
  RMM-DIIS:  cpu time   77.3227: real time   77.3289
    ORTHCH:  cpu time    7.0028: real time    7.0029
 BZINTS: Fermi energy: -0.028677;602.000000 electrons
         Band energy:***********;  BLOECHL correction: -0.005147
       DOS:  cpu time    0.2085: real time    0.2085
    --------------------------------------------
      LOOP:  cpu time  113.4686: real time  113.4885

 eigenvalue-minimisations  : 19580
 total energy-change (2. order) : 0.6263144E-07  (-0.8716811E-06)
 number of electron     602.0000035 magnetization     101.5087167
 augmentation part      602.0000035 magnetization     101.5087167

 DIPCOR: dipole corrections for dipol
 direction  3 min pos   240,
 dipolmoment           0.000000      0.000000      0.294906 electrons x Angstroem
 Tr[quadrupol]    -10359.026729

 energy correction for charged system         0.000000 eV
 dipol+quadrupol energy correction           -0.004191 eV
 added-field ion interaction          0.032383 eV  (added to PSCEN)


 Free energy of the ion-electron system (eV)
  ---------------------------------------------------
  alpha Z        PSCENC =      1427.89655485
  Ewald energy   TEWEN  =    195291.99291852
  -Hartree energ DENC   =   -249990.79124150
  -exchange      EXHF   =         0.00000000
  -V(xc)+E(xc)   XCENC  =      1260.50085816
  PAW double counting   =     61086.00714696   -63639.48964774
  entropy T*S    EENTRO =         0.00000000
  eigenvalues    EBANDS =     -1596.82150092
  atomic energy  EATOM  =     55716.26538818
  Solvation  Ediel_sol  =         0.00000000
  ---------------------------------------------------
  free energy    TOTEN  =      -444.43952347 eV

  energy without entropy =     -444.43952347  energy(sigma->0) =     -444.43952347


--------------------------------------------------------------------------------------------------------




 average (electrostatic) potential at core
  the test charge radii are     0.9791  1.0103  0.7215
  (the norm of the test charge is              1.0000)
       1 -91.4475       2 -91.3965       3 -91.4309       4 -91.4631       5 -91.4327
       6 -91.4828       7 -91.4185       8 -91.1209       9 -91.5399      10 -91.3903
      11 -91.1761      12 -91.5414      13 -91.4407      14 -91.4807      15 -91.5325
      16 -91.1885      17 -91.5035      18 -91.4330      19 -91.1404      20 -91.4608
      21 -91.4219      22 -91.4568      23 -91.4764      24 -91.2465      25 -91.4975
      26 -91.1244      27 -91.4185      28 -91.1059      29 -91.1895      30 -91.1611
      31 -91.5088      32 -91.2268      33 -91.3876      34 -49.4099      35 -49.4039
      36 -49.5449      37 -49.6223      38 -49.7691      39 -49.5240      40 -49.5064
      41 -49.6193      42 -49.2983      43 -49.4720      44 -49.3715      45 -49.3746
      46 -49.4479      47 -49.4345      48 -49.6477      49 -49.6786      50 -49.4456
      51 -49.4093      52 -49.2974      53 -49.5153      54 -49.7533      55 -49.2640
      56 -49.5306      57 -49.5093      58 -49.6376      59 -49.4826      60 -49.5428
      61 -49.3346      62 -49.3399      63 -49.4442      64 -49.4376      65 -76.3469
      66 -76.2654      67 -76.2491      68 -76.1897
 
 
 
 E-fermi :  -0.0287     XC(G=0):  -6.0235     alpha+bet : -5.8663


 spin component 1

 k-point     1 :       0.0000    0.0000    0.0000
  band No.  band energies     occupation 
      1     -19.1823      1.00000
      2     -19.0460      1.00000
      3     -19.0341      1.00000
      4     -18.9418      1.00000
      5      -8.3963      1.00000
      6      -7.0895      1.00000
      7      -6.7373      1.00000
      8      -6.6993      1.00000
      9      -6.6305      1.00000
     10      -6.5266      1.00000
     11      -6.5135      1.00000
     12      -6.5070      1.00000
     13      -6.0675      1.00000
     14      -6.0431      1.00000
     15      -5.9536      1.00000
     16      -5.8697      1.00000
     17      -5.8301      1.00000
     18      -5.7507      1.00000
     19      -5.6994      1.00000
     20      -5.6338      1.00000
     21      -5.6167      1.00000
     22      -5.5698      1.00000
     23      -5.5101      1.00000
     24      -5.4950      1.00000
     25      -5.2944      1.00000
     26      -5.1927      1.00000
     27      -5.1673      1.00000
     28      -5.1080      1.00000
     29      -5.0705      1.00000
     30      -5.0406      1.00000
     31      -4.9916      1.00000
     32      -4.9683      1.00000
     33      -4.8737      1.00000
     34      -4.8396      1.00000
     35      -4.8127      1.00000
     36      -4.7954      1.00000
     37      -4.7665      1.00000
     38      -4.7297      1.00000
     39      -4.4843      1.00000
     40      -4.4527      1.00000
     41      -4.4091      1.00000
     42      -4.4007      1.00000
     43      -4.3897      1.00000
     44      -4.3786      1.00000
     45      -4.3569      1.00000
     46      -4.3546      1.00000
     47      -4.3369      1.00000
     48      -4.3284      1.00000
     49      -4.3195      1.00000
     50      -4.3092      1.00000
     51      -4.2998      1.00000
     52      -4.2891      1.00000
     53      -4.2639      1.00000
     54      -4.2596      1.00000
     55      -4.2447      1.00000
     56      -4.2325      1.00000
     57      -4.2098      1.00000
     58      -4.2011      1.00000
     59      -4.1943      1.00000
     60      -4.1794      1.00000
     61      -4.1648      1.00000
     62      -4.1422      1.00000
     63      -4.1338      1.00000
     64      -4.1203      1.00000
     65      -4.0993      1.00000
     66      -4.0974      1.00000
     67      -4.0815      1.00000
     68      -4.0759      1.00000
     69      -4.0628      1.00000
     70      -4.0475      1.00000
     71      -4.0114      1.00000
     72      -4.0004      1.00000
     73      -3.9872      1.00000
     74      -3.8809      1.00000
     75      -3.8621      1.00000
     76      -3.8534      1.00000
     77      -3.8287      1.00000
     78      -3.8265      1.00000
     79      -3.7932      1.00000
     80      -3.7811      1.00000
     81      -3.7648      1.00000
     82      -3.7357      1.00000
     83      -3.7188      1.00000
     84      -3.7062      1.00000
     85      -3.6838      1.00000
     86      -3.6762      1.00000
     87      -3.6712      1.00000
     88      -3.6585      1.00000
     89      -3.6353      1.00000
     90      -3.6131      1.00000
     91      -3.5914      1.00000
     92      -3.5797      1.00000
     93      -3.5709      1.00000
     94      -3.5577      1.00000
     95      -3.5331      1.00000
     96      -3.5227      1.00000
     97      -3.4854      1.00000
     98      -3.4564      1.00000
     99      -3.4311      1.00000
    100      -3.4178      1.00000
    101      -3.3986      1.00000
    102      -3.3787      1.00000
    103      -3.3690      1.00000
    104      -3.3595      1.00000
    105      -3.3394      1.00000
    106      -3.3360      1.00000
    107      -3.3178      1.00000
    108      -3.3100      1.00000
    109      -3.2972      1.00000
    110      -3.2893      1.00000
    111      -3.2747      1.00000
    112      -3.2706      1.00000
    113      -3.2367      1.00000
    114      -3.2314      1.00000
    115      -3.2249      1.00000
    116      -3.1884      1.00000
    117      -3.1755      1.00000
    118      -3.1650      1.00000
    119      -3.1543      1.00000
    120      -3.1423      1.00000
    121      -3.1271      1.00000
    122      -3.0984      1.00000
    123      -3.0927      1.00000
    124      -3.0765      1.00000
    125      -3.0664      1.00000
    126      -3.0457      1.00000
    127      -3.0158      1.00000
    128      -2.9899      1.00000
    129      -2.9765      1.00000
    130      -2.9463      1.00000
    131      -2.9313      1.00000
    132      -2.9143      1.00000
    133      -2.8965      1.00000
    134      -2.8926      1.00000
    135      -2.8867      1.00000
    136      -2.8740      1.00000
    137      -2.8394      1.00000
    138      -2.8370      1.00000
    139      -2.8221      1.00000
    140      -2.8070      1.00000
    141      -2.7899      1.00000
    142      -2.7705      1.00000
    143      -2.7673      1.00000
    144      -2.7592      1.00000
    145      -2.7307      1.00000
    146      -2.7249      1.00000
    147      -2.7184      1.00000
    148      -2.7091      1.00000
    149      -2.6888      1.00000
    150      -2.6775      1.00000
    151      -2.6600      1.00000
    152      -2.6447      1.00000
    153      -2.6422      1.00000
    154      -2.6285      1.00000
    155      -2.6161      1.00000
    156      -2.6137      1.00000
    157      -2.5962      1.00000
    158      -2.5857      1.00000
    159      -2.5791      1.00000
    160      -2.5775      1.00000
    161      -2.5700      1.00000
    162      -2.5516      1.00000
    163      -2.5505      1.00000
    164      -2.5367      1.00000
    165      -2.5274      1.00000
    166      -2.5221      1.00000
    167      -2.5167      1.00000
    168      -2.4992      1.00000
    169      -2.4958      1.00000
    170      -2.4863      1.00000
    171      -2.4799      1.00000
    172      -2.4675      1.00000
    173      -2.4628      1.00000
    174      -2.4480      1.00000
    175      -2.4461      1.00000
    176      -2.4264      1.00000
    177      -2.4182      1.00000
    178      -2.3949      1.00000
    179      -2.3884      1.00000
    180      -2.3817      1.00000
    181      -2.3669      1.00000
    182      -2.3550      1.00000
    183      -2.3479      1.00000
    184      -2.3422      1.00000
    185      -2.3315      1.00000
    186      -2.3213      1.00000
    187      -2.3091      1.00000
    188      -2.3000      1.00000
    189      -2.2913      1.00000
    190      -2.2786      1.00000
    191      -2.2702      1.00000
    192      -2.2683      1.00000
    193      -2.2579      1.00000
    194      -2.2372      1.00000
    195      -2.2349      1.00000
    196      -2.2200      1.00000
    197      -2.2132      1.00000
    198      -2.2075      1.00000
    199      -2.2018      1.00000
    200      -2.1905      1.00000
    201      -2.1874      1.00000
    202      -2.1785      1.00000
    203      -2.1587      1.00000
    204      -2.1375      1.00000
    205      -2.1319      1.00000
    206      -2.1221      1.00000
    207      -2.1037      1.00000
    208      -2.0861      1.00000
    209      -2.0814      1.00000
    210      -2.0532      1.00000
    211      -2.0393      1.00000
    212      -2.0186      1.00000
    213      -1.9862      1.00000
[...]
   0.103E+02 -.186E+02 -.251E+04   -.949E+01 0.183E+02 0.251E+04   0.209E+00 0.142E-02 0.292E+01   -.105E+01 0.380E+00 -.525E+00
   -.567E+02 0.740E+02 0.273E+04   0.568E+02 -.750E+02 -.273E+04   0.263E-01 0.326E+00 -.150E+01   -.711E-01 0.697E+00 0.375E+00
   -.491E+02 0.173E+03 -.249E+04   0.492E+02 -.177E+03 0.249E+04   0.103E+00 0.239E+01 0.693E+00   -.235E+00 0.113E+01 0.654E+00
   0.957E+02 -.480E+02 0.283E+04   -.962E+02 0.483E+02 -.283E+04   0.293E+00 -.226E+00 -.519E+00   0.481E-01 -.446E-01 0.113E+01
   0.781E+02 0.479E+02 -.249E+04   -.784E+02 -.505E+02 0.249E+04   0.114E+00 0.261E+01 0.135E+01   0.184E+00 0.370E-01 -.987E+00
   -.123E+02 0.801E+02 0.774E+03   0.119E+02 -.814E+02 -.774E+03   -.627E-01 0.515E+00 -.322E+00   0.487E+00 0.750E+00 -.233E+00
   0.793E+01 -.686E+01 -.636E+03   -.796E+01 0.758E+01 0.637E+03   0.248E-01 0.813E-01 -.598E-01   0.224E-01 -.776E+00 -.144E+01
   0.125E+02 -.358E+02 0.819E+03   -.129E+02 0.357E+02 -.819E+03   -.464E-01 -.132E+00 -.349E+00   0.357E+00 0.208E+00 -.448E+00
   0.639E+02 -.474E+02 0.226E+04   -.643E+02 0.477E+02 -.226E+04   0.389E+00 -.353E+00 -.241E+01   -.530E-02 0.824E-01 0.841E+00
   0.528E+01 -.650E+02 -.199E+04   -.441E+01 0.658E+02 0.199E+04   -.740E+00 -.533E+00 0.171E+01   -.949E-01 -.303E+00 -.793E+00
   0.192E+02 0.514E+02 -.593E+03   -.192E+02 -.521E+02 0.594E+03   -.160E-01 0.167E+00 0.537E+00   -.885E-02 0.568E+00 -.154E+01
   -.180E+02 0.134E+02 0.225E+04   0.181E+02 -.135E+02 -.225E+04   -.199E+00 -.106E+00 -.290E+01   0.904E-01 0.103E+00 0.953E+00
   0.235E+02 -.222E+02 -.200E+04   -.246E+02 0.231E+02 0.200E+04   0.792E+00 -.625E+00 0.196E+01   0.242E+00 -.257E+00 -.757E+00
   -.576E+02 -.534E+02 0.759E+03   0.578E+02 0.550E+02 -.758E+03   0.504E-01 -.234E+00 -.407E+00   -.156E+00 -.124E+01 -.125E+01
   -.135E+03 -.160E+01 -.631E+03   0.137E+03 0.322E+01 0.632E+03   -.821E+00 -.186E+00 0.357E+00   -.123E+01 -.142E+01 -.138E+01
   0.706E+02 -.469E+02 0.803E+03   -.722E+02 0.478E+02 -.802E+03   0.281E+00 -.129E+00 -.733E+00   0.116E+01 -.705E+00 -.599E+00
   0.632E+02 -.452E+02 -.569E+03   -.648E+02 0.471E+02 0.569E+03   0.569E+00 -.269E+00 0.888E+00   0.100E+01 -.159E+01 -.128E+01
   0.200E+01 -.486E+01 0.223E+04   -.196E+01 0.514E+01 -.223E+04   -.644E-01 0.159E+00 -.278E+01   0.368E-01 -.574E+00 0.663E+00
   -.373E+01 0.186E+02 -.198E+04   0.388E+01 -.177E+02 0.198E+04   -.125E+00 -.545E-01 0.432E+01   -.109E-01 -.830E+00 -.337E+00
   0.436E+02 -.605E+01 0.225E+04   -.438E+02 0.589E+01 -.225E+04   0.135E+00 -.201E+00 -.248E+01   -.165E-01 0.104E+00 0.106E+01
   0.271E+02 -.255E+01 -.207E+04   -.271E+02 0.265E+01 0.207E+04   -.124E+00 -.298E+00 0.414E+01   0.687E-01 0.176E+00 -.887E+00
   -.115E+03 0.430E+02 0.764E+03   0.116E+03 -.439E+02 -.763E+03   -.324E+00 0.284E+00 -.315E+00   -.109E+01 0.475E+00 -.104E+01
   -.117E+02 0.352E+02 0.749E+03   0.109E+02 -.358E+02 -.747E+03   -.161E+00 -.536E-01 -.669E+00   0.904E+00 0.545E+00 -.115E+01
   -.509E+02 0.261E+02 -.585E+03   0.511E+02 -.262E+02 0.586E+03   -.106E+00 -.120E-01 -.571E+00   -.139E+00 0.732E-01 -.887E+00
   -.753E+02 0.214E+02 0.220E+04   0.762E+02 -.211E+02 -.220E+04   -.323E+00 0.135E+00 -.281E+01   -.565E+00 -.380E+00 0.452E+00
   -.135E+03 -.742E+01 -.199E+04   0.137E+03 0.824E+01 0.199E+04   -.106E+01 -.539E+00 0.138E+01   -.109E+01 -.264E+00 0.669E+00
   0.227E+02 -.348E+02 -.593E+03   -.247E+02 0.351E+02 0.594E+03   0.204E-01 -.313E+00 0.461E+00   0.199E+01 -.185E-01 -.113E+01
   0.935E+02 -.708E+02 -.647E+03   -.940E+02 0.713E+02 0.649E+03   0.250E+00 -.440E+00 -.686E+00   0.202E+00 -.594E-01 -.120E+01
   0.554E+02 -.364E+01 0.224E+04   -.562E+02 0.403E+01 -.224E+04   0.206E+00 0.126E+00 -.287E+01   0.640E+00 -.477E+00 0.865E+00
   -.540E+02 -.856E+02 -.202E+04   0.542E+02 0.861E+02 0.202E+04   -.900E+00 -.639E+00 0.154E+01   0.675E+00 0.911E-01 -.568E+00
   0.617E+02 -.399E+02 -.615E+03   -.616E+02 0.399E+02 0.616E+03   0.463E+00 -.283E+00 0.420E+00   -.600E+00 0.247E+00 -.114E+01
   -.460E+02 0.184E+02 -.587E+03   0.473E+02 -.202E+02 0.588E+03   -.380E+00 0.137E+00 0.652E+00   -.936E+00 0.162E+01 -.102E+01
   -.460E+02 0.659E+02 -.588E+03   0.454E+02 -.681E+02 0.588E+03   -.278E+00 0.481E+00 0.838E+00   0.798E+00 0.166E+01 -.112E+01
   0.325E+02 0.120E+02 -.632E+03   -.335E+02 -.122E+02 0.633E+03   0.190E+00 -.468E-01 0.234E+00   0.705E+00 0.278E+00 -.122E+01
   0.195E+01 0.473E+01 0.219E+04   -.244E+01 -.487E+01 -.219E+04   -.208E+00 0.105E-01 -.266E+01   0.556E+00 0.241E+00 0.534E+00
   -.301E+02 0.251E+01 -.201E+04   0.298E+02 -.295E+01 0.200E+04   -.515E+00 0.706E-01 0.456E+01   0.848E+00 0.377E+00 -.297E+00
   0.860E+01 -.406E+02 -.197E+04   -.793E+01 0.399E+02 0.200E+04   -.743E+00 0.981E+00 -.259E+02   0.801E-01 -.320E+00 -.237E+00
   -.674E+01 -.947E+01 -.202E+04   0.476E+01 0.791E+01 0.204E+04   0.175E+01 0.172E+01 -.273E+02   0.211E+00 -.167E+00 0.530E-01
   -.461E+02 -.756E+01 -.203E+04   0.454E+02 0.763E+01 0.205E+04   0.979E+00 -.294E-01 -.267E+02   -.357E+00 -.344E-01 -.929E-01
   -.667E+01 0.302E+01 -.206E+04   0.613E+01 -.314E+01 0.208E+04   0.676E+00 -.882E-02 -.278E+02   -.127E+00 0.150E+00 -.115E+00
 -----------------------------------------------------------------------------------------------
   -.222E+01 -.485E+01 0.134E+03   -.266E-13 -.799E-12 0.273E-11   0.378E+01 0.455E+01 -.109E+03   -.158E+01 0.276E+00 -.243E+02
 
 
 POSITION                                       TOTAL-FORCE (eV/Angst)
 -----------------------------------------------------------------------------------
     10.08740      0.00562      4.04934         0.006765     -0.004450     -0.265042
     -2.53339      8.73512      4.08190         0.002853      0.078297     -0.097006
      5.03058      0.01686      4.07661        -0.037324     -0.095949     -0.160846
      8.81557      2.19268      4.07950         0.027604      0.012005     -0.169234
      1.26036      2.17683      4.06343        -0.073760     -0.105519     -0.151266
      2.54307      1.43124      6.11194        -0.005428     -0.007700     -0.001248
      6.28789      2.21111      4.10570         0.069122      0.005259     -0.277835
      3.80181      0.73423      2.00037         0.100434      0.022875      0.417767
      3.77489      0.73793      8.14491         0.008357      0.016435      0.006539
      7.57542      1.47022      6.16924         0.002716     -0.018992      0.014985
      6.31884      0.74108      2.03384         0.005675     -0.079759      0.441739
      6.30085      0.75085      8.18409        -0.003657     -0.008102      0.008700
      7.57051      4.36576      4.10283         0.003172      0.049795     -0.389798
      5.03817      4.36229      4.08171        -0.037559     -0.034960     -0.191164
      3.79202      3.62673      6.09183        -0.022032      0.005388      0.006751
      2.55462      2.91604      2.00083         0.068649      0.103306      0.399485
      2.49834      2.88940      8.12507        -0.001057      0.010242     -0.002939
      6.28239      3.62212      6.12029         0.022445     -0.009829      0.032178
      7.58585      2.93043      2.03371         0.129318      0.044863      0.435584
      7.53080      2.89326      8.18769         0.002213      0.008328      0.019804
      6.29425      6.55133      4.09263         0.028713     -0.028558     -0.227177
     -2.53998      5.80243      6.10311         0.035205      0.024439      0.027344
      3.81389      6.57546      4.07284        -0.112468     -0.013331     -0.072228
      1.26871      5.10416      2.04534        -0.046370      0.122647      0.281635
      1.20777      5.06933      8.18380         0.005445      0.022967     -0.008316
      6.29450      5.11374      2.02823        -0.001776      0.087629      0.392913
      6.23323      5.13023      8.18929        -0.030003      0.003135     -0.006406
     -2.53139      7.30304      2.00991         0.024515     -0.116037      0.288571
     -2.56226      7.31089      8.03447         0.008880     -0.001549     -0.010458
      0.00464      7.28975      2.05722         0.068508      0.054151      0.317026
     -0.02040      7.27838      8.19996        -0.005903     -0.002853     -0.013348
      5.08583      7.28318      2.02757        -0.141293      0.079811      0.379102
      5.03718      7.25268      8.17786         0.006044      0.031769      0.020859
      7.54405      0.03969      4.10439        -0.001548     -0.008922     -0.398608
     -0.00382      1.43925      6.04526         0.011191      0.021082      0.011152
      3.74186      2.14689      4.07389        -0.106699     -0.023738     -0.462992
      1.31001      0.72945      2.02674         0.010116     -0.002184      0.210288
      1.32076      0.75319      8.15155         0.029493      0.009545      0.000922
      5.09135      1.45296      6.08563         0.010717     -0.002449      0.016809
      8.82791      0.75063      2.00000         0.008896     -0.077258      0.126186
      8.74866      0.73103      8.19274        -0.015617      0.042201      0.001269
     -0.02406      4.34464      4.11684         0.032304      0.110526     -0.245704
     -1.33759      3.66125      6.10687         0.032288      0.012570      0.015257
      2.55702      4.37025      4.05869        -0.099317      0.035571     -0.300586
      1.29224      3.63461      6.08906        -0.009006      0.014099      0.010339
      0.02215      2.94990      2.02984         0.013928     -0.139624      0.002417
     -0.05299      2.89431      8.04716         0.015104      0.043612     -0.045493
      5.09719      2.93887      2.04043        -0.051478     -0.236910     -0.030680
      5.01809      2.95153      8.08544        -0.013497     -0.010423      0.013053
     -1.32764      6.58396      4.11125         0.019825     -0.163436     -0.245143
      1.24700      6.55932      4.09363        -0.048795     -0.076775     -0.274041
      0.01700      5.82927      6.17294        -0.015768      0.001080     -0.004946
     -1.29718      5.12819      2.06865         0.091808      0.101482      0.189373
     -1.26891      5.16333      8.15894         0.045689      0.021555     -0.011181
      2.48332      5.81441      6.12823        -0.006848     -0.001834      0.014310
      5.04527      5.75843      6.12201         0.010902      0.009206      0.027023
      3.79261      5.11061      2.02334         0.046646      0.038533     -0.059672
      3.76876      5.13902      8.23476         0.042784     -0.002464     -0.016634
     -3.78584      7.98318      6.06282         0.001701     -0.019831      0.018772
     -1.23618      7.97152      6.12854        -0.015066     -0.011950      0.029408
      1.25004      8.00896      6.13720         0.000696     -0.042249      0.031124
      3.79031      7.99479      6.10792        -0.021666      0.004852      0.021110
      2.54183      7.29082      2.05307        -0.128345      0.115767     -0.008316
      2.49917      7.26299      8.12337         0.008867      0.001535      0.005358
     -0.00003      0.07547      9.26324         0.007625     -0.033845      0.009355
      2.53527      4.34579      9.32047        -0.018489     -0.007908     -0.020566
     -2.51395      4.39873      9.27570        -0.007755      0.003697     -0.005986
      5.03113      0.02185      9.31619         0.011313      0.019135     -0.069643
 -----------------------------------------------------------------------------------
    total drift:                               -0.019820     -0.016101      0.061509


--------------------------------------------------------------------------------------------------------



  FREE ENERGIE OF THE ION-ELECTRON SYSTEM (eV)
  ---------------------------------------------------
  free  energy   TOTEN  =      -459.97301492 eV

  energy  without entropy=     -459.97301492  energy(sigma->0) =     -459.97301492
 


--------------------------------------------------------------------------------------------------------


    POTLOK:  cpu time    0.5351: real time    0.5352


--------------------------------------------------------------------------------------------------------


 stress matrix after NEB project (eV)
    -39.18810     -1.51200      0.09007
     -1.51200    -41.72358      0.55750
      0.09007      0.55750    -16.94550
  FORCES: max atom, RMS     0.073104    0.024323
  FORCE total and by dimension    0.200574    0.069643
  Stress total and by dimension   59.740478   41.723585
     LOOP+:  cpu time 2123.4425: real time 2124.6063
    4ORBIT:  cpu time    0.0000: real time    0.0000
 


 total charge     
 
# of ion       s       p       d       tot
------------------------------------------
    1        0.505   0.508   8.303   9.316
    2        0.502   0.506   8.328   9.336
    3        0.506   0.510   8.314   9.330
    4        0.503   0.508   8.312   9.324
    5        0.509   0.517   8.321   9.347
    6        0.514   0.522   8.317   9.354
    7        0.499   0.498   8.314   9.310
    8        0.488   0.369   8.308   9.165
    9        0.501   0.508   8.323   9.332
   10        0.517   0.521   8.335   9.372
   11        0.492   0.377   8.310   9.178
   12        0.509   0.513   8.335   9.358
   13        0.501   0.502   8.311   9.314
   14        0.504   0.508   8.308   9.320
   15        0.516   0.533   8.320   9.370
   16        0.499   0.393   8.308   9.201
   17        0.499   0.504   8.331   9.334
   18        0.508   0.513   8.332   9.353
   19        0.492   0.382   8.315   9.189
   20        0.500   0.500   8.339   9.339
   21        0.495   0.495   8.317   9.307
   22        0.517   0.525   8.339   9.381
   23        0.506   0.515   8.310   9.330
   24        0.505   0.400   8.309   9.213
   25        0.503   0.506   8.329   9.337
   26        0.492   0.378   8.311   9.181
   27        0.493   0.491   8.326   9.311
   28        0.497   0.368   8.321   9.186
   29        0.494   0.388   8.365   9.248
   30        0.490   0.377   8.319   9.186
   31        0.505   0.509   8.322   9.336
   32        0.495   0.390   8.301   9.187
   33        0.492   0.487   8.326   9.305
   34        0.465   0.496   6.184   7.146
   35        0.473   0.509   6.198   7.180
   36        0.467   0.499   6.168   7.135
   37        0.464   0.388   6.112   6.963
   38        0.473   0.505   6.179   7.157
   39        0.475   0.511   6.197   7.184
   40        0.461   0.381   6.131   6.973
   41        0.475   0.504   6.215   7.194
   42        0.476   0.512   6.216   7.204
   43        0.483   0.518   6.209   7.210
   44        0.472   0.504   6.200   7.177
   45        0.482   0.510   6.223   7.214
   46        0.469   0.386   6.145   6.999
   47        0.463   0.393   6.204   7.060
   48        0.467   0.389   6.102   6.958
   49        0.456   0.388   6.157   7.002
   50        0.471   0.504   6.195   7.170
   51        0.474   0.506   6.200   7.180
   52        0.488   0.533   6.376   7.397
   53        0.464   0.389   6.136   6.989
   54        0.480   0.522   6.179   7.181
   55        0.484   0.521   6.252   7.256
   56        0.476   0.507   6.175   7.158
   57        0.468   0.389   6.137   6.994
   58        0.480   0.514   6.226   7.220
   59        0.474   0.507   6.190   7.171
   60        0.481   0.512   6.199   7.192
   61        0.486   0.522   6.235   7.243
   62        0.475   0.511   6.204   7.189
   63        0.472   0.385   6.152   7.009
   64        0.462   0.394   6.192   7.048
   65        1.580   3.367   0.000   4.947
   66        1.581   3.348   0.000   4.929
   67        1.580   3.352   0.000   4.932
   68        1.581   3.333   0.000   4.914
--------------------------------------------------
tot         37.530  43.529 466.468 547.527
 


 magnetization (x)
 
# of ion       s       p       d       tot
------------------------------------------
    1       -0.022  -0.052   0.780   0.706
    2       -0.021  -0.043   0.668   0.604
    3       -0.026  -0.047   0.767   0.694
    4       -0.023  -0.048   0.722   0.651
    5       -0.027  -0.055   0.699   0.616
    6       -0.020  -0.048   0.670   0.603
    7       -0.020  -0.042   0.700   0.638
    8       -0.022  -0.033   0.681   0.626
    9       -0.015  -0.024   0.605   0.566
   10       -0.020  -0.045   0.600   0.535
   11       -0.021  -0.033   0.700   0.646
   12       -0.018  -0.019   0.550   0.512
   13       -0.020  -0.040   0.769   0.710
   14       -0.022  -0.049   0.732   0.661
   15       -0.030  -0.061   0.749   0.659
   16       -0.031  -0.049   0.714   0.633
   17       -0.015  -0.025   0.587   0.548
   18       -0.019  -0.039   0.682   0.624
   19       -0.022  -0.036   0.668   0.610
   20       -0.013  -0.019   0.522   0.490
   21       -0.016  -0.036   0.695   0.644
   22       -0.020  -0.044   0.637   0.574
   23       -0.028  -0.059   0.738   0.651
   24       -0.031  -0.045   0.739   0.663
   25       -0.013  -0.016   0.534   0.504
   26       -0.021  -0.032   0.662   0.610
   27       -0.014  -0.025   0.512   0.473
   28       -0.015  -0.028   0.681   0.638
   29       -0.025  -0.015   0.790   0.749
   30       -0.022  -0.033   0.691   0.636
   31       -0.011  -0.012   0.557   0.534
   32       -0.025  -0.043   0.730   0.662
   33       -0.018  -0.030   0.550   0.502
   34       -0.004  -0.030   2.662   2.629
   35       -0.010  -0.040   2.674   2.625
   36        0.002  -0.021   2.733   2.714
   37        0.008  -0.010   2.889   2.887
   38        0.010   0.001   2.696   2.708
   39       -0.002  -0.023   2.692   2.667
   40        0.003  -0.016   2.842   2.830
   41        0.010   0.003   2.577   2.590
   42       -0.008  -0.037   2.536   2.492
   43       -0.002  -0.028   2.609   2.578
   44       -0.006  -0.028   2.693   2.659
   45       -0.002  -0.025   2.552   2.524
   46        0.009  -0.019   2.822   2.812
   47       -0.008  -0.006   2.872   2.859
   48        0.015  -0.011   2.906   2.909
   49        0.011   0.001   2.966   2.979
   50        0.001  -0.020   2.633   2.614
   51       -0.004  -0.029   2.606   2.573
   52       -0.031  -0.058  -0.499  -0.588
   53        0.006  -0.009   2.841   2.838
   54        0.015   0.015   2.613   2.643
   55       -0.010  -0.039   2.397   2.348
   56        0.005  -0.021   2.669   2.653
   57        0.006  -0.011   2.831   2.826
   58        0.006   0.001   2.496   2.503
   59       -0.005  -0.023   2.698   2.671
   60        0.004  -0.014   2.627   2.617
   61       -0.006  -0.033   2.488   2.449
   62       -0.012  -0.039   2.632   2.581
   63        0.007  -0.015   2.812   2.804
   64       -0.002  -0.003   2.886   2.880
   65        0.004   0.099   0.000   0.102
   66        0.003   0.089   0.000   0.092
   67        0.003   0.090   0.000   0.093
   68        0.002   0.097   0.000   0.100
--------------------------------------------------
tot         -0.664  -1.432 102.532 100.435
 
 BZINTS: Fermi energy: -0.028677;602.000000 electrons
         Band energy:***********;  BLOECHL correction: -0.005147

 total amount of memory used by VASP MPI-rank0   350066. kBytes
=======================================================================

   base      :      30000. kBytes
   nonlr-proj:      13635. kBytes
   fftplans  :       8122. kBytes
   grid      :      22220. kBytes
   one-center:         93. kBytes
   wavefun   :     275996. kBytes
 
  
  
 General timing and accounting informations for this job:
 ========================================================
  
                  Total CPU time used (sec):     2247.455
                            User time (sec):     2083.429
                          System time (sec):      164.026
                         Elapsed time (sec):     2252.200
  
                   Maximum memory used (kb):      605756.
                   Average memory used (kb):           0.
  
                          Minor page faults:     43832815
                          Major page faults:           15
                 Voluntary context switches:         2568
