       N       E                     dE             d eps       ncg     rms          rms(c)
DAV:   1     0.948499529358E+04    0.94850E+04   -0.39818E+05 24000   0.197E+03
DAV:   2     0.814716464182E+03   -0.86703E+04   -0.80467E+04 24000   0.417E+02
DAV:   3    -0.624927364565E+03   -0.14396E+04   -0.11392E+04 24000   0.198E+02
DAV:   4    -0.737770401197E+03   -0.11284E+03   -0.10744E+03 25233   0.663E+01
DAV:   5    -0.739553115234E+03   -0.17827E+01   -0.17790E+01 26445   0.848E+00    0.136E+02
RMM:   6    -0.131804279545E+04   -0.57849E+03   -0.15874E+03 29598   0.820E+01    0.281E+02
RMM:   7    -0.688798196856E+03    0.62924E+03   -0.44681E+02 26458   0.436E+01    0.128E+02
RMM:   8    -0.968006626136E+03   -0.27921E+03   -0.28800E+02 27776   0.261E+01    0.220E+02
RMM:   9    -0.861340662608E+03    0.10667E+03   -0.93457E+01 26716   0.184E+01    0.176E+02
RMM:  10    -0.726318773635E+03    0.13502E+03   -0.71565E+01 26190   0.168E+01    0.125E+02
RMM:  11    -0.695071442815E+03    0.31247E+02   -0.76868E+01 26223   0.168E+01    0.127E+02
RMM:  12    -0.713305914099E+03   -0.18234E+02   -0.51346E+01 26593   0.142E+01    0.141E+02
RMM:  13    -0.656340088436E+03    0.56966E+02   -0.37725E+01 26622   0.122E+01    0.715E+01
RMM:  14    -0.660350888355E+03   -0.40108E+01   -0.17921E+01 26456   0.811E+00    0.718E+01
RMM:  15    -0.664872666885E+03   -0.45218E+01   -0.11746E+01 26521   0.662E+00    0.770E+01
RMM:  16    -0.656576252361E+03    0.82964E+01   -0.10070E+01 26418   0.615E+00    0.468E+01
RMM:  17    -0.655535044911E+03    0.10412E+01   -0.32115E+00 26167   0.337E+00    0.374E+01
RMM:  18    -0.658871532254E+03   -0.33365E+01   -0.24871E+00 26230   0.292E+00    0.341E+01
RMM:  19    -0.661224673054E+03   -0.23531E+01   -0.21657E+00 26263   0.275E+00    0.313E+01
RMM:  20    -0.666855472767E+03   -0.56308E+01   -0.38359E+00 26129   0.364E+00    0.357E+01
RMM:  21    -0.668327490291E+03   -0.14720E+01   -0.44353E+00 26021   0.386E+00    0.284E+01
RMM:  22    -0.671113084444E+03   -0.27856E+01   -0.38157E+00 26239   0.360E+00    0.340E+01
RMM:  23    -0.670265054613E+03    0.84803E+00   -0.28731E+00 26094   0.316E+00    0.221E+01
RMM:  24    -0.670482065104E+03   -0.21701E+00   -0.17297E+00 26274   0.247E+00    0.195E+01
RMM:  25    -0.669752655784E+03    0.72941E+00   -0.99619E-01 26285   0.190E+00    0.124E+01
RMM:  26    -0.670361319625E+03   -0.60866E+00   -0.97163E-01 26291   0.185E+00    0.162E+01
RMM:  27    -0.669780927457E+03    0.58039E+00   -0.60293E-01 26217   0.149E+00    0.905E+00
RMM:  28    -0.669799510142E+03   -0.18583E-01   -0.35965E-01 25945   0.113E+00    0.882E+00
RMM:  29    -0.669695726296E+03    0.10378E+00   -0.23109E-01 26097   0.905E-01    0.669E+00
RMM:  30    -0.669559413910E+03    0.13631E+00   -0.12796E-01 25882   0.689E-01    0.340E+00
RMM:  31    -0.669577510146E+03   -0.18096E-01   -0.50056E-02 26167   0.420E-01    0.383E+00
RMM:  32    -0.669540741397E+03    0.36769E-01   -0.28926E-02 25863   0.331E-01    0.198E+00
RMM:  33    -0.669554115628E+03   -0.13374E-01   -0.17313E-02 26346   0.245E-01    0.253E+00
RMM:  34    -0.669535982838E+03    0.18133E-01   -0.10266E-02 26327   0.196E-01    0.133E+00
RMM:  35    -0.669536679143E+03   -0.69631E-03   -0.53782E-03 26183   0.138E-01    0.138E+00
RMM:  36    -0.669532213533E+03    0.44656E-02   -0.26510E-03 26237   0.990E-02    0.846E-01
RMM:  37    -0.669532293443E+03   -0.79910E-04   -0.19741E-03 26164   0.843E-02    0.815E-01
RMM:  38    -0.669531493805E+03    0.79964E-03   -0.13013E-03 26232   0.672E-02    0.640E-01
RMM:  39    -0.669530868475E+03    0.62533E-03   -0.68370E-04 26127   0.500E-02    0.481E-01
RMM:  40    -0.669530910719E+03   -0.42245E-04   -0.39116E-04 26346   0.367E-02    0.427E-01
RMM:  41    -0.669530454119E+03    0.45660E-03   -0.31444E-04 26330   0.340E-02    0.275E-01
RMM:  42    -0.669530726889E+03   -0.27277E-03   -0.32869E-04 26298   0.336E-02    0.327E-01
RMM:  43    -0.669530480896E+03    0.24599E-03   -0.22806E-04 26118   0.289E-02    0.145E-01
RMM:  44    -0.669530507029E+03   -0.26133E-04   -0.84234E-05 26220   0.172E-02    0.150E-01
RMM:  45    -0.669530559881E+03   -0.52853E-04   -0.90581E-05 26273   0.174E-02    0.121E-01
RMM:  46    -0.669530557104E+03    0.27778E-05   -0.68210E-05 26255   0.157E-02    0.124E-01
RMM:  47    -0.669530537850E+03    0.19254E-04   -0.43184E-05 26226   0.124E-02    0.836E-02
RMM:  48    -0.669530546670E+03   -0.88204E-05   -0.31134E-05 25997   0.106E-02    0.708E-02
RMM:  49    -0.669530534270E+03    0.12400E-04   -0.18599E-05 26229   0.789E-03    0.554E-02
RMM:  50    -0.669530530110E+03    0.41600E-05   -0.87165E-06 25890   0.562E-03    0.280E-02
RMM:  51    -0.669530535761E+03   -0.56514E-05   -0.59617E-06 26038   0.445E-03    0.361E-02
RMM:  52    -0.669530532280E+03    0.34816E-05   -0.32906E-06 21156   0.357E-03    0.165E-02
RMM:  53    -0.669530529302E+03    0.29783E-05   -0.14592E-06 16067   0.236E-03    0.193E-02
RMM:  54    -0.669530529301E+03    0.43656E-09   -0.10636E-06 15325   0.216E-03
   1 F= -.66953053E+03 E0= -.66953053E+03  d E =0.000000E+00  mag=   124.5011
