 vasp.5.4.4.18Apr17-6-g9f103f2a35 (build Sep 06 2021 19:49:22) complex          
  
 executed on             LinuxIFC date 2021.12.28  09:14:35
 running on   96 total cores
 distrk:  each k-point on   96 cores,    1 groups
 distr:  one band on NCORES_PER_BAND=  32 cores,    3 groups


--------------------------------------------------------------------------------------------------------


 INCAR:
 POTCAR:    PAW_PBE Ni 02Aug2007                  
 POTCAR:    PAW_PBE Fe 06Sep2000                  

 ----------------------------------------------------------------------------- 
|                                                                             |
|           W    W    AA    RRRRR   N    N  II  N    N   GGGG   !!!           |
|           W    W   A  A   R    R  NN   N  II  NN   N  G    G  !!!           |
|           W    W  A    A  R    R  N N  N  II  N N  N  G       !!!           |
|           W WW W  AAAAAA  RRRRR   N  N N  II  N  N N  G  GGG   !            |
|           WW  WW  A    A  R   R   N   NN  II  N   NN  G    G                |
|           W    W  A    A  R    R  N    N  II  N    N   GGGG   !!!           |
|                                                                             |
|      For optimal performance we recommend to set                            |
|        NCORE= 4 - approx SQRT( number of cores)                             |
|      NCORE specifies how many cores store one orbital (NPAR=cpu/NCORE).     |
|      This setting can  greatly improve the performance of VASP for DFT.     |
|      The default,   NCORE=1            might be grossly inefficient         |
|      on modern multi-core architectures or massively parallel machines.     |
|      Do your own testing !!!!                                               |
|      Unfortunately you need to use the default for GW and RPA calculations. |
|      (for HF NCORE is supported but not extensively tested yet)             |
|                                                                             |
 ----------------------------------------------------------------------------- 

 POTCAR:    PAW_PBE Ni 02Aug2007                  
   VRHFIN =Ni:                                                                  
   LEXCH  = PE                                                                  
   EATOM  =  1077.6739 eV,   79.2068 Ry                                         
                                                                                
   TITEL  = PAW_PBE Ni 02Aug2007                                                
   LULTRA =        F    use ultrasoft PP ?                                      
   IUNSCR =        1    unscreen: 0-lin 1-nonlin 2-no                           
   RPACOR =    2.000    partial core radius                                     
   POMASS =   58.690; ZVAL   =   10.000    mass and valenz                      
   RCORE  =    2.300    outmost cutoff radius                                   
   RWIGS  =    2.430; RWIGS  =    1.286    wigner-seitz radius (au A)           
   ENMAX  =  269.532; ENMIN  =  202.149 eV                                      
   RCLOC  =    1.201    cutoff for local pot                                    
   LCOR   =        T    correct aug charges                                     
   LPAW   =        T    paw PP                                                  
   EAUG   =  544.565                                                            
   DEXC   =    0.000                                                            
   RMAX   =    2.357    core radius for proj-oper                               
   RAUG   =    1.300    factor for augmentation sphere                          
   RDEP   =    2.390    radius for radial grids                                 
   RDEPT  =    1.838    core radius for aug-charge                              
                                                                                
   Atomic configuration                                                         
    9 entries                                                                   
     n  l   j            E        occ.                                          
     1  0  0.50     -8206.4253   2.0000                                         
     2  0  0.50      -976.1748   2.0000                                         
     2  1  1.50      -839.0571   6.0000                                         
     3  0  0.50      -105.9991   2.0000                                         
     3  1  1.50       -66.4603   6.0000                                         
     3  2  2.50        -4.6458   9.0000                                         
     4  0  0.50        -4.4926   1.0000                                         
     4  1  1.50        -4.0817   0.0000                                         
     4  3  2.50        -1.3606   0.0000                                         
   Description                                                                  
     l       E           TYP  RCUT    TYP  RCUT                                 
     2     -4.6457903     23  2.300                                             
     2     -6.0063729     23  2.300                                             
     0     -4.4925590     23  2.300                                             
     0      5.0102601     23  2.300                                             
     1     -2.7211652     23  2.300                                             
     1     16.5183231     23  2.300                                             
  local pseudopotential read in
  partial core-charges read in
  partial kinetic energy density read in
  atomic valenz-charges read in
  non local Contribution for L=           2  read in
    real space projection operators read in
  non local Contribution for L=           2  read in
    real space projection operators read in
  non local Contribution for L=           0  read in
    real space projection operators read in
  non local Contribution for L=           0  read in
    real space projection operators read in
  non local Contribution for L=           1  read in
    real space projection operators read in
  non local Contribution for L=           1  read in
    real space projection operators read in
    PAW grid and wavefunctions read in
 
   number of l-projection  operators is LMAX  =           6
   number of lm-projection operators is LMMAX =          18
 
 POTCAR:    PAW_PBE Fe 06Sep2000                  
   VRHFIN =Fe:  d7 s1                                                           
   LEXCH  = PE                                                                  
   EATOM  =   594.3153 eV,   43.6809 Ry                                         
                                                                                
   TITEL  = PAW_PBE Fe 06Sep2000                                                
   LULTRA =        F    use ultrasoft PP ?                                      
   IUNSCR =        1    unscreen: 0-lin 1-nonlin 2-no                           
   RPACOR =    2.000    partial core radius                                     
   POMASS =   55.847; ZVAL   =    8.000    mass and valenz                      
   RCORE  =    2.300    outmost cutoff radius                                   
   RWIGS  =    2.460; RWIGS  =    1.302    wigner-seitz radius (au A)           
   ENMAX  =  267.882; ENMIN  =  200.911 eV                                      
   RCLOC  =    1.701    cutoff for local pot                                    
   LCOR   =        T    correct aug charges                                     
   LPAW   =        T    paw PP                                                  
   EAUG   =  511.368                                                            
   DEXC   =    0.000                                                            
   RMAX   =    2.356    core radius for proj-oper                               
   RAUG   =    1.300    factor for augmentation sphere                          
   RDEP   =    2.442    radius for radial grids                                 
   RDEPT  =    1.890    core radius for aug-charge                              
                                                                                
   Atomic configuration                                                         
    9 entries                                                                   
     n  l   j            E        occ.                                          
     1  0  0.50     -6993.8440   2.0000                                         
     2  0  0.50      -814.6047   2.0000                                         
     2  1  1.50      -693.3689   6.0000                                         
     3  0  0.50       -89.4732   2.0000                                         
     3  1  1.50       -55.6373   6.0000                                         
     3  2  2.50        -3.8151   7.0000                                         
     4  0  0.50        -4.2551   1.0000                                         
     4  1  1.50        -3.4015   0.0000                                         
     4  3  2.50        -1.3606   0.0000                                         
   Description                                                                  
     l       E           TYP  RCUT    TYP  RCUT                                 
     2     -3.8151135     23  2.300                                             
     2     -5.1756961     23  2.300                                             
     0     -4.2550963     23  2.300                                             
     0      7.2035603     23  2.300                                             
     1     -2.7211652     23  2.300                                             
     1     18.4316424     23  2.300                                             
  local pseudopotential read in
  partial core-charges read in
  partial kinetic energy density read in
  atomic valenz-charges read in
  non local Contribution for L=           2  read in
    real space projection operators read in
  non local Contribution for L=           2  read in
    real space projection operators read in
  non local Contribution for L=           0  read in
    real space projection operators read in
  non local Contribution for L=           0  read in
    real space projection operators read in
  non local Contribution for L=           1  read in
    real space projection operators read in
  non local Contribution for L=           1  read in
    real space projection operators read in
    PAW grid and wavefunctions read in
 
   number of l-projection  operators is LMAX  =           6
   number of lm-projection operators is LMMAX =          18
 
 Optimization of the real space projectors (new method)

 maximal supplied QI-value         = 16.25
 optimisation between [QCUT,QGAM] = [ 11.54, 23.24] = [ 37.28,151.24] Ry 
 Optimized for a Real-space Cutoff    1.45 Angstroem

   l    n(q)    QCUT    max X(q) W(low)/X(q) W(high)/X(q)  e(spline) 
   2      9    11.539    60.317    0.19E-03    0.47E-04    0.16E-06
   2      9    11.539    55.921    0.19E-03    0.48E-04    0.16E-06
   0     10    11.539    51.690    0.80E-04    0.50E-04    0.24E-06
   0     10    11.539    30.015    0.73E-04    0.45E-04    0.22E-06
   1     10    11.539    18.849    0.87E-04    0.16E-03    0.71E-07
   1     10    11.539    14.624    0.73E-04    0.13E-03    0.64E-07
 Optimization of the real space projectors (new method)

 maximal supplied QI-value         = 16.25
 optimisation between [QCUT,QGAM] = [ 11.54, 23.24] = [ 37.28,151.24] Ry 
 Optimized for a Real-space Cutoff    1.53 Angstroem

   l    n(q)    QCUT    max X(q) W(low)/X(q) W(high)/X(q)  e(spline) 
   2     10    11.539    80.901    0.11E-03    0.14E-03    0.21E-06
   2     10    11.539    75.754    0.11E-03    0.14E-03    0.22E-06
   0     11    11.539    58.752    0.52E-04    0.18E-04    0.33E-06
   0     11    11.539    30.679    0.44E-04    0.16E-04    0.30E-06
   1     10    11.539    17.977    0.53E-04    0.29E-04    0.13E-06
   1     10    11.539    13.559    0.44E-04    0.25E-04    0.11E-06
  PAW_PBE Ni 02Aug2007                  :
 energy of atom  1       EATOM=-1077.6739
 kinetic energy error for atom=    0.0030 (will be added to EATOM!!)
  PAW_PBE Fe 06Sep2000                  :
 energy of atom  2       EATOM= -594.3153
 kinetic energy error for atom=    0.0026 (will be added to EATOM!!)
 
 
 POSCAR: POSCAR                                  
  positions in direct lattice
  velocities in cartesian coordinates
 exchange correlation table for  LEXCH =        8
   RHO(1)=    0.500       N(1)  =     2000
   RHO(2)=  100.500       N(2)  =     4000
 


--------------------------------------------------------------------------------------------------------


 ion  position               nearest neighbor table
   1  0.778  0.964  0.157-  83 2.48  33 2.50  52 2.50   2 2.51  55 2.51   6 2.51  70 2.51  34 2.51
                             3 2.51   5 2.52  53 2.52   7 2.52
   2  0.557  0.928  0.063-  34 2.47  82 2.47  79 2.49   3 2.49  54 2.50  18 2.50  53 2.50   1 2.51
                            36 2.51   8 2.52   7 2.53  35 2.54
   3  0.887  0.816  0.037-  83 2.45  84 2.46  99 2.47   2 2.49  18 2.50  36 2.51   1 2.51   7 2.51
                            55 2.52   9 2.53  56 2.53  15 2.53
   4  0.778  0.963  0.408-  12 2.48  85 2.49  51 2.50  13 2.50  69 2.51   6 2.52  52 2.52  68 2.52
                           107 2.52   5 2.52  86 2.53  70 2.54
   5  0.554  0.926  0.315- 104 2.48  87 2.49   7 2.50  82 2.50  13 2.51  69 2.51  52 2.51   6 2.51
                             1 2.52  53 2.52  11 2.52   4 2.52
   6  0.889  0.815  0.287-  96 2.49  12 2.50  83 2.50   7 2.51   1 2.51  88 2.51   5 2.51  15 2.52
                             4 2.52  14 2.52  13 2.52  70 2.52
   7  0.666  0.778  0.195-  82 2.47  88 2.49   5 2.50  84 2.50   6 2.51  89 2.51   3 2.51   8 2.52
                             1 2.52  15 2.52   2 2.53  87 2.53
   8  0.446  0.742  0.100-  36 2.48  35 2.49  82 2.49  90 2.49  57 2.50   9 2.51  14 2.51  84 2.51
                             7 2.52   2 2.52  89 2.53  83 2.55
   9  0.223  0.703  0.008-  90 2.47  37 2.49  83 2.49  35 2.49  58 2.50  99 2.50  56 2.51   8 2.51
                            16 2.51  57 2.51  15 2.51   3 2.53
  10  0.777  0.961  0.658- 107 2.48  86 2.49  19 2.49  21 2.49  68 2.50  20 2.50  85 2.51  22 2.51
                            77 2.51  76 2.52  67 2.52  81 2.53
  11  0.330  0.889  0.473-  87 2.48 104 2.49  20 2.50  78 2.50  95 2.51  85 2.51 107 2.51  12 2.51
                             5 2.52  13 2.52  69 2.54  94 2.54
  12  0.108  0.854  0.379-   4 2.48  70 2.49   6 2.50  87 2.50 104 2.50  96 2.51  11 2.51  14 2.52
                           107 2.54  95 2.55  82 2.56  86 2.57
  13  0.667  0.778  0.445-  86 2.48  24 2.49  94 2.50   4 2.50  87 2.51  23 2.51   5 2.51   6 2.52
                            11 2.52  96 2.53  85 2.54  88 2.55
  14  0.225  0.705  0.258-  96 2.48  90 2.49  89 2.49  87 2.50  82 2.50   8 2.51  12 2.52   6 2.52
                            15 2.53  83 2.53  25 2.53  26 2.54
  15  0.001  0.666  0.166-  90 2.46  88 2.47  84 2.48  83 2.48  16 2.51  17 2.51   9 2.51   6 2.52
                            26 2.52   7 2.52  14 2.53   3 2.53
  16  0.111  0.518  0.046-  92 2.49  71 2.49  84 2.50  29 2.50  17 2.51  90 2.51  56 2.51  15 2.51
                            58 2.51   9 2.51  60 2.51  28 2.51
  17  0.890  0.480  0.204-  91 2.47  88 2.48  27 2.50  30 2.50  16 2.51  15 2.51  47 2.51  28 2.51
                            26 2.52  29 2.52  89 2.53  84 2.55
  18  0.780  0.964  0.906-  99 2.46  21 2.48  81 2.49  34 2.49  55 2.50  76 2.50   3 2.50  75 2.50
                             2 2.50  19 2.51  36 2.51  79 2.53
  19  0.556  0.926  0.815-  36 2.48  10 2.49  80 2.49  93 2.49  77 2.50  21 2.50  22 2.50  79 2.50
                            76 2.50  18 2.51  37 2.51  35 2.51
  20  0.110  0.851  0.630-  95 2.46  38 2.49 107 2.49  11 2.50  21 2.50  39 2.50  10 2.50  81 2.51
                            78 2.53  86 2.53  93 2.53  94 2.55
  21  0.889  0.816  0.788-  18 2.48  99 2.49  36 2.49  10 2.49  19 2.50  56 2.50  81 2.50  20 2.50
                            40 2.51  39 2.52  38 2.52  22 2.53
  22  0.664  0.777  0.696-  86 2.47  94 2.48  41 2.49  37 2.49  40 2.50  19 2.50  93 2.50  10 2.51
                            39 2.52  23 2.53  21 2.53  85 2.58
  23  0.781  0.628  0.573-  86 2.46  94 2.49  43 2.50  97 2.50  13 2.51  39 2.51 100 2.51  44 2.51
                            24 2.52  22 2.53  41 2.54  96 2.54
  24  0.554  0.594  0.481-  94 2.47  25 2.49  87 2.49  13 2.49  97 2.51  45 2.52  23 2.52  42 2.52
                            44 2.53  95 2.54  88 2.54  27 2.54
  25  0.334  0.555  0.390-  45 2.49  96 2.49  24 2.49  26 2.51  89 2.51  98 2.52  27 2.52  87 2.52
                            46 2.52 100 2.52  14 2.53  95 2.54
  26  0.114  0.517  0.296-  96 2.48  98 2.48  28 2.50  90 2.50  25 2.51  46 2.51  47 2.51  15 2.52
                            17 2.52  88 2.52  97 2.53  14 2.54
  27  0.669  0.442  0.360-  30 2.48  47 2.49  17 2.50  97 2.50  49 2.50  98 2.50  45 2.51  48 2.51
                            89 2.52  25 2.52  88 2.52  24 2.54
  28  0.225  0.370  0.175-  92 2.48  98 2.49  31 2.49  50 2.50  26 2.50  16 2.51  17 2.51 101 2.51
                            29 2.51  32 2.52  90 2.53  47 2.53
  29  0.004  0.332  0.082- 101 2.47 108 2.47  91 2.47  71 2.48  33 2.50  16 2.50  28 2.51  32 2.51
                            17 2.52  72 2.52  60 2.52  30 2.53
  30  0.779  0.296  0.241-  91 2.48  27 2.48  31 2.49  33 2.49  17 2.50 101 2.50  47 2.50  52 2.51
                            49 2.51  98 2.51  51 2.52  29 2.53
  31  0.557  0.261  0.149-  98 2.48  91 2.48  28 2.49  33 2.49  30 2.49  72 2.51  32 2.51  52 2.51
                            50 2.51  92 2.52  53 2.53  34 2.55
  32  0.339  0.221  0.055-  34 2.48  53 2.49 106 2.49  92 2.49 108 2.49  79 2.50 101 2.50  31 2.51
                            29 2.51  28 2.52  71 2.52  54 2.53
  33  0.887  0.149  0.121- 101 2.48  31 2.49  30 2.49   1 2.50  72 2.50  29 2.50  55 2.50 108 2.50
                            52 2.50  70 2.51  34 2.52  54 2.53
  34  0.668  0.111  0.026-   2 2.47  32 2.48  55 2.48 106 2.49  18 2.49  72 2.49  79 2.51  75 2.51
                             1 2.51  33 2.52  53 2.53  31 2.55
  35  0.332  0.888  0.971-  37 2.48  99 2.48   8 2.49  80 2.49   9 2.49  36 2.50  83 2.51  54 2.51
                            19 2.51  79 2.52  55 2.52   2 2.54
  36  0.665  0.779  0.943-  19 2.48   8 2.48  40 2.49  21 2.49  84 2.49  35 2.50  37 2.51   3 2.51
                             2 2.51  18 2.51  56 2.52  57 2.53
  37  0.442  0.741  0.852-  35 2.48  38 2.48   9 2.49  22 2.49  41 2.50  36 2.51  58 2.51  93 2.51
                            19 2.51  99 2.52  40 2.53  57 2.53
  38  0.224  0.705  0.758-  37 2.48  20 2.49  94 2.49  41 2.51  93 2.51  58 2.51  42 2.51  39 2.51
                            21 2.52  56 2.52  99 2.53  59 2.54
  39  1.000  0.666  0.668-  95 2.47  43 2.49  86 2.50  40 2.50  20 2.50  42 2.50  59 2.50  23 2.51
                            38 2.51  21 2.52  22 2.52 100 2.52
  40  0.778  0.630  0.825-  56 2.48  60 2.49  36 2.49  39 2.50  22 2.50  57 2.51  41 2.51  59 2.51
                            21 2.51  43 2.51  37 2.53  61 2.53
  41  0.556  0.592  0.733-  58 2.49  22 2.49  94 2.49  43 2.50  61 2.50  37 2.50  38 2.51  40 2.51
                            62 2.51  44 2.51  42 2.52  23 2.54
  42  0.333  0.555  0.639- 100 2.48  94 2.49  44 2.50  95 2.50  39 2.50  59 2.51  38 2.51  63 2.52
                            62 2.52  45 2.52  24 2.52  41 2.52
  43  0.888  0.482  0.704- 105 2.47 100 2.49 102 2.49  39 2.49  41 2.50  23 2.50  64 2.51  59 2.51
                            40 2.51  44 2.51  63 2.53  61 2.53
  44  0.665  0.444  0.612-  65 2.48 102 2.49  42 2.50  97 2.51  45 2.51  62 2.51  41 2.51  23 2.51
                            43 2.51  64 2.51  48 2.52  24 2.53
  45  0.446  0.407  0.517- 100 2.49  25 2.49  65 2.50  44 2.51  27 2.51  49 2.51  46 2.51 103 2.51
                            48 2.51  63 2.52  24 2.52  42 2.52
  46  0.220  0.370  0.428-  66 2.49 100 2.50  98 2.50  97 2.50  47 2.50  26 2.51  45 2.51 103 2.51
                            25 2.52  49 2.53  50 2.53 102 2.55
  47  0.001  0.332  0.334-  50 2.49  66 2.49  27 2.49  48 2.49  46 2.50  97 2.50  30 2.50  17 2.51
                            51 2.51  26 2.51 101 2.53  28 2.53
  48  0.780  0.296  0.491-  97 2.48  66 2.49 102 2.49  47 2.49  67 2.50  65 2.51  51 2.51  27 2.51
                            68 2.51  45 2.51  49 2.52  44 2.52
  49  0.556  0.258  0.398-  98 2.47  69 2.48  52 2.49 103 2.50  27 2.50  30 2.51  45 2.51  51 2.51
                            48 2.52  68 2.52  50 2.53  46 2.53
  50  0.332  0.221  0.305-  98 2.48 104 2.48  53 2.49  47 2.49  69 2.50  28 2.50  66 2.51  52 2.51
                            31 2.51 101 2.51  49 2.53  46 2.53
  51  0.890  0.147  0.371-   4 2.50  66 2.50  70 2.50  52 2.51  49 2.51  48 2.51  47 2.51 107 2.51
                           104 2.52  30 2.52  68 2.52 101 2.54
  52  0.666  0.111  0.278-  69 2.49  49 2.49   1 2.50  33 2.50  30 2.51  51 2.51  31 2.51  50 2.51
                             5 2.51   4 2.52  53 2.52  70 2.53
  53  0.443  0.075  0.185-  82 2.48  32 2.49  50 2.49 101 2.49 104 2.50   2 2.50  54 2.50   5 2.52
                             1 2.52  52 2.52  31 2.53  34 2.53
  54  0.223  0.036  0.092-  82 2.47 108 2.48  70 2.49 101 2.50  79 2.50   2 2.50  55 2.50  53 2.50
                            35 2.51  83 2.53  32 2.53  33 2.53
  55  0.998  0.002  1.000-  34 2.48 108 2.49  99 2.49  83 2.49  75 2.49  18 2.50  54 2.50  33 2.50
                             1 2.51  80 2.51   3 2.52  35 2.52
  56  0.000  0.666  0.916-  84 2.47  40 2.48  59 2.49  58 2.49  21 2.50  60 2.51  16 2.51   9 2.51
                            99 2.51  38 2.52  36 2.52   3 2.53
  57  0.556  0.592  0.982-  60 2.48  61 2.49  90 2.50   8 2.50  92 2.50  40 2.51   9 2.51  84 2.53
                            58 2.53  36 2.53  37 2.53  91 2.53
  58  0.332  0.556  0.888-  59 2.48  41 2.49  62 2.49  56 2.49   9 2.50  61 2.50  37 2.51  38 2.51
                            16 2.51  71 2.51  92 2.51  57 2.53
  59  0.112  0.518  0.797-  58 2.48  71 2.49  56 2.49  62 2.50 105 2.50  39 2.50  42 2.51  60 2.51
                            40 2.51  43 2.51  63 2.53  38 2.54
  60  0.886  0.482  0.954-  91 2.47  57 2.48  61 2.49  40 2.49  56 2.51  59 2.51  16 2.51  72 2.51
                            71 2.51  84 2.52  29 2.52 105 2.53
  61  0.664  0.444  0.863-  92 2.48  57 2.49  60 2.49  72 2.49  64 2.49  62 2.50 105 2.50  41 2.50
                            58 2.50 106 2.52  40 2.53  43 2.53
  62  0.444  0.407  0.770-  58 2.49  71 2.49  64 2.49 106 2.50  61 2.50  59 2.50  73 2.50  41 2.51
                            65 2.51  44 2.51  63 2.52  42 2.52
  63  0.224  0.369  0.676- 100 2.47  65 2.48 105 2.49  73 2.50 103 2.50  74 2.51 102 2.51  42 2.52
                            45 2.52  62 2.52  59 2.53  43 2.53
  64  0.776  0.297  0.743- 105 2.46 102 2.46 106 2.47  75 2.49  62 2.49  61 2.49  76 2.51  43 2.51
                            44 2.51  74 2.52  67 2.52  65 2.52
  65  0.555  0.261  0.648-  63 2.48  44 2.48 103 2.49  67 2.49  45 2.50  68 2.50  77 2.51  48 2.51
                            62 2.51  76 2.52  64 2.52  73 2.53
  66  0.110  0.185  0.463-  48 2.49 104 2.49  46 2.49  47 2.49  51 2.50  78 2.50 107 2.50  50 2.51
                            69 2.51  67 2.53 103 2.53 102 2.53
  67  0.885  0.149  0.622- 102 2.47  68 2.48  76 2.48 107 2.48  65 2.49  74 2.50  48 2.50  81 2.51
                            64 2.52  10 2.52  78 2.53  66 2.53
  68  0.667  0.111  0.530-  85 2.45 103 2.48  67 2.48 107 2.48  77 2.50  65 2.50  10 2.50  48 2.51
                             4 2.52  69 2.52  49 2.52  51 2.52
  69  0.445  0.076  0.434-  85 2.47  49 2.48 104 2.48  52 2.49 103 2.49  50 2.50   4 2.51  66 2.51
                             5 2.51  68 2.52  78 2.52  11 2.54
  70  0.003  0.001  0.249-  12 2.49  54 2.49 101 2.49  51 2.50  33 2.51   1 2.51  82 2.52   6 2.52
                            52 2.53 104 2.53  83 2.54   4 2.54
  71  0.221  0.371  0.926-  29 2.48  59 2.49  73 2.49  62 2.49  16 2.49  92 2.50 108 2.50  58 2.51
                            60 2.51  32 2.52 105 2.53 106 2.53
  72  0.778  0.295  0.990-  61 2.49  91 2.49  34 2.49  33 2.50  75 2.50  31 2.51  60 2.51 106 2.51
                            29 2.52  92 2.53 108 2.53 105 2.53
  73  0.331  0.223  0.807- 106 2.49  71 2.49  63 2.50 108 2.50  77 2.50  79 2.50  80 2.50  62 2.50
                           105 2.51  76 2.52  74 2.52  65 2.53
  74  0.110  0.184  0.713- 102 2.46  75 2.48  81 2.48  78 2.49  67 2.50 105 2.50  63 2.51  77 2.51
                            64 2.52  73 2.52  80 2.52 103 2.52
  75  0.891  0.148  0.869-  74 2.48  64 2.49  55 2.49  81 2.50 105 2.50  72 2.50  18 2.50 106 2.50
                            34 2.51  80 2.51  76 2.52 108 2.54
  76  0.666  0.111  0.778- 106 2.47  77 2.48  67 2.48  18 2.50  19 2.50  79 2.51  64 2.51  75 2.52
                            73 2.52  65 2.52  10 2.52  81 2.52
  77  0.445  0.075  0.687-  76 2.48  80 2.49  85 2.49  68 2.50 103 2.50  93 2.50  73 2.50  19 2.50
                            65 2.51  10 2.51  74 2.51  78 2.53
  78  0.222  0.038  0.593-  85 2.47  74 2.49 107 2.49  81 2.50 103 2.50  66 2.50  11 2.50  93 2.50
                            69 2.52  20 2.53  67 2.53  77 2.53
  79  0.443  0.074  0.935-  80 2.48 108 2.48   2 2.49 106 2.49  32 2.50  54 2.50  73 2.50  19 2.50
                            76 2.51  34 2.51  35 2.52  18 2.53
  80  0.225  0.036  0.843-  79 2.48  93 2.48  35 2.49  77 2.49  19 2.49  73 2.50  55 2.51  75 2.51
                            99 2.51  81 2.51 108 2.52  74 2.52
  81  0.002  0.000  0.750-  74 2.48  18 2.49  93 2.49  75 2.50  78 2.50  21 2.50  99 2.51  67 2.51
                            20 2.51  80 2.51  76 2.52  10 2.53
  82  0.338  0.890  0.218-   7 2.47  54 2.47   2 2.47  53 2.48   8 2.49  14 2.50   5 2.50  70 2.52
                            87 2.53 104 2.55  12 2.56  83 2.57
  83  0.105  0.851  0.127-   3 2.45   1 2.48  15 2.48   9 2.49  55 2.49   6 2.50  35 2.51  54 2.53
                            14 2.53  70 2.54   8 2.55  82 2.57
  84  0.782  0.634  0.072-   3 2.46  56 2.47  15 2.48  36 2.49  16 2.50   7 2.50   8 2.51  60 2.52
                            57 2.53  17 2.55  89 2.55  91 2.57
  85  0.552  0.932  0.564-  68 2.45  69 2.47  78 2.47   4 2.49  77 2.49  10 2.51  11 2.51  93 2.52
                            86 2.52  13 2.54  94 2.58  22 2.58
  86  0.882  0.813  0.540-  23 2.46  22 2.47  13 2.48  10 2.49  39 2.50  95 2.50  85 2.52   4 2.53
                            20 2.53 107 2.55  96 2.56  12 2.57
  87  0.441  0.743  0.354-  11 2.48   5 2.49  24 2.49  14 2.50  12 2.50  13 2.51  25 2.52   7 2.53
                            95 2.53  82 2.53  89 2.54  88 2.55
  88  0.780  0.629  0.321-  15 2.47  17 2.48   7 2.49  89 2.49   6 2.51  96 2.52  26 2.52  27 2.52
                            24 2.54  97 2.54  13 2.55  87 2.55
  89  0.555  0.593  0.231-  14 2.49  88 2.49   7 2.51  25 2.51  90 2.52  27 2.52   8 2.53  17 2.53
                            87 2.54  91 2.54  84 2.55  98 2.56
  90  0.330  0.559  0.138-  15 2.46   9 2.47  14 2.49   8 2.49  57 2.50  26 2.50  16 2.51  89 2.52
                            28 2.53  92 2.53  98 2.59  91 2.61
  91  0.675  0.441  0.111-  60 2.47  29 2.47  17 2.47  30 2.48  31 2.48  72 2.49  57 2.53  89 2.54
                            92 2.56  84 2.57  98 2.58  90 2.61
  92  0.442  0.408  0.018-  61 2.48  28 2.48  32 2.49  16 2.49  71 2.50  57 2.50  58 2.51  31 2.52
                            72 2.53  90 2.53 106 2.54  91 2.56
  93  0.334  0.891  0.723-  80 2.48  81 2.49  19 2.49  77 2.50  78 2.50  22 2.50  38 2.51  37 2.51
                            85 2.52  20 2.53  99 2.54  94 2.56
  94  0.449  0.737  0.602-  24 2.47  22 2.48  23 2.49  42 2.49  41 2.49  38 2.49  13 2.50  95 2.53
                            11 2.54  20 2.55  93 2.56  85 2.58
  95  0.216  0.705  0.512-  20 2.46  39 2.47  86 2.50  42 2.50  11 2.51  96 2.52 100 2.52  94 2.53
                            87 2.53  24 2.54  25 2.54  12 2.55
  96  0.004  0.667  0.413-  14 2.48  26 2.48   6 2.49  25 2.49  12 2.51  88 2.52  95 2.52  13 2.53
                            23 2.54  97 2.55  86 2.56 100 2.59
  97  0.887  0.480  0.454-  48 2.48  46 2.50  23 2.50  27 2.50  47 2.50  44 2.51  24 2.51  26 2.53
                           102 2.54  88 2.54  96 2.55 100 2.55
  98  0.442  0.404  0.271-  49 2.47  50 2.48  31 2.48  26 2.48  28 2.49  46 2.50  27 2.50  30 2.51
                            25 2.52  89 2.56  91 2.58  90 2.59
  99  0.107  0.853  0.882-  18 2.46   3 2.47  35 2.48  21 2.49  55 2.49   9 2.50  81 2.51  56 2.51
                            80 2.51  37 2.52  38 2.53  93 2.54
 100  0.114  0.515  0.549-  63 2.47  42 2.48  43 2.49  45 2.49  46 2.50  23 2.51  39 2.52  95 2.52
                            25 2.52 102 2.53  97 2.55  96 2.59
 101  0.111  0.186  0.210-  29 2.47  33 2.48  70 2.49  53 2.49  54 2.50  30 2.50  32 2.50  28 2.51
                            50 2.51  47 2.53  51 2.54 104 2.56
 102  0.994  0.331  0.588-  64 2.46  74 2.46  67 2.47  44 2.49  48 2.49  43 2.49  63 2.51 100 2.53
                            66 2.53  97 2.54  46 2.55 103 2.57
 103  0.338  0.221  0.555-  68 2.48  65 2.49  69 2.49  49 2.50  77 2.50  63 2.50  78 2.50  45 2.51
                            46 2.51  74 2.52  66 2.53 102 2.57
 104  0.226  0.037  0.344-   5 2.48  69 2.48  50 2.48  11 2.49  66 2.49  53 2.50  12 2.50  51 2.52
                            70 2.53 107 2.55  82 2.55 101 2.56
 105  0.998  0.334  0.830-  64 2.46  43 2.47  63 2.49  75 2.50  59 2.50  74 2.50  61 2.50  73 2.51
                            72 2.53  60 2.53  71 2.53 108 2.58
 106  0.557  0.257  0.897-  76 2.47  64 2.47  34 2.49  73 2.49  32 2.49  79 2.49  62 2.50  75 2.50
                            72 2.51  61 2.52  71 2.53  92 2.54
 107  0.997  0.001  0.503-  10 2.48  67 2.48  68 2.48  78 2.49  20 2.49  66 2.50  11 2.51  51 2.51
                             4 2.52  12 2.54 104 2.55  86 2.55
 108  0.114  0.184  0.965-  29 2.47  54 2.48  79 2.48  55 2.49  32 2.49  73 2.50  33 2.50  71 2.50
                            80 2.52  72 2.53  75 2.54 105 2.58
 

IMPORTANT INFORMATION: All symmetrisations will be switched off!
NOSYMM: (Re-)initialisation of all symmetry stuff for point group C_1.

 
 

Automatic generation of k-mesh.
 generate k-points for:    3    2    2
Space group operators:
 irot       det(A)        alpha          n_x          n_y          n_z        tau_x        tau_y        tau_z
    1     1.000000     0.000000     1.000000     0.000000     0.000000     0.000000     0.000000     0.000000
 
 Subroutine IBZKPT returns following result:
 ===========================================
 
 Found      8 irreducible k-points:
 
 Following reciprocal coordinates:
            Coordinates               Weight
  0.000000  0.000000  0.000000      1.000000
  0.333333  0.000000  0.000000      2.000000
  0.000000  0.500000  0.000000      1.000000
  0.333333  0.500000  0.000000      2.000000
  0.000000  0.000000  0.500000      1.000000
  0.333333  0.000000  0.500000      2.000000
  0.000000  0.500000  0.500000      1.000000
  0.333333  0.500000  0.500000      2.000000
 
 Following cartesian coordinates:
            Coordinates               Weight
 -0.000000 -0.000000 -0.000000      1.000000
  0.074074 -0.148148 -0.000000      2.000000
 -0.148148 -0.037037 -0.000000      1.000000
 -0.074074 -0.185185 -0.000000      2.000000
  0.004630  0.032407 -0.125000      1.000000
  0.078704 -0.115741 -0.125000      2.000000
 -0.143519 -0.004630 -0.125000      1.000000
 -0.069444 -0.152778 -0.125000      2.000000
 
 TETIRR: Found     36 inequivalent tetrahedra from       72


--------------------------------------------------------------------------------------------------------




 Dimension of arrays:
   k-points           NKPTS =      8   k-points in BZ     NKDIM =      8   number of bands    NBANDS=    750
   number of dos      NEDOS =    301   number of ions     NIONS =    108
   non local maximal  LDIM  =      6   non local SUM 2l+1 LMDIM =     18
   total plane-waves  NPLWV = 544320
   max r-space proj   IRMAX =   6889   max aug-charges    IRDMAX=  16317
   dimension x,y,z NGX =    56 NGY =   90 NGZ =  108
   dimension x,y,z NGXF=   112 NGYF=  180 NGZF=  216
   support grid    NGXF=   112 NGYF=  180 NGZF=  216
   ions per type =              81  27
   NGX,Y,Z   is equivalent  to a cutoff of  12.38, 12.45, 12.66 a.u.
   NGXF,Y,Z  is equivalent  to a cutoff of  24.76, 24.89, 25.32 a.u.

 SYSTEM =  SQS-NiFe                                
 POSCAR =  POSCAR                                  

 Startparameter for this run:
   NWRITE =      2    write-flag & timer
   PREC   = accura    normal or accurate (medium, high low for compatibility)
   ISTART =      0    job   : 0-new  1-cont  2-samecut
   ICHARG =      2    charge: 1-file 2-atom 10-const
   ISPIN  =      2    spin polarized calculation?
   LNONCOLLINEAR =      F non collinear calculations
   LSORBIT =      F    spin-orbit coupling
   INIWAV =      1    electr: 0-lowe 1-rand  2-diag
   LASPH  =      F    aspherical Exc in radial PAW
   METAGGA=      F    non-selfconsistent MetaGGA calc.

 Electronic Relaxation 1
   ENCUT  =  520.0 eV  38.22 Ry    6.18 a.u.  13.98 22.35 26.37*2*pi/ulx,y,z
   ENINI  =  520.0     initial cutoff
   ENAUG  =  544.6 eV  augmentation charge cutoff
   NELM   =    200;   NELMIN=  2; NELMDL= -5     # of ELM steps 
   EDIFF  = 0.1E-05   stopping-criterion for ELM
   LREAL  =      T    real-space projection
   NLSPLINE    = F    spline interpolate recip. space projectors
   LCOMPAT=      F    compatible to vasp.4.4
   GGA_COMPAT  = T    GGA compatible to vasp.4.4-vasp.4.6
   LMAXPAW     = -100 max onsite density
   LMAXMIX     =    2 max onsite mixed and CHGCAR
   VOSKOWN=      0    Vosko Wilk Nusair interpolation
   ROPT   =   -0.00025  -0.00025
 Ionic relaxation
   EDIFFG = -.2E-01   stopping-criterion for IOM
   NSW    =      0    number of steps for IOM
   NBLOCK =      1;   KBLOCK =      1    inner block; outer block 
   IBRION =     -1    ionic relax: 0-MD 1-quasi-New 2-CG
   NFREE  =      0    steps in history (QN), initial steepest desc. (CG)
   ISIF   =      2    stress and relaxation
   IWAVPR =     10    prediction:  0-non 1-charg 2-wave 3-comb
   ISYM   =      0    0-nonsym 1-usesym 2-fastsym
   LCORR  =      T    Harris-Foulkes like correction to forces

   POTIM  = 0.5000    time-step for ionic-motion
   TEIN   =    0.0    initial temperature
   TEBEG  =    0.0;   TEEND  =   0.0 temperature during run
   SMASS  =  -3.00    Nose mass-parameter (am)
   estimated Nose-frequenzy (Omega)   =  0.10E-29 period in steps =****** mass=  -0.129E-26a.u.
   SCALEE = 1.0000    scale energy and forces
   NPACO  =    256;   APACO  = 16.0  distance and # of slots for P.C.
   PSTRESS=    0.0 pullay stress

  Mass of Ions in am
   POMASS =  58.69 55.85
  Ionic Valenz
   ZVAL   =  10.00  8.00
  Atomic Wigner-Seitz radii
   RWIGS  =  -1.00 -1.00
  virtual crystal weights 
   VCA    =   1.00  1.00
   NELECT =    1026.0000    total number of electrons
   NUPDOWN=      -1.0000    fix difference up-down

 DOS related values:
   EMIN   =  10.00;   EMAX   =-10.00  energy-range for DOS
   EFERMI =   0.00
   ISMEAR =    -5;   SIGMA  =   0.20  broadening in eV -4-tet -1-fermi 0-gaus

 Electronic relaxation 2 (details)
   IALGO  =     68    algorithm
   LDIAG  =      T    sub-space diagonalisation (order eigenvalues)
   LSUBROT=      F    optimize rotation matrix (better conditioning)
   TURBO    =      0    0=normal 1=particle mesh
   IRESTART =      0    0=no restart 2=restart with 2 vectors
   NREBOOT  =      0    no. of reboots
   NMIN     =      0    reboot dimension
   EREF     =   0.00    reference energy to select bands
   IMIX   =      4    mixing-type and parameters
     AMIX     =   0.40;   BMIX     =  1.00
     AMIX_MAG =   1.60;   BMIX_MAG =  1.00
     AMIN     =   0.10
     WC   =   100.;   INIMIX=   1;  MIXPRE=   1;  MAXMIX= -45

 Intra band minimization:
   WEIMIN = 0.0000     energy-eigenvalue tresh-hold
   EBREAK =  0.33E-09  absolut break condition
   DEPER  =   0.30     relativ break condition  

   TIME   =   0.40     timestep for ELM

  volume/ion in A,a.u.               =      11.14        75.16
  Fermi-wavevector in a.u.,A,eV,Ry     =   1.552577  2.933945 32.796776  2.410495
  Thomas-Fermi vector in A             =   2.656932
 
 Write flags
   LWAVE        =      F    write WAVECAR
   LDOWNSAMPLE  =      F    k-point downsampling of WAVECAR
   LCHARG       =      T    write CHGCAR
   LVTOT        =      F    write LOCPOT, total local potential
   LVHAR        =      F    write LOCPOT, Hartree potential only
   LELF         =      F    write electronic localiz. function (ELF)
   LORBIT       =     11    0 simple, 1 ext, 2 COOP (PROOUT), +10 PAW based schemes


 Dipole corrections
   LMONO  =      F    monopole corrections only (constant potential shift)
   LDIPOL =      F    correct potential (dipole corrections)
   IDIPOL =      0    1-x, 2-y, 3-z, 4-all directions 
   EPSILON=  1.0000000 bulk dielectric constant

 Exchange correlation treatment:
   GGA     =    --    GGA type
   LEXCH   =     8    internal setting for exchange type
   VOSKOWN=      0    Vosko Wilk Nusair interpolation
   LHFCALC =     F    Hartree Fock is set to
   LHFONE  =     F    Hartree Fock one center treatment
   AEXX    =    0.0000 exact exchange contribution

 Linear response parameters
   LEPSILON=     F    determine dielectric tensor
   LRPA    =     F    only Hartree local field effects (RPA)
   LNABLA  =     F    use nabla operator in PAW spheres
   LVEL    =     F    velocity operator in full k-point grid
   LINTERFAST=   F  fast interpolation
   KINTER  =     0    interpolate to denser k-point grid
   CSHIFT  =0.1000    complex shift for real part using Kramers Kronig
   OMEGAMAX=  -1.0    maximum frequency
   DEG_THRESHOLD= 0.2000000E-02 threshold for treating states as degnerate
   RTIME   =   -0.100 relaxation time in fs
  (WPLASMAI=    0.000 imaginary part of plasma frequency in eV, 0.658/RTIME)
   DFIELD  = 0.0000000 0.0000000 0.0000000 field for delta impulse in time
 
 Orbital magnetization related:
   ORBITALMAG=     F  switch on orbital magnetization
   LCHIMAG   =     F  perturbation theory with respect to B field
   DQ        =  0.001000  dq finite difference perturbation B field
   LLRAUG    =     F  two centre corrections for induced B field



--------------------------------------------------------------------------------------------------------


 Static calculation
 charge density and potential will be updated during run
 spin polarized calculation
 RMM-DIIS sequential band-by-band and
  variant of blocked Davidson during initial phase
 perform sub-space diagonalisation
    before iterative eigenvector-optimisation
 modified Broyden-mixing scheme, WC =      100.0
 initial mixing is a Kerker type mixing with AMIX =  0.4000 and BMIX =      1.0000
 Hartree-type preconditioning will be used
 using additional bands          237
 real space projection scheme for non local part
 use partial core corrections
 calculate Harris-corrections to forces 
   (improved forces if not selfconsistent)
 use gradient corrections 
 use of overlap-Matrix (Vanderbilt PP)
 Fermi weights with tetrahedron method with Bloechl corrections


--------------------------------------------------------------------------------------------------------


  energy-cutoff  :      520.00
  volume of cell :     1202.85
      direct lattice vectors                 reciprocal lattice vectors
     1.772500000 -7.090000000 -1.772500000     0.062686099 -0.125372199  0.000000000
   -10.635000000 -5.317500000 -1.772500000    -0.083581466 -0.020895366  0.000000000
     0.000000000  0.000000000-14.180000000     0.002611921  0.018283446 -0.070521862

  length of vectors
     7.520080618 12.021679895 14.180000000     0.140170379  0.086153803  0.072900202


 
 k-points in units of 2pi/SCALE and weight: read from INCAR                         
  -0.00000000 -0.00000000 -0.00000000       0.083
   0.07407407 -0.14814815 -0.00000000       0.167
  -0.14814815 -0.03703704 -0.00000000       0.083
  -0.07407407 -0.18518519 -0.00000000       0.167
   0.00462963  0.03240741 -0.12500000       0.083
   0.07870370 -0.11574074 -0.12500000       0.167
  -0.14351852 -0.00462963 -0.12500000       0.083
  -0.06944444 -0.15277778 -0.12500000       0.167
 
 k-points in reciprocal lattice and weights: read from INCAR                         
   0.00000000  0.00000000  0.00000000       0.083
   0.33333333  0.00000000  0.00000000       0.167
   0.00000000  0.50000000  0.00000000       0.083
   0.33333333  0.50000000  0.00000000       0.167
   0.00000000  0.00000000  0.50000000       0.083
   0.33333333  0.00000000  0.50000000       0.167
   0.00000000  0.50000000  0.50000000       0.083
   0.33333333  0.50000000  0.50000000       0.167
 
 position of ions in fractional coordinates (direct lattice) 
   0.77784158  0.96431124  0.15749036
   0.55745681  0.92814386  0.06346727
   0.88736790  0.81606631  0.03650147
   0.77770993  0.96273066  0.40823661
   0.55429221  0.92578068  0.31486218
   0.88923032  0.81514815  0.28650549
   0.66562488  0.77843470  0.19475069
   0.44588696  0.74184311  0.09954696
   0.22264923  0.70307180  0.00831749
   0.77710881  0.96111817  0.65790906
   0.33049218  0.88900136  0.47321716
   0.10833607  0.85421871  0.37886776
   0.66651778  0.77789652  0.44484436
   0.22517421  0.70535019  0.25809600
   0.00065708  0.66574071  0.16638158
   0.11071963  0.51792492  0.04566606
   0.89030190  0.48025251  0.20351549
   0.78014741  0.96366632  0.90615276
   0.55639873  0.92576648  0.81467140
   0.11047570  0.85111471  0.63009985
   0.88939045  0.81586684  0.78784820
   0.66446840  0.77650460  0.69566477
   0.78087692  0.62847968  0.57321852
   0.55449858  0.59422555  0.48071703
   0.33403457  0.55512700  0.38964221
   0.11427874  0.51721824  0.29607746
   0.66873997  0.44249809  0.35986307
   0.22527934  0.37034267  0.17515480
   0.00397363  0.33177895  0.08207454
   0.77881923  0.29600644  0.24080135
   0.55683278  0.26073184  0.14862315
   0.33881918  0.22134027  0.05462563
   0.88718662  0.14906767  0.12072639
   0.66756586  0.11076010  0.02600191
   0.33189211  0.88783598  0.97136522
   0.66545086  0.77917809  0.94338241
   0.44204923  0.74134479  0.85207506
   0.22446268  0.70538177  0.75846317
   0.99979122  0.66617426  0.66798432
   0.77845635  0.63018254  0.82510237
   0.55612422  0.59193636  0.73327229
   0.33300774  0.55534884  0.63933098
   0.88844465  0.48227745  0.70396200
   0.66496439  0.44441686  0.61194895
   0.44585053  0.40732346  0.51747084
   0.21957740  0.36967052  0.42761251
   0.00068863  0.33229024  0.33367580
   0.78010170  0.29565390  0.49062741
   0.55646059  0.25807485  0.39792468
   0.33166552  0.22146191  0.30476019
   0.88994483  0.14662396  0.37075126
   0.66602423  0.11147093  0.27821000
   0.44261465  0.07467250  0.18497435
   0.22288468  0.03584009  0.09193252
   0.99829709  0.00207136  0.99967935
   0.00016171  0.66596632  0.91582189
   0.55620352  0.59163669  0.98200681
   0.33211348  0.55578661  0.88807914
   0.11181371  0.51784910  0.79709743
   0.88626610  0.48178774  0.95368552
   0.66436859  0.44386743  0.86313284
   0.44400477  0.40695929  0.77011915
   0.22412576  0.36855819  0.67564245
   0.77580167  0.29718450  0.74293797
   0.55506545  0.26099993  0.64768333
   0.11047710  0.18499280  0.46289268
   0.88504859  0.14864933  0.62176209
   0.66666050  0.11083153  0.52967333
   0.44530310  0.07569381  0.43436395
   0.00276152  0.00074441  0.24896397
   0.22066782  0.37063753  0.92578222
   0.77774574  0.29519388  0.99026590
   0.33087375  0.22278730  0.80682989
   0.10971328  0.18436758  0.71259645
   0.89136272  0.14848725  0.86915118
   0.66571822  0.11136475  0.77782342
   0.44518675  0.07534623  0.68668342
   0.22179455  0.03785714  0.59260150
   0.44317114  0.07373836  0.93484997
   0.22503384  0.03635645  0.84293171
   0.00165217  0.00012826  0.74998575
   0.33816266  0.88958670  0.21837985
   0.10531215  0.85107017  0.12718273
   0.78169565  0.63352253  0.07194037
   0.55173043  0.93176141  0.56372305
   0.88238799  0.81258618  0.54001041
   0.44058013  0.74310147  0.35362566
   0.77961595  0.62912141  0.32089722
   0.55466309  0.59323291  0.23136736
   0.32976689  0.55946626  0.13791722
   0.67520028  0.44142340  0.11067313
   0.44228666  0.40770439  0.01825541
   0.33359586  0.89111749  0.72262741
   0.44946361  0.73741092  0.60211941
   0.21619960  0.70480131  0.51232214
   0.00399922  0.66667843  0.41285025
   0.88706938  0.47973590  0.45422373
   0.44244631  0.40396380  0.27080699
   0.10697250  0.85296433  0.88161628
   0.11382429  0.51547144  0.54890254
   0.11123644  0.18562443  0.20981664
   0.99379044  0.33108228  0.58779137
   0.33773578  0.22089080  0.55546658
   0.22568923  0.03697787  0.34380488
   0.99768707  0.33443951  0.83045775
   0.55678786  0.25671358  0.89688013
   0.99698831  0.00084796  0.50343649
   0.11410972  0.18417102  0.96489638
 
 position of ions in cartesian coordinates  (Angst):
  -8.87672580-10.64262181 -5.32117925
  -8.88271773 -8.88777372 -3.53319308
  -7.10600557-10.63087104 -3.53692800
  -8.86014970-10.63328372 -8.87372601
  -8.86319454 -8.85277050 -7.08817486
  -7.09293982-10.63919323 -7.08365874
  -7.09883291 -8.85860689 -5.32116035
  -7.09916679 -7.10608928 -3.51682742
  -7.08252285 -5.31716738 -1.75878253
  -8.84406635-10.62044729-12.41015778
  -8.86873203 -7.07045425 -8.87177158
  -8.89259034 -5.31041075 -7.07847320
  -7.09152670 -8.86207581 -8.86811741
  -7.10227800 -5.34718483 -5.30915582
  -7.07898776 -3.54473495 -3.54048085
  -5.31188101 -3.53906797 -1.76181714
  -3.52942535 -8.86598320 -5.31515738
  -8.86578003-10.65554083-15.94015595
  -8.85930975 -8.86763022-14.17917835
  -8.85578676 -5.30907520-10.63923481
  -7.10029932-10.64415021-14.19425609
  -7.08035616 -8.84014418-12.41865107
  -5.29977704 -8.87835804-10.62632320
  -5.33673995 -7.09118925 -8.85268092
  -5.31169934 -5.32019295 -7.10116536
  -5.29805695 -3.56054431 -5.31770672
  -3.52062553 -7.09434997 -7.07252776
  -3.53928670 -3.56652769 -3.53943507
  -3.52142585 -1.79240763 -1.75893847
  -1.76757135 -7.09584258 -5.31969166
  -1.78589699 -5.33438595 -3.55660948
  -1.75339679 -3.57920491 -1.76747409
  -0.01279642 -7.08282051 -3.54866097
   0.00532686 -5.32200874 -1.74828987
  -8.85385685 -7.07418289-15.93592684
  -7.10704729 -8.86132608-15.93776736
  -7.10066957 -7.07622993-14.17999027
  -7.10387501 -5.34230793-12.40315704
  -5.31263331-10.63090134-12.42494147
  -5.32217739 -8.87025116-14.19676399
  -5.30951301 -7.09054229-12.43273840
  -5.31587872 -5.31409238-10.64032530
  -3.55425250 -8.86358291-12.41178604
  -3.54772393 -7.07778418-10.64381431
  -3.54161490 -5.32702273 -8.84998740
  -3.54224505 -3.52252680 -7.10798728
  -3.53268613 -1.77183574 -5.32172793
  -1.76154897 -7.10306066 -8.86387352
  -1.75829962 -5.31761860 -7.08633606
  -1.76737027 -3.52913222 -5.30191780
   0.01808136 -7.08938176 -7.09457103
  -0.00496541 -5.31485851 -5.32312804
  -0.00960762 -3.53520891 -3.53982776
   0.01390373 -1.77083209 -1.76219273
   1.74745264 -7.08894085-15.94860627
  -7.08226524 -3.54242243-14.16706636
  -5.30618550 -7.08951104-15.95940337
  -5.32211943 -5.31007987-14.16676510
  -5.30913542 -3.54642180-12.41891888
  -3.55290594 -8.84553291-15.94813611
  -3.54293685 -7.07063836-14.20357199
  -3.54101363 -5.31199983-12.42862328
  -3.52235349 -3.54885985-10.63114229
  -1.78544870 -7.08071241-12.43672837
  -1.79188072 -5.32328118-10.63062546
  -1.77157773 -1.76698185 -7.08753858
  -0.01213704 -7.06543732-10.64881600
   0.00296246 -5.31596962 -8.88887241
  -0.01570397 -3.55970087 -7.08274788
  -0.00302198 -0.02353760 -3.53652335
  -3.55059639 -3.53539992-14.17568060
  -1.76083255 -7.08391076-15.94375598
  -1.78286926 -3.53056637-12.42221211
  -1.76628240 -1.75824175-10.62587595
   0.00077851 -7.10934267-14.16769784
  -0.00437858 -5.31212422-12.40691567
  -0.01221364 -3.55702766-10.65981555
  -0.00947984 -1.77382870 -8.86332190
   0.00131333 -3.53418712-14.17239464
   0.01222168 -1.78881534-12.41608597
   0.00156444 -0.01239591-10.63795378
  -8.86136122 -7.12795055 -5.27281200
  -8.86446545 -5.27222878 -3.49863879
  -5.35195658 -8.91097822 -3.52858868
  -8.93134043 -8.86641008-10.62308209
  -7.07782126-10.57705783-10.66168927
  -7.12195586 -7.07515522 -7.11248750
  -5.30883690 -8.87283018 -7.04730955
  -5.32589165 -7.08707728 -5.31543478
  -5.36541185 -5.31300912 -3.53183198
  -3.49774541 -7.13443894 -3.54856041
  -3.55198307 -5.30378048 -1.76547077
  -8.88573590 -7.10371192-12.41766109
  -7.04569091 -7.10787954-10.64178827
  -7.11234816 -5.28063611 -8.89720206
  -7.08303647 -3.57341705 -7.04299274
  -3.52966083 -8.84031758 -8.86355481
  -3.51191889 -5.28502183 -5.34030509
  -8.88166688 -5.29407287-14.20280694
  -5.28028522 -3.54803359 -8.89886471
  -1.77694924 -1.77572426 -3.50138584
  -1.75956651 -8.80650428-10.68321851
  -1.75053695 -3.56913345 -8.86668172
   0.00677449 -1.79676644 -5.34073057
  -1.78836384 -8.85198344-14.13708527
  -1.74324243 -5.31270037-14.15969151
   1.75814375 -7.07315615 -8.90739422
  -1.75639936 -1.78836734-14.21093330
 


--------------------------------------------------------------------------------------------------------


 k-point  1 :   0.0000 0.0000 0.0000  plane waves:   32371
 k-point  2 :   0.3333 0.0000 0.0000  plane waves:   32406
 k-point  3 :   0.0000 0.5000 0.0000  plane waves:   32368
 k-point  4 :   0.3333 0.5000 0.0000  plane waves:   32389
 k-point  5 :   0.0000 0.0000 0.5000  plane waves:   32366
 k-point  6 :   0.3333 0.0000 0.5000  plane waves:   32424
 k-point  7 :   0.0000 0.5000 0.5000  plane waves:   32328
 k-point  8 :   0.3333 0.5000 0.5000  plane waves:   32387

 maximum and minimum number of plane-waves per node :      1038      987

 maximum number of plane-waves:     32424
 maximum index in each direction: 
   IXMAX=   13   IYMAX=   22   IZMAX=   26
   IXMIN=  -14   IYMIN=  -22   IZMIN=  -26


 real space projection operators:
  total allocation   :      88523.72 KBytes
  max/ min on nodes  :       3254.06       1544.62


 parallel 3D FFT for wavefunctions:
    minimum data exchange during FFTs selected (reduces bandwidth)
 parallel 3D FFT for charge:
    minimum data exchange during FFTs selected (reduces bandwidth)


 total amount of memory used by VASP MPI-rank0   127248. kBytes
=======================================================================

   base      :      30000. kBytes
   nonlr-proj:      16459. kBytes
   fftplans  :       2950. kBytes
   grid      :       7827. kBytes
   one-center:        124. kBytes
   wavefun   :      69888. kBytes
 
     INWAV:  cpu time    0.0010: real time    0.0001
 Broyden mixing: mesh for mixing (old mesh)
   NGX = 27   NGY = 45   NGZ = 53
  (NGX  =112   NGY  =180   NGZ  =216)
  gives a total of  64395 points

 initial charge density was supplied:
 charge density of overlapping atoms calculated
 number of electron    1026.0000000 magnetization     270.0000000
 keeping initial charge density in first step


--------------------------------------------------------------------------------------------------------


 Maximum index for non-local projection operator          420
 Maximum index for augmentation-charges          975 (set IRDMAX)


--------------------------------------------------------------------------------------------------------


 First call to EWALD:  gamma=   0.167
 Maximum number of real-space cells 4x 3x 2
 Maximum number of reciprocal cells 2x 3x 3

    FEWALD:  cpu time    0.0040: real time    0.0044


--------------------------------------- Iteration      1(   1)  ---------------------------------------


    POTLOK:  cpu time    0.1050: real time    0.1100
    SETDIJ:  cpu time    0.0270: real time    0.0259
     EDDAV:  cpu time   53.7508: real time   53.8527
 BZINTS: Fermi energy: 26.620888;********** electrons
         Band energy:***********;  BLOECHL correction: -0.017209
       DOS:  cpu time    0.1280: real time    0.1291
    --------------------------------------------
      LOOP:  cpu time   54.0108: real time   54.1177

 eigenvalue-minimisations  : 24000
 total energy-change (2. order) : 0.9484995E+04  (-0.3981830E+05)
 number of electron    1026.0000000 magnetization     270.0000000
 augmentation part     1026.0000000 magnetization     270.0000000

 Free energy of the ion-electron system (eV)
  ---------------------------------------------------
  alpha Z        PSCENC =      5513.22116028
  Ewald energy   TEWEN  =    -90771.25078163
  -Hartree energ DENC   =    -23865.01979926
  -exchange      EXHF   =         0.00000000
  -V(xc)+E(xc)   XCENC  =      2755.95292388
  PAW double counting   =     92893.66433695   -98507.74216889
  entropy T*S    EENTRO =         0.00000000
  eigenvalues    EBANDS =     18128.38277165
  atomic energy  EATOM  =    103337.78685059
  Solvation  Ediel_sol  =         0.00000000
  ---------------------------------------------------
  free energy    TOTEN  =      9484.99529358 eV

  energy without entropy =     9484.99529358  energy(sigma->0) =     9484.99529358


--------------------------------------------------------------------------------------------------------




--------------------------------------- Iteration      1(   2)  ---------------------------------------


     EDDAV:  cpu time   53.3909: real time   53.5082
 BZINTS: Fermi energy: 13.301132;********** electrons
         Band energy:9458.103942;  BLOECHL correction: -0.005160
       DOS:  cpu time    0.1220: real time    0.1216
    --------------------------------------------
      LOOP:  cpu time   53.5129: real time   53.6298

 eigenvalue-minimisations  : 24000
 total energy-change (2. order) :-0.8670279E+04  (-0.8046698E+04)
 number of electron    1026.0000000 magnetization     270.0000000
 augmentation part     1026.0000000 magnetization     270.0000000

 Free energy of the ion-electron system (eV)
  ---------------------------------------------------
  alpha Z        PSCENC =      5513.22116028
  Ewald energy   TEWEN  =    -90771.25078163
  -Hartree energ DENC   =    -23865.01979926
  -exchange      EXHF   =         0.00000000
  -V(xc)+E(xc)   XCENC  =      2755.95292388
  PAW double counting   =     92893.66433695   -98507.74216889
  entropy T*S    EENTRO =         0.00000000
  eigenvalues    EBANDS =      9458.10394225
  atomic energy  EATOM  =    103337.78685059
  Solvation  Ediel_sol  =         0.00000000
  ---------------------------------------------------
  free energy    TOTEN  =       814.71646418 eV

  energy without entropy =      814.71646418  energy(sigma->0) =      814.71646418


--------------------------------------------------------------------------------------------------------




--------------------------------------- Iteration      1(   3)  ---------------------------------------


     EDDAV:  cpu time   53.3099: real time   53.4261
 BZINTS: Fermi energy: 11.045432;********** electrons
         Band energy:8018.460114;  BLOECHL correction: -0.024535
       DOS:  cpu time    0.1210: real time    0.1210
    --------------------------------------------
      LOOP:  cpu time   53.4309: real time   53.5471

 eigenvalue-minimisations  : 24000
 total energy-change (2. order) :-0.1439644E+04  (-0.1139245E+04)
 number of electron    1026.0000000 magnetization     270.0000000
 augmentation part     1026.0000000 magnetization     270.0000000

 Free energy of the ion-electron system (eV)
  ---------------------------------------------------
  alpha Z        PSCENC =      5513.22116028
  Ewald energy   TEWEN  =    -90771.25078163
  -Hartree energ DENC   =    -23865.01979926
  -exchange      EXHF   =         0.00000000
  -V(xc)+E(xc)   XCENC  =      2755.95292388
  PAW double counting   =     92893.66433695   -98507.74216889
  entropy T*S    EENTRO =         0.00000000
  eigenvalues    EBANDS =      8018.46011350
  atomic energy  EATOM  =    103337.78685059
  Solvation  Ediel_sol  =         0.00000000
  ---------------------------------------------------
  free energy    TOTEN  =      -624.92736457 eV

  energy without entropy =     -624.92736457  energy(sigma->0) =     -624.92736457


--------------------------------------------------------------------------------------------------------




--------------------------------------- Iteration      1(   4)  ---------------------------------------


     EDDAV:  cpu time   55.5506: real time   55.7322
 BZINTS: Fermi energy: 10.937858;********** electrons
         Band energy:7905.617077;  BLOECHL correction: -0.039201
       DOS:  cpu time    0.1220: real time    0.1222
    --------------------------------------------
      LOOP:  cpu time   55.6725: real time   55.8544

 eigenvalue-minimisations  : 25233
 total energy-change (2. order) :-0.1128430E+03  (-0.1074393E+03)
 number of electron    1026.0000000 magnetization     270.0000000
 augmentation part     1026.0000000 magnetization     270.0000000

 Free energy of the ion-electron system (eV)
  ---------------------------------------------------
  alpha Z        PSCENC =      5513.22116028
  Ewald energy   TEWEN  =    -90771.25078163
  -Hartree energ DENC   =    -23865.01979926
  -exchange      EXHF   =         0.00000000
  -V(xc)+E(xc)   XCENC  =      2755.95292388
  PAW double counting   =     92893.66433695   -98507.74216889
  entropy T*S    EENTRO =         0.00000000
  eigenvalues    EBANDS =      7905.61707687
  atomic energy  EATOM  =    103337.78685059
  Solvation  Ediel_sol  =         0.00000000
  ---------------------------------------------------
  free energy    TOTEN  =      -737.77040120 eV

  energy without entropy =     -737.77040120  energy(sigma->0) =     -737.77040120


--------------------------------------------------------------------------------------------------------




--------------------------------------- Iteration      1(   5)  ---------------------------------------


     EDDAV:  cpu time   58.4341: real time   58.5876
 BZINTS: Fermi energy: 10.936350;********** electrons
         Band energy:7903.834363;  BLOECHL correction: -0.039511
       DOS:  cpu time    0.1190: real time    0.1196
    CHARGE:  cpu time    1.1748: real time    1.2219
    MIXING:  cpu time    0.0090: real time    0.0096
    --------------------------------------------
      LOOP:  cpu time   59.7369: real time   59.9387

 eigenvalue-minimisations  : 26445
 total energy-change (2. order) :-0.1782714E+01  (-0.1779019E+01)
 number of electron    1026.0000162 magnetization     238.0816513
 augmentation part      544.9885874 magnetization     210.6560599

 Broyden mixing:
  rms(total) = 0.13622E+02    rms(broyden)= 0.13622E+02
  rms(prec ) = 0.15138E+02
  weight for this iteration     100.00

 Free energy of the ion-electron system (eV)
  ---------------------------------------------------
  alpha Z        PSCENC =      5513.22116028
  Ewald energy   TEWEN  =    -90771.25078163
  -Hartree energ DENC   =    -23865.01979926
  -exchange      EXHF   =         0.00000000
  -V(xc)+E(xc)   XCENC  =      2755.95292388
  PAW double counting   =     92893.66433695   -98507.74216889
  entropy T*S    EENTRO =         0.00000000
  eigenvalues    EBANDS =      7903.83436283
  atomic energy  EATOM  =    103337.78685059
  Solvation  Ediel_sol  =         0.00000000
  ---------------------------------------------------
  free energy    TOTEN  =      -739.55311523 eV

  energy without entropy =     -739.55311523  energy(sigma->0) =     -739.55311523


--------------------------------------------------------------------------------------------------------




--------------------------------------- Iteration      1(   6)  ---------------------------------------


    POTLOK:  cpu time    0.1640: real time    0.1637
    SETDIJ:  cpu time    0.0360: real time    0.0366
    EDDIAG:  cpu time    9.9595: real time    9.9693
  RMM-DIIS:  cpu time   27.4838: real time   27.5214
    ORTHCH:  cpu time    3.4735: real time    3.5071
 BZINTS: Fermi energy:  9.946228;********** electrons
         Band energy:4046.060462;  BLOECHL correction: -0.025043
       DOS:  cpu time    0.1290: real time    0.1314
    CHARGE:  cpu time    0.9769: real time    0.9879
    MIXING:  cpu time    0.0070: real time    0.0063
    --------------------------------------------
      LOOP:  cpu time   42.2296: real time   42.3237

 eigenvalue-minimisations  : 29598
 total energy-change (2. order) :-0.5784897E+03  (-0.1587371E+03)
 number of electron    1026.0000203 magnetization     228.1889186
 augmentation part      634.5509030 magnetization     199.2505707

 Broyden mixing:
  rms(total) = 0.28083E+02    rms(broyden)= 0.28082E+02
  rms(prec ) = 0.36121E+02
  weight for this iteration     100.00

 eigenvalues of (default mixing * dielectric matrix)
  average eigenvalue GAMMA=   0.1511
  0.1511

 Free energy of the ion-electron system (eV)
  ---------------------------------------------------
  alpha Z        PSCENC =      5513.22116028
  Ewald energy   TEWEN  =    -90771.25078163
  -Hartree energ DENC   =    -20921.18770831
  -exchange      EXHF   =         0.00000000
  -V(xc)+E(xc)   XCENC  =      2576.42001758
  PAW double counting   =     98965.62034897  -104064.71314517
  entropy T*S    EENTRO =         0.00000000
  eigenvalues    EBANDS =      4046.06046223
  atomic energy  EATOM  =    103337.78685059
  Solvation  Ediel_sol  =         0.00000000
  ---------------------------------------------------
  free energy    TOTEN  =     -1318.04279545 eV

  energy without entropy =    -1318.04279545  energy(sigma->0) =    -1318.04279545


--------------------------------------------------------------------------------------------------------




--------------------------------------- Iteration      1(   7)  ---------------------------------------


    POTLOK:  cpu time    0.1010: real time    0.1016
    SETDIJ:  cpu time    0.0260: real time    0.0255
    EDDIAG:  cpu time    9.1866: real time    9.1938
  RMM-DIIS:  cpu time   24.1943: real time   24.2251
    ORTHCH:  cpu time    3.4735: real time    3.4764
 BZINTS: Fermi energy:  7.601832;********** electrons
         Band energy:5363.198713;  BLOECHL correction: -0.030993
       DOS:  cpu time    0.1320: real time    0.1318
    CHARGE:  cpu time    0.9719: real time    0.9721
    MIXING:  cpu time    0.0020: real time    0.0019
    --------------------------------------------
      LOOP:  cpu time   38.0872: real time   38.1283

 eigenvalue-minimisations  : 26458
 total energy-change (2. order) : 0.6292446E+03  (-0.4468079E+02)
 number of electron    1026.0000185 magnetization     215.4338683
 augmentation part      641.2199373 magnetization     183.5034998

 Broyden mixing:
  rms(total) = 0.12784E+02    rms(broyden)= 0.12784E+02
  rms(prec ) = 0.17554E+02
  weight for this iteration     100.00

 eigenvalues of (default mixing * dielectric matrix)
  average eigenvalue GAMMA=   0.3329
  0.3924  0.2734

 Free energy of the ion-electron system (eV)
  ---------------------------------------------------
  alpha Z        PSCENC =      5513.22116028
  Ewald energy   TEWEN  =    -90771.25078163
  -Hartree energ DENC   =    -21405.31242488
  -exchange      EXHF   =         0.00000000
  -V(xc)+E(xc)   XCENC  =      2589.17229826
  PAW double counting   =    100932.51664216  -106248.13065491
  entropy T*S    EENTRO =         0.00000000
  eigenvalues    EBANDS =      5363.19871327
  atomic energy  EATOM  =    103337.78685059
  Solvation  Ediel_sol  =         0.00000000
  ---------------------------------------------------
  free energy    TOTEN  =      -688.79819686 eV

  energy without entropy =     -688.79819686  energy(sigma->0) =     -688.79819686


--------------------------------------------------------------------------------------------------------




--------------------------------------- Iteration      1(   8)  ---------------------------------------


    POTLOK:  cpu time    0.1020: real time    0.1018
    SETDIJ:  cpu time    0.0250: real time    0.0255
    EDDIAG:  cpu time    9.4676: real time    9.4742
  RMM-DIIS:  cpu time   25.5881: real time   25.6854
    ORTHCH:  cpu time    3.4055: real time    3.4157
 BZINTS: Fermi energy:  8.992090;********** electrons
         Band energy:5598.063144;  BLOECHL correction: -0.005958
       DOS:  cpu time    0.1310: real time    0.1301
    CHARGE:  cpu time    0.9918: real time    0.9919
    MIXING:  cpu time    0.0020: real time    0.0019
    --------------------------------------------
      LOOP:  cpu time   39.7130: real time   39.8265

 eigenvalue-minimisations  : 27776
 total energy-change (2. order) :-0.2792084E+03  (-0.2879983E+02)
 number of electron    1026.0000186 magnetization     201.1714481
 augmentation part      619.7981658 magnetization     169.4730375

 Broyden mixing:
  rms(total) = 0.22042E+02    rms(broyden)= 0.22042E+02
  rms(prec ) = 0.33836E+02
  weight for this iteration     100.00

 eigenvalues of (default mixing * dielectric matrix)
  average eigenvalue GAMMA=   0.3415
  0.6186  0.3052  0.1006

 Free energy of the ion-electron system (eV)
  ---------------------------------------------------
  alpha Z        PSCENC =      5513.22116028
  Ewald energy   TEWEN  =    -90771.25078163
  -Hartree energ DENC   =    -21760.65700973
  -exchange      EXHF   =         0.00000000
  -V(xc)+E(xc)   XCENC  =      2605.74094804
  PAW double counting   =    102784.42152495  -108275.33246269
  entropy T*S    EENTRO =         0.00000000
  eigenvalues    EBANDS =      5598.06314406
  atomic energy  EATOM  =    103337.78685059
  Solvation  Ediel_sol  =         0.00000000
  ---------------------------------------------------
  free energy    TOTEN  =      -968.00662614 eV

  energy without entropy =     -968.00662614  energy(sigma->0) =     -968.00662614


--------------------------------------------------------------------------------------------------------




--------------------------------------- Iteration      1(   9)  ---------------------------------------


    POTLOK:  cpu time    0.1030: real time    0.1039
    SETDIJ:  cpu time    0.0260: real time    0.0254
    EDDIAG:  cpu time    9.6175: real time    9.6395
  RMM-DIIS:  cpu time   25.6571: real time   25.8477
    ORTHCH:  cpu time    3.5015: real time    3.5200
 BZINTS: Fermi energy:  9.133647;********** electrons
         Band energy:5984.142373;  BLOECHL correction: -0.004579
       DOS:  cpu time    0.1280: real time    0.1292
    CHARGE:  cpu time    0.9898: real time    0.9914
    MIXING:  cpu time    0.0030: real time    0.0022
    --------------------------------------------
      LOOP:  cpu time   40.0259: real time   40.2592

 eigenvalue-minimisations  : 26716
 total energy-change (2. order) : 0.1066660E+03  (-0.9345660E+01)
 number of electron    1026.0000203 magnetization     192.3366271
 augmentation part      610.0442854 magnetization     157.5086066

 Broyden mixing:
  rms(total) = 0.17635E+02    rms(broyden)= 0.17635E+02
  rms(prec ) = 0.22907E+02
  weight for this iteration     100.00

 eigenvalues of (default mixing * dielectric matrix)
  average eigenvalue GAMMA=   0.3305
  0.7396  0.3346  0.1239  0.1239

 Free energy of the ion-electron system (eV)
  ---------------------------------------------------
  alpha Z        PSCENC =      5513.22116028
  Ewald energy   TEWEN  =    -90771.25078163
  -Hartree energ DENC   =    -21939.61771490
  -exchange      EXHF   =         0.00000000
  -V(xc)+E(xc)   XCENC  =      2611.99353302
  PAW double counting   =    104419.31536710  -110016.93145038
  entropy T*S    EENTRO =         0.00000000
  eigenvalues    EBANDS =      5984.14237330
  atomic energy  EATOM  =    103337.78685059
  Solvation  Ediel_sol  =         0.00000000
  ---------------------------------------------------
  free energy    TOTEN  =      -861.34066261 eV

  energy without entropy =     -861.34066261  energy(sigma->0) =     -861.34066261


--------------------------------------------------------------------------------------------------------




--------------------------------------- Iteration      1(  10)  ---------------------------------------


    POTLOK:  cpu time    0.1030: real time    0.1049
    SETDIJ:  cpu time    0.0270: real time    0.0263
    EDDIAG:  cpu time    9.5815: real time    9.6778
  RMM-DIIS:  cpu time   25.3211: real time   25.3866
    ORTHCH:  cpu time    3.4195: real time    3.4229
 BZINTS: Fermi energy:  8.833799;********** electrons
         Band energy:6224.047095;  BLOECHL correction: -0.005662
       DOS:  cpu time    0.1280: real time    0.1284
    CHARGE:  cpu time    0.9848: real time    0.9843
    MIXING:  cpu time    0.0020: real time    0.0022
    --------------------------------------------
      LOOP:  cpu time   39.5670: real time   39.7334

 eigenvalue-minimisations  : 26190
 total energy-change (2. order) : 0.1350219E+03  (-0.7156501E+01)
 number of electron    1026.0000180 magnetization     183.7790966
 augmentation part      611.0656891 magnetization     149.0985461

 Broyden mixing:
  rms(total) = 0.12457E+02    rms(broyden)= 0.12457E+02
  rms(prec ) = 0.17927E+02
  weight for this iteration     100.00

 eigenvalues of (default mixing * dielectric matrix)
  average eigenvalue GAMMA=   0.3325
  0.7804  0.4376  0.1778  0.1778  0.0888

 Free energy of the ion-electron system (eV)
  ---------------------------------------------------
  alpha Z        PSCENC =      5513.22116028
  Ewald energy   TEWEN  =    -90771.25078163
  -Hartree energ DENC   =    -21990.20515657
  -exchange      EXHF   =         0.00000000
  -V(xc)+E(xc)   XCENC  =      2612.86447218
  PAW double counting   =    105371.41597997  -111024.19839344
  entropy T*S    EENTRO =         0.00000000
  eigenvalues    EBANDS =      6224.04709499
  atomic energy  EATOM  =    103337.78685059
  Solvation  Ediel_sol  =         0.00000000
  ---------------------------------------------------
  free energy    TOTEN  =      -726.31877364 eV

  energy without entropy =     -726.31877364  energy(sigma->0) =     -726.31877364


--------------------------------------------------------------------------------------------------------




--------------------------------------- Iteration      1(  11)  ---------------------------------------


    POTLOK:  cpu time    0.1210: real time    0.1211
    SETDIJ:  cpu time    0.0260: real time    0.0255
    EDDIAG:  cpu time    9.2876: real time    9.3063
  RMM-DIIS:  cpu time   24.4143: real time   24.5396
    ORTHCH:  cpu time    3.4575: real time    3.4595
 BZINTS: Fermi energy:  8.748676;********** electrons
         Band energy:6314.755000;  BLOECHL correction: -0.012032
       DOS:  cpu time    0.1260: real time    0.1261
    CHARGE:  cpu time    0.9938: real time    0.9941
    MIXING:  cpu time    0.0020: real time    0.0022
    --------------------------------------------
      LOOP:  cpu time   38.4282: real time   38.5744

 eigenvalue-minimisations  : 26223
 total energy-change (2. order) : 0.3124733E+02  (-0.7686831E+01)
 number of electron    1026.0000196 magnetization     170.5676409
 augmentation part      607.9847017 magnetization     139.1631872

 Broyden mixing:
  rms(total) = 0.12750E+02    rms(broyden)= 0.12749E+02
  rms(prec ) = 0.18256E+02
  weight for this iteration     100.00

 eigenvalues of (default mixing * dielectric matrix)
  average eigenvalue GAMMA=   0.3592
  0.9992  0.4732  0.2851  0.1677  0.1402  0.0897

 Free energy of the ion-electron system (eV)
  ---------------------------------------------------
  alpha Z        PSCENC =      5513.22116028
  Ewald energy   TEWEN  =    -90771.25078163
  -Hartree energ DENC   =    -22021.86798969
  -exchange      EXHF   =         0.00000000
  -V(xc)+E(xc)   XCENC  =      2614.59900185
  PAW double counting   =    106100.64320119  -111782.95788539
  entropy T*S    EENTRO =         0.00000000
  eigenvalues    EBANDS =      6314.75499998
  atomic energy  EATOM  =    103337.78685059
  Solvation  Ediel_sol  =         0.00000000
  ---------------------------------------------------
  free energy    TOTEN  =      -695.07144282 eV

  energy without entropy =     -695.07144282  energy(sigma->0) =     -695.07144282


--------------------------------------------------------------------------------------------------------




--------------------------------------- Iteration      1(  12)  ---------------------------------------


    POTLOK:  cpu time    0.1200: real time    0.1198
    SETDIJ:  cpu time    0.0400: real time    0.0402
    EDDIAG:  cpu time    9.8705: real time    9.8777
  RMM-DIIS:  cpu time   24.9302: real time   25.0017
    ORTHCH:  cpu time    3.4545: real time    3.4559
 BZINTS: Fermi energy:  8.898023;********** electrons
         Band energy:6314.264125;  BLOECHL correction: -0.008051
       DOS:  cpu time    0.1210: real time    0.1210
    CHARGE:  cpu time    1.0098: real time    1.0110
    MIXING:  cpu time    0.0020: real time    0.0022
    --------------------------------------------
      LOOP:  cpu time   39.5480: real time   39.6295

 eigenvalue-minimisations  : 26593
 total energy-change (2. order) :-0.1823447E+02  (-0.5134552E+01)
 number of electron    1026.0000188 magnetization     161.1498856
 augmentation part      606.8073509 magnetization     132.2980946

 Broyden mixing:
  rms(total) = 0.14068E+02    rms(broyden)= 0.14068E+02
  rms(prec ) = 0.19413E+02
  weight for this iteration     100.00

 eigenvalues of (default mixing * dielectric matrix)
  average eigenvalue GAMMA=   0.3491
  1.1530  0.4780  0.2767  0.1780  0.1780  0.0902  0.0902

 Free energy of the ion-electron system (eV)
  ---------------------------------------------------
  alpha Z        PSCENC =      5513.22116028
  Ewald energy   TEWEN  =    -90771.25078163
  -Hartree energ DENC   =    -22009.53760055
  -exchange      EXHF   =         0.00000000
  -V(xc)+E(xc)   XCENC  =      2611.92744174
  PAW double counting   =    107075.82310049  -112785.54020993
  entropy T*S    EENTRO =         0.00000000
  eigenvalues    EBANDS =      6314.26412490
  atomic energy  EATOM  =    103337.78685059
  Solvation  Ediel_sol  =         0.00000000
  ---------------------------------------------------
  free energy    TOTEN  =      -713.30591410 eV

  energy without entropy =     -713.30591410  energy(sigma->0) =     -713.30591410


--------------------------------------------------------------------------------------------------------




--------------------------------------- Iteration      1(  13)  ---------------------------------------


    POTLOK:  cpu time    0.1020: real time    0.1022
    SETDIJ:  cpu time    0.0260: real time    0.0255
    EDDIAG:  cpu time    9.4206: real time    9.4770
  RMM-DIIS:  cpu time   25.0262: real time   25.0975
    ORTHCH:  cpu time    3.5285: real time    3.5373
 BZINTS: Fermi energy:  8.626077;********** electrons
         Band energy:6384.035978;  BLOECHL correction: -0.004124
       DOS:  cpu time    0.1230: real time    0.1226
    CHARGE:  cpu time    0.9759: real time    0.9758
    MIXING:  cpu time    0.0030: real time    0.0024
    --------------------------------------------
      LOOP:  cpu time   39.2050: real time   39.3403

 eigenvalue-minimisations  : 26622
 total energy-change (2. order) : 0.5696583E+02  (-0.3772472E+01)
 number of electron    1026.0000175 magnetization     153.7926627
 augmentation part      606.6847101 magnetization     121.5071124

 Broyden mixing:
  rms(total) = 0.71496E+01    rms(broyden)= 0.71492E+01
  rms(prec ) = 0.10079E+02
  weight for this iteration     100.00

 eigenvalues of (default mixing * dielectric matrix)
  average eigenvalue GAMMA=   0.3466
  1.2469  0.4520  0.2914  0.2914  0.2074  0.0977  0.0932  0.0932

 Free energy of the ion-electron system (eV)
  ---------------------------------------------------
  alpha Z        PSCENC =      5513.22116028
  Ewald energy   TEWEN  =    -90771.25078163
  -Hartree energ DENC   =    -21994.96738376
  -exchange      EXHF   =         0.00000000
  -V(xc)+E(xc)   XCENC  =      2609.28733883
  PAW double counting   =    107819.22804494  -113553.68129531
  entropy T*S    EENTRO =         0.00000000
  eigenvalues    EBANDS =      6384.03597761
  atomic energy  EATOM  =    103337.78685059
  Solvation  Ediel_sol  =         0.00000000
  ---------------------------------------------------
  free energy    TOTEN  =      -656.34008844 eV

  energy without entropy =     -656.34008844  energy(sigma->0) =     -656.34008844


--------------------------------------------------------------------------------------------------------




--------------------------------------- Iteration      1(  14)  ---------------------------------------


    POTLOK:  cpu time    0.1180: real time    0.1186
    SETDIJ:  cpu time    0.0430: real time    0.0430
    EDDIAG:  cpu time    9.4276: real time    9.4417
  RMM-DIIS:  cpu time   24.8362: real time   24.9426
    ORTHCH:  cpu time    3.4785: real time    3.4807
 BZINTS: Fermi energy:  8.583231;********** electrons
         Band energy:6354.736743;  BLOECHL correction: -0.003853
       DOS:  cpu time    0.1120: real time    0.1126
    CHARGE:  cpu time    0.9889: real time    0.9872
    MIXING:  cpu time    0.0020: real time    0.0024
    --------------------------------------------
      LOOP:  cpu time   39.0061: real time   39.1288

 eigenvalue-minimisations  : 26456
 total energy-change (2. order) :-0.4010800E+01  (-0.1792067E+01)
 number of electron    1026.0000175 magnetization     145.3163670
 augmentation part      606.8063024 magnetization     115.5010303

 Broyden mixing:
  rms(total) = 0.71810E+01    rms(broyden)= 0.71807E+01
  rms(prec ) = 0.10057E+02
  weight for this iteration     100.00

 eigenvalues of (default mixing * dielectric matrix)
  average eigenvalue GAMMA=   0.3455
  1.3136  0.4580  0.4580  0.2813  0.1974  0.1108  0.1108  0.0896  0.0896

 Free energy of the ion-electron system (eV)
  ---------------------------------------------------
  alpha Z        PSCENC =      5513.22116028
  Ewald energy   TEWEN  =    -90771.25078163
  -Hartree energ DENC   =    -21953.39595353
  -exchange      EXHF   =         0.00000000
  -V(xc)+E(xc)   XCENC  =      2605.87349738
  PAW double counting   =    108440.50266494  -114187.82506974
  entropy T*S    EENTRO =         0.00000000
  eigenvalues    EBANDS =      6354.73674335
  atomic energy  EATOM  =    103337.78685059
  Solvation  Ediel_sol  =         0.00000000
  ---------------------------------------------------
  free energy    TOTEN  =      -660.35088835 eV

  energy without entropy =     -660.35088835  energy(sigma->0) =     -660.35088835


--------------------------------------------------------------------------------------------------------




--------------------------------------- Iteration      1(  15)  ---------------------------------------


    POTLOK:  cpu time    0.1010: real time    0.1024
    SETDIJ:  cpu time    0.0270: real time    0.0256
    EDDIAG:  cpu time    9.3276: real time    9.3401
  RMM-DIIS:  cpu time   24.9072: real time   24.9757
    ORTHCH:  cpu time    3.3925: real time    3.3957
 BZINTS: Fermi energy:  8.523746;********** electrons
         Band energy:6304.382881;  BLOECHL correction: -0.005857
       DOS:  cpu time    0.1230: real time    0.1227
    CHARGE:  cpu time    1.0318: real time    1.0309
    MIXING:  cpu time    0.0040: real time    0.0042
    --------------------------------------------
      LOOP:  cpu time   38.9141: real time   38.9973

 eigenvalue-minimisations  : 26521
 total energy-change (2. order) :-0.4521779E+01  (-0.1174564E+01)
 number of electron    1026.0000186 magnetization     138.7869508
[...]
     -8.89259     -5.31041     -7.07847        -0.005092      0.001651      0.006258
     -7.09153     -8.86208     -8.86812         0.000510      0.002165      0.004616
     -7.10228     -5.34718     -5.30916         0.000920      0.008567     -0.003021
     -7.07899     -3.54473     -3.54048        -0.000011      0.005017      0.003178
     -5.31188     -3.53907     -1.76182        -0.004366     -0.003392     -0.008970
     -3.52943     -8.86598     -5.31516         0.004710      0.013796      0.001407
     -8.86578    -10.65554    -15.94016         0.006463      0.003995     -0.003451
     -8.85931     -8.86763    -14.17918        -0.002677     -0.004833     -0.004416
     -8.85579     -5.30908    -10.63923         0.007853      0.001158     -0.002175
     -7.10030    -10.64415    -14.19426         0.001381      0.004771      0.001850
     -7.08036     -8.84014    -12.41865         0.004991      0.007217     -0.013629
     -5.29978     -8.87836    -10.62632        -0.002312      0.005531      0.007688
     -5.33674     -7.09119     -8.85268        -0.003049     -0.011588      0.006368
     -5.31170     -5.32019     -7.10117        -0.003795      0.000430     -0.009915
     -5.29806     -3.56054     -5.31771         0.002804     -0.009071     -0.000992
     -3.52063     -7.09435     -7.07253         0.010758     -0.006169     -0.002169
     -3.53929     -3.56653     -3.53944        -0.003143     -0.007801      0.005783
     -3.52143     -1.79241     -1.75894        -0.008096     -0.003228      0.004286
     -1.76757     -7.09584     -5.31969         0.016060     -0.006514      0.002063
     -1.78590     -5.33439     -3.55661         0.006402     -0.006641      0.000547
     -1.75340     -3.57920     -1.76747        -0.007639     -0.005979      0.004760
     -0.01280     -7.08282     -3.54866         0.005256      0.002296      0.000226
      0.00533     -5.32201     -1.74829        -0.013316     -0.002837      0.001342
     -8.85386     -7.07418    -15.93593         0.007160     -0.003874      0.001218
     -7.10705     -8.86133    -15.93777         0.002861      0.024680     -0.008692
     -7.10067     -7.07623    -14.17999         0.003287      0.003590      0.015703
     -7.10388     -5.34231    -12.40316        -0.008765      0.008007      0.002725
     -5.31263    -10.63090    -12.42494         0.007557      0.002063      0.003247
     -5.32218     -8.87025    -14.19676        -0.014231     -0.006224     -0.005304
     -5.30951     -7.09054    -12.43274         0.005012      0.000068     -0.008186
     -5.31588     -5.31409    -10.64033         0.013685     -0.003091      0.008315
     -3.55425     -8.86358    -12.41179        -0.000802     -0.006837      0.008375
     -3.54772     -7.07778    -10.64381         0.004739      0.009561     -0.006812
     -3.54161     -5.32702     -8.84999        -0.009452     -0.003057      0.000464
     -3.54225     -3.52253     -7.10799         0.001641      0.005824      0.006648
     -3.53269     -1.77184     -5.32173         0.018602     -0.007509     -0.005127
     -1.76155     -7.10306     -8.86387        -0.015482      0.007265      0.006608
     -1.75830     -5.31762     -7.08634         0.002231     -0.014460     -0.006656
     -1.76737     -3.52913     -5.30192         0.007780     -0.001882     -0.002053
      0.01808     -7.08938     -7.09457         0.001150      0.000842      0.001871
     -0.00497     -5.31486     -5.32313         0.003361      0.002121     -0.001609
     -0.00961     -3.53521     -3.53983         0.009615     -0.005861     -0.009066
      0.01390     -1.77083     -1.76219        -0.000619      0.008719      0.003103
      1.74745     -7.08894    -15.94861         0.009167      0.008162      0.016418
     -7.08227     -3.54242    -14.16707        -0.006005     -0.006526      0.004712
     -5.30619     -7.08951    -15.95940        -0.014598      0.008541      0.007413
     -5.32212     -5.31008    -14.16677        -0.011122      0.000929     -0.002948
     -5.30914     -3.54642    -12.41892        -0.010329     -0.015385     -0.015929
     -3.55291     -8.84553    -15.94814        -0.015174      0.012424     -0.002176
     -3.54294     -7.07064    -14.20357        -0.003375      0.002984     -0.001768
     -3.54101     -5.31200    -12.42862         0.002838     -0.001495      0.015593
     -3.52235     -3.54886    -10.63114        -0.002710     -0.006201     -0.004419
     -1.78545     -7.08071    -12.43673        -0.017005     -0.011498     -0.009889
     -1.79188     -5.32328    -10.63063        -0.006268     -0.003131     -0.003101
     -1.77158     -1.76698     -7.08754        -0.002504     -0.003867     -0.006615
     -0.01214     -7.06544    -10.64882        -0.002116      0.005134     -0.010716
      0.00296     -5.31597     -8.88887         0.010717      0.007497     -0.002682
     -0.01570     -3.55970     -7.08275         0.002277     -0.003809     -0.012197
     -0.00302     -0.02354     -3.53652         0.006607     -0.000970      0.000062
     -3.55060     -3.53540    -14.17568         0.004746     -0.009844      0.010887
     -1.76083     -7.08391    -15.94376         0.007234      0.020107     -0.003893
     -1.78287     -3.53057    -12.42221        -0.009693     -0.006391     -0.000433
     -1.76628     -1.75824    -10.62588        -0.003844     -0.000572     -0.004904
      0.00078     -7.10934    -14.16770        -0.010216      0.001394     -0.002074
     -0.00438     -5.31212    -12.40692         0.006855      0.005584     -0.000154
     -0.01221     -3.55703    -10.65982        -0.003873      0.008598     -0.000988
     -0.00948     -1.77383     -8.86332         0.002879      0.000554     -0.007492
      0.00131     -3.53419    -14.17239         0.000848      0.001541      0.014942
      0.01222     -1.78882    -12.41609         0.003389      0.006381      0.004823
      0.00156     -0.01240    -10.63795         0.007888      0.008943     -0.003992
     -8.86136     -7.12795     -5.27281        -0.013313     -0.002854      0.006024
     -8.86447     -5.27223     -3.49864        -0.006932     -0.002833      0.000093
     -5.35196     -8.91098     -3.52859        -0.002276     -0.001675      0.005707
     -8.93134     -8.86641    -10.62308         0.004249     -0.011118      0.008210
     -7.07782    -10.57706    -10.66169         0.007089     -0.000633     -0.002376
     -7.12196     -7.07516     -7.11249         0.003537      0.006945      0.004548
     -5.30884     -8.87283     -7.04731        -0.007050      0.008271     -0.001484
     -5.32589     -7.08708     -5.31543        -0.008102     -0.015486      0.004608
     -5.36541     -5.31301     -3.53183        -0.004424     -0.008009      0.002463
     -3.49775     -7.13444     -3.54856        -0.002744     -0.000866     -0.009831
     -3.55198     -5.30378     -1.76547         0.006201     -0.005944     -0.007016
     -8.88574     -7.10371    -12.41766         0.001542     -0.002265      0.000229
     -7.04569     -7.10788    -10.64179         0.009013     -0.001357      0.008256
     -7.11235     -5.28064     -8.89720        -0.001548      0.008289     -0.013332
     -7.08304     -3.57342     -7.04299         0.000185     -0.007096      0.015112
     -3.52966     -8.84032     -8.86355         0.014557     -0.009915     -0.008514
     -3.51192     -5.28502     -5.34031         0.008201     -0.007467      0.004029
     -8.88167     -5.29407    -14.20281         0.010627      0.017286     -0.012859
     -5.28029     -3.54803     -8.89886         0.004556      0.008709     -0.001381
     -1.77695     -1.77572     -3.50139         0.007380      0.000243     -0.003936
     -1.75957     -8.80650    -10.68322         0.002804     -0.016476      0.001090
     -1.75054     -3.56913     -8.86668        -0.011251     -0.004514      0.001577
      0.00677     -1.79677     -5.34073         0.003835      0.002634     -0.012543
     -1.78836     -8.85198    -14.13709         0.000807     -0.002028     -0.006782
     -1.74324     -5.31270    -14.15969        -0.006019      0.002518      0.003264
      1.75814     -7.07316     -8.90739        -0.001645      0.014198     -0.005920
     -1.75640     -1.78837    -14.21093        -0.014137      0.004195      0.012197
 -----------------------------------------------------------------------------------
    total drift:                               -0.003725      0.001154      0.000952


--------------------------------------------------------------------------------------------------------



  FREE ENERGIE OF THE ION-ELECTRON SYSTEM (eV)
  ---------------------------------------------------
  free  energy   TOTEN  =      -669.53052930 eV

  energy  without entropy=     -669.53052930  energy(sigma->0) =     -669.53052930
 


--------------------------------------------------------------------------------------------------------


    POTLOK:  cpu time    0.1280: real time    0.1287


--------------------------------------------------------------------------------------------------------


     LOOP+:  cpu time 2217.2329: real time 2224.3447
    4ORBIT:  cpu time    0.0000: real time    0.0000
 


 total charge     
 
# of ion       s       p       d       tot
------------------------------------------
    1        0.493   0.484   8.316   9.293
    2        0.494   0.488   8.317   9.299
    3        0.505   0.506   8.322   9.334
    4        0.499   0.498   8.308   9.305
    5        0.501   0.499   8.315   9.314
    6        0.500   0.497   8.317   9.313
    7        0.509   0.511   8.320   9.341
    8        0.508   0.512   8.317   9.338
    9        0.503   0.504   8.320   9.327
   10        0.503   0.501   8.318   9.322
   11        0.509   0.519   8.317   9.345
   12        0.511   0.518   8.313   9.342
   13        0.509   0.512   8.318   9.339
   14        0.510   0.516   8.327   9.353
   15        0.505   0.508   8.333   9.347
   16        0.502   0.504   8.314   9.320
   17        0.503   0.504   8.315   9.322
   18        0.497   0.492   8.318   9.306
   19        0.495   0.489   8.322   9.306
   20        0.508   0.512   8.321   9.341
   21        0.494   0.490   8.311   9.294
   22        0.505   0.504   8.317   9.325
   23        0.506   0.510   8.319   9.335
   24        0.504   0.507   8.313   9.324
   25        0.508   0.513   8.315   9.336
   26        0.507   0.510   8.318   9.335
   27        0.504   0.504   8.316   9.324
   28        0.504   0.505   8.324   9.333
   29        0.503   0.504   8.328   9.335
   30        0.504   0.504   8.318   9.325
   31        0.501   0.500   8.317   9.318
   32        0.506   0.509   8.329   9.344
   33        0.498   0.498   8.316   9.312
   34        0.495   0.491   8.311   9.297
   35        0.497   0.495   8.321   9.312
   36        0.494   0.490   8.310   9.295
   37        0.497   0.495   8.311   9.304
   38        0.499   0.493   8.322   9.314
   39        0.502   0.502   8.316   9.320
   40        0.488   0.479   8.314   9.281
   41        0.494   0.488   8.310   9.292
   42        0.500   0.495   8.321   9.316
   43        0.502   0.503   8.318   9.323
   44        0.495   0.492   8.314   9.300
   45        0.495   0.494   8.310   9.298
   46        0.505   0.507   8.323   9.334
   47        0.495   0.494   8.311   9.300
   48        0.497   0.494   8.316   9.307
   49        0.498   0.492   8.328   9.317
   50        0.503   0.503   8.318   9.325
   51        0.497   0.493   8.316   9.306
   52        0.487   0.478   8.310   9.275
   53        0.502   0.501   8.315   9.318
   54        0.506   0.512   8.320   9.337
   55        0.503   0.504   8.325   9.333
   56        0.499   0.497   8.313   9.309
   57        0.503   0.502   8.319   9.323
   58        0.494   0.488   8.319   9.301
   59        0.493   0.486   8.313   9.292
   60        0.502   0.500   8.320   9.321
   61        0.502   0.502   8.321   9.325
   62        0.494   0.490   8.311   9.295
   63        0.505   0.507   8.325   9.336
   64        0.508   0.508   8.327   9.343
   65        0.494   0.490   8.311   9.295
   66        0.503   0.508   8.311   9.321
   67        0.499   0.497   8.323   9.320
   68        0.506   0.503   8.329   9.339
   69        0.505   0.506   8.323   9.334
   70        0.502   0.501   8.312   9.315
   71        0.505   0.510   8.314   9.328
   72        0.505   0.511   8.321   9.337
   73        0.500   0.498   8.326   9.324
   74        0.503   0.505   8.318   9.326
   75        0.501   0.501   8.322   9.324
   76        0.494   0.487   8.319   9.300
   77        0.503   0.505   8.321   9.329
   78        0.503   0.507   8.329   9.339
   79        0.501   0.501   8.315   9.317
   80        0.502   0.502   8.321   9.326
   81        0.498   0.496   8.312   9.306
   82        0.476   0.509   6.168   7.152
   83        0.471   0.503   6.144   7.117
   84        0.474   0.504   6.151   7.129
   85        0.475   0.511   6.171   7.157
   86        0.478   0.508   6.186   7.173
   87        0.476   0.509   6.179   7.163
   88        0.476   0.507   6.186   7.170
   89        0.477   0.509   6.202   7.189
   90        0.478   0.509   6.169   7.156
   91        0.476   0.510   6.180   7.166
   92        0.476   0.506   6.169   7.151
   93        0.477   0.507   6.167   7.151
   94        0.473   0.505   6.165   7.143
   95        0.480   0.511   6.200   7.191
   96        0.475   0.508   6.189   7.172
   97        0.476   0.504   6.177   7.157
   98        0.478   0.506   6.159   7.143
   99        0.475   0.508   6.145   7.128
  100        0.477   0.508   6.179   7.165
  101        0.472   0.503   6.142   7.117
  102        0.478   0.512   6.166   7.155
  103        0.471   0.504   6.143   7.117
  104        0.477   0.509   6.161   7.147
  105        0.471   0.504   6.145   7.120
  106        0.475   0.509   6.150   7.134
  107        0.473   0.505   6.160   7.137
  108        0.473   0.505   6.142   7.120
--------------------------------------------------
tot         53.415  54.227 840.257 947.899
 


 magnetization (x)
 
# of ion       s       p       d       tot
------------------------------------------
    1       -0.010  -0.027   0.649   0.612
    2       -0.009  -0.027   0.657   0.621
    3       -0.014  -0.034   0.694   0.646
    4       -0.014  -0.036   0.718   0.668
    5       -0.015  -0.034   0.691   0.642
    6       -0.014  -0.035   0.674   0.625
    7       -0.019  -0.041   0.694   0.634
    8       -0.018  -0.041   0.712   0.653
    9       -0.013  -0.032   0.696   0.651
   10       -0.015  -0.032   0.686   0.639
   11       -0.020  -0.048   0.718   0.651
   12       -0.024  -0.050   0.733   0.659
   13       -0.021  -0.044   0.716   0.651
   14       -0.021  -0.046   0.683   0.616
   15       -0.016  -0.037   0.655   0.602
   16       -0.014  -0.037   0.711   0.661
   17       -0.015  -0.037   0.700   0.648
   18       -0.009  -0.025   0.655   0.621
   19       -0.009  -0.025   0.632   0.597
   20       -0.018  -0.041   0.693   0.634
   21       -0.008  -0.028   0.684   0.648
   22       -0.017  -0.037   0.702   0.648
   23       -0.017  -0.040   0.708   0.651
   24       -0.017  -0.042   0.722   0.663
   25       -0.020  -0.045   0.722   0.657
   26       -0.019  -0.042   0.703   0.643
   27       -0.016  -0.037   0.699   0.646
   28       -0.016  -0.039   0.675   0.620
   29       -0.013  -0.033   0.653   0.607
   30       -0.013  -0.032   0.700   0.655
   31       -0.013  -0.032   0.689   0.644
   32       -0.017  -0.038   0.668   0.613
   33       -0.010  -0.032   0.681   0.639
   34       -0.008  -0.028   0.683   0.647
   35       -0.010  -0.030   0.658   0.619
   36       -0.008  -0.028   0.683   0.647
   37       -0.011  -0.030   0.690   0.649
   38       -0.015  -0.031   0.660   0.614
   39       -0.013  -0.034   0.694   0.647
   40       -0.007  -0.023   0.636   0.606
   41       -0.009  -0.029   0.680   0.642
   42       -0.015  -0.032   0.662   0.614
   43       -0.014  -0.036   0.697   0.648
   44       -0.011  -0.032   0.685   0.642
   45       -0.010  -0.032   0.700   0.658
   46       -0.019  -0.043   0.688   0.626
   47       -0.009  -0.031   0.704   0.664
   48       -0.010  -0.028   0.674   0.635
   49       -0.013  -0.030   0.623   0.580
   50       -0.013  -0.033   0.694   0.648
   51       -0.015  -0.034   0.681   0.631
   52       -0.006  -0.024   0.659   0.629
   53       -0.015  -0.035   0.702   0.652
   54       -0.016  -0.039   0.706   0.651
   55       -0.014  -0.035   0.665   0.616
   56       -0.011  -0.031   0.699   0.656
   57       -0.016  -0.037   0.687   0.634
   58       -0.008  -0.026   0.645   0.610
   59       -0.010  -0.027   0.669   0.632
   60       -0.013  -0.032   0.683   0.637
   61       -0.013  -0.033   0.676   0.630
   62       -0.009  -0.027   0.674   0.638
   63       -0.017  -0.038   0.674   0.619
   64       -0.014  -0.031   0.681   0.636
   65       -0.009  -0.027   0.683   0.647
   66       -0.015  -0.039   0.723   0.670
   67       -0.011  -0.030   0.650   0.608
   68       -0.015  -0.029   0.653   0.609
   69       -0.013  -0.036   0.678   0.629
   70       -0.017  -0.039   0.706   0.651
   71       -0.015  -0.040   0.717   0.662
   72       -0.018  -0.043   0.696   0.635
   73       -0.014  -0.033   0.648   0.601
   74       -0.013  -0.036   0.685   0.636
   75       -0.014  -0.033   0.664   0.616
   76       -0.011  -0.027   0.646   0.608
   77       -0.014  -0.035   0.679   0.629
   78       -0.015  -0.039   0.651   0.597
   79       -0.011  -0.032   0.698   0.655
   80       -0.014  -0.033   0.674   0.628
   81       -0.012  -0.032   0.694   0.650
   82        0.004  -0.014   2.748   2.738
   83        0.009  -0.010   2.801   2.800
   84        0.007  -0.010   2.789   2.786
   85        0.004  -0.017   2.728   2.715
   86        0.001  -0.015   2.692   2.678
   87        0.002  -0.018   2.709   2.693
   88        0.000  -0.019   2.668   2.649
   89       -0.005  -0.029   2.623   2.589
   90        0.001  -0.019   2.733   2.716
   91       -0.001  -0.024   2.697   2.672
   92        0.003  -0.013   2.733   2.724
   93        0.003  -0.014   2.743   2.732
   94        0.004  -0.015   2.746   2.735
   95       -0.002  -0.020   2.642   2.620
   96       -0.002  -0.026   2.664   2.637
   97       -0.001  -0.017   2.700   2.682
   98        0.002  -0.014   2.761   2.749
   99        0.009  -0.007   2.806   2.808
  100        0.001  -0.017   2.702   2.686
  101        0.009  -0.007   2.811   2.814
  102        0.004  -0.014   2.748   2.739
  103        0.009  -0.010   2.800   2.800
  104        0.004  -0.013   2.768   2.758
  105        0.009  -0.009   2.800   2.800
  106        0.010  -0.007   2.793   2.795
  107        0.007  -0.013   2.763   2.757
  108        0.009  -0.008   2.812   2.813
--------------------------------------------------
tot         -1.005  -3.167 129.313 125.141
 
 BZINTS: Fermi energy:  8.413853;********** electrons
         Band energy:6189.757839;  BLOECHL correction: -0.088157

 total amount of memory used by VASP MPI-rank0   127248. kBytes
=======================================================================

   base      :      30000. kBytes
   nonlr-proj:      16459. kBytes
   fftplans  :       2950. kBytes
   grid      :       7827. kBytes
   one-center:        124. kBytes
   wavefun   :      69888. kBytes
 
  
  
 General timing and accounting informations for this job:
 ========================================================
  
                  Total CPU time used (sec):     2312.082
                            User time (sec):     2269.334
                          System time (sec):       42.748
                         Elapsed time (sec):     2329.283
  
                   Maximum memory used (kb):      272156.
                   Average memory used (kb):           0.
  
                          Minor page faults:      2109421
                          Major page faults:            0
                 Voluntary context switches:         9447
