SQS-NiFe                                
           1
     1.772500   -7.090000   -1.772500
   -10.635000   -5.317500   -1.772500
     0.000000    0.000000  -14.180000
   Ni   Fe
  81  27
Direct configuration=     1
   0.77784158  0.96431124  0.15749036
   0.55745681  0.92814386  0.06346727
   0.88736790  0.81606631  0.03650147
   0.77770993  0.96273066  0.40823661
   0.55429221  0.92578068  0.31486218
   0.88923032  0.81514815  0.28650549
   0.66562488  0.77843470  0.19475069
   0.44588696  0.74184311  0.09954696
   0.22264923  0.70307180  0.00831749
   0.77710881  0.96111817  0.65790906
   0.33049218  0.88900136  0.47321716
   0.10833607  0.85421871  0.37886776
   0.66651778  0.77789652  0.44484436
   0.22517421  0.70535019  0.25809600
   0.00065708  0.66574071  0.16638158
   0.11071963  0.51792492  0.04566606
   0.89030190  0.48025251  0.20351549
   0.78014741  0.96366632  0.90615276
   0.55639873  0.92576648  0.81467140
   0.11047570  0.85111471  0.63009985
   0.88939045  0.81586684  0.78784820
   0.66446840  0.77650460  0.69566477
   0.78087692  0.62847968  0.57321852
   0.55449858  0.59422555  0.48071703
   0.33403457  0.55512700  0.38964221
   0.11427874  0.51721824  0.29607746
   0.66873997  0.44249809  0.35986307
   0.22527934  0.37034267  0.17515480
   0.00397363  0.33177895  0.08207454
   0.77881923  0.29600644  0.24080135
   0.55683278  0.26073184  0.14862315
   0.33881918  0.22134027  0.05462563
   0.88718662  0.14906767  0.12072639
   0.66756586  0.11076010  0.02600191
   0.33189211  0.88783598  0.97136522
   0.66545086  0.77917809  0.94338241
   0.44204923  0.74134479  0.85207506
   0.22446268  0.70538177  0.75846317
   0.99979122  0.66617426  0.66798432
   0.77845635  0.63018254  0.82510237
   0.55612422  0.59193636  0.73327229
   0.33300774  0.55534884  0.63933098
   0.88844465  0.48227745  0.70396200
   0.66496439  0.44441686  0.61194895
   0.44585053  0.40732346  0.51747084
   0.21957740  0.36967052  0.42761251
   0.00068863  0.33229024  0.33367580
   0.78010170  0.29565390  0.49062741
   0.55646059  0.25807485  0.39792468
   0.33166552  0.22146191  0.30476019
   0.88994483  0.14662396  0.37075126
   0.66602423  0.11147093  0.27821000
   0.44261465  0.07467250  0.18497435
   0.22288468  0.03584009  0.09193252
   0.99829709  0.00207136  0.99967935
   0.00016171  0.66596632  0.91582189
   0.55620352  0.59163669  0.98200681
   0.33211348  0.55578661  0.88807914
   0.11181371  0.51784910  0.79709743
   0.88626610  0.48178774  0.95368552
   0.66436859  0.44386743  0.86313284
   0.44400477  0.40695929  0.77011915
   0.22412576  0.36855819  0.67564245
   0.77580167  0.29718450  0.74293797
   0.55506545  0.26099993  0.64768333
   0.11047710  0.18499280  0.46289268
   0.88504859  0.14864933  0.62176209
   0.66666050  0.11083153  0.52967333
   0.44530310  0.07569381  0.43436395
   0.00276152  0.00074441  0.24896397
   0.22066782  0.37063753  0.92578222
   0.77774574  0.29519388  0.99026590
   0.33087375  0.22278730  0.80682989
   0.10971328  0.18436758  0.71259645
   0.89136272  0.14848725  0.86915118
   0.66571822  0.11136475  0.77782342
   0.44518675  0.07534623  0.68668342
   0.22179455  0.03785714  0.59260150
   0.44317114  0.07373836  0.93484997
   0.22503384  0.03635645  0.84293171
   0.00165217  0.00012826  0.74998575
   0.33816266  0.88958670  0.21837985
   0.10531215  0.85107017  0.12718273
   0.78169565  0.63352253  0.07194037
   0.55173043  0.93176141  0.56372305
   0.88238799  0.81258618  0.54001041
   0.44058013  0.74310147  0.35362566
   0.77961595  0.62912141  0.32089722
   0.55466309  0.59323291  0.23136736
   0.32976689  0.55946626  0.13791722
   0.67520028  0.44142340  0.11067313
   0.44228666  0.40770439  0.01825541
   0.33359586  0.89111749  0.72262741
   0.44946361  0.73741092  0.60211941
   0.21619960  0.70480131  0.51232214
   0.00399922  0.66667843  0.41285025
   0.88706938  0.47973590  0.45422373
   0.44244631  0.40396380  0.27080699
   0.10697250  0.85296433  0.88161628
   0.11382429  0.51547144  0.54890254
   0.11123644  0.18562443  0.20981664
   0.99379044  0.33108228  0.58779137
   0.33773578  0.22089080  0.55546658
   0.22568923  0.03697787  0.34380488
   0.99768707  0.33443951  0.83045775
   0.55678786  0.25671358  0.89688013
   0.99698831  0.00084796  0.50343649
   0.11410972  0.18417102  0.96489638
