 vasp.5.4.4.18Apr17-6-g9f103f2a35 (build Dec 15 2018 21:27:54) gamma-only       
  
 executed on             LinuxIFC date 2022.03.06  07:24:48
 running on   72 total cores
 distrk:  each k-point on   72 cores,    1 groups
 distr:  one band on NCORES_PER_BAND=  24 cores,    3 groups


--------------------------------------------------------------------------------------------------------


 INCAR:
 POTCAR:    PAW_PBE Fe 06Sep2000                  
 POTCAR:    PAW_PBE O 08Apr2002                   

 ----------------------------------------------------------------------------- 
|                                                                             |
|           W    W    AA    RRRRR   N    N  II  N    N   GGGG   !!!           |
|           W    W   A  A   R    R  NN   N  II  NN   N  G    G  !!!           |
|           W    W  A    A  R    R  N N  N  II  N N  N  G       !!!           |
|           W WW W  AAAAAA  RRRRR   N  N N  II  N  N N  G  GGG   !            |
|           WW  WW  A    A  R   R   N   NN  II  N   NN  G    G                |
|           W    W  A    A  R    R  N    N  II  N    N   GGGG   !!!           |
|                                                                             |
|      For optimal performance we recommend to set                            |
|        NCORE= 4 - approx SQRT( number of cores)                             |
|      NCORE specifies how many cores store one orbital (NPAR=cpu/NCORE).     |
|      This setting can  greatly improve the performance of VASP for DFT.     |
|      The default,   NCORE=1            might be grossly inefficient         |
|      on modern multi-core architectures or massively parallel machines.     |
|      Do your own testing !!!!                                               |
|      Unfortunately you need to use the default for GW and RPA calculations. |
|      (for HF NCORE is supported but not extensively tested yet)             |
|                                                                             |
 ----------------------------------------------------------------------------- 

 POTCAR:    PAW_PBE Fe 06Sep2000                  
   VRHFIN =Fe:  d7 s1                                                           
   LEXCH  = PE                                                                  
   EATOM  =   594.3153 eV,   43.6809 Ry                                         
                                                                                
   TITEL  = PAW_PBE Fe 06Sep2000                                                
   LULTRA =        F    use ultrasoft PP ?                                      
   IUNSCR =        1    unscreen: 0-lin 1-nonlin 2-no                           
   RPACOR =    2.000    partial core radius                                     
   POMASS =   55.847; ZVAL   =    8.000    mass and valenz                      
   RCORE  =    2.300    outmost cutoff radius                                   
   RWIGS  =    2.460; RWIGS  =    1.302    wigner-seitz radius (au A)           
   ENMAX  =  267.882; ENMIN  =  200.911 eV                                      
   RCLOC  =    1.701    cutoff for local pot                                    
   LCOR   =        T    correct aug charges                                     
   LPAW   =        T    paw PP                                                  
   EAUG   =  511.368                                                            
   DEXC   =    0.000                                                            
   RMAX   =    2.356    core radius for proj-oper                               
   RAUG   =    1.300    factor for augmentation sphere                          
   RDEP   =    2.442    radius for radial grids                                 
   RDEPT  =    1.890    core radius for aug-charge                              
                                                                                
   Atomic configuration                                                         
    9 entries                                                                   
     n  l   j            E        occ.                                          
     1  0  0.50     -6993.8440   2.0000                                         
     2  0  0.50      -814.6047   2.0000                                         
     2  1  1.50      -693.3689   6.0000                                         
     3  0  0.50       -89.4732   2.0000                                         
     3  1  1.50       -55.6373   6.0000                                         
     3  2  2.50        -3.8151   7.0000                                         
     4  0  0.50        -4.2551   1.0000                                         
     4  1  1.50        -3.4015   0.0000                                         
     4  3  2.50        -1.3606   0.0000                                         
   Description                                                                  
     l       E           TYP  RCUT    TYP  RCUT                                 
     2     -3.8151135     23  2.300                                             
     2     -5.1756961     23  2.300                                             
     0     -4.2550963     23  2.300                                             
     0      7.2035603     23  2.300                                             
     1     -2.7211652     23  2.300                                             
     1     18.4316424     23  2.300                                             
  local pseudopotential read in
  partial core-charges read in
  partial kinetic energy density read in
  atomic valenz-charges read in
  non local Contribution for L=           2  read in
    real space projection operators read in
  non local Contribution for L=           2  read in
    real space projection operators read in
  non local Contribution for L=           0  read in
    real space projection operators read in
  non local Contribution for L=           0  read in
    real space projection operators read in
  non local Contribution for L=           1  read in
    real space projection operators read in
  non local Contribution for L=           1  read in
    real space projection operators read in
    PAW grid and wavefunctions read in
 
   number of l-projection  operators is LMAX  =           6
   number of lm-projection operators is LMMAX =          18
 
 POTCAR:    PAW_PBE O 08Apr2002                   
   VRHFIN =O: s2p4                                                              
   LEXCH  = PE                                                                  
   EATOM  =   432.3788 eV,   31.7789 Ry                                         
                                                                                
   TITEL  = PAW_PBE O 08Apr2002                                                 
   LULTRA =        F    use ultrasoft PP ?                                      
   IUNSCR =        1    unscreen: 0-lin 1-nonlin 2-no                           
   RPACOR =    1.200    partial core radius                                     
   POMASS =   16.000; ZVAL   =    6.000    mass and valenz                      
   RCORE  =    1.520    outmost cutoff radius                                   
   RWIGS  =    1.550; RWIGS  =    0.820    wigner-seitz radius (au A)           
   ENMAX  =  400.000; ENMIN  =  300.000 eV                                      
   ICORE  =        2    local potential                                         
   LCOR   =        T    correct aug charges                                     
   LPAW   =        T    paw PP                                                  
   EAUG   =  605.392                                                            
   DEXC   =    0.000                                                            
   RMAX   =    1.553    core radius for proj-oper                               
   RAUG   =    1.300    factor for augmentation sphere                          
   RDEP   =    1.550    radius for radial grids                                 
   RDEPT  =    1.329    core radius for aug-charge                              
                                                                                
   Atomic configuration                                                         
    4 entries                                                                   
     n  l   j            E        occ.                                          
     1  0  0.50      -514.6923   2.0000                                         
     2  0  0.50       -23.9615   2.0000                                         
     2  1  0.50        -9.0305   4.0000                                         
     3  2  1.50        -9.5241   0.0000                                         
   Description                                                                  
     l       E           TYP  RCUT    TYP  RCUT                                 
     0    -23.9615318     23  1.200                                             
     0     -9.5240782     23  1.200                                             
     1     -9.0304911     23  1.520                                             
     1      8.1634956     23  1.520                                             
     2     -9.5240782      7  1.500                                             
  local pseudopotential read in
  partial core-charges read in
  partial kinetic energy density read in
  kinetic energy density of atom read in
  atomic valenz-charges read in
  non local Contribution for L=           0  read in
    real space projection operators read in
  non local Contribution for L=           0  read in
    real space projection operators read in
  non local Contribution for L=           1  read in
    real space projection operators read in
  non local Contribution for L=           1  read in
    real space projection operators read in
    PAW grid and wavefunctions read in
 
   number of l-projection  operators is LMAX  =           4
   number of lm-projection operators is LMMAX =           8
 
 Optimization of the real space projectors (new method)

 maximal supplied QI-value         = 16.25
 optimisation between [QCUT,QGAM] = [ 11.54, 23.24] = [ 37.28,151.24] Ry 
 Optimized for a Real-space Cutoff    1.53 Angstroem

   l    n(q)    QCUT    max X(q) W(low)/X(q) W(high)/X(q)  e(spline) 
   2     10    11.539    80.901    0.11E-03    0.14E-03    0.21E-06
   2     10    11.539    75.754    0.11E-03    0.14E-03    0.22E-06
   0     11    11.539    58.752    0.52E-04    0.18E-04    0.33E-06
   0     11    11.539    30.679    0.44E-04    0.16E-04    0.30E-06
   1     10    11.539    17.977    0.53E-04    0.29E-04    0.13E-06
   1     10    11.539    13.559    0.44E-04    0.25E-04    0.11E-06
 Optimization of the real space projectors (new method)

 maximal supplied QI-value         = 24.76
 optimisation between [QCUT,QGAM] = [ 11.64, 23.27] = [ 37.91,151.63] Ry 
 Optimized for a Real-space Cutoff    1.14 Angstroem

   l    n(q)    QCUT    max X(q) W(low)/X(q) W(high)/X(q)  e(spline) 
   0      8    11.635    20.381    0.10E-03    0.33E-03    0.24E-06
   0      8    11.635    15.268    0.11E-03    0.35E-03    0.26E-06
   1      7    11.635     5.964    0.24E-03    0.31E-03    0.30E-06
   1      7    11.635     5.382    0.22E-03    0.25E-03    0.26E-06
  PAW_PBE Fe 06Sep2000                  :
 energy of atom  1       EATOM= -594.3153
 kinetic energy error for atom=    0.0026 (will be added to EATOM!!)
  PAW_PBE O 08Apr2002                   :
 energy of atom  2       EATOM= -432.3788
 kinetic energy error for atom=    0.0208 (will be added to EATOM!!)
 
 
 POSCAR: POSCAR                                  
  positions in direct lattice
  velocities in cartesian coordinates
 exchange correlation table for  LEXCH =        8
   RHO(1)=    0.500       N(1)  =     2000
   RHO(2)=  100.500       N(2)  =     4000

 VTST: version 3.2, (02/03/18)

 CHAIN: initializing optimizer
 
 OPT: Using VASP Dynamics algorithm
 CHAIN: Read ICHAIN            0
 
 POSCAR: POSCAR                                  
  positions in direct lattice
  velocities in cartesian coordinates
 


--------------------------------------------------------------------------------------------------------


 ion  position               nearest neighbor table
   1  0.087  0.163  0.095-   5 2.48  13 2.48  17 2.48  49 2.48  31 2.48   3 2.48  29 2.87  53 2.87
                            15 2.87  19 2.87
   2  0.089  0.162  0.285-  32 2.38   4 2.40   3 2.43  31 2.45  18 2.48  14 2.48  50 2.49   6 2.49
                            54 2.82  19 2.83  16 2.83  15 2.84  20 2.84  30 2.88
   3  0.212  0.038  0.191-  54 2.39   2 2.43  15 2.48   7 2.48  51 2.48  19 2.48  53 2.48   1 2.48
                            50 2.83   6 2.85  31 2.87  55 2.87  49 2.87   5 2.87
   4  0.214  0.034  0.376-  54 2.39   2 2.40  52 2.42  16 2.44  20 2.52   8 2.53  56 2.75  50 2.77
                             6 2.82  32 2.85
   5  0.337  0.163  0.095-   1 2.48   9 2.48  21 2.48  53 2.48   7 2.48  19 2.48  17 2.87  57 2.87
                             3 2.87  23 2.87
   6  0.339  0.164  0.285-   7 2.44   8 2.44  19 2.45  20 2.47  10 2.48  22 2.49  54 2.49   2 2.49
                            23 2.81   4 2.82   3 2.85  58 2.86  18 2.87  24 2.90
   7  0.462  0.038  0.191-   6 2.44  58 2.47  11 2.48   3 2.48  55 2.48  23 2.48  57 2.48   5 2.48
                            54 2.81  10 2.86  19 2.87  59 2.87  53 2.87   9 2.87
   8  0.465  0.045  0.380-  65 1.86  12 2.44   6 2.44  58 2.46  56 2.47  24 2.51   4 2.53  10 2.78
                            20 2.84  60 2.93  54 2.94
   9  0.587  0.163  0.095-   5 2.48  13 2.48  25 2.48  57 2.48  11 2.48  23 2.48  21 2.87  61 2.87
                             7 2.87  27 2.87
  10  0.590  0.161  0.286-  12 2.44  11 2.45  23 2.47  26 2.48   6 2.48  14 2.48  58 2.49  24 2.51
                             8 2.78  27 2.84  62 2.85   7 2.86  28 2.86  22 2.92
  11  0.712  0.038  0.191-  62 2.43  10 2.45  15 2.48   7 2.48  59 2.48  27 2.48  61 2.48   9 2.48
                            14 2.83  58 2.87  23 2.87  63 2.87  57 2.87  13 2.87
  12  0.716  0.027  0.378-  66 1.87  62 2.39  60 2.41   8 2.44  10 2.44  16 2.53  28 2.56  58 2.76
                            64 2.80  14 2.87  24 3.03
  13  0.837  0.163  0.095-   1 2.48   9 2.48  29 2.48  61 2.48  15 2.48  27 2.48  49 2.87  25 2.87
                            11 2.87  31 2.87
  14  0.839  0.161  0.285-  15 2.42  27 2.45  28 2.46  16 2.47  30 2.48  10 2.48   2 2.48  62 2.48
                            32 2.81  31 2.82  11 2.83  50 2.86  12 2.87  26 2.89
  15  0.962  0.038  0.191-  14 2.42  50 2.46   3 2.48  11 2.48  31 2.48  63 2.48  13 2.48  49 2.48
                            62 2.83   2 2.84  27 2.87  51 2.87   1 2.87  61 2.87
  16  0.969  0.033  0.379-  66 1.85  50 2.41   4 2.44  64 2.45  14 2.47  32 2.49  12 2.53   2 2.83
                            62 2.86  28 2.87  52 2.88
  17  0.087  0.413  0.095-  21 2.48  29 2.48   1 2.48  33 2.48  19 2.48  47 2.48  45 2.87   5 2.87
                            31 2.87  35 2.87
  18  0.087  0.412  0.285-  48 2.44  19 2.45  47 2.45  20 2.45  34 2.48   2 2.48  22 2.48  30 2.49
                            36 2.73  32 2.77  31 2.83  35 2.85  46 2.87   6 2.87
  19  0.212  0.288  0.191-   6 2.45  18 2.45  23 2.48  31 2.48   3 2.48  35 2.48   5 2.48  17 2.48
                             2 2.83  22 2.84   7 2.87  47 2.87  21 2.87   1 2.87
  20  0.212  0.288  0.380-  65 1.86  36 2.43  32 2.44  18 2.45   6 2.47  24 2.51   4 2.52   8 2.84
                             2 2.84  22 2.85  48 2.85
  21  0.337  0.413  0.095-  17 2.48  25 2.48   5 2.48  37 2.48  35 2.48  23 2.48   9 2.87  33 2.87
                            19 2.87  39 2.87
  22  0.335  0.416  0.285-  35 2.43  36 2.44  24 2.44  38 2.46  23 2.47  18 2.48  26 2.48   6 2.49
                            34 2.83  39 2.83  19 2.84  20 2.85  10 2.92  40 2.97
  23  0.462  0.288  0.191-  22 2.47  10 2.47  19 2.48  27 2.48   7 2.48  39 2.48  21 2.48   9 2.48
                             6 2.81  26 2.84  35 2.87  11 2.87   5 2.87  25 2.87
  24  0.461  0.299  0.380-  69 1.87  65 1.89  22 2.44   8 2.51  10 2.51  20 2.51  28 2.52  40 2.57
                            26 2.77  36 2.88   6 2.90  12 3.03
  25  0.587  0.413  0.095-  21 2.48  29 2.48   9 2.48  41 2.48  39 2.48  27 2.48  13 2.87  37 2.87
                            23 2.87  43 2.87
  26  0.586  0.412  0.287-  42 2.46  39 2.47  27 2.47  10 2.48  22 2.48  30 2.49  28 2.49  40 2.64
                            44 2.75  24 2.77  23 2.84  38 2.87  43 2.87  14 2.89
  27  0.712  0.288  0.191-  14 2.45  26 2.47  23 2.48  31 2.48  11 2.48  43 2.48  25 2.48  13 2.48
                            30 2.83  10 2.84  39 2.87  15 2.87   9 2.87  29 2.87
  28  0.719  0.284  0.381-  69 1.87  66 1.91  44 2.43  14 2.46  32 2.47  26 2.49  24 2.52  12 2.56
                            30 2.83  10 2.86  16 2.87
  29  0.837  0.413  0.095-  17 2.48  25 2.48  13 2.48  45 2.48  43 2.48  31 2.48   1 2.87  41 2.87
                            27 2.87  47 2.87
  30  0.837  0.411  0.285-  32 2.42  44 2.45  31 2.45  43 2.45  14 2.48  46 2.48  26 2.49  18 2.49
                            48 2.81  27 2.83  28 2.83  42 2.85  47 2.85   2 2.88
  31  0.962  0.288  0.191-  30 2.45   2 2.45  27 2.48  19 2.48  15 2.48  47 2.48   1 2.48  29 2.48
                            14 2.82  18 2.83  43 2.87   3 2.87  17 2.87  13 2.87
  32  0.968  0.284  0.376-   2 2.38  30 2.42  20 2.44  48 2.45  28 2.47  16 2.49  18 2.77  14 2.81
                             4 2.85  44 2.93
  33  0.087  0.663  0.095-  37 2.48  45 2.48  17 2.48  49 2.48  35 2.48  63 2.48  61 2.87  21 2.87
                            47 2.87  51 2.87
  34  0.088  0.661  0.284-  64 2.36  36 2.38  35 2.42  63 2.43  18 2.48  38 2.48  46 2.49  50 2.49
                            47 2.81  22 2.83  51 2.83  62 2.87  48 2.89  52 2.95
  35  0.212  0.538  0.191-  34 2.42  22 2.43  39 2.48  47 2.48  19 2.48  51 2.48  21 2.48  33 2.48
                            38 2.79  18 2.85  23 2.87  63 2.87  37 2.87  17 2.87
  36  0.199  0.537  0.377-  68 1.83  34 2.38  48 2.38  20 2.43  22 2.44  40 2.57  52 2.58  18 2.73
                            64 2.78  24 2.88  38 2.92
  37  0.337  0.663  0.095-  33 2.48  41 2.48  21 2.48  53 2.48  51 2.48  39 2.48  25 2.87  49 2.87
                            35 2.87  55 2.87
  38  0.337  0.662  0.282-  51 2.40  39 2.40  22 2.46  52 2.47  40 2.47  34 2.48  42 2.48  54 2.50
                            35 2.79  55 2.80  56 2.84  50 2.85  26 2.87  36 2.92
  39  0.462  0.538  0.191-  38 2.40  26 2.47  35 2.48  43 2.48  23 2.48  55 2.48  37 2.48  25 2.48
                            42 2.81  22 2.83  51 2.87  27 2.87  21 2.87  41 2.87
  40  0.448  0.561  0.384-  69 1.90  68 1.91  56 2.41  44 2.47  38 2.47  24 2.57  52 2.57  36 2.57
                            26 2.64  42 2.85  22 2.97
  41  0.587  0.663  0.095-  37 2.48  45 2.48  25 2.48  57 2.48  55 2.48  43 2.48  29 2.87  53 2.87
                            39 2.87  59 2.87
  42  0.587  0.659  0.285-  56 2.41  44 2.42  43 2.43  26 2.46  55 2.46  38 2.48  46 2.48  58 2.51
                            39 2.81  40 2.85  30 2.85  59 2.86  60 2.86  54 2.91
  43  0.712  0.538  0.191-  42 2.43  30 2.45  39 2.48  47 2.48  27 2.48  59 2.48  41 2.48  29 2.48
                            46 2.81  55 2.87  31 2.87  25 2.87  45 2.87  26 2.87
  44  0.705  0.533  0.379-  67 1.88  42 2.42  28 2.43  30 2.45  40 2.47  69 2.50  60 2.54  48 2.54
                            26 2.75  46 2.90  32 2.93  56 2.94
  45  0.837  0.663  0.095-  33 2.48  41 2.48  29 2.48  61 2.48  59 2.48  47 2.48  17 2.87  57 2.87
                            43 2.87  63 2.87
  46  0.837  0.662  0.284-  47 2.43  59 2.43  60 2.44  48 2.47  42 2.48  62 2.48  30 2.48  34 2.49
                            64 2.78  43 2.81  63 2.83  58 2.87  18 2.87  44 2.90
  47  0.962  0.538  0.191-  46 2.43  18 2.45  43 2.48  35 2.48  31 2.48  63 2.48  17 2.48  45 2.48
                            34 2.81  30 2.85  59 2.87  19 2.87  33 2.87  29 2.87
  48  0.960  0.533  0.379-  67 1.88  36 2.38  18 2.44  32 2.45  46 2.47  44 2.54  64 2.54  30 2.81
                            60 2.85  20 2.85  34 2.89
  49  0.087  0.913  0.095-  53 2.48  61 2.48   1 2.48  33 2.48  15 2.48  51 2.48  37 2.87  13 2.87
                             3 2.87  63 2.87
  50  0.089  0.911  0.285-  16 2.41  51 2.44  54 2.45  15 2.46   2 2.49  34 2.49  62 2.50  52 2.50
                            64 2.73   4 2.77   3 2.83  63 2.84  38 2.85  14 2.86
  51  0.212  0.788  0.191-  38 2.40  50 2.44  55 2.48  63 2.48   3 2.48  35 2.48  49 2.48  37 2.48
                            54 2.80  34 2.83  39 2.87  15 2.87  53 2.87  33 2.87
  52  0.225  0.787  0.380-  68 1.84  56 2.37   4 2.42  38 2.47  50 2.50  40 2.57  36 2.58  64 2.59
                            54 2.81  16 2.88  34 2.95
  53  0.337  0.913  0.095-  49 2.48  57 2.48   5 2.48  37 2.48  55 2.48   3 2.48  41 2.87   1 2.87
                             7 2.87  51 2.87
  54  0.335  0.915  0.283-  56 2.34   4 2.39   3 2.39  55 2.42  50 2.45   6 2.49  58 2.49  38 2.50
                            51 2.80   7 2.81  52 2.81   2 2.82  42 2.91   8 2.94
  55  0.462  0.788  0.191-  54 2.42  42 2.46  51 2.48  59 2.48   7 2.48  39 2.48  41 2.48  53 2.48
                            38 2.80  58 2.85  43 2.87   3 2.87  37 2.87  57 2.87
  56  0.459  0.799  0.373-  54 2.34  52 2.37  40 2.41  42 2.41   8 2.47  60 2.51  58 2.67   4 2.75
                            38 2.84  44 2.94
  57  0.587  0.913  0.095-  53 2.48  61 2.48   9 2.48  41 2.48  59 2.48   7 2.48  45 2.87   5 2.87
                            11 2.87  55 2.87
  58  0.587  0.912  0.286-  60 2.45   8 2.46  59 2.47   7 2.47  62 2.49  10 2.49  54 2.49  42 2.51
                            56 2.67  12 2.76  55 2.85   6 2.86  46 2.87  11 2.87
  59  0.712  0.788  0.191-  46 2.43  58 2.47  55 2.48  63 2.48  11 2.48  43 2.48  45 2.48  57 2.48
                            62 2.81  42 2.86  47 2.87   7 2.87  41 2.87  61 2.87
  60  0.716  0.784  0.379-  67 1.88  12 2.41  46 2.44  58 2.45  64 2.49  56 2.51  44 2.54  48 2.85
                            62 2.85  42 2.86   8 2.93
  61  0.837  0.913  0.095-  49 2.48  57 2.48  13 2.48  45 2.48  11 2.48  63 2.48   9 2.87  33 2.87
                            59 2.87  15 2.87
  62  0.837  0.912  0.284-  64 2.36  12 2.39  63 2.43  11 2.43  46 2.48  14 2.48  58 2.49  50 2.50
                            59 2.81  15 2.83  60 2.85  10 2.85  16 2.86  34 2.87
  63  0.962  0.788  0.191-  62 2.43  34 2.43  59 2.48  51 2.48  47 2.48  15 2.48  61 2.48  33 2.48
                            46 2.83  50 2.84  35 2.87  11 2.87  49 2.87  45 2.87
  64  0.965  0.787  0.373-  34 2.36  62 2.36  16 2.45  60 2.49  48 2.54  52 2.59  50 2.73  46 2.78
                            36 2.78  12 2.80
  65  0.369  0.200  0.431-   8 1.86  20 1.86  24 1.89
  66  0.812  0.117  0.430-  16 1.85  12 1.87  28 1.91
  67  0.802  0.624  0.431-  48 1.88  60 1.88  44 1.88
  68  0.277  0.630  0.433-  36 1.83  52 1.84  40 1.91
  69  0.562  0.394  0.427-  28 1.87  24 1.87  40 1.90  44 2.50
 

IMPORTANT INFORMATION: All symmetrisations will be switched off!
NOSYMM: (Re-)initialisation of all symmetry stuff for point group C_1.

 
 

Automatic generation of k-mesh.
 generate k-points for:    1    1    1
Space group operators:
 irot       det(A)        alpha          n_x          n_y          n_z        tau_x        tau_y        tau_z
    1     1.000000     0.000001     1.000000     0.000000     0.000000     0.000000     0.000000     0.000000
 
 Subroutine IBZKPT returns following result:
 ===========================================
 
 Found      1 irreducible k-points:
 
 Following reciprocal coordinates:
            Coordinates               Weight
  0.000000  0.000000  0.000000      1.000000
 
 Following cartesian coordinates:
            Coordinates               Weight
  0.000000  0.000000  0.000000      1.000000
 
 
 Subroutine IBZKPT_HF returns following result:
 ==============================================
 
 Found      1 k-points in 1st BZ
 the following      1 k-points will be used (e.g. in the exchange kernel)
 Following reciprocal coordinates:   # in IRBZ
  0.000000  0.000000  0.000000    1.00000000   1 t-inv F


--------------------------------------------------------------------------------------------------------




 Dimension of arrays:
   k-points           NKPTS =      1   k-points in BZ     NKDIM =      1   number of bands    NBANDS=    327
   number of dos      NEDOS =    301   number of ions     NIONS =     69
   non local maximal  LDIM  =      6   non local SUM 2l+1 LMDIM =     18
   total plane-waves  NPLWV = ******
   max r-space proj   IRMAX =   7948   max aug-charges    IRDMAX=  18812
   dimension x,y,z NGX =    80 NGY =   80 NGZ =  160
   dimension x,y,z NGXF=   160 NGYF=  160 NGZF=  320
   support grid    NGXF=   160 NGYF=  160 NGZF=  320
   ions per type =              64   5
   NGX,Y,Z   is equivalent  to a cutoff of  13.39, 13.39, 12.62 a.u.
   NGXF,Y,Z  is equivalent  to a cutoff of  26.79, 26.79, 25.24 a.u.

 SYSTEM =  SQS-NiFe                                
 POSCAR =  POSCAR                                  

 Startparameter for this run:
   NWRITE =      2    write-flag & timer
   PREC   = accura    normal or accurate (medium, high low for compatibility)
   ISTART =      0    job   : 0-new  1-cont  2-samecut
   ICHARG =      1    charge: 1-file 2-atom 10-const
   ISPIN  =      1    spin polarized calculation?
   LNONCOLLINEAR =      F non collinear calculations
   LSORBIT =      F    spin-orbit coupling
   INIWAV =      1    electr: 0-lowe 1-rand  2-diag
   LASPH  =      F    aspherical Exc in radial PAW
   METAGGA=      F    non-selfconsistent MetaGGA calc.

 Electronic Relaxation 1
   ENCUT  =  520.0 eV  38.22 Ry    6.18 a.u.  18.46 18.46 39.20*2*pi/ulx,y,z
   ENINI  =  520.0     initial cutoff
   ENAUG  =  605.4 eV  augmentation charge cutoff
   NELM   =    200;   NELMIN=  2; NELMDL= -5     # of ELM steps 
   EDIFF  = 0.1E-05   stopping-criterion for ELM
   LREAL  =      T    real-space projection
   NLSPLINE    = F    spline interpolate recip. space projectors
   LCOMPAT=      F    compatible to vasp.4.4
   GGA_COMPAT  = T    GGA compatible to vasp.4.4-vasp.4.6
   LMAXPAW     = -100 max onsite density
   LMAXMIX     =    2 max onsite mixed and CHGCAR
   VOSKOWN=      0    Vosko Wilk Nusair interpolation
   ROPT   =   -0.00025  -0.00025
 Ionic relaxation
   EDIFFG = -.2E-01   stopping-criterion for IOM
   NSW    =    865    number of steps for IOM
   NBLOCK =      1;   KBLOCK =    865    inner block; outer block 
   IBRION =      5    ionic relax: 0-MD 1-quasi-New 2-CG
   NFREE  =      2    steps in history (QN), initial steepest desc. (CG)
   ISIF   =      2    stress and relaxation
   IWAVPR =     11    prediction:  0-non 1-charg 2-wave 3-comb
   ISYM   =      0    0-nonsym 1-usesym 2-fastsym
   LCORR  =      T    Harris-Foulkes like correction to forces

   POTIM  = 0.0150    time-step for ionic-motion
   TEIN   =    0.0    initial temperature
   TEBEG  =    0.0;   TEEND  =   0.0 temperature during run
   SMASS  =  -3.00    Nose mass-parameter (am)
   estimated Nose-frequenzy (Omega)   =  0.10E-29 period in steps =****** mass=  -0.225E-26a.u.
   SCALEE = 1.0000    scale energy and forces
   NPACO  =    256;   APACO  = 16.0  distance and # of slots for P.C.
   PSTRESS=    0.0 pullay stress

  Mass of Ions in am
   POMASS =  55.85 16.00
  Ionic Valenz
   ZVAL   =   8.00  6.00
  Atomic Wigner-Seitz radii
   RWIGS  =  -1.00 -1.00
  virtual crystal weights 
   VCA    =   1.00  1.00
   NELECT =     542.0000    total number of electrons
   NUPDOWN=      -1.0000    fix difference up-down

 DOS related values:
   EMIN   =  10.00;   EMAX   =-10.00  energy-range for DOS
   EFERMI =   0.00
   ISMEAR =     0;   SIGMA  =   0.20  broadening in eV -4-tet -1-fermi 0-gaus

 Electronic relaxation 2 (details)
   IALGO  =     68    algorithm
   LDIAG  =      T    sub-space diagonalisation (order eigenvalues)
   LSUBROT=      F    optimize rotation matrix (better conditioning)
   TURBO    =      0    0=normal 1=particle mesh
   IRESTART =      0    0=no restart 2=restart with 2 vectors
   NREBOOT  =      0    no. of reboots
   NMIN     =      0    reboot dimension
   EREF     =   0.00    reference energy to select bands
   IMIX   =      4    mixing-type and parameters
     AMIX     =   0.40;   BMIX     =  1.00
     AMIX_MAG =   1.60;   BMIX_MAG =  1.00
     AMIN     =   0.10
     WC   =   100.;   INIMIX=   1;  MIXPRE=   1;  MAXMIX= -45

 Intra band minimization:
   WEIMIN = 0.0010     energy-eigenvalue tresh-hold
   EBREAK =  0.76E-09  absolut break condition
   DEPER  =   0.30     relativ break condition  

   TIME   =   0.40     timestep for ELM

  volume/ion in A,a.u.               =      28.40       191.65
  Fermi-wavevector in a.u.,A,eV,Ry     =   1.066648  2.015672 15.479864  1.137738
  Thomas-Fermi vector in A             =   2.202239
 
 Write flags
   LWAVE        =      F    write WAVECAR
   LDOWNSAMPLE  =      F    k-point downsampling of WAVECAR
   LCHARG       =      F    write CHGCAR
   LVTOT        =      F    write LOCPOT, total local potential
   LVHAR        =      F    write LOCPOT, Hartree potential only
   LELF         =      F    write electronic localiz. function (ELF)
   LORBIT       =     10    0 simple, 1 ext, 2 COOP (PROOUT), +10 PAW based schemes


 Dipole corrections
   LMONO  =      F    monopole corrections only (constant potential shift)
   LDIPOL =      F    correct potential (dipole corrections)
   IDIPOL =      0    1-x, 2-y, 3-z, 4-all directions 
   EPSILON=  1.0000000 bulk dielectric constant

 Exchange correlation treatment:
   GGA     =    --    GGA type
   LEXCH   =     8    internal setting for exchange type
   VOSKOWN=      0    Vosko Wilk Nusair interpolation
   LHFCALC =     F    Hartree Fock is set to
   LHFONE  =     F    Hartree Fock one center treatment
   AEXX    =    0.0000 exact exchange contribution

 Linear response parameters
   LEPSILON=     F    determine dielectric tensor
   LRPA    =     F    only Hartree local field effects (RPA)
   LNABLA  =     F    use nabla operator in PAW spheres
   LVEL    =     F    velocity operator in full k-point grid
   LINTERFAST=   F  fast interpolation
   KINTER  =     0    interpolate to denser k-point grid
   CSHIFT  =0.1000    complex shift for real part using Kramers Kronig
   OMEGAMAX=  -1.0    maximum frequency
   DEG_THRESHOLD= 0.2000000E-02 threshold for treating states as degnerate
   RTIME   =   -0.100 relaxation time in fs
  (WPLASMAI=    0.000 imaginary part of plasma frequency in eV, 0.658/RTIME)
   DFIELD  = 0.0000000 0.0000000 0.0000000 field for delta impulse in time
 
 Orbital magnetization related:
   ORBITALMAG=     F  switch on orbital magnetization
   LCHIMAG   =     F  perturbation theory with respect to B field
   DQ        =  0.001000  dq finite difference perturbation B field
   LLRAUG    =     F  two centre corrections for induced B field



--------------------------------------------------------------------------------------------------------


 finite differences
   using selective dynamics as specified on POSCAR
 charge density and potential will be updated during run
 non-spin polarized calculation
 RMM-DIIS sequential band-by-band and
  variant of blocked Davidson during initial phase
 perform sub-space diagonalisation
    before iterative eigenvector-optimisation
 modified Broyden-mixing scheme, WC =      100.0
 initial mixing is a Kerker type mixing with AMIX =  0.4000 and BMIX =      1.0000
 Hartree-type preconditioning will be used
 using additional bands           56
 real space projection scheme for non local part
 use partial core corrections
 calculate Harris-corrections to forces 
   (improved forces if not selfconsistent)
 use gradient corrections 
 use of overlap-Matrix (Vanderbilt PP)
 Gauss-broadening in eV      SIGMA  =   0.20


--------------------------------------------------------------------------------------------------------


  energy-cutoff  :      520.00
  volume of cell :     1959.57
      direct lattice vectors                 reciprocal lattice vectors
     9.929500000  0.000000000  0.000000000     0.100710006 -0.035606363  0.000000000
     3.309833230  9.361622420  0.000000000     0.000000000  0.106819091  0.000000000
     0.000000000  0.000000000 21.080550000     0.000000000  0.000000000  0.047437092

  length of vectors
     9.929500000  9.929500005 21.080550000     0.106819091  0.106819091  0.047437092


 
 k-points in units of 2pi/SCALE and weight: read from INCAR                         
   0.00000000  0.00000000  0.00000000       1.000
 
 k-points in reciprocal lattice and weights: read from INCAR                         
   0.00000000  0.00000000  0.00000000       1.000
 
 position of ions in fractional coordinates (direct lattice) 
   0.08738900  0.16261100  0.09487400
   0.08935202  0.16158553  0.28483206
   0.21238900  0.03761100  0.19102200
   0.21382190  0.03371630  0.37557280
   0.33738900  0.16261100  0.09487400
   0.33938437  0.16363940  0.28484144
   0.46238900  0.03761100  0.19102200
   0.46472581  0.04508752  0.37989491
   0.58738900  0.16261100  0.09487400
   0.58967284  0.16132487  0.28602427
   0.71238900  0.03761100  0.19102200
   0.71611265  0.02682247  0.37763386
   0.83738900  0.16261100  0.09487400
   0.83942579  0.16101811  0.28450218
   0.96238900  0.03761100  0.19102200
   0.96882526  0.03279483  0.37855590
   0.08738900  0.41261100  0.09487400
   0.08672108  0.41186524  0.28527547
   0.21238900  0.28761100  0.19102200
   0.21202945  0.28800306  0.37977764
   0.33738900  0.41261100  0.09487400
   0.33501873  0.41551272  0.28514877
   0.46238900  0.28761100  0.19102200
   0.46090148  0.29884700  0.38042317
   0.58738900  0.41261100  0.09487400
   0.58607594  0.41191078  0.28650171
   0.71238900  0.28761100  0.19102200
   0.71937663  0.28354802  0.38086120
   0.83738900  0.41261100  0.09487400
   0.83656516  0.41135205  0.28521321
   0.96238900  0.28761100  0.19102200
   0.96769336  0.28428552  0.37587215
   0.08738900  0.66261100  0.09487400
   0.08757339  0.66084526  0.28386033
   0.21238900  0.53761100  0.19102200
   0.19876155  0.53705439  0.37688814
   0.33738900  0.66261100  0.09487400
   0.33669974  0.66211573  0.28223231
   0.46238900  0.53761100  0.19102200
   0.44839831  0.56139545  0.38425774
   0.58738900  0.66261100  0.09487400
   0.58740032  0.65880123  0.28513358
   0.71238900  0.53761100  0.19102200
   0.70493087  0.53273748  0.37860916
   0.83738900  0.66261100  0.09487400
   0.83658617  0.66159259  0.28426521
   0.96238900  0.53761100  0.19102200
   0.96027813  0.53292513  0.37940220
   0.08738900  0.91261100  0.09487400
   0.08922133  0.91114551  0.28509122
   0.21238900  0.78761100  0.19102200
   0.22531737  0.78677080  0.38023833
   0.33738900  0.91261100  0.09487400
   0.33483778  0.91456577  0.28289198
   0.46238900  0.78761100  0.19102200
   0.45904215  0.79881739  0.37292238
   0.58738900  0.91261100  0.09487400
   0.58676652  0.91152364  0.28643675
   0.71238900  0.78761100  0.19102200
   0.71553458  0.78440373  0.37938295
   0.83738900  0.91261100  0.09487400
   0.83726625  0.91153786  0.28403214
   0.96238900  0.78761100  0.19102200
   0.96474452  0.78730260  0.37278922
   0.36900172  0.19985693  0.43148371
   0.81155814  0.11702907  0.42986064
   0.80194638  0.62414467  0.43078540
   0.27713296  0.62991051  0.43317108
   0.56157245  0.39441871  0.42740555
 
 position of ions in cartesian coordinates  (Angst):
   1.40594437  1.52230278  1.99999610
   1.42204200  1.51270274  6.00441657
   2.23340271  0.35209998  4.02684882
   2.23473990  0.31563931  7.91728124
   3.88831937  1.52230278  1.99999610
   3.91153621  1.53193024  6.00461423
   4.71577771  0.35209998  4.02684882
   4.76372713  0.42209230  8.00839356
   6.37069437  1.52230278  1.99999610
   6.38911487  1.51026250  6.02954887
   7.19815271  0.35209998  4.02684882
   7.19941845  0.25110186  7.96072944
   8.85306937  1.52230278  1.99999610
   8.86802143  1.50739074  5.99746237
   9.68052771  0.35209998  4.02684882
   9.72849582  0.30701286  7.98016661
   2.23340267  3.86270839  1.99999610
   2.22430217  3.85572684  6.01376377
   3.06086102  2.69250559  4.02684882
   3.05858849  2.69617590  8.00592142
   4.71577767  3.86270839  1.99999610
   4.70184633  3.88987323  6.01109299
   5.54323602  2.69250559  4.02684882
   5.56565501  2.79769280  8.01952962
   7.19815267  3.86270839  1.99999610
   7.18279703  3.85615318  6.03961352
   8.02561102  2.69250559  4.02684882
   8.08154696  2.65446953  8.02876351
   9.68052767  3.86270839  1.99999610
   9.66818046  3.85092261  6.01245144
  10.50798602  2.69250559  4.02684882
  10.54964887  2.66137371  7.92359168
   3.06086098  6.20311399  1.99999610
   3.05684759  6.18658381  5.98393198
   3.88831933  5.03291119  4.02684882
   3.75116329  5.02770039  7.94500938
   5.54323598  6.20311399  1.99999610
   5.53475269  6.19847742  5.94961230
   6.37069433  5.03291119  4.02684882
   6.31049631  5.25557226  8.10036448
   8.02561098  6.20311399  1.99999610
   8.01311368  6.16744833  6.01077279
   8.85306933  5.03291119  4.02684882
   8.76288326  4.98728717  7.98128931
  10.50798598  6.20311399  1.99999610
  10.49664355  6.19358004  5.99246690
  11.33544433  5.03291119  4.02684882
  11.29897504  4.98904388  7.99800712
   3.88831929  8.54351960  1.99999610
   3.90166292  8.52980024  6.00987976
   4.71577764  7.37331680  4.02684882
   4.84136900  7.36545120  8.01563318
   6.37069429  8.54351960  1.99999610
   6.35183188  8.56181939  5.96351850
   7.19815264  7.37331680  4.02684882
   7.20201140  7.47822679  7.86140883
   8.85306929  8.54351960  1.99999610
   8.84328935  8.53334011  6.03824428
   9.68052764  7.37331680  4.02684882
   9.70114616  7.34329151  7.99760124
  11.33544429  8.54351960  1.99999610
  11.33067348  8.53347327  5.98755366
  12.16290264  7.37331680  4.02684882
  12.18527104  7.37042967  7.85860172
   4.32549566  1.87098508  9.09591390
   8.44571327  1.09558194  9.06169878
  10.02874138  5.84300674  9.08119306
   4.83669042  5.89698431  9.13148456
   6.88159379  3.69239901  9.00994403
 


--------------------------------------------------------------------------------------------------------


 use parallel FFT for orbitals z direction half grid
 k-point  1 :   0.0000 0.0000 0.0000  plane waves:   26399

 maximum and minimum number of plane-waves per node :      1107     1096

 maximum number of plane-waves:     26399
 maximum index in each direction: 
   IXMAX=   18   IYMAX=   18   IZMAX=   39
   IXMIN=  -18   IYMIN=  -18   IZMIN=    0


 real space projection operators:
  total allocation   :      69724.98 KBytes
  max/ min on nodes  :       3512.78       2567.84


 parallel 3D FFT for wavefunctions:
    minimum data exchange during FFTs selected (reduces bandwidth)
 parallel 3D FFT for charge:
    minimum data exchange during FFTs selected (reduces bandwidth)


 total amount of memory used by VASP MPI-rank0    52857. kBytes
=======================================================================

   base      :      30000. kBytes
   nonlr-proj:       4210. kBytes
   fftplans  :       5964. kBytes
   grid      :      10693. kBytes
   one-center:         23. kBytes
   wavefun   :       1967. kBytes
 
     INWAV:  cpu time    0.0001: real time    0.0006
 Broyden mixing: mesh for mixing (old mesh)
   NGX = 37   NGY = 37   NGZ = 79
  (NGX  =160   NGY  =160   NGZ  =320)
  gives a total of 108151 points

 initial charge density was supplied:
 number of electron     542.0000174 magnetization 
 keeping initial charge density in first step


--------------------------------------------------------------------------------------------------------


 Maximum index for non-local projection operator          801
 Maximum index for augmentation-charges         1219 (set IRDMAX)


--------------------------------------------------------------------------------------------------------


 First call to EWALD:  gamma=   0.142
 Maximum number of real-space cells 4x 4x 2
 Maximum number of reciprocal cells 2x 2x 4

    FEWALD:  cpu time    0.0040: real time    0.0059


--------------------------------------- Iteration      1(   1)  ---------------------------------------


    POTLOK:  cpu time    0.1843: real time    0.1916
    SETDIJ:  cpu time    0.0103: real time    0.0104
     EDDAV:  cpu time    1.8940: real time    1.9298
       DOS:  cpu time    0.0026: real time    0.0026
    --------------------------------------------
      LOOP:  cpu time    2.0914: real time    2.1345

 eigenvalue-minimisations  :   654
 total energy-change (2. order) : 0.5215292E+04  (-0.2610628E+05)
 number of electron     542.0000174 magnetization 
 augmentation part      542.0000174 magnetization 

 Free energy of the ion-electron system (eV)
  ---------------------------------------------------
  alpha Z        PSCENC =      1561.33072183
  Ewald energy   TEWEN  =    149783.11082118
  -Hartree energ DENC   =   -190112.90208477
  -exchange      EXHF   =         0.00000000
  -V(xc)+E(xc)   XCENC  =       330.07454476
  PAW double counting   =     47665.20160412   -48250.07261033
  entropy T*S    EENTRO =        -0.49806340
  eigenvalues    EBANDS =      4041.24602098
  atomic energy  EATOM  =     40197.80149763
  Solvation  Ediel_sol  =         0.00000000
  ---------------------------------------------------
  free energy    TOTEN  =      5215.29245199 eV

  energy without entropy =     5215.79051540  energy(sigma->0) =     5215.54148369


--------------------------------------------------------------------------------------------------------




--------------------------------------- Iteration      1(   2)  ---------------------------------------


     EDDAV:  cpu time    1.8694: real time    1.8863
       DOS:  cpu time    0.0013: real time    0.0013
    --------------------------------------------
      LOOP:  cpu time    1.8707: real time    1.8876

 eigenvalue-minimisations  :   654
 total energy-change (2. order) :-0.5119390E+04  (-0.5012955E+04)
 number of electron     542.0000174 magnetization 
 augmentation part      542.0000174 magnetization 

 Free energy of the ion-electron system (eV)
  ---------------------------------------------------
  alpha Z        PSCENC =      1561.33072183
  Ewald energy   TEWEN  =    149783.11082118
  -Hartree energ DENC   =   -190112.90208477
  -exchange      EXHF   =         0.00000000
  -V(xc)+E(xc)   XCENC  =       330.07454476
  PAW double counting   =     47665.20160412   -48250.07261033
  entropy T*S    EENTRO =        -1.72779796
  eigenvalues    EBANDS =     -1076.91438446
  atomic energy  EATOM  =     40197.80149763
  Solvation  Ediel_sol  =         0.00000000
  ---------------------------------------------------
  free energy    TOTEN  =        95.90231199 eV

  energy without entropy =       97.63010995  energy(sigma->0) =       96.76621097


--------------------------------------------------------------------------------------------------------




--------------------------------------- Iteration      1(   3)  ---------------------------------------


     EDDAV:  cpu time    2.2574: real time    2.2720
       DOS:  cpu time    0.0019: real time    0.0019
    --------------------------------------------
      LOOP:  cpu time    2.2593: real time    2.2738

 eigenvalue-minimisations  :   849
 total energy-change (2. order) :-0.4936614E+03  (-0.4459639E+03)
 number of electron     542.0000174 magnetization 
 augmentation part      542.0000174 magnetization 

 Free energy of the ion-electron system (eV)
  ---------------------------------------------------
  alpha Z        PSCENC =      1561.33072183
  Ewald energy   TEWEN  =    149783.11082118
  -Hartree energ DENC   =   -190112.90208477
  -exchange      EXHF   =         0.00000000
  -V(xc)+E(xc)   XCENC  =       330.07454476
  PAW double counting   =     47665.20160412   -48250.07261033
  entropy T*S    EENTRO =        -3.61443143
  eigenvalues    EBANDS =     -1568.68919452
  atomic energy  EATOM  =     40197.80149763
  Solvation  Ediel_sol  =         0.00000000
  ---------------------------------------------------
  free energy    TOTEN  =      -397.75913153 eV

  energy without entropy =     -394.14470010  energy(sigma->0) =     -395.95191581


--------------------------------------------------------------------------------------------------------




--------------------------------------- Iteration      1(   4)  ---------------------------------------


     EDDAV:  cpu time    3.1111: real time    3.1243
       DOS:  cpu time    0.0020: real time    0.0020
    --------------------------------------------
      LOOP:  cpu time    3.1132: real time    3.1263

 eigenvalue-minimisations  :  1254
 total energy-change (2. order) :-0.1005047E+03  (-0.9406058E+02)
 number of electron     542.0000174 magnetization 
 augmentation part      542.0000174 magnetization 

 Free energy of the ion-electron system (eV)
  ---------------------------------------------------
  alpha Z        PSCENC =      1561.33072183
  Ewald energy   TEWEN  =    149783.11082118
  -Hartree energ DENC   =   -190112.90208477
  -exchange      EXHF   =         0.00000000
  -V(xc)+E(xc)   XCENC  =       330.07454476
  PAW double counting   =     47665.20160412   -48250.07261033
  entropy T*S    EENTRO =        -3.92983676
  eigenvalues    EBANDS =     -1668.87846027
  atomic energy  EATOM  =     40197.80149763
  Solvation  Ediel_sol  =         0.00000000
  ---------------------------------------------------
  free energy    TOTEN  =      -498.26380261 eV

  energy without entropy =     -494.33396585  energy(sigma->0) =     -496.29888423


--------------------------------------------------------------------------------------------------------




--------------------------------------- Iteration      1(   5)  ---------------------------------------


     EDDAV:  cpu time    2.8386: real time    2.8400
       DOS:  cpu time    0.0016: real time    0.0017
    CHARGE:  cpu time    0.1001: real time    0.1043
    MIXING:  cpu time    0.0036: real time    0.0037
    --------------------------------------------
      LOOP:  cpu time    2.9440: real time    2.9497

 eigenvalue-minimisations  :  1128
 total energy-change (2. order) :-0.1318230E+02  (-0.1223452E+02)
 number of electron     542.0000166 magnetization 
 augmentation part      265.7555039 magnetization 

 Broyden mixing:
  rms(total) = 0.44685E+01    rms(broyden)= 0.44681E+01
  rms(prec ) = 0.56324E+01
  weight for this iteration     100.00

 Free energy of the ion-electron system (eV)
  ---------------------------------------------------
  alpha Z        PSCENC =      1561.33072183
  Ewald energy   TEWEN  =    149783.11082118
  -Hartree energ DENC   =   -190112.90208477
  -exchange      EXHF   =         0.00000000
  -V(xc)+E(xc)   XCENC  =       330.07454476
  PAW double counting   =     47665.20160412   -48250.07261033
  entropy T*S    EENTRO =        -4.03008763
  eigenvalues    EBANDS =     -1681.96051121
  atomic energy  EATOM  =     40197.80149763
  Solvation  Ediel_sol  =         0.00000000
  ---------------------------------------------------
  free energy    TOTEN  =      -511.44610442 eV

  energy without entropy =     -507.41601679  energy(sigma->0) =     -509.43106061


--------------------------------------------------------------------------------------------------------




--------------------------------------- Iteration      1(   6)  ---------------------------------------


    POTLOK:  cpu time    0.1780: real time    0.1890
    SETDIJ:  cpu time    0.0103: real time    0.0104
    EDDIAG:  cpu time    0.2740: real time    0.2741
  RMM-DIIS:  cpu time    1.9665: real time    1.9695
    ORTHCH:  cpu time    0.0580: real time    0.0581
       DOS:  cpu time    0.0016: real time    0.0016
    CHARGE:  cpu time    0.0900: real time    0.0901
    MIXING:  cpu time    0.0036: real time    0.0036
    --------------------------------------------
      LOOP:  cpu time    2.5820: real time    2.5964

 eigenvalue-minimisations  :   992
 total energy-change (2. order) :-0.7987444E+03  (-0.1214972E+03)
 number of electron     542.0000224 magnetization 
 augmentation part      286.5652047 magnetization 

 Broyden mixing:
  rms(total) = 0.19544E+02    rms(broyden)= 0.19543E+02
  rms(prec ) = 0.26948E+02
  weight for this iteration     100.00

 eigenvalues of (default mixing * dielectric matrix)
  average eigenvalue GAMMA=   0.1772
  0.1772

 Free energy of the ion-electron system (eV)
  ---------------------------------------------------
  alpha Z        PSCENC =      1561.33072183
  Ewald energy   TEWEN  =    149783.11082118
  -Hartree energ DENC   =   -189795.12912825
  -exchange      EXHF   =         0.00000000
  -V(xc)+E(xc)   XCENC  =       327.10856175
  PAW double counting   =     46802.85891118   -47357.00825396
  entropy T*S    EENTRO =        -0.39210010
  eigenvalues    EBANDS =     -2829.87149235
  atomic energy  EATOM  =     40197.80149763
  Solvation  Ediel_sol  =         0.00000000
  ---------------------------------------------------
  free energy    TOTEN  =     -1310.19046108 eV

  energy without entropy =    -1309.79836098  energy(sigma->0) =    -1309.99441103


--------------------------------------------------------------------------------------------------------




--------------------------------------- Iteration      1(   7)  ---------------------------------------


    POTLOK:  cpu time    0.1796: real time    0.1916
    SETDIJ:  cpu time    0.0102: real time    0.0102
    EDDIAG:  cpu time    0.2734: real time    0.2734
  RMM-DIIS:  cpu time    1.3148: real time    1.3150
    ORTHCH:  cpu time    0.0578: real time    0.0578
       DOS:  cpu time    0.0017: real time    0.0017
    CHARGE:  cpu time    0.0996: real time    0.0996
    MIXING:  cpu time    0.0034: real time    0.0034
    --------------------------------------------
      LOOP:  cpu time    1.9404: real time    1.9527

 eigenvalue-minimisations  :   655
 total energy-change (2. order) : 0.7411975E+03  (-0.3976775E+02)
 number of electron     542.0000219 magnetization 
 augmentation part      270.5091542 magnetization 

 Broyden mixing:
  rms(total) = 0.97030E+01    rms(broyden)= 0.97026E+01
  rms(prec ) = 0.11578E+02
  weight for this iteration     100.00

 eigenvalues of (default mixing * dielectric matrix)
  average eigenvalue GAMMA=   0.1222
  0.1612  0.0832

 Free energy of the ion-electron system (eV)
  ---------------------------------------------------
  alpha Z        PSCENC =      1561.33072183
  Ewald energy   TEWEN  =    149783.11082118
  -Hartree energ DENC   =   -189960.36293595
  -exchange      EXHF   =         0.00000000
  -V(xc)+E(xc)   XCENC  =       328.85124863
  PAW double counting   =     47056.67102105   -47627.01628239
  entropy T*S    EENTRO =        -2.58370375
  eigenvalues    EBANDS =     -1906.79534707
  atomic energy  EATOM  =     40197.80149763
  Solvation  Ediel_sol  =         0.00000000
  ---------------------------------------------------
  free energy    TOTEN  =      -568.99295885 eV

  energy without entropy =     -566.40925509  energy(sigma->0) =     -567.70110697


--------------------------------------------------------------------------------------------------------




--------------------------------------- Iteration      1(   8)  ---------------------------------------


    POTLOK:  cpu time    0.1798: real time    0.1907
    SETDIJ:  cpu time    0.0103: real time    0.0103
    EDDIAG:  cpu time    0.2724: real time    0.2724
  RMM-DIIS:  cpu time    1.3453: real time    1.3466
    ORTHCH:  cpu time    0.0584: real time    0.0584
       DOS:  cpu time    0.0019: real time    0.0019
    CHARGE:  cpu time    0.1000: real time    0.1000
    MIXING:  cpu time    0.0035: real time    0.0035
    --------------------------------------------
      LOOP:  cpu time    1.9717: real time    1.9839

 eigenvalue-minimisations  :   675
 total energy-change (2. order) : 0.5061318E+02  (-0.5949053E+01)
 number of electron     542.0000209 magnetization 
 augmentation part      268.6880920 magnetization 

 Broyden mixing:
  rms(total) = 0.61708E+01    rms(broyden)= 0.61706E+01
  rms(prec ) = 0.77377E+01
  weight for this iteration     100.00

 eigenvalues of (default mixing * dielectric matrix)
  average eigenvalue GAMMA=   0.0883
  0.1626  0.0877  0.0147

 Free energy of the ion-electron system (eV)
  ---------------------------------------------------
  alpha Z        PSCENC =      1561.33072183
  Ewald energy   TEWEN  =    149783.11082118
  -Hartree energ DENC   =   -189980.22712599
  -exchange      EXHF   =         0.00000000
  -V(xc)+E(xc)   XCENC  =       328.61451626
  PAW double counting   =     47015.36988887   -47584.69853320
  entropy T*S    EENTRO =        -3.57305749
  eigenvalues    EBANDS =     -1836.10851140
  atomic energy  EATOM  =     40197.80149763
  Solvation  Ediel_sol  =         0.00000000
  ---------------------------------------------------
  free energy    TOTEN  =      -518.37978230 eV

  energy without entropy =     -514.80672481  energy(sigma->0) =     -516.59325355


--------------------------------------------------------------------------------------------------------




--------------------------------------- Iteration      1(   9)  ---------------------------------------


    POTLOK:  cpu time    0.1815: real time    0.1923
    SETDIJ:  cpu time    0.0102: real time    0.0102
    EDDIAG:  cpu time    0.2730: real time    0.2730
  RMM-DIIS:  cpu time    2.1183: real time    2.1190
    ORTHCH:  cpu time    0.0587: real time    0.0587
       DOS:  cpu time    0.0015: real time    0.0015
    CHARGE:  cpu time    0.1001: real time    0.1001
    MIXING:  cpu time    0.0038: real time    0.0038
    --------------------------------------------
      LOOP:  cpu time    2.7478: real time    2.7586

 eigenvalue-minimisations  :  1070
 total energy-change (2. order) : 0.7553855E+00  (-0.2934063E+01)
 number of electron     542.0000206 magnetization 
 augmentation part      268.5553933 magnetization 

 Broyden mixing:
  rms(total) = 0.55618E+01    rms(broyden)= 0.55618E+01
  rms(prec ) = 0.69197E+01
  weight for this iteration     100.00

 eigenvalues of (default mixing * dielectric matrix)
  average eigenvalue GAMMA=   0.0745
  0.1616  0.0882  0.0329  0.0152

 Free energy of the ion-electron system (eV)
  ---------------------------------------------------
  alpha Z        PSCENC =      1561.33072183
  Ewald energy   TEWEN  =    149783.11082118
  -Hartree energ DENC   =   -189983.47177116
  -exchange      EXHF   =         0.00000000
  -V(xc)+E(xc)   XCENC  =       328.55887022
  PAW double counting   =     47002.01335529   -47570.47829332
  entropy T*S    EENTRO =        -3.79113501
  eigenvalues    EBANDS =     -1832.69846349
  atomic energy  EATOM  =     40197.80149763
  Solvation  Ediel_sol  =         0.00000000
  ---------------------------------------------------
  free energy    TOTEN  =      -517.62439684 eV

  energy without entropy =     -513.83326183  energy(sigma->0) =     -515.72882933


--------------------------------------------------------------------------------------------------------




--------------------------------------- Iteration      1(  10)  ---------------------------------------


    POTLOK:  cpu time    0.1812: real time    0.1926
    SETDIJ:  cpu time    0.0103: real time    0.0103
    EDDIAG:  cpu time    0.2850: real time    0.2853
  RMM-DIIS:  cpu time    2.0794: real time    2.0803
    ORTHCH:  cpu time    0.0584: real time    0.0584
       DOS:  cpu time    0.0016: real time    0.0016
    CHARGE:  cpu time    0.0995: real time    0.0996
    MIXING:  cpu time    0.0039: real time    0.0039
    --------------------------------------------
      LOOP:  cpu time    2.7185: real time    2.7318

 eigenvalue-minimisations  :  1051
 total energy-change (2. order) :-0.7151889E-02  (-0.5938122E+00)
 number of electron     542.0000205 magnetization 
 augmentation part      268.5130142 magnetization 

 Broyden mixing:
  rms(total) = 0.56534E+01    rms(broyden)= 0.56534E+01
  rms(prec ) = 0.70970E+01
  weight for this iteration     100.00

 eigenvalues of (default mixing * dielectric matrix)
  average eigenvalue GAMMA=   0.1073
  0.1717  0.1128  0.1128  0.0942  0.0452

 Free energy of the ion-electron system (eV)
  ---------------------------------------------------
  alpha Z        PSCENC =      1561.33072183
  Ewald energy   TEWEN  =    149783.11082118
  -Hartree energ DENC   =   -189989.24228220
  -exchange      EXHF   =         0.00000000
  -V(xc)+E(xc)   XCENC  =       328.50973215
  PAW double counting   =     46989.90593815   -47557.82877036
  entropy T*S    EENTRO =        -3.90328937
  eigenvalues    EBANDS =     -1827.31591773
  atomic energy  EATOM  =     40197.80149763
  Solvation  Ediel_sol  =         0.00000000
  ---------------------------------------------------
  free energy    TOTEN  =      -517.63154873 eV

  energy without entropy =     -513.72825935  energy(sigma->0) =     -515.67990404


--------------------------------------------------------------------------------------------------------




--------------------------------------- Iteration      1(  11)  ---------------------------------------


    POTLOK:  cpu time    0.1817: real time    0.1940
    SETDIJ:  cpu time    0.0103: real time    0.0103
    EDDIAG:  cpu time    0.2739: real time    0.2740
  RMM-DIIS:  cpu time    2.0539: real time    2.0547
    ORTHCH:  cpu time    0.0581: real time    0.0582
       DOS:  cpu time    0.0016: real time    0.0016
    CHARGE:  cpu time    0.1000: real time    0.1000
    MIXING:  cpu time    0.0039: real time    0.0039
    --------------------------------------------
      LOOP:  cpu time    2.6835: real time    2.6967

 eigenvalue-minimisations  :  1035
 total energy-change (2. order) : 0.6095627E+00  (-0.3237833E+00)
 number of electron     542.0000206 magnetization 
 augmentation part      268.6623767 magnetization 

 Broyden mixing:
  rms(total) = 0.55067E+01    rms(broyden)= 0.55067E+01
  rms(prec ) = 0.67580E+01
  weight for this iteration     100.00

 eigenvalues of (default mixing * dielectric matrix)
  average eigenvalue GAMMA=   0.1355
  0.2099  0.2099  0.1764  0.0959  0.0742  0.0470

 Free energy of the ion-electron system (eV)
  ---------------------------------------------------
  alpha Z        PSCENC =      1561.33072183
  Ewald energy   TEWEN  =    149783.11082118
  -Hartree energ DENC   =   -189988.13727653
  -exchange      EXHF   =         0.00000000
  -V(xc)+E(xc)   XCENC  =       328.46338025
  PAW double counting   =     46964.28612764   -47531.22498833
  entropy T*S    EENTRO =        -3.89958411
  eigenvalues    EBANDS =     -1828.75268559
  atomic energy  EATOM  =     40197.80149763
  Solvation  Ediel_sol  =         0.00000000
  ---------------------------------------------------
  free energy    TOTEN  =      -517.02198603 eV

  energy without entropy =     -513.12240192  energy(sigma->0) =     -515.07219397


--------------------------------------------------------------------------------------------------------




--------------------------------------- Iteration      1(  12)  ---------------------------------------


    POTLOK:  cpu time    0.1824: real time    0.1945
    SETDIJ:  cpu time    0.0103: real time    0.0103
    EDDIAG:  cpu time    0.2724: real time    0.2725
  RMM-DIIS:  cpu time    1.5991: real time    1.5994
    ORTHCH:  cpu time    0.0585: real time    0.0585
       DOS:  cpu time    0.0017: real time    0.0017
    CHARGE:  cpu time    0.1004: real time    0.1004
    MIXING:  cpu time    0.0041: real time    0.0041
    --------------------------------------------
      LOOP:  cpu time    2.2289: real time    2.2413

 eigenvalue-minimisations  :   797
 total energy-change (2. order) :-0.2980211E+01  (-0.7077263E+00)
 number of electron     542.0000202 magnetization 
 augmentation part      268.4978738 magnetization 

 Broyden mixing:
  rms(total) = 0.63020E+01    rms(broyden)= 0.63019E+01
  rms(prec ) = 0.84287E+01
  weight for this iteration     100.00

 eigenvalues of (default mixing * dielectric matrix)
  average eigenvalue GAMMA=   0.1676
  0.3371  0.3371  0.1459  0.1459  0.1049  0.0598  0.0423

 Free energy of the ion-electron system (eV)
  ---------------------------------------------------
  alpha Z        PSCENC =      1561.33072183
  Ewald energy   TEWEN  =    149783.11082118
  -Hartree energ DENC   =   -190014.35461744
  -exchange      EXHF   =         0.00000000
  -V(xc)+E(xc)   XCENC  =       328.46901303
  PAW double counting   =     46918.70758629   -47484.19268942
  entropy T*S    EENTRO =        -3.96580887
  eigenvalues    EBANDS =     -1806.90872158
  atomic energy  EATOM  =     40197.80149763
  Solvation  Ediel_sol  =         0.00000000
  ---------------------------------------------------
  free energy    TOTEN  =      -520.00219734 eV

  energy without entropy =     -516.03638847  energy(sigma->0) =     -518.01929290


--------------------------------------------------------------------------------------------------------




--------------------------------------- Iteration      1(  13)  ---------------------------------------


    POTLOK:  cpu time    0.1807: real time    0.1937
    SETDIJ:  cpu time    0.0102: real time    0.0102
    EDDIAG:  cpu time    0.2761: real time    0.2761
  RMM-DIIS:  cpu time    1.7756: real time    1.7759
    ORTHCH:  cpu time    0.0581: real time    0.0581
       DOS:  cpu time    0.0018: real time    0.0018
    CHARGE:  cpu time    0.0997: real time    0.0998
    MIXING:  cpu time    0.0042: real time    0.0042
    --------------------------------------------
      LOOP:  cpu time    2.4064: real time    2.4197

 eigenvalue-minimisations  :   882
 total energy-change (2. order) : 0.6014809E+00  (-0.8721955E+00)
 number of electron     542.0000199 magnetization 
 augmentation part      268.6184442 magnetization 

 Broyden mixing:
  rms(total) = 0.60095E+01    rms(broyden)= 0.60094E+01
  rms(prec ) = 0.75014E+01
  weight for this iteration     100.00

 eigenvalues of (default mixing * dielectric matrix)
  average eigenvalue GAMMA=   0.2611
  0.7222  0.7222  0.1864  0.1864  0.1056  0.0698  0.0542  0.0422

 Free energy of the ion-electron system (eV)
  ---------------------------------------------------
  alpha Z        PSCENC =      1561.33072183
  Ewald energy   TEWEN  =    149783.11082118
  -Hartree energ DENC   =   -190011.66515187
  -exchange      EXHF   =         0.00000000
  -V(xc)+E(xc)   XCENC  =       328.52219747
  PAW double counting   =     46875.38789040   -47439.73254723
  entropy T*S    EENTRO =        -3.93267033
  eigenvalues    EBANDS =     -1810.22347552
  atomic energy  EATOM  =     40197.80149763
  Solvation  Ediel_sol  =         0.00000000
  ---------------------------------------------------
  free energy    TOTEN  =      -519.40071643 eV

  energy without entropy =     -515.46804611  energy(sigma->0) =     -517.43438127


--------------------------------------------------------------------------------------------------------




--------------------------------------- Iteration      1(  14)  ---------------------------------------


    POTLOK:  cpu time    0.1814: real time    0.1939
    SETDIJ:  cpu time    0.0102: real time    0.0102
    EDDIAG:  cpu time    0.2752: real time    0.2752
  RMM-DIIS:  cpu time    1.5344: real time    1.5404
    ORTHCH:  cpu time    0.0584: real time    0.0584
       DOS:  cpu time    0.0016: real time    0.0016
    CHARGE:  cpu time    0.1005: real time    0.1005
    MIXING:  cpu time    0.0043: real time    0.0043
    --------------------------------------------
      LOOP:  cpu time    2.1668: real time    2.1845

 eigenvalue-minimisations  :   768
 total energy-change (2. order) :-0.1142776E+02  (-0.3378675E+01)
 number of electron     542.0000187 magnetization 
 augmentation part      268.4430370 magnetization 

 Broyden mixing:
  rms(total) = 0.75029E+01    rms(broyden)= 0.75026E+01
  rms(prec ) = 0.10043E+02
  weight for this iteration     100.00

 eigenvalues of (default mixing * dielectric matrix)
  average eigenvalue GAMMA=   0.2807
  0.8904  0.8904  0.1953  0.1953  0.1083  0.0863  0.0682  0.0507  0.0416

 Free energy of the ion-electron system (eV)
  ---------------------------------------------------
  alpha Z        PSCENC =      1561.33072183
  Ewald energy   TEWEN  =    149783.11082118
  -Hartree energ DENC   =   -190096.62512144
  -exchange      EXHF   =         0.00000000
  -V(xc)+E(xc)   XCENC  =       329.16514002
  PAW double counting   =     46596.03198934   -47154.10132812
  entropy T*S    EENTRO =        -3.67804563
  eigenvalues    EBANDS =     -1743.86415445
  atomic energy  EATOM  =     40197.80149763
  Solvation  Ediel_sol  =         0.00000000
  ---------------------------------------------------
  free energy    TOTEN  =      -530.82847963 eV

  energy without entropy =     -527.15043400  energy(sigma->0) =     -528.98945682


--------------------------------------------------------------------------------------------------------




--------------------------------------- Iteration      1(  15)  ---------------------------------------


    POTLOK:  cpu time    0.1802: real time    0.1921
    SETDIJ:  cpu time    0.0103: real time    0.0103
    EDDIAG:  cpu time    0.2730: real time    0.2730
  RMM-DIIS:  cpu time    1.3786: real time    1.3792
    ORTHCH:  cpu time    0.0577: real time    0.0577
       DOS:  cpu time    0.0015: real time    0.0016
    CHARGE:  cpu time    0.0999: real time    0.0999
    MIXING:  cpu time    0.0045: real time    0.0045
    --------------------------------------------
      LOOP:  cpu time    2.0049: real time    2.0182

 eigenvalue-minimisations  :   686
 total energy-change (2. order) : 0.1433208E+02  (-0.1805492E+01)
 number of electron     542.0000178 magnetization 
 augmentation part      268.0971117 magnetization 

 Broyden mixing:
  rms(total) = 0.50905E+01    rms(broyden)= 0.50902E+01
  rms(prec ) = 0.67249E+01
  weight for this iteration     100.00

 eigenvalues of (default mixing * dielectric matrix)
  average eigenvalue GAMMA=   0.2662
  0.9192  0.9192  0.1977  0.1977  0.1121  0.0787  0.0787  0.0635  0.0421  0.0533

 Free energy of the ion-electron system (eV)
  ---------------------------------------------------
  alpha Z        PSCENC =      1561.33072183
  Ewald energy   TEWEN  =    149783.11082118
  -Hartree energ DENC   =   -190127.35997362
  -exchange      EXHF   =         0.00000000
  -V(xc)+E(xc)   XCENC  =       329.29885972
  PAW double counting   =     46316.19590799   -46866.57755762
  entropy T*S    EENTRO =        -4.49197770
  eigenvalues    EBANDS =     -1705.80469733
  atomic energy  EATOM  =     40197.80149763
  Solvation  Ediel_sol  =         0.00000000
  ---------------------------------------------------
  free energy    TOTEN  =      -516.49639791 eV

  energy without entropy =     -512.00442022  energy(sigma->0) =     -514.25040907


--------------------------------------------------------------------------------------------------------




--------------------------------------- Iteration      1(  16)  ---------------------------------------


    POTLOK:  cpu time    0.1801: real time    0.1895
    SETDIJ:  cpu time    0.0102: real time    0.0102
    EDDIAG:  cpu time    0.2748: real time    0.2748
  RMM-DIIS:  cpu time    1.7124: real time    1.7130
    ORTHCH:  cpu time    0.0581: real time    0.0581
       DOS:  cpu time    0.0018: real time    0.0018
    CHARGE:  cpu time    0.1003: real time    0.1003
    MIXING:  cpu time    0.0046: real time    0.0046
    --------------------------------------------
      LOOP:  cpu time    2.3423: real time    2.3522

 eigenvalue-minimisations  :   863
 total energy-change (2. order) : 0.4304161E+01  (-0.1052026E+01)
 number of electron     542.0000175 magnetization 
 augmentation part      268.0887946 magnetization 

 Broyden mixing:
  rms(total) = 0.39013E+01    rms(broyden)= 0.39011E+01
  rms(prec ) = 0.52321E+01
  weight for this iteration     100.00

 eigenvalues of (default mixing * dielectric matrix)
  average eigenvalue GAMMA=   0.2528
  0.9188  0.9188  0.1985  0.1985  0.1157  0.1036  0.1036  0.0736  0.0585  0.0417
  0.0493

 Free energy of the ion-electron system (eV)
  ---------------------------------------------------
  alpha Z        PSCENC =      1561.33072183
  Ewald energy   TEWEN  =    149783.11082118
  -Hartree energ DENC   =   -190129.96038543
  -exchange      EXHF   =         0.00000000
  -V(xc)+E(xc)   XCENC  =       329.15673686
  PAW double counting   =     46211.84664331   -46758.95427818
  entropy T*S    EENTRO =        -4.94012025
  eigenvalues    EBANDS =     -1701.58387369
  atomic energy  EATOM  =     40197.80149763
  Solvation  Ediel_sol  =         0.00000000
  ---------------------------------------------------
  free energy    TOTEN  =      -512.19223674 eV

  energy without entropy =     -507.25211649  energy(sigma->0) =     -509.72217661


--------------------------------------------------------------------------------------------------------




--------------------------------------- Iteration      1(  17)  ---------------------------------------


    POTLOK:  cpu time    0.1828: real time    0.1947
    SETDIJ:  cpu time    0.0102: real time    0.0102
    EDDIAG:  cpu time    0.2751: real time    0.2751
  RMM-DIIS:  cpu time    1.9421: real time    1.9424
    ORTHCH:  cpu time    0.0581: real time    0.0582
       DOS:  cpu time    0.0017: real time    0.0017
    CHARGE:  cpu time    0.1003: real time    0.1004
    MIXING:  cpu time    0.0050: real time    0.0050
    --------------------------------------------
      LOOP:  cpu time    2.5753: real time    2.5875

 eigenvalue-minimisations  :   962
 total energy-change (2. order) : 0.7614883E+00  (-0.5851240E+00)
 number of electron     542.0000173 magnetization 
 augmentation part      268.3233070 magnetization 

 Broyden mixing:
  rms(total) = 0.35798E+01    rms(broyden)= 0.35797E+01
  rms(prec ) = 0.45055E+01
  weight for this iteration     100.00

 eigenvalues of (default mixing * dielectric matrix)
  average eigenvalue GAMMA=   0.2695
  1.2994  0.4702  0.4702  0.2070  0.2070  0.1817  0.1090  0.0812  0.0682  0.0419
  0.0517  0.0469

 Free energy of the ion-electron system (eV)
  ---------------------------------------------------
  alpha Z        PSCENC =      1561.33072183
  Ewald energy   TEWEN  =    149783.11082118
  -Hartree energ DENC   =   -190125.81327198
  -exchange      EXHF   =         0.00000000
  -V(xc)+E(xc)   XCENC  =       328.99185909
  PAW double counting   =     46132.95914659   -46677.58722470
  entropy T*S    EENTRO =        -5.06272232
  eigenvalues    EBANDS =     -1707.16157574
  atomic energy  EATOM  =     40197.80149763
  Solvation  Ediel_sol  =         0.00000000
  ---------------------------------------------------
  free energy    TOTEN  =      -511.43074842 eV

  energy without entropy =     -506.36802610  energy(sigma->0) =     -508.89938726


--------------------------------------------------------------------------------------------------------




--------------------------------------- Iteration      1(  18)  ---------------------------------------


    POTLOK:  cpu time    0.1805: real time    0.1928
    SETDIJ:  cpu time    0.0102: real time    0.0102
    EDDIAG:  cpu time    0.2768: real time    0.2769
  RMM-DIIS:  cpu time    1.4948: real time    1.4952
    ORTHCH:  cpu time    0.0582: real time    0.0582
       DOS:  cpu time    0.0018: real time    0.0018
    CHARGE:  cpu time    0.0997: real time    0.0998
    MIXING:  cpu time    0.0050: real time    0.0050
    --------------------------------------------
      LOOP:  cpu time    2.1272: real time    2.1400

 eigenvalue-minimisations  :   741
 total energy-change (2. order) :-0.5454557E+01  (-0.1039940E+01)
 number of electron     542.0000176 magnetization 
 augmentation part      268.8874284 magnetization 

 Broyden mixing:
  rms(total) = 0.52973E+01    rms(broyden)= 0.52971E+01
  rms(prec ) = 0.65386E+01
  weight for this iteration     100.00

 eigenvalues of (default mixing * dielectric matrix)
  average eigenvalue GAMMA=   0.3161
  1.9215  0.5403  0.5403  0.2078  0.2078  0.2247  0.1053  0.0914  0.0735  0.0612
  0.0514  0.0416  0.0429

 Free energy of the ion-electron system (eV)
  ---------------------------------------------------
  alpha Z        PSCENC =      1561.33072183
  Ewald energy   TEWEN  =    149783.11082118
  -Hartree energ DENC   =   -190122.26726717
  -exchange      EXHF   =         0.00000000
  -V(xc)+E(xc)   XCENC  =       329.00259724
  PAW double counting   =     45962.16921451   -46503.24450925
  entropy T*S    EENTRO =        -4.42265681
  eigenvalues    EBANDS =     -1720.36572505
  atomic energy  EATOM  =     40197.80149763
  Solvation  Ediel_sol  =         0.00000000
  ---------------------------------------------------
  free energy    TOTEN  =      -516.88530589 eV

  energy without entropy =     -512.46264908  energy(sigma->0) =     -514.67397748


--------------------------------------------------------------------------------------------------------




--------------------------------------- Iteration      1(  19)  ---------------------------------------


    POTLOK:  cpu time    0.1805: real time    0.1922
    SETDIJ:  cpu time    0.0103: real time    0.0103
    EDDIAG:  cpu time    0.2746: real time    0.2746
  RMM-DIIS:  cpu time    1.3273: real time    1.3276
    ORTHCH:  cpu time    0.0582: real time    0.0582
       DOS:  cpu time    0.0017: real time    0.0017
    CHARGE:  cpu time    0.0999: real time    0.1000
    MIXING:  cpu time    0.0052: real time    0.0052
    --------------------------------------------
      LOOP:  cpu time    1.9576: real time    1.9696

 eigenvalue-minimisations  :   665
 total energy-change (2. order) : 0.1305282E+01  (-0.9700877E+00)
 number of electron     542.0000182 magnetization 
 augmentation part      268.8159524 magnetization 

 Broyden mixing:
  rms(total) = 0.48594E+01    rms(broyden)= 0.48591E+01
  rms(prec ) = 0.63680E+01
  weight for this iteration     100.00

 eigenvalues of (default mixing * dielectric matrix)
  average eigenvalue GAMMA=   0.3151
  2.0306  0.5599  0.5599  0.3128  0.2034  0.2034  0.1038  0.1038  0.0768  0.0637
  0.0577  0.0507  0.0419  0.0433

 Free energy of the ion-electron system (eV)
  ---------------------------------------------------
  alpha Z        PSCENC =      1561.33072183
  Ewald energy   TEWEN  =    149783.11082118
  -Hartree energ DENC   =   -190113.43310852
  -exchange      EXHF   =         0.00000000
  -V(xc)+E(xc)   XCENC  =       329.33873194
  PAW double counting   =     45836.40012307   -46376.37947167
  entropy T*S    EENTRO =        -4.51356791
  eigenvalues    EBANDS =     -1729.23577177
  atomic energy  EATOM  =     40197.80149763
  Solvation  Ediel_sol  =         0.00000000
  ---------------------------------------------------
  free energy    TOTEN  =      -515.58002421 eV

  energy without entropy =     -511.06645630  energy(sigma->0) =     -513.32324026


--------------------------------------------------------------------------------------------------------




--------------------------------------- Iteration      1(  20)  ---------------------------------------


    POTLOK:  cpu time    0.1816: real time    0.1940
    SETDIJ:  cpu time    0.0102: real time    0.0102
    EDDIAG:  cpu time    0.2736: real time    0.2735
  RMM-DIIS:  cpu time    1.5568: real time    1.5574
    ORTHCH:  cpu time    0.0581: real time    0.0581
       DOS:  cpu time    0.0018: real time    0.0018
    CHARGE:  cpu time    0.1001: real time    0.1001
    MIXING:  cpu time    0.0052: real time    0.0052
    --------------------------------------------
      LOOP:  cpu time    2.1874: real time    2.2004

 eigenvalue-minimisations  :   771
 total energy-change (2. order) : 0.1387543E+01  (-0.7441830E+00)
 number of electron     542.0000180 magnetization 
 augmentation part      268.7558219 magnetization 

 Broyden mixing:
  rms(total) = 0.46168E+01    rms(broyden)= 0.46167E+01
  rms(prec ) = 0.63726E+01
  weight for this iteration     100.00

 eigenvalues of (default mixing * dielectric matrix)
  average eigenvalue GAMMA=   0.3280
  2.1154  0.6249  0.6249  0.5150  0.2012  0.2012  0.1128  0.1128  0.0810  0.0719
  0.0719  0.0520  0.0517  0.0421  0.0413

 Free energy of the ion-electron system (eV)
  ---------------------------------------------------
  alpha Z        PSCENC =      1561.33072183
  Ewald energy   TEWEN  =    149783.11082118
  -Hartree energ DENC   =   -190111.26805092
  -exchange      EXHF   =         0.00000000
  -V(xc)+E(xc)   XCENC  =       329.38474564
  PAW double counting   =     45802.14248936   -46341.71960778
  entropy T*S    EENTRO =        -4.77329446
  eigenvalues    EBANDS =     -1730.20180330
  atomic energy  EATOM  =     40197.80149763
  Solvation  Ediel_sol  =         0.00000000
  ---------------------------------------------------
  free energy    TOTEN  =      -514.19248082 eV

  energy without entropy =     -509.41918635  energy(sigma->0) =     -511.80583358


--------------------------------------------------------------------------------------------------------




--------------------------------------- Iteration      1(  21)  ---------------------------------------


    POTLOK:  cpu time    0.1908: real time    0.1914
    SETDIJ:  cpu time    0.0102: real time    0.0102
    EDDIAG:  cpu time    0.2754: real time    0.2754
  RMM-DIIS:  cpu time    1.5269: real time    1.5276
    ORTHCH:  cpu time    0.0584: real time    0.0584
       DOS:  cpu time    0.0017: real time    0.0017
    CHARGE:  cpu time    0.0994: real time    0.0994
    MIXING:  cpu time    0.0054: real time    0.0054
    --------------------------------------------
      LOOP:  cpu time    2.1682: real time    2.1694

 eigenvalue-minimisations  :   763
 total energy-change (2. order) : 0.1011723E+01  (-0.5141316E+00)
 number of electron     542.0000182 magnetization 
 augmentation part      268.6939248 magnetization 

 Broyden mixing:
  rms(total) = 0.44157E+01    rms(broyden)= 0.44156E+01
  rms(prec ) = 0.59684E+01
  weight for this iteration     100.00

 eigenvalues of (default mixing * dielectric matrix)
  average eigenvalue GAMMA=   0.3346
  2.1927  0.6788  0.6788  0.6856  0.2017  0.2017  0.1167  0.1167  0.0823  0.0823
  0.0738  0.0602  0.0509  0.0476  0.0419  0.0419

 Free energy of the ion-electron system (eV)
  ---------------------------------------------------
  alpha Z        PSCENC =      1561.33072183
  Ewald energy   TEWEN  =    149783.11082118
  -Hartree energ DENC   =   -190103.99969443
  -exchange      EXHF   =         0.00000000
  -V(xc)+E(xc)   XCENC  =       329.28018455
  PAW double counting   =     45750.93423630   -46289.51582555
  entropy T*S    EENTRO =        -4.78678743
  eigenvalues    EBANDS =     -1737.33591206
  atomic energy  EATOM  =     40197.80149763
  Solvation  Ediel_sol  =         0.00000000
  ---------------------------------------------------
  free energy    TOTEN  =      -513.18075797 eV

  energy without entropy =     -508.39397055  energy(sigma->0) =     -510.78736426


--------------------------------------------------------------------------------------------------------




--------------------------------------- Iteration      1(  22)  ---------------------------------------


    POTLOK:  cpu time    0.1816: real time    0.1942
    SETDIJ:  cpu time    0.0102: real time    0.0102
    EDDIAG:  cpu time    0.2737: real time    0.2737
  RMM-DIIS:  cpu time    1.4155: real time    1.4159
    ORTHCH:  cpu time    0.0584: real time    0.0584
       DOS:  cpu time    0.0016: real time    0.0016
[...]
      1.405944  1.522303  1.999996            0           0           0  
      1.422042  1.512703  6.004417            0           0           0  
      2.233403  0.352100  4.026849            0           0           0  
      2.234740  0.315639  7.917281            0           0           0  
      3.888319  1.522303  1.999996            0           0           0  
      3.911536  1.531930  6.004614            0           0           0  
      4.715778  0.352100  4.026849            0           0           0  
      4.763727  0.422092  8.008394            0           0           0  
      6.370694  1.522303  1.999996            0           0           0  
      6.389115  1.510262  6.029549            0           0           0  
      7.198153  0.352100  4.026849            0           0           0  
      7.199418  0.251102  7.960729            0           0           0  
      8.853069  1.522303  1.999996            0           0           0  
      8.868021  1.507391  5.997462            0           0           0  
      9.680528  0.352100  4.026849            0           0           0  
      9.728496  0.307013  7.980167            0           0           0  
      2.233403  3.862708  1.999996            0           0           0  
      2.224302  3.855727  6.013764            0           0           0  
      3.060861  2.692506  4.026849            0           0           0  
      3.058588  2.696176  8.005921            0           0           0  
      4.715778  3.862708  1.999996            0           0           0  
      4.701846  3.889873  6.011093            0           0           0  
      5.543236  2.692506  4.026849            0           0           0  
      5.565655  2.797693  8.019530            0           0           0  
      7.198153  3.862708  1.999996            0           0           0  
      7.182797  3.856153  6.039614            0           0           0  
      8.025611  2.692506  4.026849            0           0           0  
      8.081547  2.654470  8.028764            0           0           0  
      9.680528  3.862708  1.999996            0           0           0  
      9.668180  3.850923  6.012451            0           0           0  
     10.507986  2.692506  4.026849            0           0           0  
     10.549649  2.661374  7.923592            0           0           0  
      3.060861  6.203114  1.999996            0           0           0  
      3.056848  6.186584  5.983932            0           0           0  
      3.888319  5.032911  4.026849            0           0           0  
      3.751163  5.027700  7.945009            0           0           0  
      5.543236  6.203114  1.999996            0           0           0  
      5.534753  6.198477  5.949612            0           0           0  
      6.370694  5.032911  4.026849            0           0           0  
      6.310496  5.255572  8.100364            0           0           0  
      8.025611  6.203114  1.999996            0           0           0  
      8.013114  6.167448  6.010773            0           0           0  
      8.853069  5.032911  4.026849            0           0           0  
      8.762883  4.987287  7.981289            0           0           0  
     10.507986  6.203114  1.999996            0           0           0  
     10.496644  6.193580  5.992467            0           0           0  
     11.335444  5.032911  4.026849            0           0           0  
     11.298975  4.989044  7.998007            0           0           0  
      3.888319  8.543520  1.999996            0           0           0  
      3.901663  8.529800  6.009880            0           0           0  
      4.715778  7.373317  4.026849            0           0           0  
      4.841369  7.365451  8.015633            0           0           0  
      6.370694  8.543520  1.999996            0           0           0  
      6.351832  8.561819  5.963518            0           0           0  
      7.198153  7.373317  4.026849            0           0           0  
      7.202011  7.478227  7.861409            0           0           0  
      8.853069  8.543520  1.999996            0           0           0  
      8.843289  8.533340  6.038244            0           0           0  
      9.680528  7.373317  4.026849            0           0           0  
      9.701146  7.343292  7.997601            0           0           0  
     11.335444  8.543520  1.999996            0           0           0  
     11.330673  8.533473  5.987554            0           0           0  
     12.162903  7.373317  4.026849            0           0           0  
     12.185271  7.370430  7.858602            0           0           0  
      4.325496  1.870985  9.095914            0           0           0  
      8.445713  1.095582  9.061699            0           0           0  
     10.028741  5.843007  9.081193            0           0           0  
      4.836690  5.896984  9.131485            0           0           0  
      6.881594  3.692399  9.009944     0.301609   -0.723006   -0.621526  
 
   2 f  =   12.749849 THz    80.109665 2PiTHz  425.289179 cm-1    52.729157 meV
             X         Y         Z           dx          dy          dz
      1.405944  1.522303  1.999996            0           0           0  
      1.422042  1.512703  6.004417            0           0           0  
      2.233403  0.352100  4.026849            0           0           0  
      2.234740  0.315639  7.917281            0           0           0  
      3.888319  1.522303  1.999996            0           0           0  
      3.911536  1.531930  6.004614            0           0           0  
      4.715778  0.352100  4.026849            0           0           0  
      4.763727  0.422092  8.008394            0           0           0  
      6.370694  1.522303  1.999996            0           0           0  
      6.389115  1.510262  6.029549            0           0           0  
      7.198153  0.352100  4.026849            0           0           0  
      7.199418  0.251102  7.960729            0           0           0  
      8.853069  1.522303  1.999996            0           0           0  
      8.868021  1.507391  5.997462            0           0           0  
      9.680528  0.352100  4.026849            0           0           0  
      9.728496  0.307013  7.980167            0           0           0  
      2.233403  3.862708  1.999996            0           0           0  
      2.224302  3.855727  6.013764            0           0           0  
      3.060861  2.692506  4.026849            0           0           0  
      3.058588  2.696176  8.005921            0           0           0  
      4.715778  3.862708  1.999996            0           0           0  
      4.701846  3.889873  6.011093            0           0           0  
      5.543236  2.692506  4.026849            0           0           0  
      5.565655  2.797693  8.019530            0           0           0  
      7.198153  3.862708  1.999996            0           0           0  
      7.182797  3.856153  6.039614            0           0           0  
      8.025611  2.692506  4.026849            0           0           0  
      8.081547  2.654470  8.028764            0           0           0  
      9.680528  3.862708  1.999996            0           0           0  
      9.668180  3.850923  6.012451            0           0           0  
     10.507986  2.692506  4.026849            0           0           0  
     10.549649  2.661374  7.923592            0           0           0  
      3.060861  6.203114  1.999996            0           0           0  
      3.056848  6.186584  5.983932            0           0           0  
      3.888319  5.032911  4.026849            0           0           0  
      3.751163  5.027700  7.945009            0           0           0  
      5.543236  6.203114  1.999996            0           0           0  
      5.534753  6.198477  5.949612            0           0           0  
      6.370694  5.032911  4.026849            0           0           0  
      6.310496  5.255572  8.100364            0           0           0  
      8.025611  6.203114  1.999996            0           0           0  
      8.013114  6.167448  6.010773            0           0           0  
      8.853069  5.032911  4.026849            0           0           0  
      8.762883  4.987287  7.981289            0           0           0  
     10.507986  6.203114  1.999996            0           0           0  
     10.496644  6.193580  5.992467            0           0           0  
     11.335444  5.032911  4.026849            0           0           0  
     11.298975  4.989044  7.998007            0           0           0  
      3.888319  8.543520  1.999996            0           0           0  
      3.901663  8.529800  6.009880            0           0           0  
      4.715778  7.373317  4.026849            0           0           0  
      4.841369  7.365451  8.015633            0           0           0  
      6.370694  8.543520  1.999996            0           0           0  
      6.351832  8.561819  5.963518            0           0           0  
      7.198153  7.373317  4.026849            0           0           0  
      7.202011  7.478227  7.861409            0           0           0  
      8.853069  8.543520  1.999996            0           0           0  
      8.843289  8.533340  6.038244            0           0           0  
      9.680528  7.373317  4.026849            0           0           0  
      9.701146  7.343292  7.997601            0           0           0  
     11.335444  8.543520  1.999996            0           0           0  
     11.330673  8.533473  5.987554            0           0           0  
     12.162903  7.373317  4.026849            0           0           0  
     12.185271  7.370430  7.858602            0           0           0  
      4.325496  1.870985  9.095914            0           0           0  
      8.445713  1.095582  9.061699            0           0           0  
     10.028741  5.843007  9.081193            0           0           0  
      4.836690  5.896984  9.131485            0           0           0  
      6.881594  3.692399  9.009944    -0.641870    0.328053   -0.693098  
 
   3 f  =    8.902110 THz    55.933605 2PiTHz  296.942411 cm-1    36.816180 meV
             X         Y         Z           dx          dy          dz
      1.405944  1.522303  1.999996            0           0           0  
      1.422042  1.512703  6.004417            0           0           0  
      2.233403  0.352100  4.026849            0           0           0  
      2.234740  0.315639  7.917281            0           0           0  
      3.888319  1.522303  1.999996            0           0           0  
      3.911536  1.531930  6.004614            0           0           0  
      4.715778  0.352100  4.026849            0           0           0  
      4.763727  0.422092  8.008394            0           0           0  
      6.370694  1.522303  1.999996            0           0           0  
      6.389115  1.510262  6.029549            0           0           0  
      7.198153  0.352100  4.026849            0           0           0  
      7.199418  0.251102  7.960729            0           0           0  
      8.853069  1.522303  1.999996            0           0           0  
      8.868021  1.507391  5.997462            0           0           0  
      9.680528  0.352100  4.026849            0           0           0  
      9.728496  0.307013  7.980167            0           0           0  
      2.233403  3.862708  1.999996            0           0           0  
      2.224302  3.855727  6.013764            0           0           0  
      3.060861  2.692506  4.026849            0           0           0  
      3.058588  2.696176  8.005921            0           0           0  
      4.715778  3.862708  1.999996            0           0           0  
      4.701846  3.889873  6.011093            0           0           0  
      5.543236  2.692506  4.026849            0           0           0  
      5.565655  2.797693  8.019530            0           0           0  
      7.198153  3.862708  1.999996            0           0           0  
      7.182797  3.856153  6.039614            0           0           0  
      8.025611  2.692506  4.026849            0           0           0  
      8.081547  2.654470  8.028764            0           0           0  
      9.680528  3.862708  1.999996            0           0           0  
      9.668180  3.850923  6.012451            0           0           0  
     10.507986  2.692506  4.026849            0           0           0  
     10.549649  2.661374  7.923592            0           0           0  
      3.060861  6.203114  1.999996            0           0           0  
      3.056848  6.186584  5.983932            0           0           0  
      3.888319  5.032911  4.026849            0           0           0  
      3.751163  5.027700  7.945009            0           0           0  
      5.543236  6.203114  1.999996            0           0           0  
      5.534753  6.198477  5.949612            0           0           0  
      6.370694  5.032911  4.026849            0           0           0  
      6.310496  5.255572  8.100364            0           0           0  
      8.025611  6.203114  1.999996            0           0           0  
      8.013114  6.167448  6.010773            0           0           0  
      8.853069  5.032911  4.026849            0           0           0  
      8.762883  4.987287  7.981289            0           0           0  
     10.507986  6.203114  1.999996            0           0           0  
     10.496644  6.193580  5.992467            0           0           0  
     11.335444  5.032911  4.026849            0           0           0  
     11.298975  4.989044  7.998007            0           0           0  
      3.888319  8.543520  1.999996            0           0           0  
      3.901663  8.529800  6.009880            0           0           0  
      4.715778  7.373317  4.026849            0           0           0  
      4.841369  7.365451  8.015633            0           0           0  
      6.370694  8.543520  1.999996            0           0           0  
      6.351832  8.561819  5.963518            0           0           0  
      7.198153  7.373317  4.026849            0           0           0  
      7.202011  7.478227  7.861409            0           0           0  
      8.853069  8.543520  1.999996            0           0           0  
      8.843289  8.533340  6.038244            0           0           0  
      9.680528  7.373317  4.026849            0           0           0  
      9.701146  7.343292  7.997601            0           0           0  
     11.335444  8.543520  1.999996            0           0           0  
     11.330673  8.533473  5.987554            0           0           0  
     12.162903  7.373317  4.026849            0           0           0  
     12.185271  7.370430  7.858602            0           0           0  
      4.325496  1.870985  9.095914            0           0           0  
      8.445713  1.095582  9.061699            0           0           0  
     10.028741  5.843007  9.081193            0           0           0  
      4.836690  5.896984  9.131485            0           0           0  
      6.881594  3.692399  9.009944    -0.705007   -0.607984    0.365132  
 
 Finite differences POTIM=  1.500000000000000E-002
     LOOP+:  cpu time   65.5884: real time   65.9645
    4ORBIT:  cpu time    0.0000: real time    0.0000
 


 total charge     
 
# of ion       s       p       d       tot
------------------------------------------
    1        0.454   0.355   6.232   7.042
    2        0.478   0.518   6.269   7.264
    3        0.471   0.498   6.260   7.229
    4        0.464   0.389   6.263   7.116
    5        0.454   0.354   6.235   7.043
    6        0.468   0.499   6.264   7.232
    7        0.465   0.493   6.248   7.206
    8        0.457   0.478   6.285   7.220
    9        0.455   0.355   6.233   7.043
   10        0.466   0.500   6.246   7.212
   11        0.467   0.493   6.253   7.214
   12        0.464   0.482   6.297   7.243
   13        0.455   0.353   6.235   7.044
   14        0.472   0.498   6.269   7.240
   15        0.466   0.495   6.252   7.213
   16        0.465   0.491   6.287   7.243
   17        0.455   0.356   6.232   7.042
   18        0.477   0.512   6.271   7.260
   19        0.466   0.493   6.250   7.209
   20        0.460   0.485   6.287   7.233
   21        0.454   0.355   6.233   7.042
   22        0.473   0.509   6.253   7.235
   23        0.464   0.490   6.248   7.201
   24        0.439   0.533   6.333   7.305
   25        0.455   0.355   6.233   7.043
   26        0.464   0.484   6.262   7.210
   27        0.464   0.492   6.247   7.203
   28        0.450   0.555   6.332   7.337
   29        0.454   0.355   6.233   7.042
   30        0.471   0.509   6.257   7.238
   31        0.466   0.493   6.252   7.212
   32        0.463   0.383   6.271   7.116
   33        0.455   0.355   6.232   7.042
   34        0.483   0.523   6.272   7.279
   35        0.469   0.498   6.258   7.226
   36        0.477   0.505   6.310   7.292
   37        0.455   0.354   6.235   7.044
   38        0.477   0.512   6.267   7.255
   39        0.468   0.497   6.253   7.218
   40        0.439   0.536   6.321   7.297
   41        0.454   0.355   6.233   7.042
   42        0.475   0.510   6.261   7.246
   43        0.467   0.493   6.252   7.212
   44        0.436   0.463   6.305   7.204
   45        0.455   0.354   6.234   7.043
   46        0.469   0.501   6.266   7.236
   47        0.467   0.495   6.252   7.213
   48        0.461   0.483   6.280   7.225
   49        0.455   0.355   6.232   7.042
   50        0.474   0.508   6.269   7.252
   51        0.470   0.500   6.258   7.228
   52        0.465   0.498   6.295   7.257
   53        0.454   0.356   6.232   7.042
   54        0.486   0.529   6.279   7.294
   55        0.467   0.494   6.255   7.217
   56        0.485   0.415   6.272   7.173
   57        0.455   0.355   6.233   7.043
   58        0.472   0.503   6.265   7.239
   59        0.465   0.493   6.249   7.208
   60        0.457   0.475   6.277   7.210
   61        0.455   0.355   6.232   7.042
   62        0.480   0.522   6.269   7.271
   63        0.468   0.496   6.258   7.222
   64        0.458   0.371   6.283   7.112
   65        1.583   3.338   0.000   4.921
   66        1.583   3.339   0.000   4.922
   67        1.582   3.339   0.000   4.921
   68        1.584   3.345   0.000   4.930
   69        1.581   3.344   0.000   4.925
--------------------------------------------------
tot         37.586  45.978 400.711 484.275
 

 total amount of memory used by VASP MPI-rank0    52857. kBytes
=======================================================================

   base      :      30000. kBytes
   nonlr-proj:       4210. kBytes
   fftplans  :       5964. kBytes
   grid      :      10693. kBytes
   one-center:         23. kBytes
   wavefun   :       1967. kBytes
 
  
  
 General timing and accounting informations for this job:
 ========================================================
  
                  Total CPU time used (sec):      562.173
                            User time (sec):      547.327
                          System time (sec):       14.846
                         Elapsed time (sec):      565.935
  
                   Maximum memory used (kb):      291356.
                   Average memory used (kb):           0.
  
                          Minor page faults:      4416336
                          Major page faults:            5
                 Voluntary context switches:         1772
