       N       E                     dE             d eps       ncg     rms          rms(c)
DAV:   1     0.432547885767E+04    0.43255E+04   -0.22785E+05  8160   0.139E+03
DAV:   2    -0.704719102351E+02   -0.43960E+04   -0.40847E+04  8160   0.326E+02
DAV:   3    -0.441882334774E+03   -0.37141E+03   -0.31575E+03  8523   0.134E+02
DAV:   4    -0.456919739965E+03   -0.15037E+02   -0.14660E+02  8679   0.292E+01
DAV:   5    -0.457177983024E+03   -0.25824E+00   -0.25794E+00  9174   0.330E+00    0.616E-01
RMM:   6    -0.457294235492E+03   -0.11625E+00   -0.15401E-01  8411   0.954E-01    0.207E+00
RMM:   7    -0.457279440315E+03    0.14795E-01   -0.34428E-02  9296   0.396E-01    0.977E-01
RMM:   8    -0.457285206330E+03   -0.57660E-02   -0.95904E-03 10366   0.167E-01    0.128E+00
RMM:   9    -0.457275006495E+03    0.10200E-01   -0.39631E-03  8539   0.135E-01    0.528E-01
RMM:  10    -0.457273472552E+03    0.15339E-02   -0.21390E-03  8506   0.108E-01    0.380E-01
RMM:  11    -0.457271515994E+03    0.19566E-02   -0.95874E-04  8464   0.746E-02    0.379E-01
RMM:  12    -0.457270182423E+03    0.13336E-02   -0.81103E-04  8502   0.714E-02    0.266E-01
RMM:  13    -0.457268692478E+03    0.14899E-02   -0.73261E-04  8400   0.647E-02    0.373E-01
RMM:  14    -0.457267226078E+03    0.14664E-02   -0.60905E-04  8423   0.644E-02    0.159E-01
RMM:  15    -0.457268256093E+03   -0.10300E-02   -0.33419E-04  8397   0.435E-02    0.246E-01
RMM:  16    -0.457268799013E+03   -0.54292E-03   -0.20799E-04  8410   0.381E-02    0.106E-01
RMM:  17    -0.457270855019E+03   -0.20560E-02   -0.17585E-04  8385   0.311E-02    0.169E-01
RMM:  18    -0.457273857529E+03   -0.30025E-02   -0.14282E-04  8385   0.286E-02    0.845E-02
RMM:  19    -0.457275708883E+03   -0.18514E-02   -0.14632E-04  8464   0.277E-02    0.140E-01
RMM:  20    -0.457278852537E+03   -0.31437E-02   -0.18272E-04  8363   0.269E-02    0.694E-02
RMM:  21    -0.457279242936E+03   -0.39040E-03   -0.41178E-05  8481   0.140E-02    0.412E-02
RMM:  22    -0.457279769051E+03   -0.52612E-03   -0.31674E-05  8308   0.940E-03    0.384E-02
RMM:  23    -0.457279807731E+03   -0.38679E-04   -0.98194E-06  8310   0.669E-03    0.140E-02
RMM:  24    -0.457279723481E+03    0.84250E-04   -0.54065E-06  6850   0.393E-03    0.179E-02
RMM:  25    -0.457279669504E+03    0.53976E-04   -0.20404E-06  5964   0.373E-03    0.693E-03
RMM:  26    -0.457279641857E+03    0.27647E-04   -0.11806E-06  5541   0.237E-03    0.112E-02
RMM:  27    -0.457279627473E+03    0.14384E-04   -0.83284E-07  5114   0.248E-03    0.414E-03
RMM:  28    -0.457279651592E+03   -0.24119E-04   -0.50743E-07  5109   0.141E-03    0.588E-03
RMM:  29    -0.457279674723E+03   -0.23131E-04   -0.36112E-07  4979   0.144E-03    0.267E-03
RMM:  30    -0.457279713697E+03   -0.38974E-04   -0.26740E-07  5083   0.818E-04    0.296E-03
RMM:  31    -0.457279739000E+03   -0.25303E-04   -0.14704E-07  4809   0.789E-04    0.148E-03
RMM:  32    -0.457279793993E+03   -0.54992E-04   -0.35233E-07  5158   0.627E-04    0.230E-03
RMM:  33    -0.457279821863E+03   -0.27870E-04   -0.15465E-07  4646   0.618E-04    0.115E-03
RMM:  34    -0.457279879402E+03   -0.57539E-04   -0.54585E-07  5008   0.599E-04    0.139E-03
RMM:  35    -0.457279900729E+03   -0.21327E-04   -0.17146E-07  4303   0.529E-04    0.893E-04
RMM:  36    -0.457279934266E+03   -0.33536E-04   -0.46420E-07  4473   0.551E-04    0.957E-04
RMM:  37    -0.457279941653E+03   -0.73874E-05   -0.89383E-08  3679   0.439E-04    0.502E-04
RMM:  38    -0.457279951311E+03   -0.96575E-05   -0.13049E-07  3137   0.389E-04    0.536E-04
RMM:  39    -0.457279953862E+03   -0.25517E-05   -0.33570E-08  2831   0.338E-04    0.388E-04
RMM:  40    -0.457279957283E+03   -0.34208E-05   -0.51215E-08  2732   0.329E-04    0.232E-04
RMM:  41    -0.457279958166E+03   -0.88340E-06   -0.21101E-08  2553   0.313E-04
   1 F= -.45727996E+03 E0= -.45727996E+03  d E =0.000000E+00  mag=   138.7745
