 vasp.5.4.4.18Apr17-6-g9f103f2a35 (build Sep 06 2021 19:49:22) complex          
  
 executed on             LinuxIFC date 2022.01.05  12:01:44
 running on   72 total cores
 distrk:  each k-point on   72 cores,    1 groups
 distr:  one band on NCORES_PER_BAND=  24 cores,    3 groups


--------------------------------------------------------------------------------------------------------


 INCAR:
 POTCAR:    PAW_PBE Fe 06Sep2000                  
 POTCAR:    PAW_PBE Ni 02Aug2007                  

 ----------------------------------------------------------------------------- 
|                                                                             |
|           W    W    AA    RRRRR   N    N  II  N    N   GGGG   !!!           |
|           W    W   A  A   R    R  NN   N  II  NN   N  G    G  !!!           |
|           W    W  A    A  R    R  N N  N  II  N N  N  G       !!!           |
|           W WW W  AAAAAA  RRRRR   N  N N  II  N  N N  G  GGG   !            |
|           WW  WW  A    A  R   R   N   NN  II  N   NN  G    G                |
|           W    W  A    A  R    R  N    N  II  N    N   GGGG   !!!           |
|                                                                             |
|      For optimal performance we recommend to set                            |
|        NCORE= 4 - approx SQRT( number of cores)                             |
|      NCORE specifies how many cores store one orbital (NPAR=cpu/NCORE).     |
|      This setting can  greatly improve the performance of VASP for DFT.     |
|      The default,   NCORE=1            might be grossly inefficient         |
|      on modern multi-core architectures or massively parallel machines.     |
|      Do your own testing !!!!                                               |
|      Unfortunately you need to use the default for GW and RPA calculations. |
|      (for HF NCORE is supported but not extensively tested yet)             |
|                                                                             |
 ----------------------------------------------------------------------------- 

 POTCAR:    PAW_PBE Fe 06Sep2000                  
   VRHFIN =Fe:  d7 s1                                                           
   LEXCH  = PE                                                                  
   EATOM  =   594.3153 eV,   43.6809 Ry                                         
                                                                                
   TITEL  = PAW_PBE Fe 06Sep2000                                                
   LULTRA =        F    use ultrasoft PP ?                                      
   IUNSCR =        1    unscreen: 0-lin 1-nonlin 2-no                           
   RPACOR =    2.000    partial core radius                                     
   POMASS =   55.847; ZVAL   =    8.000    mass and valenz                      
   RCORE  =    2.300    outmost cutoff radius                                   
   RWIGS  =    2.460; RWIGS  =    1.302    wigner-seitz radius (au A)           
   ENMAX  =  267.882; ENMIN  =  200.911 eV                                      
   RCLOC  =    1.701    cutoff for local pot                                    
   LCOR   =        T    correct aug charges                                     
   LPAW   =        T    paw PP                                                  
   EAUG   =  511.368                                                            
   DEXC   =    0.000                                                            
   RMAX   =    2.356    core radius for proj-oper                               
   RAUG   =    1.300    factor for augmentation sphere                          
   RDEP   =    2.442    radius for radial grids                                 
   RDEPT  =    1.890    core radius for aug-charge                              
                                                                                
   Atomic configuration                                                         
    9 entries                                                                   
     n  l   j            E        occ.                                          
     1  0  0.50     -6993.8440   2.0000                                         
     2  0  0.50      -814.6047   2.0000                                         
     2  1  1.50      -693.3689   6.0000                                         
     3  0  0.50       -89.4732   2.0000                                         
     3  1  1.50       -55.6373   6.0000                                         
     3  2  2.50        -3.8151   7.0000                                         
     4  0  0.50        -4.2551   1.0000                                         
     4  1  1.50        -3.4015   0.0000                                         
     4  3  2.50        -1.3606   0.0000                                         
   Description                                                                  
     l       E           TYP  RCUT    TYP  RCUT                                 
     2     -3.8151135     23  2.300                                             
     2     -5.1756961     23  2.300                                             
     0     -4.2550963     23  2.300                                             
     0      7.2035603     23  2.300                                             
     1     -2.7211652     23  2.300                                             
     1     18.4316424     23  2.300                                             
  local pseudopotential read in
  partial core-charges read in
  partial kinetic energy density read in
  atomic valenz-charges read in
  non local Contribution for L=           2  read in
    real space projection operators read in
  non local Contribution for L=           2  read in
    real space projection operators read in
  non local Contribution for L=           0  read in
    real space projection operators read in
  non local Contribution for L=           0  read in
    real space projection operators read in
  non local Contribution for L=           1  read in
    real space projection operators read in
  non local Contribution for L=           1  read in
    real space projection operators read in
    PAW grid and wavefunctions read in
 
   number of l-projection  operators is LMAX  =           6
   number of lm-projection operators is LMMAX =          18
 
 POTCAR:    PAW_PBE Ni 02Aug2007                  
   VRHFIN =Ni:                                                                  
   LEXCH  = PE                                                                  
   EATOM  =  1077.6739 eV,   79.2068 Ry                                         
                                                                                
   TITEL  = PAW_PBE Ni 02Aug2007                                                
   LULTRA =        F    use ultrasoft PP ?                                      
   IUNSCR =        1    unscreen: 0-lin 1-nonlin 2-no                           
   RPACOR =    2.000    partial core radius                                     
   POMASS =   58.690; ZVAL   =   10.000    mass and valenz                      
   RCORE  =    2.300    outmost cutoff radius                                   
   RWIGS  =    2.430; RWIGS  =    1.286    wigner-seitz radius (au A)           
   ENMAX  =  269.532; ENMIN  =  202.149 eV                                      
   RCLOC  =    1.201    cutoff for local pot                                    
   LCOR   =        T    correct aug charges                                     
   LPAW   =        T    paw PP                                                  
   EAUG   =  544.565                                                            
   DEXC   =    0.000                                                            
   RMAX   =    2.357    core radius for proj-oper                               
   RAUG   =    1.300    factor for augmentation sphere                          
   RDEP   =    2.390    radius for radial grids                                 
   RDEPT  =    1.838    core radius for aug-charge                              
                                                                                
   Atomic configuration                                                         
    9 entries                                                                   
     n  l   j            E        occ.                                          
     1  0  0.50     -8206.4253   2.0000                                         
     2  0  0.50      -976.1748   2.0000                                         
     2  1  1.50      -839.0571   6.0000                                         
     3  0  0.50      -105.9991   2.0000                                         
     3  1  1.50       -66.4603   6.0000                                         
     3  2  2.50        -4.6458   9.0000                                         
     4  0  0.50        -4.4926   1.0000                                         
     4  1  1.50        -4.0817   0.0000                                         
     4  3  2.50        -1.3606   0.0000                                         
   Description                                                                  
     l       E           TYP  RCUT    TYP  RCUT                                 
     2     -4.6457903     23  2.300                                             
     2     -6.0063729     23  2.300                                             
     0     -4.4925590     23  2.300                                             
     0      5.0102601     23  2.300                                             
     1     -2.7211652     23  2.300                                             
     1     16.5183231     23  2.300                                             
  local pseudopotential read in
  partial core-charges read in
  partial kinetic energy density read in
  atomic valenz-charges read in
  non local Contribution for L=           2  read in
    real space projection operators read in
  non local Contribution for L=           2  read in
    real space projection operators read in
  non local Contribution for L=           0  read in
    real space projection operators read in
  non local Contribution for L=           0  read in
    real space projection operators read in
  non local Contribution for L=           1  read in
    real space projection operators read in
  non local Contribution for L=           1  read in
    real space projection operators read in
    PAW grid and wavefunctions read in
 
   number of l-projection  operators is LMAX  =           6
   number of lm-projection operators is LMMAX =          18
 
 Optimization of the real space projectors (new method)

 maximal supplied QI-value         = 16.25
 optimisation between [QCUT,QGAM] = [ 11.54, 23.24] = [ 37.28,151.24] Ry 
 Optimized for a Real-space Cutoff    1.53 Angstroem

   l    n(q)    QCUT    max X(q) W(low)/X(q) W(high)/X(q)  e(spline) 
   2     10    11.539    80.901    0.11E-03    0.14E-03    0.21E-06
   2     10    11.539    75.754    0.11E-03    0.14E-03    0.22E-06
   0     11    11.539    58.752    0.52E-04    0.18E-04    0.33E-06
   0     11    11.539    30.679    0.44E-04    0.16E-04    0.30E-06
   1     10    11.539    17.977    0.53E-04    0.29E-04    0.13E-06
   1     10    11.539    13.559    0.44E-04    0.25E-04    0.11E-06
 Optimization of the real space projectors (new method)

 maximal supplied QI-value         = 16.25
 optimisation between [QCUT,QGAM] = [ 11.54, 23.24] = [ 37.28,151.24] Ry 
 Optimized for a Real-space Cutoff    1.45 Angstroem

   l    n(q)    QCUT    max X(q) W(low)/X(q) W(high)/X(q)  e(spline) 
   2      9    11.539    60.317    0.19E-03    0.47E-04    0.16E-06
   2      9    11.539    55.921    0.19E-03    0.48E-04    0.16E-06
   0     10    11.539    51.690    0.80E-04    0.50E-04    0.24E-06
   0     10    11.539    30.015    0.73E-04    0.45E-04    0.22E-06
   1     10    11.539    18.849    0.87E-04    0.16E-03    0.71E-07
   1     10    11.539    14.624    0.73E-04    0.13E-03    0.64E-07
  PAW_PBE Fe 06Sep2000                  :
 energy of atom  1       EATOM= -594.3153
 kinetic energy error for atom=    0.0026 (will be added to EATOM!!)
  PAW_PBE Ni 02Aug2007                  :
 energy of atom  2       EATOM=-1077.6739
 kinetic energy error for atom=    0.0030 (will be added to EATOM!!)
 
 
 POSCAR: POSCAR                                  
  positions in direct lattice
  velocities in cartesian coordinates
 exchange correlation table for  LEXCH =        8
   RHO(1)=    0.500       N(1)  =     2000
   RHO(2)=  100.500       N(2)  =     4000
 


--------------------------------------------------------------------------------------------------------


 ion  position               nearest neighbor table
   1  0.003  0.998  0.289-   4 2.50  49 2.50  54 2.52   3 2.53   9 2.53  50 2.53   6 2.53  51 2.54
                            64 2.55  28 2.56  36 2.56  44 2.57
   2  0.502  0.001  0.291-  52 2.49  50 2.50  53 2.50  62 2.52  15 2.52  46 2.53  61 2.53  32 2.54
                            11 2.55   3 2.56  29 2.56  12 2.57
   3  0.753  0.996  0.293-  61 2.47  64 2.49  14 2.49  51 2.51  48 2.51   1 2.53  54 2.53  32 2.55
                            53 2.55   2 2.56  36 2.56  15 2.59
   4  0.251  0.245  0.288-   1 2.50  57 2.50  50 2.51   9 2.51   8 2.52  18 2.52  52 2.52   6 2.52
                            24 2.53  17 2.55  51 2.56  20 2.64
   5  0.089  0.161  0.095-   7 2.41  43 2.47   9 2.49  63 2.54  19 2.55  57 2.59  54 2.60  55 2.62
                            13 2.68
   6  0.086  0.167  0.386-  64 2.50  56 2.51   4 2.52  14 2.53  51 2.53   8 2.53   1 2.53  20 2.54
                            44 2.59
   7  0.330  0.166  0.099-   5 2.41   9 2.42  24 2.43  12 2.47  19 2.48  45 2.48  43 2.49  10 2.57
                            22 2.59
   8  0.335  0.165  0.385-  52 2.49   4 2.52  50 2.52  44 2.53   6 2.53  46 2.54  11 2.56  23 2.57
                            20 2.57
   9  0.168  0.081  0.192-   7 2.42  43 2.46   5 2.49  47 2.50   4 2.51  24 2.52   1 2.53  12 2.54
                            50 2.54  49 2.54  57 2.55  54 2.55
  10  0.583  0.166  0.099-  12 2.43  13 2.45  27 2.46  15 2.49  25 2.50  60 2.52  45 2.54   7 2.57
                            22 2.58
  11  0.594  0.177  0.386-  26 2.45  53 2.48  52 2.50  14 2.50  23 2.55  61 2.55   2 2.55   8 2.56
                            46 2.58
  12  0.422  0.087  0.192-  10 2.43  24 2.43   7 2.47  27 2.47  45 2.49  15 2.50  62 2.52  52 2.53
                             9 2.54  50 2.54   2 2.57  47 2.61
  13  0.827  0.167  0.098-  10 2.45  15 2.47  60 2.51  58 2.53  25 2.53  54 2.56  55 2.56  63 2.59
                             5 2.68
  14  0.837  0.169  0.385-  61 2.48   3 2.49  11 2.50  51 2.50  56 2.51  53 2.51   6 2.53  64 2.53
                            26 2.54
  15  0.667  0.083  0.194-  13 2.47  10 2.49  53 2.50  12 2.50  54 2.52   2 2.52  60 2.53  58 2.54
                            62 2.54  48 2.56  27 2.58   3 2.59
  16  0.993  0.490  0.294-  56 2.44  53 2.46  51 2.49  21 2.51  58 2.53  28 2.53  17 2.54  26 2.55
                            35 2.58  42 2.60  29 2.60  31 2.66
  17  0.248  0.495  0.290-  56 2.48  57 2.49  51 2.52  18 2.53  32 2.54  59 2.54  16 2.54  20 2.55
                            35 2.55   4 2.55  29 2.56  34 2.66
  18  0.498  0.496  0.291-   4 2.52  59 2.52  17 2.53  20 2.53  36 2.54  21 2.54  52 2.54  32 2.55
                            23 2.55  24 2.57  41 2.58  38 2.69
  19  0.339  0.416  0.094-  37 2.46  22 2.48   7 2.48  33 2.53   5 2.55  24 2.58  57 2.59  55 2.60
                            59 2.60
  20  0.336  0.420  0.389-  23 2.49  56 2.51  34 2.52  18 2.53   6 2.54  17 2.55  38 2.57   8 2.57
                             4 2.64
  21  0.746  0.489  0.295-  52 2.46  53 2.47  23 2.49  16 2.51  36 2.53  18 2.54  26 2.56  27 2.59
                            28 2.60  42 2.61  41 2.62  40 2.65
  22  0.586  0.422  0.099-  27 2.43  37 2.45  39 2.46  25 2.46  41 2.47  24 2.47  19 2.48  10 2.58
                             7 2.59
  23  0.585  0.424  0.391-  21 2.49  20 2.49  40 2.52  38 2.54  18 2.55  11 2.55   8 2.57  26 2.57
                            52 2.64
  24  0.420  0.327  0.192-  27 2.41  12 2.43   7 2.43  22 2.47   9 2.52  52 2.52   4 2.53  57 2.56
                            18 2.57  19 2.58  41 2.58  59 2.61
  25  0.827  0.417  0.096-  39 2.45  22 2.46  27 2.47  10 2.50  13 2.53  58 2.54  42 2.58  55 2.59
                            30 2.60
  26  0.836  0.418  0.395-  11 2.45  40 2.49  14 2.54  31 2.54  56 2.55  16 2.55  21 2.56  23 2.57
                            53 2.70
  27  0.662  0.335  0.191-  24 2.41  22 2.43  10 2.46  12 2.47  25 2.47  41 2.48  52 2.55  58 2.56
                            42 2.57  15 2.58  21 2.59  53 2.60
  28  0.003  0.745  0.294-  44 2.46  29 2.47  36 2.52  42 2.53  16 2.53  50 2.55   1 2.56  49 2.57
                            40 2.59  31 2.60  21 2.60  47 2.60
  29  0.249  0.748  0.293-  28 2.47  50 2.50  35 2.51  32 2.52  46 2.53  17 2.56   2 2.56  62 2.56
                            34 2.56  31 2.58  16 2.60  47 2.63
  30  0.086  0.671  0.097-  47 2.46  45 2.48  43 2.48  33 2.52  39 2.52  35 2.53  55 2.55  42 2.55
                            25 2.60
  31  0.090  0.666  0.395-  34 2.49  44 2.50  56 2.52  40 2.54  26 2.54  46 2.55  29 2.58  28 2.60
                            16 2.66
  32  0.497  0.747  0.292-  29 2.52  59 2.53  48 2.53  17 2.54   2 2.54  34 2.54  18 2.55   3 2.55
                            61 2.55  62 2.56  38 2.57  36 2.61
  33  0.330  0.661  0.095-  55 2.49  30 2.52  19 2.53  37 2.53  60 2.56  59 2.57  35 2.60  62 2.61
                            45 2.62
  34  0.339  0.671  0.392-  46 2.48  38 2.49  31 2.49  20 2.52  32 2.54  61 2.56  29 2.56  56 2.57
                            17 2.66
  35  0.164  0.589  0.196-  47 2.46  42 2.47  62 2.51  29 2.51  30 2.53  58 2.53  17 2.55  16 2.58
                            55 2.59  33 2.60  59 2.60  57 2.61
  36  0.753  0.743  0.296-  64 2.51  28 2.52  21 2.53  38 2.53  18 2.54   1 2.56  40 2.56   3 2.56
                            41 2.59  49 2.59  48 2.60  32 2.61
  37  0.580  0.661  0.096-  22 2.45  19 2.46  59 2.52  33 2.53  41 2.54  39 2.54  60 2.56  63 2.57
                            48 2.61
  38  0.587  0.676  0.393-  61 2.48  34 2.49  64 2.51  36 2.53  23 2.54  20 2.57  32 2.57  40 2.60
                            18 2.69
  39  0.832  0.662  0.097-  25 2.45  22 2.46  41 2.47  42 2.51  30 2.52  49 2.53  37 2.54  63 2.54
                            43 2.57
  40  0.839  0.666  0.396-  26 2.49  44 2.51  23 2.52  31 2.54  36 2.56  64 2.57  28 2.59  38 2.60
                            21 2.65
  41  0.672  0.585  0.193-  22 2.47  49 2.47  39 2.47  27 2.48  42 2.49  48 2.50  37 2.54  59 2.55
                            18 2.58  24 2.58  36 2.59  21 2.62
  42  0.919  0.587  0.195-  49 2.43  47 2.47  35 2.47  41 2.49  39 2.51  58 2.52  28 2.53  30 2.55
                            27 2.57  25 2.58  16 2.60  21 2.61
  43  0.086  0.916  0.098-  45 2.43  47 2.44   9 2.46   5 2.47  30 2.48   7 2.49  49 2.53  63 2.54
                            39 2.57
  44  0.089  0.912  0.387-  28 2.46  31 2.50  40 2.51   8 2.53  46 2.54  50 2.55  64 2.55   1 2.57
                             6 2.59
  45  0.327  0.919  0.097-  43 2.43  47 2.47  30 2.48   7 2.48  12 2.49  10 2.54  62 2.56  60 2.59
                            33 2.62
  46  0.342  0.918  0.389-  34 2.48  61 2.49   2 2.53  29 2.53   8 2.54  44 2.54  31 2.55  11 2.58
                            50 2.61
  47  0.163  0.832  0.192-  43 2.44  49 2.45  35 2.46  30 2.46  42 2.47  45 2.47   9 2.50  62 2.53
                            50 2.54  28 2.60  12 2.61  29 2.63
  48  0.669  0.831  0.197-  54 2.50  41 2.50  59 2.51   3 2.51  32 2.53  49 2.54  15 2.56  63 2.57
                            62 2.59  36 2.60  60 2.60  37 2.61
  49  0.919  0.827  0.195-  42 2.43  47 2.45  41 2.47   1 2.50  39 2.53  43 2.53   9 2.54  48 2.54
                            54 2.57  28 2.57  63 2.58  36 2.59
  50  0.254  0.998  0.289-   2 2.50  29 2.50  52 2.51   4 2.51   8 2.52   1 2.53  47 2.54  12 2.54
                             9 2.54  28 2.55  44 2.55  46 2.61
  51  0.999  0.246  0.289-  16 2.49  54 2.49  14 2.50   3 2.51  17 2.52  57 2.52  53 2.52   6 2.53
                            58 2.53   1 2.54  56 2.55   4 2.56
  52  0.501  0.247  0.290-  21 2.46   2 2.49   8 2.49  11 2.50  50 2.51  53 2.51  24 2.52   4 2.52
                            12 2.53  18 2.54  27 2.55  23 2.64
  53  0.750  0.247  0.289-  16 2.46  21 2.47  11 2.48  15 2.50   2 2.50  58 2.51  14 2.51  52 2.51
                            51 2.52   3 2.55  27 2.60  26 2.70
  54  0.914  0.079  0.194-  51 2.49  48 2.50  15 2.52  63 2.52   1 2.52   3 2.53   9 2.55  13 2.56
                            49 2.57  57 2.59  58 2.59   5 2.60
  55  0.083  0.417  0.097-  33 2.49  58 2.53  30 2.55  57 2.56  13 2.56  25 2.59  35 2.59  19 2.60
                             5 2.62
  56  0.086  0.416  0.386-  16 2.44  17 2.48  20 2.51  14 2.51   6 2.51  31 2.52  51 2.55  26 2.55
                            34 2.57
  57  0.171  0.334  0.194-  17 2.49   4 2.50  51 2.52  59 2.52   9 2.55  55 2.56  24 2.56  54 2.59
                            19 2.59  58 2.59   5 2.59  35 2.61
  58  0.916  0.336  0.193-  53 2.51  42 2.52  13 2.53  55 2.53  16 2.53  51 2.53  35 2.53  15 2.54
                            25 2.54  27 2.56  57 2.59  54 2.59
  59  0.419  0.585  0.194-  48 2.51  57 2.52  37 2.52  18 2.52  32 2.53  17 2.54  62 2.55  41 2.55
                            33 2.57  19 2.60  35 2.60  24 2.61
  60  0.582  0.915  0.097-  13 2.51  10 2.52  15 2.53  62 2.54  63 2.55  33 2.56  37 2.56  45 2.59
                            48 2.60
  61  0.592  0.923  0.388-   3 2.47  38 2.48  14 2.48  46 2.49  64 2.53   2 2.53  11 2.55  32 2.55
                            34 2.56
  62  0.415  0.834  0.194-  35 2.51   2 2.52  12 2.52  47 2.53  15 2.54  60 2.54  59 2.55  32 2.56
                            45 2.56  29 2.56  48 2.59  33 2.61
  63  0.834  0.915  0.097-  54 2.52   5 2.54  43 2.54  39 2.54  60 2.55  37 2.57  48 2.57  49 2.58
                            13 2.59
  64  0.840  0.920  0.388-   3 2.49   6 2.50  36 2.51  38 2.51  61 2.53  14 2.53   1 2.55  44 2.55
                            40 2.57
 

IMPORTANT INFORMATION: All symmetrisations will be switched off!
NOSYMM: (Re-)initialisation of all symmetry stuff for point group C_1.

 
 

Automatic generation of k-mesh.
 generate k-points for:    3    3    1
Space group operators:
 irot       det(A)        alpha          n_x          n_y          n_z        tau_x        tau_y        tau_z
    1     1.000000     0.000000     1.000000     0.000000     0.000000     0.000000     0.000000     0.000000
 
 Subroutine IBZKPT returns following result:
 ===========================================
 
 Found      5 irreducible k-points:
 
 Following reciprocal coordinates:
            Coordinates               Weight
  0.000000  0.000000  0.000000      1.000000
  0.333333  0.000000  0.000000      2.000000
  0.000000  0.333333  0.000000      2.000000
  0.333333  0.333333  0.000000      2.000000
 -0.333333  0.333333  0.000000      2.000000
 
 Following cartesian coordinates:
            Coordinates               Weight
  0.000000  0.000000  0.000000      1.000000
  0.032965  0.019033  0.000000      2.000000
  0.000000  0.038065  0.000000      2.000000
  0.032965  0.057098  0.000000      2.000000
 -0.032965  0.019033  0.000000      2.000000
 
 TETIRR: Found     24 inequivalent tetrahedra from       54


--------------------------------------------------------------------------------------------------------




 Dimension of arrays:
   k-points           NKPTS =      5   k-points in BZ     NKDIM =      5   number of bands    NBANDS=    408
   number of dos      NEDOS =    301   number of ions     NIONS =     64
   non local maximal  LDIM  =      6   non local SUM 2l+1 LMDIM =     18
   total plane-waves  NPLWV = ******
   max r-space proj   IRMAX =   8251   max aug-charges    IRDMAX=  19526
   dimension x,y,z NGX =    80 NGY =   80 NGZ =  160
   dimension x,y,z NGXF=   160 NGYF=  160 NGZF=  320
   support grid    NGXF=   160 NGYF=  160 NGZF=  320
   ions per type =              49  15
   NGX,Y,Z   is equivalent  to a cutoff of  13.15, 13.15, 12.48 a.u.
   NGXF,Y,Z  is equivalent  to a cutoff of  26.31, 26.31, 24.96 a.u.

 SYSTEM =  SQS-NiFe                                
 POSCAR =  POSCAR                                  

 Startparameter for this run:
   NWRITE =      2    write-flag & timer
   PREC   = accura    normal or accurate (medium, high low for compatibility)
   ISTART =      0    job   : 0-new  1-cont  2-samecut
   ICHARG =      1    charge: 1-file 2-atom 10-const
   ISPIN  =      2    spin polarized calculation?
   LNONCOLLINEAR =      F non collinear calculations
   LSORBIT =      F    spin-orbit coupling
   INIWAV =      1    electr: 0-lowe 1-rand  2-diag
   LASPH  =      F    aspherical Exc in radial PAW
   METAGGA=      F    non-selfconsistent MetaGGA calc.

 Electronic Relaxation 1
   ENCUT  =  520.0 eV  38.22 Ry    6.18 a.u.  18.80 18.80 39.63*2*pi/ulx,y,z
   ENINI  =  520.0     initial cutoff
   ENAUG  =  544.6 eV  augmentation charge cutoff
   NELM   =    200;   NELMIN=  2; NELMDL= -5     # of ELM steps 
   EDIFF  = 0.1E-05   stopping-criterion for ELM
   LREAL  =      T    real-space projection
   NLSPLINE    = F    spline interpolate recip. space projectors
   LCOMPAT=      F    compatible to vasp.4.4
   GGA_COMPAT  = T    GGA compatible to vasp.4.4-vasp.4.6
   LMAXPAW     = -100 max onsite density
   LMAXMIX     =    2 max onsite mixed and CHGCAR
   VOSKOWN=      0    Vosko Wilk Nusair interpolation
   ROPT   =   -0.00025  -0.00025
 Ionic relaxation
   EDIFFG = -.2E-01   stopping-criterion for IOM
   NSW    =      0    number of steps for IOM
   NBLOCK =      1;   KBLOCK =      1    inner block; outer block 
   IBRION =     -1    ionic relax: 0-MD 1-quasi-New 2-CG
   NFREE  =      0    steps in history (QN), initial steepest desc. (CG)
   ISIF   =      2    stress and relaxation
   IWAVPR =     10    prediction:  0-non 1-charg 2-wave 3-comb
   ISYM   =      0    0-nonsym 1-usesym 2-fastsym
   LCORR  =      T    Harris-Foulkes like correction to forces

   POTIM  = 0.5000    time-step for ionic-motion
   TEIN   =    0.0    initial temperature
   TEBEG  =    0.0;   TEEND  =   0.0 temperature during run
   SMASS  =  -3.00    Nose mass-parameter (am)
   estimated Nose-frequenzy (Omega)   =  0.10E-29 period in steps =****** mass=  -0.234E-26a.u.
   SCALEE = 1.0000    scale energy and forces
   NPACO  =    256;   APACO  = 16.0  distance and # of slots for P.C.
   PSTRESS=    0.0 pullay stress

  Mass of Ions in am
   POMASS =  55.85 58.69
  Ionic Valenz
   ZVAL   =   8.00 10.00
  Atomic Wigner-Seitz radii
   RWIGS  =  -1.00 -1.00
  virtual crystal weights 
   VCA    =   1.00  1.00
   NELECT =     542.0000    total number of electrons
   NUPDOWN=      -1.0000    fix difference up-down

 DOS related values:
   EMIN   =  10.00;   EMAX   =-10.00  energy-range for DOS
   EFERMI =   0.00
   ISMEAR =    -5;   SIGMA  =   0.20  broadening in eV -4-tet -1-fermi 0-gaus

 Electronic relaxation 2 (details)
   IALGO  =     68    algorithm
   LDIAG  =      T    sub-space diagonalisation (order eigenvalues)
   LSUBROT=      F    optimize rotation matrix (better conditioning)
   TURBO    =      0    0=normal 1=particle mesh
   IRESTART =      0    0=no restart 2=restart with 2 vectors
   NREBOOT  =      0    no. of reboots
   NMIN     =      0    reboot dimension
   EREF     =   0.00    reference energy to select bands
   IMIX   =      4    mixing-type and parameters
     AMIX     =   0.40;   BMIX     =  1.00
     AMIX_MAG =   1.60;   BMIX_MAG =  1.00
     AMIN     =   0.10
     WC   =   100.;   INIMIX=   1;  MIXPRE=   1;  MAXMIX= -45

 Intra band minimization:
   WEIMIN = 0.0000     energy-eigenvalue tresh-hold
   EBREAK =  0.61E-09  absolut break condition
   DEPER  =   0.30     relativ break condition  

   TIME   =   0.40     timestep for ELM

  volume/ion in A,a.u.               =      29.49       198.99
  Fermi-wavevector in a.u.,A,eV,Ry     =   1.080118  2.041127 15.873299  1.166655
  Thomas-Fermi vector in A             =   2.216101
 
 Write flags
   LWAVE        =      F    write WAVECAR
   LDOWNSAMPLE  =      F    k-point downsampling of WAVECAR
   LCHARG       =      T    write CHGCAR
   LVTOT        =      F    write LOCPOT, total local potential
   LVHAR        =      F    write LOCPOT, Hartree potential only
   LELF         =      F    write electronic localiz. function (ELF)
   LORBIT       =     11    0 simple, 1 ext, 2 COOP (PROOUT), +10 PAW based schemes


 Dipole corrections
   LMONO  =      F    monopole corrections only (constant potential shift)
   LDIPOL =      T    correct potential (dipole corrections)
   IDIPOL =      3    1-x, 2-y, 3-z, 4-all directions 
   EPSILON=  1.0000000 bulk dielectric constant

 Exchange correlation treatment:
   GGA     =    --    GGA type
   LEXCH   =     8    internal setting for exchange type
   VOSKOWN=      0    Vosko Wilk Nusair interpolation
   LHFCALC =     F    Hartree Fock is set to
   LHFONE  =     F    Hartree Fock one center treatment
   AEXX    =    0.0000 exact exchange contribution

 Linear response parameters
   LEPSILON=     F    determine dielectric tensor
   LRPA    =     F    only Hartree local field effects (RPA)
   LNABLA  =     F    use nabla operator in PAW spheres
   LVEL    =     F    velocity operator in full k-point grid
   LINTERFAST=   F  fast interpolation
   KINTER  =     0    interpolate to denser k-point grid
   CSHIFT  =0.1000    complex shift for real part using Kramers Kronig
   OMEGAMAX=  -1.0    maximum frequency
   DEG_THRESHOLD= 0.2000000E-02 threshold for treating states as degnerate
   RTIME   =   -0.100 relaxation time in fs
  (WPLASMAI=    0.000 imaginary part of plasma frequency in eV, 0.658/RTIME)
   DFIELD  = 0.0000000 0.0000000 0.0000000 field for delta impulse in time
 
 Orbital magnetization related:
   ORBITALMAG=     F  switch on orbital magnetization
   LCHIMAG   =     F  perturbation theory with respect to B field
   DQ        =  0.001000  dq finite difference perturbation B field
   LLRAUG    =     F  two centre corrections for induced B field



--------------------------------------------------------------------------------------------------------


 Static calculation
 charge density and potential will be updated during run
 spin polarized calculation
 RMM-DIIS sequential band-by-band and
  variant of blocked Davidson during initial phase
 perform sub-space diagonalisation
    before iterative eigenvector-optimisation
 modified Broyden-mixing scheme, WC =      100.0
 initial mixing is a Kerker type mixing with AMIX =  0.4000 and BMIX =      1.0000
 Hartree-type preconditioning will be used
 using additional bands          137
 real space projection scheme for non local part
 use partial core corrections
 calculate Harris-corrections to forces 
   (improved forces if not selfconsistent)
 use gradient corrections 
 use of overlap-Matrix (Vanderbilt PP)
 Fermi weights with tetrahedron method with Bloechl corrections


--------------------------------------------------------------------------------------------------------


  energy-cutoff  :      520.00
  volume of cell :     1887.17
      direct lattice vectors                 reciprocal lattice vectors
    10.111630000  0.000000000  0.000000000     0.098896024  0.057097646  0.000000000
    -5.055815000  8.756928450  0.000000000     0.000000000  0.114195292  0.000000000
     0.000000000  0.000000000 21.312645990     0.000000000  0.000000000  0.046920500

  length of vectors
    10.111630000 10.111629997 21.312645990     0.114195292  0.114195292  0.046920500


 
 k-points in units of 2pi/SCALE and weight: read from INCAR                         
   0.00000000  0.00000000  0.00000000       0.111
   0.03296534  0.01903255  0.00000000       0.222
   0.00000000  0.03806510  0.00000000       0.222
   0.03296534  0.05709765  0.00000000       0.222
  -0.03296534  0.01903255  0.00000000       0.222
 
 k-points in reciprocal lattice and weights: read from INCAR                         
   0.00000000  0.00000000  0.00000000       0.111
   0.33333333  0.00000000  0.00000000       0.222
   0.00000000  0.33333333  0.00000000       0.222
   0.33333333  0.33333333  0.00000000       0.222
  -0.33333333  0.33333333  0.00000000       0.222
 
 position of ions in fractional coordinates (direct lattice) 
   0.00340430  0.99773305  0.28923196
   0.50239265  0.00123354  0.29074954
   0.75311832  0.99639765  0.29256869
   0.25076130  0.24467305  0.28829019
   0.08873200  0.16149400  0.09503655
   0.08615331  0.16702288  0.38550796
   0.32962600  0.16609800  0.09949802
   0.33545941  0.16517202  0.38530955
   0.16766300  0.08094400  0.19172241
   0.58333000  0.16550300  0.09887366
   0.59431980  0.17694901  0.38641453
   0.42207800  0.08742500  0.19156116
   0.82651500  0.16651000  0.09770193
   0.83729758  0.16884002  0.38549457
   0.66737600  0.08327700  0.19362076
   0.99349478  0.48959519  0.29407877
   0.24761552  0.49513932  0.29029108
   0.49822415  0.49617940  0.29056308
   0.33859900  0.41583700  0.09384100
   0.33584686  0.41961968  0.38890013
   0.74554759  0.48930710  0.29455543
   0.58633600  0.42229400  0.09867290
   0.58451431  0.42385460  0.39071589
   0.42032800  0.32671800  0.19226484
   0.82677100  0.41676200  0.09643693
   0.83604497  0.41822473  0.39468158
   0.66249300  0.33542400  0.19079821
   0.00331089  0.74497340  0.29448649
   0.24890519  0.74839727  0.29345453
   0.08604600  0.67086900  0.09664380
   0.09015984  0.66618376  0.39546284
   0.49724640  0.74737736  0.29216122
   0.33005900  0.66135600  0.09463213
   0.33860835  0.67058936  0.39203908
   0.16407000  0.58904200  0.19558362
   0.75262818  0.74277054  0.29578158
   0.58008200  0.66096300  0.09597033
   0.58713338  0.67597371  0.39281505
   0.83213700  0.66199500  0.09747502
   0.83906896  0.66607964  0.39555605
   0.67214400  0.58529400  0.19313760
   0.91907500  0.58733100  0.19487907
   0.08603600  0.91635500  0.09815022
   0.08851054  0.91234865  0.38736246
   0.32743000  0.91932200  0.09737653
   0.34246768  0.91784385  0.38939102
   0.16274300  0.83153600  0.19150654
   0.66878300  0.83083000  0.19650084
   0.91852300  0.82706000  0.19503131
   0.25403259  0.99839408  0.28880085
   0.99883528  0.24629654  0.28854110
   0.50131526  0.24666551  0.29046790
   0.75030742  0.24746567  0.28937217
   0.91424100  0.07929400  0.19382007
   0.08260800  0.41708000  0.09669464
   0.08621856  0.41563669  0.38581683
   0.17077300  0.33437100  0.19389387
   0.91567000  0.33646400  0.19341477
   0.41923600  0.58471500  0.19420852
   0.58190700  0.91526900  0.09685385
   0.59151139  0.92332142  0.38771966
   0.41467000  0.83428900  0.19444763
   0.83399900  0.91457100  0.09684514
   0.83962988  0.91969935  0.38820830
 
 position of ions in cartesian coordinates  (Angst):
  -5.00993069  8.73707690  6.16429835
   5.07377203  0.01080199  6.19664201
   2.57765166  8.72538292  6.23541285
   1.29858385  2.14258440  6.14422671
   0.08074137  1.41419140  2.02548035
   0.02671361  1.46260743  8.21619459
   2.49329539  1.45450830  2.12056608
   2.55696231  1.44639953  8.21196596
   1.28610833  0.70882082  4.08611185
   5.06166458  1.44929793  2.10725931
   5.11492046  1.54952980  8.23551607
   3.82589194  0.76557447  4.08267519
   7.51557011  1.45811616  2.08228665
   7.61281941  1.47852001  8.21590924
   6.32722608  0.72925073  4.12657071
   7.57054890  4.28735009  6.26759680
   0.00046373  4.33589960  6.18687111
   2.52926697  4.34500753  6.19266812
   1.32139286  3.64145486  2.00000001
   1.27443967  3.67457952  8.28849084
   5.06485520  4.28482729  6.27775559
   3.79377235  3.69799834  2.10298059
   3.76746200  3.71166442  8.32718940
   2.59837545  2.86104615  4.09767247
   6.25293088  3.64955501  2.05532615
   6.33931056  3.66236400  8.41170877
   5.00304240  2.93728397  4.06641471
  -3.73296920  6.52367873  6.27628623
  -1.26692095  6.55366139  6.25429256
  -2.52172424  5.87475183  2.05973510
  -2.45643896  5.83372354  8.42835946
   1.24936996  6.54473003  6.22672876
  -0.00625910  5.79144717  2.01686109
   0.03350660  5.87230303  8.35539017
  -1.31907225  5.15819865  4.16840445
   3.85498723  6.50438845  6.30388821
   2.52386790  5.78800570  2.04538167
   2.51927742  5.91945343  8.37192816
   5.06733720  5.79704285  2.07745059
   5.11677948  5.83281171  8.43034616
   3.83733325  5.12537768  4.11627330
   6.32390946  5.14321554  4.15338863
  -3.76295716  8.02445517  2.09184089
  -3.71768013  7.98937181  8.25571907
  -1.33707095  8.05043698  2.07535151
  -1.17754224  8.03749296  8.29895301
  -2.55849518  7.28170126  4.08151109
   2.56196347  7.27551886  4.18795284
   5.10630237  7.24250524  4.15663327
  -2.47901218  8.74286552  6.15511031
   8.85462300  2.15680118  6.14957432
   3.82201926  2.16003220  6.19063942
   6.33569036  2.16703916  6.16728660
   8.84357093  0.69437188  4.13081854
  -1.27337779  3.65233972  2.06081863
  -1.22957203  3.63970075  8.22277747
   0.03627547  2.92806292  4.13239141
   7.55781650  2.94639117  4.12218052
   1.28294845  5.12030742  4.13909744
   1.25659754  8.01494515  2.06421182
   1.31300200  8.08545961  8.26333196
  -0.02502123  7.30580908  4.14419350
   3.80918753  8.00883281  2.06402618
   3.84019687  8.05374143  8.27374596
 


--------------------------------------------------------------------------------------------------------


 k-point  1 :   0.0000 0.0000 0.0000  plane waves:   50797
 k-point  2 :   0.3333 0.0000 0.0000  plane waves:   50810
 k-point  3 :   0.0000 0.3333 0.0000  plane waves:   50810
 k-point  4 :   0.3333 0.3333 0.0000  plane waves:   50817
 k-point  5 :  -0.3333 0.3333 0.0000  plane waves:   50810

 maximum and minimum number of plane-waves per node :      2135     2096

 maximum number of plane-waves:     50817
 maximum index in each direction: 
   IXMAX=   19   IYMAX=   18   IZMAX=   39
   IXMIN=  -19   IYMIN=  -19   IZMIN=  -39


 real space projection operators:
  total allocation   :      68897.53 KBytes
  max/ min on nodes  :       3467.67       2535.75


 parallel 3D FFT for wavefunctions:
    minimum data exchange during FFTs selected (reduces bandwidth)
 parallel 3D FFT for charge:
    minimum data exchange during FFTs selected (reduces bandwidth)


 total amount of memory used by VASP MPI-rank0   113587. kBytes
=======================================================================

   base      :      30000. kBytes
   nonlr-proj:      13178. kBytes
   fftplans  :       6403. kBytes
   grid      :      16455. kBytes
   one-center:         93. kBytes
   wavefun   :      47458. kBytes
 
     INWAV:  cpu time    0.0010: real time    0.0001
 Broyden mixing: mesh for mixing (old mesh)
   NGX = 37   NGY = 37   NGZ = 79
  (NGX  =160   NGY  =160   NGZ  =320)
  gives a total of 108151 points

 initial charge density was supplied:
 number of electron     541.9999983 magnetization     139.4643116
 keeping initial charge density in first step


--------------------------------------------------------------------------------------------------------


 Maximum index for non-local projection operator          764
 Maximum index for augmentation-charges         1127 (set IRDMAX)


--------------------------------------------------------------------------------------------------------


 First call to EWALD:  gamma=   0.143
 Maximum number of real-space cells 4x 4x 2
 Maximum number of reciprocal cells 2x 2x 4

    FEWALD:  cpu time    0.0030: real time    0.0029


--------------------------------------- Iteration      1(   1)  ---------------------------------------


    POTLOK:  cpu time    0.2830: real time    0.2901
    SETDIJ:  cpu time    0.0170: real time    0.0196
     EDDAV:  cpu time   24.9582: real time   25.3361
 BZINTS: Fermi energy: 10.422744;542.000000 electrons
         Band energy:3409.583716;  BLOECHL correction: -0.002870
       DOS:  cpu time    0.0440: real time    0.0432
    --------------------------------------------
      LOOP:  cpu time   25.3022: real time   25.6891

 eigenvalue-minimisations  :  8160
 total energy-change (2. order) : 0.4325479E+04  (-0.2278475E+05)
 number of electron     541.9999983 magnetization     139.4643116
 augmentation part      541.9999983 magnetization     139.4643116

 DIPCOR: dipole corrections for dipol
 direction  3 min pos   244,
 dipolmoment           0.000000      0.000000     -0.016493 electrons x Angstroem
 Tr[quadrupol]     -9155.214422

 energy correction for charged system         0.000000 eV
 dipol+quadrupol energy correction           -0.000013 eV
 added-field ion interaction         -0.306330 eV  (added to PSCEN)


 Free energy of the ion-electron system (eV)
  ---------------------------------------------------
  alpha Z        PSCENC =      1435.19441319
  Ewald energy   TEWEN  =    164945.13496738
  -Hartree energ DENC   =   -209950.93702815
  -exchange      EXHF   =         0.00000000
  -V(xc)+E(xc)   XCENC  =       674.95002126
  PAW double counting   =     51062.84035566   -52537.67273311
  entropy T*S    EENTRO =         0.00000000
  eigenvalues    EBANDS =      3409.58371593
  atomic energy  EATOM  =     45286.38514550
  Solvation  Ediel_sol  =         0.00000000
  ---------------------------------------------------
  free energy    TOTEN  =      4325.47885767 eV

  energy without entropy =     4325.47885767  energy(sigma->0) =     4325.47885767


--------------------------------------------------------------------------------------------------------




--------------------------------------- Iteration      1(   2)  ---------------------------------------


     EDDAV:  cpu time   24.5443: real time   24.9355
 BZINTS: Fermi energy:  0.788797;542.000000 electrons
         Band energy:-986.367052;  BLOECHL correction: -0.002790
       DOS:  cpu time    0.0430: real time    0.0429
    --------------------------------------------
      LOOP:  cpu time   24.5873: real time   24.9784

 eigenvalue-minimisations  :  8160
 total energy-change (2. order) :-0.4395951E+04  (-0.4084735E+04)
 number of electron     541.9999983 magnetization     139.4643116
 augmentation part      541.9999983 magnetization     139.4643116

 DIPCOR: dipole corrections for dipol
 direction  3 min pos   244,
 dipolmoment           0.000000      0.000000     -0.016493 electrons x Angstroem
 Tr[quadrupol]     -9155.214422

 energy correction for charged system         0.000000 eV
 dipol+quadrupol energy correction           -0.000013 eV
 added-field ion interaction         -0.306330 eV  (added to PSCEN)


 Free energy of the ion-electron system (eV)
  ---------------------------------------------------
  alpha Z        PSCENC =      1435.19441319
  Ewald energy   TEWEN  =    164945.13496738
  -Hartree energ DENC   =   -209950.93702815
  -exchange      EXHF   =         0.00000000
  -V(xc)+E(xc)   XCENC  =       674.95002126
  PAW double counting   =     51062.84035566   -52537.67273311
  entropy T*S    EENTRO =         0.00000000
  eigenvalues    EBANDS =      -986.36705198
  atomic energy  EATOM  =     45286.38514550
  Solvation  Ediel_sol  =         0.00000000
  ---------------------------------------------------
  free energy    TOTEN  =       -70.47191024 eV

  energy without entropy =      -70.47191024  energy(sigma->0) =      -70.47191024


--------------------------------------------------------------------------------------------------------




--------------------------------------- Iteration      1(   3)  ---------------------------------------


     EDDAV:  cpu time   25.3291: real time   25.6831
 BZINTS: Fermi energy: -0.244881;542.000000 electrons
         Band energy:***********;  BLOECHL correction: -0.020346
       DOS:  cpu time    0.0410: real time    0.0406
    --------------------------------------------
      LOOP:  cpu time   25.3701: real time   25.7237

 eigenvalue-minimisations  :  8523
 total energy-change (2. order) :-0.3714104E+03  (-0.3157462E+03)
 number of electron     541.9999983 magnetization     139.4643116
 augmentation part      541.9999983 magnetization     139.4643116

 DIPCOR: dipole corrections for dipol
 direction  3 min pos   244,
 dipolmoment           0.000000      0.000000     -0.016493 electrons x Angstroem
 Tr[quadrupol]     -9155.214422

 energy correction for charged system         0.000000 eV
 dipol+quadrupol energy correction           -0.000013 eV
 added-field ion interaction         -0.306330 eV  (added to PSCEN)


 Free energy of the ion-electron system (eV)
  ---------------------------------------------------
  alpha Z        PSCENC =      1435.19441319
  Ewald energy   TEWEN  =    164945.13496738
  -Hartree energ DENC   =   -209950.93702815
  -exchange      EXHF   =         0.00000000
  -V(xc)+E(xc)   XCENC  =       674.95002126
  PAW double counting   =     51062.84035566   -52537.67273311
  entropy T*S    EENTRO =         0.00000000
  eigenvalues    EBANDS =     -1357.77747652
  atomic energy  EATOM  =     45286.38514550
  Solvation  Ediel_sol  =         0.00000000
  ---------------------------------------------------
  free energy    TOTEN  =      -441.88233477 eV

  energy without entropy =     -441.88233477  energy(sigma->0) =     -441.88233477


--------------------------------------------------------------------------------------------------------




--------------------------------------- Iteration      1(   4)  ---------------------------------------


     EDDAV:  cpu time   25.5071: real time   25.9637
 BZINTS: Fermi energy: -0.286236;542.000000 electrons
         Band energy:***********;  BLOECHL correction: -0.020850
       DOS:  cpu time    0.0380: real time    0.0381
    --------------------------------------------
      LOOP:  cpu time   25.5451: real time   26.0018

 eigenvalue-minimisations  :  8679
 total energy-change (2. order) :-0.1503741E+02  (-0.1465979E+02)
 number of electron     541.9999983 magnetization     139.4643116
 augmentation part      541.9999983 magnetization     139.4643116

 DIPCOR: dipole corrections for dipol
 direction  3 min pos   244,
 dipolmoment           0.000000      0.000000     -0.016493 electrons x Angstroem
 Tr[quadrupol]     -9155.214422

 energy correction for charged system         0.000000 eV
 dipol+quadrupol energy correction           -0.000013 eV
 added-field ion interaction         -0.306330 eV  (added to PSCEN)


 Free energy of the ion-electron system (eV)
  ---------------------------------------------------
  alpha Z        PSCENC =      1435.19441319
  Ewald energy   TEWEN  =    164945.13496738
  -Hartree energ DENC   =   -209950.93702815
  -exchange      EXHF   =         0.00000000
  -V(xc)+E(xc)   XCENC  =       674.95002126
  PAW double counting   =     51062.84035566   -52537.67273311
  entropy T*S    EENTRO =         0.00000000
  eigenvalues    EBANDS =     -1372.81488171
  atomic energy  EATOM  =     45286.38514550
  Solvation  Ediel_sol  =         0.00000000
  ---------------------------------------------------
  free energy    TOTEN  =      -456.91973997 eV

  energy without entropy =     -456.91973997  energy(sigma->0) =     -456.91973997


--------------------------------------------------------------------------------------------------------




--------------------------------------- Iteration      1(   5)  ---------------------------------------


     EDDAV:  cpu time   26.8919: real time   27.2688
 BZINTS: Fermi energy: -0.287007;542.000000 electrons
         Band energy:***********;  BLOECHL correction: -0.020834
       DOS:  cpu time    0.0380: real time    0.0373
    CHARGE:  cpu time    0.7529: real time    0.7597
    MIXING:  cpu time    0.0050: real time    0.0046
    --------------------------------------------
      LOOP:  cpu time   27.6878: real time   28.0705

 eigenvalue-minimisations  :  9174
 total energy-change (2. order) :-0.2582431E+00  (-0.2579436E+00)
 number of electron     541.9999983 magnetization     139.4025034
 augmentation part      296.9407994 magnetization     112.6754446

 DIPCOR: dipole corrections for dipol
 direction  3 min pos   244,
 dipolmoment           0.000000      0.000000     -0.016493 electrons x Angstroem
 Tr[quadrupol]     -9155.214422

 energy correction for charged system         0.000000 eV
 dipol+quadrupol energy correction           -0.000013 eV
 added-field ion interaction         -0.306330 eV  (added to PSCEN)


 Broyden mixing:
  rms(total) = 0.61648E-01    rms(broyden)= 0.61595E-01
  rms(prec ) = 0.64511E-01
  weight for this iteration     100.00

 Free energy of the ion-electron system (eV)
  ---------------------------------------------------
  alpha Z        PSCENC =      1435.19441319
  Ewald energy   TEWEN  =    164945.13496738
  -Hartree energ DENC   =   -209950.93702815
  -exchange      EXHF   =         0.00000000
  -V(xc)+E(xc)   XCENC  =       674.95002126
  PAW double counting   =     51062.84035566   -52537.67273311
  entropy T*S    EENTRO =         0.00000000
  eigenvalues    EBANDS =     -1373.07312476
  atomic energy  EATOM  =     45286.38514550
  Solvation  Ediel_sol  =         0.00000000
  ---------------------------------------------------
  free energy    TOTEN  =      -457.17798302 eV

  energy without entropy =     -457.17798302  energy(sigma->0) =     -457.17798302


--------------------------------------------------------------------------------------------------------




--------------------------------------- Iteration      1(   6)  ---------------------------------------


    POTLOK:  cpu time    0.2430: real time    0.2460
    SETDIJ:  cpu time    0.0180: real time    0.0178
    EDDIAG:  cpu time    3.6344: real time    3.6743
  RMM-DIIS:  cpu time   15.2857: real time   15.5077
    ORTHCH:  cpu time    0.6749: real time    0.6754
 BZINTS: Fermi energy: -0.290380;542.000000 electrons
         Band energy:***********;  BLOECHL correction: -0.021592
       DOS:  cpu time    0.0390: real time    0.0388
    CHARGE:  cpu time    0.7159: real time    0.7186
    MIXING:  cpu time    0.0060: real time    0.0047
    --------------------------------------------
      LOOP:  cpu time   20.6169: real time   20.8833

 eigenvalue-minimisations  :  8411
 total energy-change (2. order) :-0.1162525E+00  (-0.1540121E-01)
 number of electron     541.9999983 magnetization     139.3947066
 augmentation part      296.9279501 magnetization     112.5051202

 DIPCOR: dipole corrections for dipol
 direction  3 min pos   238,
 dipolmoment           0.000000      0.000000     -0.023238 electrons x Angstroem
 Tr[quadrupol]     -9155.145536

 energy correction for charged system         0.000000 eV
 dipol+quadrupol energy correction           -0.000026 eV
 added-field ion interaction          0.051029 eV  (added to PSCEN)


 Broyden mixing:
  rms(total) = 0.20677E+00    rms(broyden)= 0.20676E+00
  rms(prec ) = 0.23857E+00
  weight for this iteration     100.00

 eigenvalues of (default mixing * dielectric matrix)
  average eigenvalue GAMMA=   0.1981
  0.1981

 Free energy of the ion-electron system (eV)
  ---------------------------------------------------
  alpha Z        PSCENC =      1435.55175967
  Ewald energy   TEWEN  =    164945.13496738
  -Hartree energ DENC   =   -209948.73991515
  -exchange      EXHF   =         0.00000000
  -V(xc)+E(xc)   XCENC  =       674.64095034
  PAW double counting   =     51090.06109437   -52564.74444829
  entropy T*S    EENTRO =         0.00000000
  eigenvalues    EBANDS =     -1375.58378931
  atomic energy  EATOM  =     45286.38514550
  Solvation  Ediel_sol  =         0.00000000
  ---------------------------------------------------
  free energy    TOTEN  =      -457.29423549 eV

  energy without entropy =     -457.29423549  energy(sigma->0) =     -457.29423549


--------------------------------------------------------------------------------------------------------




--------------------------------------- Iteration      1(   7)  ---------------------------------------


    POTLOK:  cpu time    0.2440: real time    0.2451
    SETDIJ:  cpu time    0.0180: real time    0.0177
    EDDIAG:  cpu time    3.7244: real time    3.7329
  RMM-DIIS:  cpu time   17.0604: real time   17.1413
    ORTHCH:  cpu time    0.6469: real time    0.6481
 BZINTS: Fermi energy: -0.288699;542.000000 electrons
         Band energy:***********;  BLOECHL correction: -0.020870
       DOS:  cpu time    0.0400: real time    0.0394
    CHARGE:  cpu time    0.7009: real time    0.7026
    MIXING:  cpu time    0.0060: real time    0.0046
    --------------------------------------------
      LOOP:  cpu time   22.4406: real time   22.5319

 eigenvalue-minimisations  :  9296
 total energy-change (2. order) : 0.1479518E-01  (-0.3442773E-02)
 number of electron     541.9999983 magnetization     139.3830772
 augmentation part      296.8760418 magnetization     112.5805023

 DIPCOR: dipole corrections for dipol
 direction  3 min pos   239,
 dipolmoment           0.000000      0.000000     -0.004698 electrons x Angstroem
 Tr[quadrupol]     -9155.225922

 energy correction for charged system         0.000000 eV
 dipol+quadrupol energy correction           -0.000001 eV
 added-field ion interaction         -0.005945 eV  (added to PSCEN)


 Broyden mixing:
  rms(total) = 0.97737E-01    rms(broyden)= 0.97722E-01
  rms(prec ) = 0.13602E+00
  weight for this iteration     100.00

 eigenvalues of (default mixing * dielectric matrix)
  average eigenvalue GAMMA=   0.2562
  0.4008  0.1117

 Free energy of the ion-electron system (eV)
  ---------------------------------------------------
  alpha Z        PSCENC =      1435.49481044
  Ewald energy   TEWEN  =    164945.13496738
  -Hartree energ DENC   =   -209951.43026385
  -exchange      EXHF   =         0.00000000
  -V(xc)+E(xc)   XCENC  =       674.65248977
  PAW double counting   =     51091.89739225   -52566.60161816
  entropy T*S    EENTRO =         0.00000000
  eigenvalues    EBANDS =     -1372.81236365
  atomic energy  EATOM  =     45286.38514550
  Solvation  Ediel_sol  =         0.00000000
  ---------------------------------------------------
  free energy    TOTEN  =      -457.27944032 eV

  energy without entropy =     -457.27944032  energy(sigma->0) =     -457.27944032


--------------------------------------------------------------------------------------------------------




--------------------------------------- Iteration      1(   8)  ---------------------------------------


    POTLOK:  cpu time    0.2440: real time    0.2446
    SETDIJ:  cpu time    0.0180: real time    0.0177
    EDDIAG:  cpu time    3.6414: real time    3.6449
  RMM-DIIS:  cpu time   18.8211: real time   18.9183
    ORTHCH:  cpu time    0.6479: real time    0.6697
 BZINTS: Fermi energy: -0.287089;542.000000 electrons
         Band energy:***********;  BLOECHL correction: -0.020651
       DOS:  cpu time    0.0380: real time    0.0376
    CHARGE:  cpu time    0.7019: real time    0.7017
    MIXING:  cpu time    0.0040: real time    0.0046
    --------------------------------------------
      LOOP:  cpu time   24.1163: real time   24.2393

 eigenvalue-minimisations  : 10366
 total energy-change (2. order) :-0.5766015E-02  (-0.9590425E-03)
 number of electron     541.9999983 magnetization     139.3532844
 augmentation part      296.8617076 magnetization     112.5328514

 DIPCOR: dipole corrections for dipol
 direction  3 min pos   238,
 dipolmoment           0.000000      0.000000     -0.037131 electrons x Angstroem
 Tr[quadrupol]     -9155.233245

 energy correction for charged system         0.000000 eV
 dipol+quadrupol energy correction           -0.000066 eV
 added-field ion interaction          0.081540 eV  (added to PSCEN)


 Broyden mixing:
  rms(total) = 0.12770E+00    rms(broyden)= 0.12769E+00
  rms(prec ) = 0.18704E+00
  weight for this iteration     100.00

 eigenvalues of (default mixing * dielectric matrix)
  average eigenvalue GAMMA=   0.2753
  0.6305  0.1370  0.0586

 Free energy of the ion-electron system (eV)
  ---------------------------------------------------
  alpha Z        PSCENC =      1435.58222977
  Ewald energy   TEWEN  =    164945.13496738
  -Hartree energ DENC   =   -209951.49972742
  -exchange      EXHF   =         0.00000000
  -V(xc)+E(xc)   XCENC  =       674.62718662
  PAW double counting   =     51091.43463697   -52566.07770611
  entropy T*S    EENTRO =         0.00000000
  eigenvalues    EBANDS =     -1372.87193905
  atomic energy  EATOM  =     45286.38514550
  Solvation  Ediel_sol  =         0.00000000
  ---------------------------------------------------
  free energy    TOTEN  =      -457.28520633 eV

  energy without entropy =     -457.28520633  energy(sigma->0) =     -457.28520633


--------------------------------------------------------------------------------------------------------




--------------------------------------- Iteration      1(   9)  ---------------------------------------


    POTLOK:  cpu time    0.2430: real time    0.2442
    SETDIJ:  cpu time    0.0190: real time    0.0178
    EDDIAG:  cpu time    3.6554: real time    3.7057
  RMM-DIIS:  cpu time   15.9936: real time   16.2553
    ORTHCH:  cpu time    0.6259: real time    0.6275
 BZINTS: Fermi energy: -0.290782;542.000000 electrons
         Band energy:***********;  BLOECHL correction: -0.020597
       DOS:  cpu time    0.0400: real time    0.0406
    CHARGE:  cpu time    0.7169: real time    0.7399
    MIXING:  cpu time    0.0060: real time    0.0048
    --------------------------------------------
      LOOP:  cpu time   21.2998: real time   21.6358

 eigenvalue-minimisations  :  8539
 total energy-change (2. order) : 0.1019984E-01  (-0.3963126E-03)
 number of electron     541.9999983 magnetization     139.3339867
 augmentation part      296.9068899 magnetization     112.5035321

 DIPCOR: dipole corrections for dipol
 direction  3 min pos   239,
 dipolmoment           0.000000      0.000000     -0.013808 electrons x Angstroem
 Tr[quadrupol]     -9155.212444

 energy correction for charged system         0.000000 eV
 dipol+quadrupol energy correction           -0.000009 eV
 added-field ion interaction         -0.017474 eV  (added to PSCEN)


 Broyden mixing:
  rms(total) = 0.52770E-01    rms(broyden)= 0.52760E-01
  rms(prec ) = 0.63211E-01
  weight for this iteration     100.00

 eigenvalues of (default mixing * dielectric matrix)
  average eigenvalue GAMMA=   0.2926
  0.6783  0.3075  0.1319  0.0526

 Free energy of the ion-electron system (eV)
  ---------------------------------------------------
  alpha Z        PSCENC =      1435.48327339
  Ewald energy   TEWEN  =    164945.13496738
  -Hartree energ DENC   =   -209950.55188535
  -exchange      EXHF   =         0.00000000
  -V(xc)+E(xc)   XCENC  =       674.55718329
  PAW double counting   =     51088.22616875   -52562.67827094
  entropy T*S    EENTRO =         0.00000000
  eigenvalues    EBANDS =     -1373.83158853
  atomic energy  EATOM  =     45286.38514550
  Solvation  Ediel_sol  =         0.00000000
  ---------------------------------------------------
  free energy    TOTEN  =      -457.27500649 eV

  energy without entropy =     -457.27500649  energy(sigma->0) =     -457.27500649


--------------------------------------------------------------------------------------------------------




--------------------------------------- Iteration      1(  10)  ---------------------------------------


    POTLOK:  cpu time    0.2430: real time    0.2449
    SETDIJ:  cpu time    0.0180: real time    0.0178
    EDDIAG:  cpu time    3.6514: real time    3.7028
  RMM-DIIS:  cpu time   15.5286: real time   15.7566
    ORTHCH:  cpu time    0.6389: real time    0.6621
 BZINTS: Fermi energy: -0.289476;542.000000 electrons
         Band energy:***********;  BLOECHL correction: -0.020424
       DOS:  cpu time    0.0410: real time    0.0407
    CHARGE:  cpu time    0.7039: real time    0.7036
    MIXING:  cpu time    0.0050: real time    0.0049
    --------------------------------------------
      LOOP:  cpu time   20.8298: real time   21.1334

 eigenvalue-minimisations  :  8506
 total energy-change (2. order) : 0.1533943E-02  (-0.2139030E-03)
 number of electron     541.9999983 magnetization     139.2796295
 augmentation part      296.8996591 magnetization     112.4569783

 DIPCOR: dipole corrections for dipol
 direction  3 min pos   239,
 dipolmoment           0.000000      0.000000     -0.016388 electrons x Angstroem
 Tr[quadrupol]     -9155.234852

 energy correction for charged system         0.000000 eV
 dipol+quadrupol energy correction           -0.000013 eV
 added-field ion interaction         -0.020738 eV  (added to PSCEN)


 Broyden mixing:
  rms(total) = 0.37979E-01    rms(broyden)= 0.37977E-01
  rms(prec ) = 0.41622E-01
  weight for this iteration     100.00

 eigenvalues of (default mixing * dielectric matrix)
  average eigenvalue GAMMA=   0.4196
  0.9756  0.7839  0.0530  0.1281  0.1573

 Free energy of the ion-electron system (eV)
  ---------------------------------------------------
  alpha Z        PSCENC =      1435.48000520
  Ewald energy   TEWEN  =    164945.13496738
  -Hartree energ DENC   =   -209951.21559230
  -exchange      EXHF   =         0.00000000
  -V(xc)+E(xc)   XCENC  =       674.53252677
  PAW double counting   =     51084.74037672   -52559.14979552
  entropy T*S    EENTRO =         0.00000000
  eigenvalues    EBANDS =     -1373.18110631
  atomic energy  EATOM  =     45286.38514550
  Solvation  Ediel_sol  =         0.00000000
  ---------------------------------------------------
  free energy    TOTEN  =      -457.27347255 eV

  energy without entropy =     -457.27347255  energy(sigma->0) =     -457.27347255


--------------------------------------------------------------------------------------------------------




--------------------------------------- Iteration      1(  11)  ---------------------------------------


    POTLOK:  cpu time    0.2440: real time    0.2444
    SETDIJ:  cpu time    0.0180: real time    0.0179
    EDDIAG:  cpu time    3.6304: real time    3.6754
  RMM-DIIS:  cpu time   15.3607: real time   15.5565
    ORTHCH:  cpu time    0.6269: real time    0.6275
 BZINTS: Fermi energy: -0.289419;542.000000 electrons
         Band energy:***********;  BLOECHL correction: -0.020371
       DOS:  cpu time    0.0410: real time    0.0406
    CHARGE:  cpu time    0.7199: real time    0.7208
    MIXING:  cpu time    0.0060: real time    0.0049
    --------------------------------------------
      LOOP:  cpu time   20.6469: real time   20.8880

 eigenvalue-minimisations  :  8464
 total energy-change (2. order) : 0.1956558E-02  (-0.9587361E-04)
 number of electron     541.9999983 magnetization     139.2556990
 augmentation part      296.9049868 magnetization     112.4232394

 DIPCOR: dipole corrections for dipol
 direction  3 min pos   239,
 dipolmoment           0.000000      0.000000     -0.017046 electrons x Angstroem
 Tr[quadrupol]     -9155.239493

 energy correction for charged system         0.000000 eV
 dipol+quadrupol energy correction           -0.000014 eV
 added-field ion interaction         -0.021571 eV  (added to PSCEN)


 Broyden mixing:
  rms(total) = 0.37906E-01    rms(broyden)= 0.37905E-01
  rms(prec ) = 0.42322E-01
  weight for this iteration     100.00

 eigenvalues of (default mixing * dielectric matrix)
  average eigenvalue GAMMA=   0.4109
  1.1475  0.7643  0.0530  0.2260  0.1244  0.1502

 Free energy of the ion-electron system (eV)
  ---------------------------------------------------
  alpha Z        PSCENC =      1435.47917134
  Ewald energy   TEWEN  =    164945.13496738
  -Hartree energ DENC   =   -209951.51243074
  -exchange      EXHF   =         0.00000000
  -V(xc)+E(xc)   XCENC  =       674.48413999
  PAW double counting   =     51072.82576376   -52547.17655917
  entropy T*S    EENTRO =         0.00000000
  eigenvalues    EBANDS =     -1372.89171407
  atomic energy  EATOM  =     45286.38514550
  Solvation  Ediel_sol  =         0.00000000
  ---------------------------------------------------
  free energy    TOTEN  =      -457.27151599 eV

  energy without entropy =     -457.27151599  energy(sigma->0) =     -457.27151599


--------------------------------------------------------------------------------------------------------




--------------------------------------- Iteration      1(  12)  ---------------------------------------


    POTLOK:  cpu time    0.2620: real time    0.2631
    SETDIJ:  cpu time    0.0180: real time    0.0179
    EDDIAG:  cpu time    3.5805: real time    3.6255
  RMM-DIIS:  cpu time   15.5766: real time   15.6783
    ORTHCH:  cpu time    0.6409: real time    0.6410
 BZINTS: Fermi energy: -0.288572;542.000000 electrons
         Band energy:***********;  BLOECHL correction: -0.020306
       DOS:  cpu time    0.0410: real time    0.0411
    CHARGE:  cpu time    0.7359: real time    0.7361
    MIXING:  cpu time    0.0060: real time    0.0052
    --------------------------------------------
      LOOP:  cpu time   20.8608: real time   21.0083

 eigenvalue-minimisations  :  8502
 total energy-change (2. order) : 0.1333571E-02  (-0.8110298E-04)
 number of electron     541.9999983 magnetization     139.1777826
 augmentation part      296.8931192 magnetization     112.3570946

 DIPCOR: dipole corrections for dipol
 direction  3 min pos   237,
 dipolmoment           0.000000      0.000000     -0.016887 electrons x Angstroem
 Tr[quadrupol]     -9155.261172

 energy correction for charged system         0.000000 eV
 dipol+quadrupol energy correction           -0.000014 eV
 added-field ion interaction          0.095535 eV  (added to PSCEN)


 Broyden mixing:
  rms(total) = 0.26644E-01    rms(broyden)= 0.26643E-01
  rms(prec ) = 0.29473E-01
  weight for this iteration     100.00

 eigenvalues of (default mixing * dielectric matrix)
  average eigenvalue GAMMA=   0.4970
  1.2758  1.1028  0.6257  0.0530  0.1633  0.1235  0.1350

 Free energy of the ion-electron system (eV)
  ---------------------------------------------------
  alpha Z        PSCENC =      1435.59627716
  Ewald energy   TEWEN  =    164945.13496738
  -Hartree energ DENC   =   -209952.16352754
  -exchange      EXHF   =         0.00000000
  -V(xc)+E(xc)   XCENC  =       674.47636789
  PAW double counting   =     51068.41811728   -52542.76599745
  entropy T*S    EENTRO =         0.00000000
  eigenvalues    EBANDS =     -1372.35153264
  atomic energy  EATOM  =     45286.38514550
  Solvation  Ediel_sol  =         0.00000000
  ---------------------------------------------------
  free energy    TOTEN  =      -457.27018242 eV

  energy without entropy =     -457.27018242  energy(sigma->0) =     -457.27018242


--------------------------------------------------------------------------------------------------------




--------------------------------------- Iteration      1(  13)  ---------------------------------------


    POTLOK:  cpu time    0.2460: real time    0.2466
    SETDIJ:  cpu time    0.0180: real time    0.0179
    EDDIAG:  cpu time    3.6774: real time    3.6794
  RMM-DIIS:  cpu time   15.4207: real time   15.4387
    ORTHCH:  cpu time    0.6659: real time    0.6668
 BZINTS: Fermi energy: -0.288711;542.000000 electrons
         Band energy:***********;  BLOECHL correction: -0.020095
       DOS:  cpu time    0.0410: real time    0.0407
    CHARGE:  cpu time    0.7249: real time    0.7262
    MIXING:  cpu time    0.0120: real time    0.0113
    --------------------------------------------
      LOOP:  cpu time   20.8058: real time   20.8276

 eigenvalue-minimisations  :  8400
 total energy-change (2. order) : 0.1489945E-02  (-0.7326131E-04)
 number of electron     541.9999983 magnetization     139.1364185
 augmentation part      296.9089966 magnetization     112.3168373

 DIPCOR: dipole corrections for dipol
 direction  3 min pos   236,
 dipolmoment           0.000000      0.000000     -0.017764 electrons x Angstroem
 Tr[quadrupol]     -9155.269158

 energy correction for charged system         0.000000 eV
 dipol+quadrupol energy correction           -0.000015 eV
 added-field ion interaction          0.161987 eV  (added to PSCEN)


 Broyden mixing:
  rms(total) = 0.37303E-01    rms(broyden)= 0.37302E-01
  rms(prec ) = 0.41154E-01
  weight for this iteration     100.00

 eigenvalues of (default mixing * dielectric matrix)
  average eigenvalue GAMMA=   0.5005
  1.6219  1.0590  0.6642  0.0530  0.1929  0.1596  0.1304  0.1226

 Free energy of the ion-electron system (eV)
  ---------------------------------------------------
  alpha Z        PSCENC =      1435.66272794
  Ewald energy   TEWEN  =    164945.13496738
  -Hartree energ DENC   =   -209952.25028981
  -exchange      EXHF   =         0.00000000
  -V(xc)+E(xc)   XCENC  =       674.44993366
  PAW double counting   =     51055.37792846   -52529.61483222
  entropy T*S    EENTRO =         0.00000000
  eigenvalues    EBANDS =     -1372.41427339
  atomic energy  EATOM  =     45286.38514550
  Solvation  Ediel_sol  =         0.00000000
  ---------------------------------------------------
  free energy    TOTEN  =      -457.26869248 eV

  energy without entropy =     -457.26869248  energy(sigma->0) =     -457.26869248


--------------------------------------------------------------------------------------------------------




--------------------------------------- Iteration      1(  14)  ---------------------------------------


    POTLOK:  cpu time    0.2470: real time    0.2476
    SETDIJ:  cpu time    0.0180: real time    0.0178
    EDDIAG:  cpu time    3.6984: real time    3.7030
  RMM-DIIS:  cpu time   15.4916: real time   15.5211
    ORTHCH:  cpu time    0.6249: real time    0.6248
 BZINTS: Fermi energy: -0.288445;542.000000 electrons
         Band energy:***********;  BLOECHL correction: -0.020106
       DOS:  cpu time    0.0400: real time    0.0406
    CHARGE:  cpu time    0.7169: real time    0.7179
    MIXING:  cpu time    0.0060: real time    0.0054
    --------------------------------------------
      LOOP:  cpu time   20.8428: real time   20.8781

 eigenvalue-minimisations  :  8423
 total energy-change (2. order) : 0.1466400E-02  (-0.6090506E-04)
 number of electron     541.9999983 magnetization     139.0842336
 augmentation part      296.8972405 magnetization     112.2822709

 DIPCOR: dipole corrections for dipol
 direction  3 min pos   234,
 dipolmoment           0.000000      0.000000     -0.017816 electrons x Angstroem
 Tr[quadrupol]     -9155.288708

 energy correction for charged system         0.000000 eV
 dipol+quadrupol energy correction           -0.000015 eV
 added-field ion interaction          0.285805 eV  (added to PSCEN)


 Broyden mixing:
  rms(total) = 0.15896E-01    rms(broyden)= 0.15895E-01
  rms(prec ) = 0.17068E-01
  weight for this iteration     100.00

 eigenvalues of (default mixing * dielectric matrix)
  average eigenvalue GAMMA=   0.5884
  2.0270  1.3704  0.6578  0.6223  0.0530  0.1691  0.1470  0.1290  0.1203

 Free energy of the ion-electron system (eV)
  ---------------------------------------------------
  alpha Z        PSCENC =      1435.78654607
  Ewald energy   TEWEN  =    164945.13496738
  -Hartree energ DENC   =   -209952.83321697
  -exchange      EXHF   =         0.00000000
  -V(xc)+E(xc)   XCENC  =       674.44814291
  PAW double counting   =     51049.92931400   -52524.16452875
  entropy T*S    EENTRO =         0.00000000
  eigenvalues    EBANDS =     -1371.95359622
  atomic energy  EATOM  =     45286.38514550
  Solvation  Ediel_sol  =         0.00000000
  ---------------------------------------------------
  free energy    TOTEN  =      -457.26722608 eV

  energy without entropy =     -457.26722608  energy(sigma->0) =     -457.26722608


--------------------------------------------------------------------------------------------------------




--------------------------------------- Iteration      1(  15)  ---------------------------------------


    POTLOK:  cpu time    0.2460: real time    0.2468
    SETDIJ:  cpu time    0.0190: real time    0.0180
    EDDIAG:  cpu time    3.6594: real time    3.6642
  RMM-DIIS:  cpu time   15.3317: real time   15.3957
    ORTHCH:  cpu time    0.6229: real time    0.6236
 BZINTS: Fermi energy: -0.287537;542.000000 electrons
         Band energy:***********;  BLOECHL correction: -0.019991
       DOS:  cpu time    0.0390: real time    0.0392
    CHARGE:  cpu time    0.7179: real time    0.7179
    MIXING:  cpu time    0.0060: real time    0.0059
    --------------------------------------------
      LOOP:  cpu time   20.6419: real time   20.7113

 eigenvalue-minimisations  :  8397
 total energy-change (2. order) :-0.1030015E-02  (-0.3341895E-04)
 number of electron     541.9999983 magnetization     139.0521061
 augmentation part      296.9044188 magnetization     112.2537877

 DIPCOR: dipole corrections for dipol
 direction  3 min pos   240,
 dipolmoment           0.000000      0.000000     -0.018189 electrons x Angstroem
 Tr[quadrupol]     -9155.276817

 energy correction for charged system         0.000000 eV
 dipol+quadrupol energy correction           -0.000016 eV
 added-field ion interaction         -0.085978 eV  (added to PSCEN)


 Broyden mixing:
  rms(total) = 0.24624E-01    rms(broyden)= 0.24624E-01
  rms(prec ) = 0.27332E-01
  weight for this iteration     100.00

 eigenvalues of (default mixing * dielectric matrix)
  average eigenvalue GAMMA=   0.5939
  2.4112  1.3758  0.7027  0.6744  0.0530  0.1745  0.1570  0.1433  0.1210  0.1262

 Free energy of the ion-electron system (eV)
  ---------------------------------------------------
  alpha Z        PSCENC =      1435.41476245
  Ewald energy   TEWEN  =    164945.13496738
  -Hartree energ DENC   =   -209952.85961158
  -exchange      EXHF   =         0.00000000
  -V(xc)+E(xc)   XCENC  =       674.43887926
  PAW double counting   =     51046.14596756   -52520.33588104
  entropy T*S    EENTRO =         0.00000000
  eigenvalues    EBANDS =     -1371.59248563
  atomic energy  EATOM  =     45286.38514550
  Solvation  Ediel_sol  =         0.00000000
  ---------------------------------------------------
  free energy    TOTEN  =      -457.26825609 eV

  energy without entropy =     -457.26825609  energy(sigma->0) =     -457.26825609


--------------------------------------------------------------------------------------------------------




--------------------------------------- Iteration      1(  16)  ---------------------------------------


    POTLOK:  cpu time    0.3160: real time    0.3165
    SETDIJ:  cpu time    0.0190: real time    0.0182
    EDDIAG:  cpu time    3.6374: real time    3.6396
  RMM-DIIS:  cpu time   15.4537: real time   15.4746
    ORTHCH:  cpu time    0.6229: real time    0.6234
 BZINTS: Fermi energy: -0.287091;542.000000 electrons
         Band energy:***********;  BLOECHL correction: -0.019976
       DOS:  cpu time    0.0410: real time    0.0409
    CHARGE:  cpu time    0.7339: real time    0.7343
    MIXING:  cpu time    0.0090: real time    0.0078
    --------------------------------------------
      LOOP:  cpu time   20.8328: real time   20.8553

 eigenvalue-minimisations  :  8410
 total energy-change (2. order) :-0.5429203E-03  (-0.2079858E-04)
 number of electron     541.9999983 magnetization     139.0132448
 augmentation part      296.8990822 magnetization     112.2265679

 DIPCOR: dipole corrections for dipol
 direction  3 min pos   243,
 dipolmoment           0.000000      0.000000     -0.018730 electrons x Angstroem
 Tr[quadrupol]     -9155.275430

 energy correction for charged system         0.000000 eV
 dipol+quadrupol energy correction           -0.000017 eV
 added-field ion interaction         -0.283035 eV  (added to PSCEN)


 Broyden mixing:
  rms(total) = 0.10612E-01    rms(broyden)= 0.10611E-01
  rms(prec ) = 0.11132E-01
  weight for this iteration     100.00

 eigenvalues of (default mixing * dielectric matrix)
  average eigenvalue GAMMA=   0.6116
  2.6386  1.3808  0.7366  0.7366  0.4771  0.0530  0.1722  0.1535  0.1338  0.1266
  0.1192

 Free energy of the ion-electron system (eV)
  ---------------------------------------------------
  alpha Z        PSCENC =      1435.21770428
  Ewald energy   TEWEN  =    164945.13496738
  -Hartree energ DENC   =   -209953.10443068
  -exchange      EXHF   =         0.00000000
  -V(xc)+E(xc)   XCENC  =       674.43952443
  PAW double counting   =     51044.71543721   -52518.91317837
  entropy T*S    EENTRO =         0.00000000
  eigenvalues    EBANDS =     -1371.14396878
  atomic energy  EATOM  =     45286.38514550
  Solvation  Ediel_sol  =         0.00000000
  ---------------------------------------------------
  free energy    TOTEN  =      -457.26879901 eV

  energy without entropy =     -457.26879901  energy(sigma->0) =     -457.26879901


--------------------------------------------------------------------------------------------------------




--------------------------------------- Iteration      1(  17)  ---------------------------------------


    POTLOK:  cpu time    0.2500: real time    0.2512
    SETDIJ:  cpu time    0.0210: real time    0.0205
    EDDIAG:  cpu time    3.6964: real time    3.7006
  RMM-DIIS:  cpu time   15.3227: real time   15.3497
    ORTHCH:  cpu time    0.6519: real time    0.6520
 BZINTS: Fermi energy: -0.287475;542.000000 electrons
         Band energy:***********;  BLOECHL correction: -0.019873
       DOS:  cpu time    0.0410: real time    0.0408
    CHARGE:  cpu time    0.7419: real time    0.7420
    MIXING:  cpu time    0.0060: real time    0.0059
    --------------------------------------------
      LOOP:  cpu time   20.7308: real time   20.7626

 eigenvalue-minimisations  :  8385
 total energy-change (2. order) :-0.2056005E-02  (-0.1758467E-04)
 number of electron     541.9999983 magnetization     138.9439132
 augmentation part      296.8993570 magnetization     112.1657370

 DIPCOR: dipole corrections for dipol
 direction  3 min pos   240,
 dipolmoment           0.000000      0.000000     -0.018427 electrons x Angstroem
 Tr[quadrupol]     -9155.284436

 energy correction for charged system         0.000000 eV
 dipol+quadrupol energy correction           -0.000016 eV
 added-field ion interaction         -0.087101 eV  (added to PSCEN)


 Broyden mixing:
  rms(total) = 0.16930E-01    rms(broyden)= 0.16929E-01
  rms(prec ) = 0.18333E-01
  weight for this iteration     100.00

 eigenvalues of (default mixing * dielectric matrix)
  average eigenvalue GAMMA=   0.6560
  3.0805  1.4154  1.0916  0.7767  0.5911  0.0530  0.1753  0.1612  0.1507  0.1189
  0.1310  0.1269

 Free energy of the ion-electron system (eV)
  ---------------------------------------------------
  alpha Z        PSCENC =      1435.41363837
  Ewald energy   TEWEN  =    164945.13496738
  -Hartree energ DENC   =   -209953.14148487
  -exchange      EXHF   =         0.00000000
  -V(xc)+E(xc)   XCENC  =       674.43454016
  PAW double counting   =     51044.60138178   -52518.79801543
  entropy T*S    EENTRO =         0.00000000
  eigenvalues    EBANDS =     -1371.30102792
  atomic energy  EATOM  =     45286.38514550
  Solvation  Ediel_sol  =         0.00000000
  ---------------------------------------------------
  free energy    TOTEN  =      -457.27085502 eV

  energy without entropy =     -457.27085502  energy(sigma->0) =     -457.27085502


--------------------------------------------------------------------------------------------------------




--------------------------------------- Iteration      1(  18)  ---------------------------------------


    POTLOK:  cpu time    0.2450: real time    0.2463
    SETDIJ:  cpu time    0.0190: real time    0.0182
    EDDIAG:  cpu time    3.6974: real time    3.7007
[...]
   -.346E+02 -.634E+02 -.702E+03   0.349E+02 0.638E+02 0.702E+03   -.330E+00 -.483E+00 0.147E+00   0.830E-04 0.144E-03 0.785E-02
   -.185E+02 -.365E+02 -.701E+03   0.185E+02 0.367E+02 0.701E+03   0.760E-01 -.119E+00 0.516E-01   0.954E-04 -.334E-04 0.807E-02
   -.234E+02 0.563E+01 0.207E+04   0.237E+02 -.550E+01 -.206E+04   -.883E+00 0.165E-01 -.212E+01   -.386E-03 0.172E-03 0.214E-02
   -.394E+02 0.102E+01 -.201E+04   0.400E+02 -.107E+01 0.201E+04   -.594E+00 0.417E-01 0.248E+01   0.360E-03 0.148E-03 0.258E-02
   0.173E+02 -.886E+02 -.727E+03   -.172E+02 0.891E+02 0.727E+03   -.792E-01 -.523E+00 0.211E+00   -.710E-07 -.569E-04 0.817E-02
   -.169E+01 0.117E+02 0.202E+04   0.140E+01 -.116E+02 -.201E+04   0.889E-01 -.287E+00 -.199E+01   -.156E-03 -.176E-04 0.247E-02
   0.192E+02 -.115E+02 -.203E+04   -.192E+02 0.116E+02 0.203E+04   0.397E-02 -.714E-01 0.196E+01   0.260E-03 0.935E-04 0.255E-02
   -.471E+01 -.345E+02 0.704E+03   0.408E+01 0.350E+02 -.704E+03   -.594E+00 0.483E+00 -.941E-01   -.850E-04 0.109E-03 0.807E-02
   0.191E+02 -.253E+02 0.205E+04   -.192E+02 0.253E+02 -.204E+04   0.829E+00 0.102E+00 -.229E+01   0.485E-03 -.100E-03 0.230E-02
   0.321E+02 -.315E+02 -.208E+04   -.327E+02 0.316E+02 0.208E+04   0.552E+00 -.265E-01 0.279E+01   -.433E-03 0.205E-03 0.221E-02
   0.119E+02 -.465E+02 0.730E+03   -.114E+02 0.467E+02 -.730E+03   0.609E+00 -.271E+00 0.658E+00   0.495E-04 0.936E-05 0.812E-02
   0.213E+02 0.343E+02 -.726E+03   -.215E+02 -.343E+02 0.725E+03   0.300E+00 -.317E-01 0.526E-01   0.193E-04 -.113E-03 0.819E-02
   0.158E+02 0.286E+02 -.730E+03   -.156E+02 -.289E+02 0.730E+03   -.292E+00 0.288E+00 0.178E-01   0.815E-04 0.630E-04 0.802E-02
   0.224E+02 -.329E+01 0.202E+04   -.225E+02 0.348E+01 -.202E+04   0.105E+00 -.688E+00 -.246E+01   0.419E-03 -.450E-03 0.230E-02
   0.164E+02 -.243E+02 -.205E+04   -.167E+02 0.249E+02 0.205E+04   0.278E+00 -.614E+00 0.308E+01   -.274E-03 0.196E-03 0.219E-02
   -.205E+02 0.329E+02 -.711E+03   0.206E+02 -.330E+02 0.711E+03   -.922E-01 0.889E-01 0.510E-01   -.188E-03 -.629E-04 0.777E-02
   0.115E+02 -.132E+02 0.205E+04   -.114E+02 0.131E+02 -.205E+04   0.105E+00 0.348E+00 -.237E+01   0.772E-04 0.795E-05 0.225E-02
   -.299E+01 0.138E+02 -.203E+04   0.311E+01 -.136E+02 0.202E+04   -.836E-01 -.123E+00 0.292E+01   -.136E-03 0.713E-04 0.231E-02
   0.204E+02 -.374E+02 0.637E+03   -.203E+02 0.375E+02 -.636E+03   0.461E+00 -.704E+00 -.640E+00   0.178E-03 -.839E-04 0.776E-02
   -.144E+02 0.485E+02 -.721E+03   0.142E+02 -.486E+02 0.720E+03   0.137E+00 0.777E-01 0.725E+00   0.915E-04 -.263E-03 0.786E-02
   -.205E+02 0.131E+02 0.203E+04   0.205E+02 -.135E+02 -.203E+04   -.142E-01 0.918E+00 -.231E+01   -.321E-03 0.410E-03 0.228E-02
   -.120E+02 0.647E+02 -.202E+04   0.118E+02 -.654E+02 0.202E+04   0.135E+00 0.681E+00 0.273E+01   0.128E-03 -.536E-03 0.235E-02
   -.144E+02 0.233E+01 0.201E+04   0.146E+02 -.255E+01 -.201E+04   -.142E+00 0.543E+00 -.229E+01   -.201E-03 0.107E-03 0.236E-02
   -.202E+00 0.135E+02 -.204E+04   0.590E+00 -.140E+02 0.204E+04   -.358E+00 0.466E+00 0.298E+01   0.248E-03 -.397E-03 0.223E-02
   -.141E+02 -.965E+01 0.647E+03   0.140E+02 0.974E+01 -.646E+03   -.444E+00 -.558E-03 -.921E-01   -.154E-03 0.313E-04 0.809E-02
   0.273E+02 -.232E+02 0.640E+03   -.274E+02 0.228E+02 -.640E+03   0.153E+00 -.308E+00 -.542E-01   0.125E-03 -.150E-03 0.813E-02
   -.561E+01 0.243E+02 0.202E+04   0.573E+01 -.240E+02 -.202E+04   -.693E+00 -.402E+00 -.216E+01   -.205E-03 0.349E-04 0.234E-02
   -.119E+02 -.227E+01 -.201E+04   0.125E+02 0.223E+01 0.200E+04   -.501E+00 0.539E-01 0.200E+01   0.289E-03 -.344E-03 0.276E-02
   0.708E+01 0.525E-01 0.204E+04   -.736E+01 -.308E+00 -.204E+04   0.943E+00 -.998E-01 -.228E+01   0.565E-03 -.229E-03 0.236E-02
   0.337E+02 -.233E+01 -.204E+04   -.341E+02 0.208E+01 0.203E+04   0.419E+00 0.251E+00 0.254E+01   -.261E-03 -.108E-03 0.251E-02
   0.172E+02 0.191E+02 0.692E+03   -.169E+02 -.189E+02 -.691E+03   0.381E+00 0.315E+00 0.379E+00   0.234E-03 -.167E-03 0.810E-02
   -.253E+02 0.438E+02 0.605E+03   0.253E+02 -.439E+02 -.605E+03   -.338E+00 0.231E+00 -.959E+00   -.196E-03 -.291E-04 0.771E-02
   -.610E+01 0.411E+02 0.629E+03   0.604E+01 -.409E+02 -.629E+03   -.698E+00 0.559E+00 -.708E+00   -.226E-03 0.400E-04 0.810E-02
   0.265E+02 0.541E+02 -.827E+03   -.265E+02 -.544E+02 0.827E+03   0.750E-01 0.327E+00 0.267E+00   0.161E-03 -.177E-04 0.103E-01
   -.508E+02 0.200E+01 -.851E+03   0.511E+02 -.227E+01 0.851E+03   -.298E+00 0.259E+00 0.166E+00   -.255E-04 -.442E-04 0.990E-02
   0.355E+02 -.572E+02 -.861E+03   -.357E+02 0.573E+02 0.861E+03   0.285E+00 -.178E+00 0.191E+00   0.157E-03 0.457E-04 0.103E-01
   0.479E+02 -.246E+02 -.839E+03   -.480E+02 0.244E+02 0.839E+03   0.310E-01 0.171E+00 0.243E+00   -.212E-03 0.929E-04 0.103E-01
   -.262E+02 0.654E+02 0.870E+03   0.263E+02 -.653E+02 -.869E+03   0.142E+00 0.368E+00 -.506E+00   -.418E-04 0.409E-04 0.972E-02
   0.640E+01 -.171E+02 0.256E+04   -.637E+01 0.171E+02 -.256E+04   -.179E-01 -.151E+00 -.266E+00   0.647E-04 0.425E-04 0.298E-02
   -.244E+02 -.387E+02 -.251E+04   0.244E+02 0.388E+02 0.251E+04   0.558E-01 -.615E-01 -.269E+00   -.225E-03 0.251E-03 0.351E-02
   -.608E+02 -.219E+02 0.875E+03   0.611E+02 0.219E+02 -.875E+03   -.475E+00 -.103E+00 -.429E+00   -.161E-03 0.167E-03 0.971E-02
   0.523E+02 -.641E+02 0.896E+03   -.525E+02 0.642E+02 -.896E+03   0.357E+00 -.286E+00 -.182E+00   0.226E-03 0.115E-03 0.974E-02
   -.410E+02 -.303E+01 0.826E+03   0.410E+02 0.295E+01 -.826E+03   -.210E+00 -.149E+00 -.379E+00   -.180E-03 0.173E-03 0.980E-02
   0.252E+02 0.166E+02 0.254E+04   -.252E+02 -.167E+02 -.254E+04   0.125E+00 -.157E+00 -.946E+00   0.193E-03 -.222E-03 0.285E-02
   0.418E+02 0.244E+02 -.251E+04   -.422E+02 -.244E+02 0.251E+04   0.417E+00 -.472E-01 0.608E+00   -.475E-03 -.313E-04 0.313E-02
   0.220E+02 0.135E+02 0.820E+03   -.221E+02 -.135E+02 -.819E+03   0.436E+00 -.123E+00 -.693E+00   0.245E-03 -.156E-03 0.984E-02
   -.313E+02 0.370E+02 0.253E+04   0.315E+02 -.371E+02 -.253E+04   -.396E+00 0.102E+00 -.757E+00   -.625E-03 0.182E-03 0.287E-02
   -.586E+02 0.313E+02 -.251E+04   0.589E+02 -.312E+02 0.251E+04   -.228E+00 -.134E+00 0.100E+01   0.376E-03 -.297E-03 0.320E-02
 -----------------------------------------------------------------------------------------------
   0.113E+00 -.362E+00 -.133E+01   0.199E-12 -.565E-12 -.182E-11   -.113E+00 0.362E+00 0.978E+00   -.198E-03 -.264E-05 0.355E+00
 
 
 POSITION                                       TOTAL-FORCE (eV/Angst)
 -----------------------------------------------------------------------------------
     -5.00993      8.73708      6.16430        -0.008592      0.004893     -0.006491
      5.07377      0.01080      6.19664         0.007568      0.011354      0.004026
      2.57765      8.72538      6.23541         0.009674     -0.003616      0.014476
      1.29858      2.14258      6.14423         0.023867      0.009829      0.015154
      0.08074      1.41419      2.02548        -0.783030      0.210927      0.147643
      0.02671      1.46261      8.21619         0.025636     -0.003344     -0.013574
      2.49330      1.45451      2.12057         0.221946      0.161909     -1.081032
      2.55696      1.44640      8.21197         0.020346     -0.010422     -0.012701
      1.28611      0.70882      4.08611        -0.491427      0.083037      0.587467
      5.06166      1.44930      2.10726        -0.035711     -0.057052     -0.867567
      5.11492      1.54953      8.23552         0.054812      0.001138      0.026766
      3.82589      0.76557      4.08268         0.067619     -0.841029      0.971298
      7.51557      1.45812      2.08229         0.579806     -0.056625     -0.005926
      7.61282      1.47852      8.21591        -0.018080     -0.001337     -0.013885
      6.32723      0.72925      4.12657         0.082026     -0.190328      0.193974
      7.57055      4.28735      6.26760        -0.002343     -0.010567     -0.027220
      0.00046      4.33590      6.18687         0.020286      0.001948     -0.018984
      2.52927      4.34501      6.19267        -0.016292     -0.017375     -0.016186
      1.32139      3.64145      2.00000        -0.575025      0.145108      0.302142
      1.27444      3.67458      8.28849         0.006197     -0.008459      0.005354
      5.06486      4.28483      6.27776         0.004631     -0.002273     -0.005026
      3.79377      3.69800      2.10298        -0.197175     -0.163754     -1.017565
      3.76746      3.71166      8.32719         0.009010      0.030553     -0.009005
      2.59838      2.86105      4.09767        -1.230469      0.960646      0.389716
      6.25293      3.64956      2.05533         0.719315      0.110078     -0.222521
      6.33931      3.66236      8.41171         0.016126     -0.021253      0.002740
      5.00304      2.93728      4.06641         1.165050     -0.137351      1.257252
     -3.73297      6.52368      6.27629         0.044002      0.003513     -0.014467
     -1.26692      6.55366      6.25429        -0.005209      0.015534     -0.017955
     -2.52172      5.87475      2.05974        -0.015587     -0.498604     -0.592739
     -2.45644      5.83372      8.42836         0.032408      0.022637     -0.004121
      1.24937      6.54473      6.22673        -0.009085      0.016306     -0.029152
     -0.00626      5.79145      2.01686         0.167805      0.327489      0.399625
      0.03351      5.87230      8.35539         0.033378      0.036968     -0.006755
     -1.31907      5.15820      4.16840         0.567950     -0.557597     -0.221889
      3.85499      6.50439      6.30389         0.020123     -0.002917     -0.004372
      2.52387      5.78801      2.04538        -0.084794      0.550040     -0.131792
      2.51928      5.91945      8.37193        -0.041229     -0.021483     -0.022866
      5.06734      5.79704      2.07745         0.036753      0.324775     -0.570039
      5.11678      5.83281      8.43035         0.030602      0.017180     -0.052019
      3.83733      5.12538      4.11627        -0.588846      0.091839      0.736259
      6.32391      5.14322      4.15339         0.083308     -0.782913      0.311547
     -3.76296      8.02446      2.09184        -0.576013     -0.132291     -0.771750
     -3.71768      7.98937      8.25572         0.034522      0.014526      0.002094
     -1.33707      8.05044      2.07535         0.657325     -0.355641     -0.247118
     -1.17754      8.03749      8.29895         0.007123     -0.000647      0.006078
     -2.55850      7.28170      4.08151         0.641607      0.476411      1.096080
      2.56196      7.27552      4.18795        -0.403945      0.101272     -0.495673
      5.10630      7.24251      4.15663        -0.758517      0.755124     -0.133112
     -2.47901      8.74287      6.15511         0.013789      0.027767     -0.003612
      8.85462      2.15680      6.14957         0.004698     -0.010288      0.029257
      3.82202      2.16003      6.19064         0.019495      0.000054      0.018114
      6.33569      2.16704      6.16729         0.012892     -0.017469      0.028481
      8.84357      0.69437      4.13082         0.222173      0.402240     -0.291455
     -1.27338      3.65234      2.06082         0.009534     -0.153738      0.484337
     -1.22957      3.63970      8.22278         0.018998      0.022539     -0.022798
      0.03628      2.92806      4.13239        -0.153243     -0.130258     -0.399290
      7.55782      2.94639      4.12218         0.208439     -0.178024     -0.132262
      1.28295      5.12031      4.13910        -0.184781     -0.229481     -0.214091
      1.25660      8.01495      2.06421         0.067100     -0.212186      0.400483
      1.31300      8.08546      8.26333         0.012327      0.001057      0.005432
     -0.02502      7.30581      4.14419         0.358381     -0.130462     -0.261731
      3.80919      8.00883      2.06403        -0.158343     -0.001365      0.511231
      3.84020      8.05374      8.27375        -0.000913      0.001457      0.011716
 -----------------------------------------------------------------------------------
    total drift:                                0.000560     -0.000702      0.000245


--------------------------------------------------------------------------------------------------------



  FREE ENERGIE OF THE ION-ELECTRON SYSTEM (eV)
  ---------------------------------------------------
  free  energy   TOTEN  =      -457.27995817 eV

  energy  without entropy=     -457.27995817  energy(sigma->0) =     -457.27995817
 


--------------------------------------------------------------------------------------------------------


    POTLOK:  cpu time    0.2760: real time    0.3007


--------------------------------------------------------------------------------------------------------


     LOOP+:  cpu time  822.8599: real time  829.4801
    4ORBIT:  cpu time    0.0000: real time    0.0000
 


 total charge     
 
# of ion       s       p       d       tot
------------------------------------------
    1        0.474   0.502   6.212   7.188
    2        0.473   0.501   6.199   7.173
    3        0.475   0.500   6.212   7.187
    4        0.478   0.507   6.218   7.203
    5        0.469   0.375   6.160   7.004
    6        0.471   0.393   6.169   7.034
    7        0.503   0.450   6.238   7.191
    8        0.472   0.397   6.172   7.041
    9        0.491   0.531   6.245   7.268
   10        0.492   0.421   6.214   7.127
   11        0.474   0.401   6.178   7.054
   12        0.494   0.539   6.251   7.283
   13        0.467   0.376   6.144   6.988
   14        0.472   0.398   6.169   7.039
   15        0.475   0.501   6.216   7.193
   16        0.475   0.501   6.198   7.173
   17        0.474   0.497   6.201   7.172
   18        0.473   0.501   6.198   7.172
   19        0.472   0.391   6.166   7.029
   20        0.473   0.394   6.177   7.044
   21        0.473   0.505   6.198   7.177
   22        0.503   0.452   6.229   7.184
   23        0.474   0.396   6.182   7.051
   24        0.491   0.529   6.248   7.267
   25        0.479   0.405   6.188   7.072
   26        0.473   0.383   6.180   7.037
   27        0.493   0.535   6.244   7.272
   28        0.477   0.509   6.219   7.205
   29        0.475   0.505   6.215   7.195
   30        0.485   0.410   6.195   7.089
   31        0.473   0.387   6.170   7.029
   32        0.470   0.495   6.205   7.170
   33        0.463   0.368   6.141   6.972
   34        0.474   0.386   6.185   7.045
   35        0.470   0.490   6.201   7.160
   36        0.472   0.500   6.204   7.176
   37        0.476   0.395   6.169   7.040
   38        0.470   0.386   6.157   7.013
   39        0.487   0.417   6.203   7.107
   40        0.471   0.383   6.166   7.020
   41        0.490   0.533   6.234   7.257
   42        0.489   0.533   6.236   7.258
   43        0.496   0.439   6.220   7.155
   44        0.472   0.398   6.184   7.054
   45        0.481   0.408   6.204   7.093
   46        0.471   0.392   6.183   7.046
   47        0.494   0.541   6.253   7.288
   48        0.465   0.481   6.188   7.134
   49        0.488   0.524   6.238   7.250
   50        0.514   0.525   8.314   9.353
   51        0.507   0.509   8.316   9.331
   52        0.518   0.531   8.322   9.370
   53        0.516   0.525   8.316   9.356
   54        0.498   0.492   8.307   9.296
   55        0.494   0.367   8.305   9.166
   56        0.520   0.416   8.317   9.252
   57        0.489   0.472   8.303   9.264
   58        0.496   0.486   8.312   9.294
   59        0.500   0.500   8.306   9.306
   60        0.496   0.372   8.308   9.177
   61        0.515   0.414   8.312   9.241
   62        0.501   0.497   8.312   9.310
   63        0.493   0.371   8.307   9.171
   64        0.512   0.401   8.315   9.229
--------------------------------------------------
tot         31.011  29.039 428.450 488.500
 


 magnetization (x)
 
# of ion       s       p       d       tot
------------------------------------------
    1       -0.010  -0.035   2.600   2.555
    2       -0.008  -0.032   2.654   2.614
    3       -0.010  -0.027   2.608   2.571
    4       -0.013  -0.040   2.580   2.528
    5        0.001  -0.005   2.767   2.763
    6       -0.002  -0.014   2.734   2.718
    7       -0.015  -0.030   2.558   2.512
    8       -0.007  -0.024   2.707   2.676
    9       -0.016  -0.043   2.516   2.456
   10       -0.012  -0.017   2.633   2.605
   11       -0.004  -0.018   2.704   2.682
   12       -0.017  -0.045   2.513   2.450
   13        0.004  -0.003   2.812   2.813
   14        0.003  -0.009   2.739   2.733
   15       -0.010  -0.031   2.588   2.548
   16       -0.011  -0.035   2.656   2.610
   17       -0.011  -0.033   2.632   2.588
   18       -0.015  -0.046   2.641   2.581
   19       -0.001  -0.016   2.746   2.730
   20       -0.009  -0.023   2.691   2.658
   21       -0.016  -0.049   2.648   2.583
   22       -0.015  -0.035   2.587   2.537
   23       -0.010  -0.026   2.681   2.645
   24       -0.015  -0.040   2.534   2.479
   25       -0.005  -0.018   2.695   2.672
   26       -0.005  -0.015   2.708   2.688
   27       -0.015  -0.042   2.562   2.505
   28       -0.017  -0.050   2.587   2.520
   29       -0.017  -0.049   2.586   2.520
   30       -0.010  -0.021   2.670   2.639
   31       -0.005  -0.018   2.732   2.710
   32       -0.013  -0.039   2.626   2.573
   33        0.001  -0.006   2.801   2.796
   34       -0.004  -0.011   2.682   2.667
   35       -0.009  -0.030   2.635   2.596
   36       -0.017  -0.047   2.615   2.551
   37       -0.004  -0.016   2.736   2.715
   38       -0.004  -0.019   2.762   2.738
   39       -0.010  -0.020   2.660   2.629
   40       -0.006  -0.017   2.747   2.725
   41       -0.019  -0.053   2.545   2.474
   42       -0.018  -0.052   2.550   2.480
   43       -0.011  -0.028   2.599   2.559
   44       -0.006  -0.021   2.680   2.653
   45       -0.007  -0.017   2.641   2.617
   46       -0.005  -0.019   2.683   2.660
   47       -0.018  -0.049   2.506   2.439
   48       -0.006  -0.026   2.668   2.635
   49       -0.017  -0.042   2.531   2.472
   50       -0.034  -0.070   0.745   0.640
   51       -0.026  -0.051   0.746   0.669
   52       -0.032  -0.066   0.743   0.645
   53       -0.032  -0.064   0.762   0.667
   54       -0.028  -0.055   0.748   0.665
   55       -0.033  -0.033   0.707   0.641
   56       -0.036  -0.040   0.706   0.631
   57       -0.025  -0.046   0.755   0.684
   58       -0.026  -0.048   0.733   0.659
   59       -0.032  -0.068   0.755   0.654
   60       -0.031  -0.033   0.721   0.658
   61       -0.034  -0.046   0.726   0.646
   62       -0.031  -0.060   0.727   0.635
   63       -0.031  -0.034   0.731   0.665
   64       -0.035  -0.038   0.718   0.645
--------------------------------------------------
tot         -0.931  -2.155 140.756 137.669
 
 BZINTS: Fermi energy: -0.289845;542.000000 electrons
         Band energy:***********;  BLOECHL correction: -0.019425

 total amount of memory used by VASP MPI-rank0   113587. kBytes
=======================================================================

   base      :      30000. kBytes
   nonlr-proj:      13178. kBytes
   fftplans  :       6403. kBytes
   grid      :      16455. kBytes
   one-center:         93. kBytes
   wavefun   :      47458. kBytes
 
  
  
 General timing and accounting informations for this job:
 ========================================================
  
                  Total CPU time used (sec):      937.114
                            User time (sec):      874.861
                          System time (sec):       62.253
                         Elapsed time (sec):      955.007
  
                   Maximum memory used (kb):      163180.
                   Average memory used (kb):           0.
  
                          Minor page faults:       164976
                          Major page faults:            0
                 Voluntary context switches:         9087
