  64  64   1   0
  0.2948833E+02  0.1011163E-08  0.1011163E-08  0.2131362E-08  0.5000000E-15
  1.000000000000000E-004
  CAR 
 SQS-NiFe                                
      9.16806001    -10.44053673  301     -0.25978106      1.00000000
    -10.441  0.0000E+00  0.0000E+00  0.0000E+00  0.0000E+00
    -10.375  0.0000E+00  0.0000E+00  0.0000E+00  0.0000E+00
    -10.310  0.0000E+00  0.0000E+00  0.0000E+00  0.0000E+00
    -10.244  0.0000E+00  0.0000E+00  0.0000E+00  0.0000E+00
    -10.179  0.0000E+00  0.0000E+00  0.0000E+00  0.0000E+00
    -10.114  0.0000E+00  0.0000E+00  0.0000E+00  0.0000E+00
    -10.048 -0.3334E-29  0.0000E+00 -0.2179E-30  0.0000E+00
     -9.983 -0.5469E-27  0.0000E+00 -0.3596E-28  0.0000E+00
     -9.918 -0.7266E-25 -0.8290E-31 -0.4785E-26 -0.5419E-32
     -9.852 -0.7780E-23 -0.1582E-28 -0.5133E-24 -0.1039E-29
     -9.787 -0.6710E-21 -0.2444E-26 -0.4437E-22 -0.1608E-27
     -9.722 -0.4660E-19 -0.3042E-24 -0.3091E-20 -0.2005E-25
     -9.656 -0.2606E-17 -0.3052E-22 -0.1734E-18 -0.2015E-23
     -9.591 -0.1134E-15 -0.2466E-20 -0.7587E-17 -0.1632E-21
     -9.525 -0.4099E-14 -0.1604E-18 -0.2755E-15 -0.1065E-19
     -9.460 -0.1186E-12 -0.8402E-17 -0.8030E-14 -0.5598E-18
     -9.395 -0.2754E-11 -0.3425E-15 -0.1880E-12 -0.2295E-16
     -9.329 -0.5122E-10 -0.1157E-13 -0.3536E-11 -0.7794E-15
     -9.264 -0.7616E-09 -0.3135E-12 -0.5332E-10 -0.2127E-13
     -9.199 -0.9035E-08 -0.6807E-11 -0.6439E-09 -0.4662E-12
     -9.133 -0.8523E-07 -0.1184E-09 -0.6215E-08 -0.8203E-11
     -9.068 -0.6365E-06 -0.1645E-08 -0.4782E-07 -0.1157E-09
     -9.003 -0.3738E-05 -0.1821E-07 -0.2922E-06 -0.1306E-08
     -8.937 -0.1711E-04 -0.1602E-06 -0.1410E-05 -0.1178E-07
     -8.872 -0.6002E-04 -0.1114E-05 -0.5333E-05 -0.8457E-07
     -8.806 -0.1571E-03 -0.6075E-05 -0.1560E-04 -0.4816E-06
     -8.741 -0.2890E-03 -0.2571E-04 -0.3449E-04 -0.2162E-05
     -8.676 -0.3122E-03 -0.8288E-04 -0.5490E-04 -0.7580E-05
     -8.610  0.2007E-04 -0.1968E-03 -0.5359E-04 -0.2044E-04
     -8.545  0.8646E-03 -0.3181E-03  0.2921E-05 -0.4123E-04
     -8.480  0.2338E-02 -0.2604E-03  0.1557E-03 -0.5825E-04
     -8.414  0.5192E-02  0.2183E-03  0.4951E-03 -0.4399E-04
     -8.349  0.1090E-01  0.1228E-02  0.1207E-02  0.3628E-04
     -8.284  0.1939E-01  0.2991E-02  0.2475E-02  0.2318E-03
     -8.218  0.2660E-01  0.6555E-02  0.4213E-02  0.6602E-03
     -8.153  0.2681E-01  0.1326E-01  0.5966E-02  0.1527E-02
     -8.088  0.1894E-01  0.2196E-01  0.7204E-02  0.2963E-02
     -8.022  0.8593E-02  0.2756E-01  0.7765E-02  0.4764E-02
     -7.957  0.3171E-02  0.2519E-01  0.7973E-02  0.6411E-02
     -7.891  0.5856E-02  0.1599E-01  0.8355E-02  0.7456E-02
     -7.826  0.1428E-01  0.6762E-02  0.9289E-02  0.7898E-02
     -7.761  0.2345E-01  0.3648E-02  0.1082E-01  0.8136E-02
     -7.695  0.2994E-01  0.7572E-02  0.1278E-01  0.8631E-02
     -7.630  0.3342E-01  0.1524E-01  0.1496E-01  0.9627E-02
     -7.565  0.3407E-01  0.2288E-01  0.1719E-01  0.1112E-01
     -7.499  0.3042E-01  0.2886E-01  0.1918E-01  0.1301E-01
     -7.434  0.2179E-01  0.3305E-01  0.2060E-01  0.1517E-01
     -7.369  0.1129E-01  0.3429E-01  0.2134E-01  0.1741E-01
     -7.303  0.3749E-02  0.3018E-01  0.2159E-01  0.1938E-01
     -7.238  0.2246E-02  0.2069E-01  0.2173E-01  0.2074E-01
     -7.172  0.8106E-02  0.9927E-02  0.2226E-01  0.2138E-01
     -7.107  0.2208E-01  0.2820E-02  0.2371E-01  0.2157E-01
     -7.042  0.4228E-01  0.1621E-02  0.2647E-01  0.2168E-01
     -6.976  0.6136E-01  0.6764E-02  0.3048E-01  0.2212E-01
     -6.911  0.6892E-01  0.1880E-01  0.3498E-01  0.2335E-01
     -6.846  0.6030E-01  0.3690E-01  0.3893E-01  0.2576E-01
     -6.780  0.4325E-01  0.5586E-01  0.4175E-01  0.2941E-01
     -6.715  0.3264E-01  0.6676E-01  0.4389E-01  0.3377E-01
     -6.650  0.3645E-01  0.6321E-01  0.4627E-01  0.3790E-01
     -6.584  0.4897E-01  0.4823E-01  0.4947E-01  0.4106E-01
     -6.519  0.5837E-01  0.3343E-01  0.5328E-01  0.4324E-01
     -6.453  0.5733E-01  0.2906E-01  0.5703E-01  0.4514E-01
     -6.388  0.4568E-01  0.3577E-01  0.6002E-01  0.4748E-01
     -6.323  0.2757E-01  0.4665E-01  0.6182E-01  0.5053E-01
     -6.257  0.9479E-02  0.5419E-01  0.6244E-01  0.5407E-01
     -6.192 -0.8253E-03  0.5366E-01  0.6238E-01  0.5758E-01
     -6.127  0.4253E-02  0.4348E-01  0.6266E-01  0.6042E-01
     -6.061  0.2915E-01  0.2638E-01  0.6457E-01  0.6214E-01
     -5.996  0.6952E-01  0.9053E-02  0.6911E-01  0.6273E-01
     -5.931  0.1086E+00 -0.1378E-02  0.7621E-01  0.6264E-01
     -5.865  0.1258E+00 -0.2647E-03  0.8443E-01  0.6263E-01
     -5.800  0.1154E+00  0.1466E-01  0.9197E-01  0.6358E-01
     -5.734  0.9378E-01  0.4286E-01  0.9810E-01  0.6639E-01
     -5.669  0.8072E-01  0.7783E-01  0.1034E+00  0.7147E-01
     -5.604  0.7593E-01  0.1058E+00  0.1083E+00  0.7839E-01
     -5.538  0.6367E-01  0.1124E+00  0.1125E+00  0.8574E-01
     -5.473  0.3870E-01  0.9388E-01  0.1150E+00  0.9187E-01
     -5.408  0.1960E-01  0.6286E-01  0.1163E+00  0.9598E-01
     -5.342  0.3507E-01  0.3951E-01  0.1186E+00  0.9857E-01
     -5.277  0.1002E+00  0.3652E-01  0.1252E+00  0.1010E+00
     -5.212  0.2024E+00  0.5037E-01  0.1384E+00  0.1042E+00
     -5.146  0.3038E+00  0.6486E-01  0.1582E+00  0.1085E+00
     -5.081  0.3618E+00  0.6427E-01  0.1819E+00  0.1127E+00
     -5.015  0.3562E+00  0.4655E-01  0.2052E+00  0.1157E+00
     -4.950  0.3044E+00  0.2490E-01  0.2251E+00  0.1174E+00
     -4.885  0.2503E+00  0.1657E-01  0.2414E+00  0.1184E+00
     -4.819  0.2351E+00  0.3098E-01  0.2568E+00  0.1205E+00
     -4.754  0.2722E+00  0.6638E-01  0.2746E+00  0.1248E+00
     -4.689  0.3428E+00  0.1117E+00  0.2970E+00  0.1321E+00
     -4.623  0.4153E+00  0.1494E+00  0.3241E+00  0.1419E+00
     -4.558  0.4716E+00  0.1638E+00  0.3550E+00  0.1526E+00
     -4.493  0.5138E+00  0.1515E+00  0.3885E+00  0.1625E+00
     -4.427  0.5507E+00  0.1235E+00  0.4245E+00  0.1706E+00
     -4.362  0.5828E+00  0.9475E-01  0.4626E+00  0.1767E+00
     -4.297  0.6005E+00  0.7404E-01  0.5019E+00  0.1816E+00
     -4.231  0.5944E+00  0.6630E-01  0.5407E+00  0.1859E+00
     -4.166  0.5682E+00  0.7490E-01  0.5779E+00  0.1908E+00
     -4.100  0.5389E+00  0.9792E-01  0.6131E+00  0.1972E+00
     -4.035  0.5230E+00  0.1284E+00  0.6473E+00  0.2056E+00
     -3.970  0.5223E+00  0.1611E+00  0.6814E+00  0.2161E+00
     -3.904  0.5270E+00  0.1939E+00  0.7159E+00  0.2288E+00
     -3.839  0.5285E+00  0.2220E+00  0.7504E+00  0.2433E+00
     -3.774  0.5264E+00  0.2395E+00  0.7848E+00  0.2590E+00
     -3.708  0.5264E+00  0.2458E+00  0.8192E+00  0.2750E+00
     -3.643  0.5345E+00  0.2473E+00  0.8542E+00  0.2912E+00
     -3.578  0.5526E+00  0.2507E+00  0.8903E+00  0.3076E+00
     -3.512  0.5740E+00  0.2589E+00  0.9278E+00  0.3245E+00
     -3.447  0.5850E+00  0.2700E+00  0.9660E+00  0.3422E+00
     -3.381  0.5750E+00  0.2803E+00  0.1004E+01  0.3605E+00
     -3.316  0.5489E+00  0.2882E+00  0.1039E+01  0.3793E+00
     -3.251  0.5307E+00  0.2980E+00  0.1074E+01  0.3988E+00
     -3.185  0.5495E+00  0.3161E+00  0.1110E+01  0.4195E+00
     -3.120  0.6178E+00  0.3456E+00  0.1150E+01  0.4421E+00
     -3.055  0.7217E+00  0.3828E+00  0.1198E+01  0.4671E+00
     -2.989  0.8314E+00  0.4158E+00  0.1252E+01  0.4943E+00
     -2.924  0.9224E+00  0.4313E+00  0.1312E+01  0.5224E+00
     -2.859  0.9881E+00  0.4264E+00  0.1377E+01  0.5503E+00
     -2.793  0.1035E+01  0.4134E+00  0.1445E+01  0.5773E+00
     -2.728  0.1073E+01  0.4080E+00  0.1515E+01  0.6040E+00
     -2.662  0.1104E+01  0.4175E+00  0.1587E+01  0.6313E+00
     -2.597  0.1123E+01  0.4384E+00  0.1660E+01  0.6599E+00
     -2.532  0.1119E+01  0.4604E+00  0.1733E+01  0.6900E+00
     -2.466  0.1076E+01  0.4701E+00  0.1804E+01  0.7208E+00
     -2.401  0.9883E+00  0.4612E+00  0.1868E+01  0.7509E+00
     -2.336  0.8761E+00  0.4421E+00  0.1926E+01  0.7798E+00
     -2.270  0.7903E+00  0.4315E+00  0.1977E+01  0.8080E+00
     -2.205  0.7751E+00  0.4424E+00  0.2028E+01  0.8369E+00
     -2.140  0.8219E+00  0.4708E+00  0.2082E+01  0.8677E+00
     -2.074  0.8707E+00  0.5009E+00  0.2139E+01  0.9004E+00
     -2.009  0.8657E+00  0.5183E+00  0.2195E+01  0.9343E+00
     -1.943  0.8085E+00  0.5217E+00  0.2248E+01  0.9684E+00
     -1.878  0.7549E+00  0.5221E+00  0.2297E+01  0.1003E+01
     -1.813  0.7593E+00  0.5314E+00  0.2347E+01  0.1037E+01
     -1.747  0.8277E+00  0.5522E+00  0.2401E+01  0.1073E+01
     -1.682  0.9196E+00  0.5796E+00  0.2461E+01  0.1111E+01
     -1.617  0.9845E+00  0.6108E+00  0.2526E+01  0.1151E+01
     -1.551  0.9952E+00  0.6470E+00  0.2591E+01  0.1193E+01
     -1.486  0.9603E+00  0.6861E+00  0.2653E+01  0.1238E+01
     -1.421  0.9133E+00  0.7197E+00  0.2713E+01  0.1285E+01
     -1.355  0.8853E+00  0.7379E+00  0.2771E+01  0.1334E+01
     -1.290  0.8836E+00  0.7364E+00  0.2829E+01  0.1382E+01
     -1.224  0.8978E+00  0.7199E+00  0.2887E+01  0.1429E+01
     -1.159  0.9208E+00  0.6980E+00  0.2948E+01  0.1474E+01
     -1.094  0.9537E+00  0.6790E+00  0.3010E+01  0.1519E+01
     -1.028  0.9888E+00  0.6653E+00  0.3075E+01  0.1562E+01
     -0.963  0.9986E+00  0.6556E+00  0.3140E+01  0.1605E+01
     -0.898  0.9538E+00  0.6492E+00  0.3202E+01  0.1648E+01
     -0.832  0.8516E+00  0.6468E+00  0.3258E+01  0.1690E+01
     -0.767  0.7184E+00  0.6481E+00  0.3305E+01  0.1732E+01
     -0.702  0.5828E+00  0.6515E+00  0.3343E+01  0.1775E+01
     -0.636  0.4565E+00  0.6571E+00  0.3373E+01  0.1818E+01
     -0.571  0.3417E+00  0.6677E+00  0.3395E+01  0.1861E+01
     -0.506  0.2448E+00  0.6835E+00  0.3411E+01  0.1906E+01
     -0.440  0.1732E+00  0.6971E+00  0.3422E+01  0.1952E+01
     -0.375  0.1267E+00  0.6972E+00  0.3431E+01  0.1997E+01
     -0.309  0.9927E-01  0.6782E+00  0.3437E+01  0.2041E+01
     -0.244  0.8746E-01  0.6447E+00  0.3443E+01  0.2084E+01
     -0.179  0.9091E-01  0.6091E+00  0.3449E+01  0.2123E+01
     -0.113  0.1081E+00  0.5828E+00  0.3456E+01  0.2162E+01
     -0.048  0.1340E+00  0.5700E+00  0.3465E+01  0.2199E+01
      0.017  0.1589E+00  0.5681E+00  0.3475E+01  0.2236E+01
      0.083  0.1706E+00  0.5712E+00  0.3486E+01  0.2273E+01
      0.148  0.1620E+00  0.5737E+00  0.3497E+01  0.2311E+01
      0.213  0.1379E+00  0.5719E+00  0.3506E+01  0.2348E+01
      0.279  0.1106E+00  0.5650E+00  0.3513E+01  0.2385E+01
      0.344  0.9024E-01  0.5548E+00  0.3519E+01  0.2421E+01
      0.410  0.7810E-01  0.5454E+00  0.3524E+01  0.2457E+01
      0.475  0.7107E-01  0.5413E+00  0.3529E+01  0.2492E+01
      0.540  0.6732E-01  0.5441E+00  0.3533E+01  0.2528E+01
      0.606  0.6646E-01  0.5519E+00  0.3537E+01  0.2564E+01
      0.671  0.6541E-01  0.5620E+00  0.3542E+01  0.2601E+01
      0.736  0.5887E-01  0.5734E+00  0.3545E+01  0.2638E+01
      0.802  0.4769E-01  0.5861E+00  0.3549E+01  0.2677E+01
      0.867  0.4341E-01  0.5991E+00  0.3551E+01  0.2716E+01
      0.932  0.5874E-01  0.6112E+00  0.3555E+01  0.2756E+01
      0.998  0.9378E-01  0.6223E+00  0.3561E+01  0.2796E+01
      1.063  0.1345E+00  0.6323E+00  0.3570E+01  0.2838E+01
      1.129  0.1629E+00  0.6413E+00  0.3581E+01  0.2880E+01
      1.194  0.1680E+00  0.6503E+00  0.3592E+01  0.2922E+01
      1.259  0.1542E+00  0.6615E+00  0.3602E+01  0.2965E+01
      1.325  0.1426E+00  0.6769E+00  0.3611E+01  0.3010E+01
      1.390  0.1534E+00  0.6959E+00  0.3621E+01  0.3055E+01
      1.455  0.1811E+00  0.7150E+00  0.3633E+01  0.3102E+01
      1.521  0.1946E+00  0.7297E+00  0.3646E+01  0.3149E+01
      1.586  0.1705E+00  0.7374E+00  0.3657E+01  0.3198E+01
      1.651  0.1180E+00  0.7379E+00  0.3665E+01  0.3246E+01
      1.717  0.6648E-01  0.7294E+00  0.3669E+01  0.3294E+01
      1.782  0.3551E-01  0.7043E+00  0.3671E+01  0.3340E+01
      1.848  0.2303E-01  0.6531E+00  0.3673E+01  0.3382E+01
      1.913  0.1860E-01  0.5762E+00  0.3674E+01  0.3420E+01
      1.978  0.1988E-01  0.4893E+00  0.3675E+01  0.3452E+01
      2.044  0.3352E-01  0.4115E+00  0.3678E+01  0.3479E+01
      2.109  0.6331E-01  0.3467E+00  0.3682E+01  0.3501E+01
      2.174  0.1014E+00  0.2821E+00  0.3688E+01  0.3520E+01
      2.240  0.1311E+00  0.2097E+00  0.3697E+01  0.3534E+01
      2.305  0.1376E+00  0.1410E+00  0.3706E+01  0.3543E+01
      2.370  0.1165E+00  0.9667E-01  0.3713E+01  0.3549E+01
      2.436  0.7790E-01  0.8500E-01  0.3719E+01  0.3555E+01
      2.501  0.4381E-01  0.9959E-01  0.3721E+01  0.3561E+01
      2.566  0.3838E-01  0.1296E+00  0.3724E+01  0.3570E+01
      2.632  0.7291E-01  0.1640E+00  0.3729E+01  0.3580E+01
      2.697  0.1345E+00  0.1893E+00  0.3737E+01  0.3593E+01
      2.763  0.1897E+00  0.1952E+00  0.3750E+01  0.3606E+01
      2.828  0.2044E+00  0.1832E+00  0.3763E+01  0.3617E+01
      2.893  0.1688E+00  0.1651E+00  0.3774E+01  0.3628E+01
      2.959  0.1028E+00  0.1532E+00  0.3781E+01  0.3638E+01
      3.024  0.3865E-01  0.1502E+00  0.3784E+01  0.3648E+01
      3.089 -0.1449E-02  0.1486E+00  0.3783E+01  0.3658E+01
      3.155 -0.9676E-02  0.1407E+00  0.3783E+01  0.3667E+01
      3.220  0.1684E-01  0.1290E+00  0.3784E+01  0.3675E+01
      3.285  0.7905E-01  0.1238E+00  0.3789E+01  0.3684E+01
      3.351  0.1638E+00  0.1298E+00  0.3800E+01  0.3692E+01
      3.416  0.2360E+00  0.1373E+00  0.3815E+01  0.3701E+01
      3.482  0.2562E+00  0.1301E+00  0.3832E+01  0.3710E+01
      3.547  0.2130E+00  0.1030E+00  0.3846E+01  0.3716E+01
      3.612  0.1342E+00  0.6963E-01  0.3855E+01  0.3721E+01
      3.678  0.6300E-01  0.5336E-01  0.3859E+01  0.3724E+01
      3.743  0.2479E-01  0.6578E-01  0.3860E+01  0.3729E+01
      3.808  0.1560E-01  0.9560E-01  0.3861E+01  0.3735E+01
      3.874  0.1725E-01  0.1190E+00  0.3863E+01  0.3743E+01
      3.939  0.1781E-01  0.1213E+00  0.3864E+01  0.3751E+01
      4.004  0.1744E-01  0.1080E+00  0.3865E+01  0.3758E+01
      4.070  0.2059E-01  0.9551E-01  0.3866E+01  0.3764E+01
      4.135  0.2920E-01  0.9477E-01  0.3868E+01  0.3770E+01
      4.201  0.4254E-01  0.1062E+00  0.3871E+01  0.3777E+01
      4.266  0.5896E-01  0.1278E+00  0.3875E+01  0.3785E+01
      4.331  0.7737E-01  0.1590E+00  0.3880E+01  0.3796E+01
      4.397  0.9913E-01  0.1928E+00  0.3886E+01  0.3808E+01
      4.462  0.1245E+00  0.2151E+00  0.3894E+01  0.3822E+01
      4.527  0.1447E+00  0.2150E+00  0.3904E+01  0.3836E+01
      4.593  0.1436E+00  0.1943E+00  0.3913E+01  0.3849E+01
      4.658  0.1156E+00  0.1620E+00  0.3921E+01  0.3860E+01
      4.723  0.7790E-01  0.1256E+00  0.3926E+01  0.3868E+01
      4.789  0.5908E-01  0.8943E-01  0.3930E+01  0.3874E+01
      4.854  0.7371E-01  0.5997E-01  0.3935E+01  0.3878E+01
      4.920  0.1089E+00  0.4581E-01  0.3942E+01  0.3881E+01
      4.985  0.1358E+00  0.5221E-01  0.3951E+01  0.3884E+01
      5.050  0.1346E+00  0.7554E-01  0.3959E+01  0.3889E+01
      5.116  0.1079E+00  0.1037E+00  0.3966E+01  0.3896E+01
      5.181  0.7335E-01  0.1225E+00  0.3971E+01  0.3904E+01
      5.246  0.4900E-01  0.1255E+00  0.3974E+01  0.3912E+01
      5.312  0.4150E-01  0.1186E+00  0.3977E+01  0.3920E+01
      5.377  0.4410E-01  0.1144E+00  0.3980E+01  0.3927E+01
      5.442  0.4767E-01  0.1161E+00  0.3983E+01  0.3935E+01
      5.508  0.5508E-01  0.1125E+00  0.3987E+01  0.3942E+01
      5.573  0.7760E-01  0.9264E-01  0.3992E+01  0.3948E+01
      5.639  0.1149E+00  0.6405E-01  0.3999E+01  0.3952E+01
      5.704  0.1487E+00  0.4966E-01  0.4009E+01  0.3956E+01
      5.769  0.1615E+00  0.6567E-01  0.4020E+01  0.3960E+01
      5.835  0.1543E+00  0.1058E+00  0.4030E+01  0.3967E+01
      5.900  0.1415E+00  0.1460E+00  0.4039E+01  0.3976E+01
      5.965  0.1348E+00  0.1614E+00  0.4048E+01  0.3987E+01
      6.031  0.1358E+00  0.1433E+00  0.4057E+01  0.3996E+01
      6.096  0.1391E+00  0.1040E+00  0.4066E+01  0.4003E+01
      6.161  0.1394E+00  0.6950E-01  0.4075E+01  0.4008E+01
      6.227  0.1357E+00  0.6224E-01  0.4084E+01  0.4012E+01
      6.292  0.1295E+00  0.8703E-01  0.4092E+01  0.4017E+01
      6.357  0.1221E+00  0.1272E+00  0.4100E+01  0.4026E+01
      6.423  0.1126E+00  0.1560E+00  0.4107E+01  0.4036E+01
      6.488  0.9658E-01  0.1556E+00  0.4114E+01  0.4046E+01
      6.554  0.7084E-01  0.1304E+00  0.4118E+01  0.4055E+01
      6.619  0.3970E-01  0.1014E+00  0.4121E+01  0.4061E+01
      6.684  0.1353E-01  0.8678E-01  0.4122E+01  0.4067E+01
      6.750 -0.7103E-03  0.8602E-01  0.4122E+01  0.4073E+01
      6.815 -0.4431E-02  0.8756E-01  0.4122E+01  0.4078E+01
      6.880 -0.3287E-02  0.8731E-01  0.4121E+01  0.4084E+01
      6.946 -0.1520E-02  0.9239E-01  0.4121E+01  0.4090E+01
      7.011 -0.5099E-03  0.1064E+00  0.4121E+01  0.4097E+01
      7.076 -0.1304E-03  0.1187E+00  0.4121E+01  0.4105E+01
      7.142 -0.2598E-04  0.1135E+00  0.4121E+01  0.4112E+01
      7.207 -0.4087E-05  0.8610E-01  0.4121E+01  0.4118E+01
      7.273 -0.5111E-06  0.4802E-01  0.4121E+01  0.4121E+01
      7.338 -0.5103E-07  0.1615E-01  0.4121E+01  0.4122E+01
      7.403 -0.4082E-08 -0.7304E-03  0.4121E+01  0.4122E+01
      7.469 -0.2621E-09 -0.5044E-02  0.4121E+01  0.4122E+01
      7.534 -0.1353E-10 -0.3734E-02  0.4121E+01  0.4121E+01
      7.599 -0.5619E-12 -0.1726E-02  0.4121E+01  0.4121E+01
      7.665 -0.1880E-13 -0.5798E-03  0.4121E+01  0.4121E+01
      7.730 -0.5109E-15 -0.1485E-03  0.4121E+01  0.4121E+01
      7.795 -0.7625E-17 -0.2967E-04  0.4121E+01  0.4121E+01
      7.861  0.0000E+00 -0.4674E-05  0.4121E+01  0.4121E+01
      7.926  0.0000E+00 -0.5847E-06  0.4121E+01  0.4121E+01
      7.992  0.0000E+00 -0.5836E-07  0.4121E+01  0.4121E+01
      8.057  0.0000E+00 -0.4661E-08  0.4121E+01  0.4121E+01
      8.122  0.0000E+00 -0.2985E-09  0.4121E+01  0.4121E+01
      8.188  0.0000E+00 -0.1535E-10  0.4121E+01  0.4121E+01
      8.253  0.0000E+00 -0.6346E-12  0.4121E+01  0.4121E+01
      8.318  0.0000E+00 -0.2111E-13  0.4121E+01  0.4121E+01
      8.384  0.0000E+00 -0.5719E-15  0.4121E+01  0.4121E+01
      8.449  0.0000E+00 -0.7625E-17  0.4121E+01  0.4121E+01
      8.514  0.0000E+00  0.0000E+00  0.4121E+01  0.4121E+01
      8.580  0.0000E+00  0.0000E+00  0.4121E+01  0.4121E+01
      8.645  0.0000E+00  0.0000E+00  0.4121E+01  0.4121E+01
      8.711  0.0000E+00  0.0000E+00  0.4121E+01  0.4121E+01
      8.776  0.0000E+00  0.0000E+00  0.4121E+01  0.4121E+01
      8.841  0.0000E+00  0.0000E+00  0.4121E+01  0.4121E+01
      8.907  0.0000E+00  0.0000E+00  0.4121E+01  0.4121E+01
      8.972  0.0000E+00  0.0000E+00  0.4121E+01  0.4121E+01
      9.037  0.0000E+00  0.0000E+00  0.4121E+01  0.4121E+01
      9.103  0.0000E+00  0.0000E+00  0.4121E+01  0.4121E+01
      9.168  0.0000E+00  0.0000E+00  0.4121E+01  0.4121E+01
      9.16806001    -10.44053673  301     -0.25978106      1.00000000
    -10.441  0.0000E+00  0.0000E+00  0.0000E+00  0.0000E+00  0.0000E+00  0.0000E+00
    -10.375  0.0000E+00  0.0000E+00  0.0000E+00  0.0000E+00  0.0000E+00  0.0000E+00
    -10.310  0.0000E+00  0.0000E+00  0.0000E+00  0.0000E+00  0.0000E+00  0.0000E+00
    -10.244  0.0000E+00  0.0000E+00  0.0000E+00  0.0000E+00  0.0000E+00  0.0000E+00
    -10.179  0.0000E+00  0.0000E+00  0.0000E+00  0.0000E+00  0.0000E+00  0.0000E+00
    -10.114  0.0000E+00  0.0000E+00  0.0000E+00  0.0000E+00  0.0000E+00  0.0000E+00
    -10.048 -0.5338E-29  0.0000E+00 -0.3352E-31  0.0000E+00 -0.1544E-31  0.0000E+00
     -9.983 -0.8756E-27  0.0000E+00 -0.5498E-29  0.0000E+00 -0.2533E-29  0.0000E+00
     -9.918 -0.1163E-24 -0.1299E-30 -0.7306E-27 -0.9040E-33 -0.3365E-27 -0.2514E-33
     -9.852 -0.1246E-22 -0.2479E-28 -0.7822E-25 -0.1725E-30 -0.3603E-25 -0.4797E-31
     -9.787 -0.1074E-20 -0.3829E-26 -0.6746E-23 -0.2665E-28 -0.3107E-23 -0.7410E-29
     -9.722 -0.7462E-19 -0.4768E-24 -0.4686E-21 -0.3318E-26 -0.2158E-21 -0.9225E-27
     -9.656 -0.4172E-17 -0.4782E-22 -0.2620E-19 -0.3328E-24 -0.1207E-19 -0.9253E-25
     -9.591 -0.1816E-15 -0.3864E-20 -0.1140E-17 -0.2689E-22 -0.5253E-18 -0.7477E-23
     -9.525 -0.6563E-14 -0.2514E-18 -0.4122E-16 -0.1749E-20 -0.1898E-16 -0.4865E-21
     -9.460 -0.1900E-12 -0.1317E-16 -0.1193E-14 -0.9162E-19 -0.5494E-15 -0.2547E-19
     -9.395 -0.4410E-11 -0.5368E-15 -0.2769E-13 -0.3735E-17 -0.1276E-13 -0.1039E-17
     -9.329 -0.8201E-10 -0.1814E-13 -0.5151E-12 -0.1262E-15 -0.2372E-12 -0.3509E-16
     -9.264 -0.1219E-08 -0.4912E-12 -0.7662E-11 -0.3418E-14 -0.3527E-11 -0.9504E-15
     -9.199 -0.1447E-07 -0.1067E-10 -0.9095E-10 -0.7424E-13 -0.4184E-10 -0.2064E-13
     -9.133 -0.1365E-06 -0.1855E-09 -0.8593E-09 -0.1291E-11 -0.3947E-09 -0.3589E-12
     -9.068 -0.1019E-05 -0.2577E-08 -0.6439E-08 -0.1794E-10 -0.2947E-08 -0.4986E-11
     -9.003 -0.5985E-05 -0.2854E-07 -0.3812E-07 -0.1989E-09 -0.1731E-07 -0.5522E-10
     -8.937 -0.2738E-04 -0.2510E-06 -0.1777E-06 -0.1753E-08 -0.7918E-07 -0.4857E-09
     -8.872 -0.9606E-04 -0.1745E-05 -0.6523E-06 -0.1223E-07 -0.2776E-06 -0.3376E-08
     -8.806 -0.2512E-03 -0.9518E-05 -0.1907E-05 -0.6737E-07 -0.7251E-06 -0.1841E-07
     -8.741 -0.4613E-03 -0.4028E-04 -0.4627E-05 -0.2916E-06 -0.1327E-05 -0.7789E-07
     -8.676 -0.4941E-03 -0.1298E-03 -0.1010E-04 -0.9932E-06 -0.1399E-05 -0.2508E-06
     -8.610  0.4999E-04 -0.3078E-03 -0.2094E-04 -0.2703E-05  0.2361E-06 -0.5935E-06
     -8.545  0.1422E-02 -0.4962E-03 -0.3652E-04 -0.6180E-05  0.4308E-05 -0.9498E-06
     -8.480  0.3789E-02 -0.3997E-03 -0.3142E-04 -0.1293E-04  0.1119E-04 -0.7355E-06
     -8.414  0.8295E-02  0.3651E-03  0.7194E-04 -0.2543E-04  0.2388E-04  0.8093E-06
     -8.349  0.1723E-01  0.1967E-02  0.3696E-03 -0.3867E-04  0.4860E-04  0.3995E-05
     -8.284  0.3050E-01  0.4722E-02  0.8380E-03 -0.1301E-04  0.8499E-04  0.9290E-05
     -8.218  0.4175E-01  0.1021E-01  0.1234E-02  0.1443E-03  0.1150E-03  0.1944E-04
     -8.153  0.4208E-01  0.2047E-01  0.1249E-02  0.5116E-03  0.1131E-03  0.3813E-04
     -8.088  0.2981E-01  0.3377E-01  0.8379E-03  0.9996E-03  0.7491E-04  0.6211E-04
     -8.022  0.1381E-01  0.4232E-01  0.3329E-03  0.1312E-02  0.2919E-04  0.7688E-04
     -7.957  0.5505E-02  0.3869E-01  0.2063E-03  0.1191E-02  0.1748E-04  0.6849E-04
     -7.891  0.9473E-02  0.2476E-01  0.7185E-03  0.7189E-03  0.6203E-04  0.4104E-04
     -7.826  0.2162E-01  0.1100E-01  0.1739E-02  0.3004E-03  0.1516E-03  0.1690E-04
     -7.761  0.3433E-01  0.6516E-02  0.2877E-02  0.3314E-03  0.2592E-03  0.1812E-04
     -7.695  0.4298E-01  0.1205E-01  0.3842E-02  0.9157E-03  0.3742E-03  0.4994E-04
     -7.630  0.4761E-01  0.2214E-01  0.4588E-02  0.1858E-02  0.4983E-03  0.1014E-03
     -7.565  0.4863E-01  0.3157E-01  0.4983E-02  0.2888E-02  0.5948E-03  0.1610E-03
     -7.499  0.4359E-01  0.3895E-01  0.4636E-02  0.3881E-02  0.5853E-03  0.2296E-03
     -7.434  0.3120E-01  0.4466E-01  0.3383E-02  0.4772E-02  0.4377E-03  0.3058E-03
     -7.369  0.1563E-01  0.4675E-01  0.1734E-02  0.5236E-02  0.2259E-03  0.3587E-03
     -7.303  0.3557E-02  0.4144E-01  0.4995E-03  0.4772E-02  0.7632E-04  0.3396E-03
     -7.238 -0.1477E-02  0.2842E-01  0.2472E-03  0.3328E-02  0.1129E-03  0.2401E-03
     -7.172  0.1221E-02  0.1323E-01  0.1370E-02  0.1582E-02  0.4827E-03  0.1155E-03
     -7.107  0.1302E-01  0.2404E-02  0.4248E-02  0.3728E-03  0.1323E-02  0.3966E-04
     -7.042  0.3486E-01 -0.1601E-02  0.8697E-02  0.1298E-03  0.2563E-02  0.7033E-04
     -6.976  0.6110E-01  0.7363E-03  0.1320E-01  0.1085E-02  0.3746E-02  0.2709E-03
     -6.911  0.7795E-01  0.1003E-01  0.1530E-01  0.3596E-02  0.4216E-02  0.7056E-03
     -6.846  0.7402E-01  0.2788E-01  0.1367E-01  0.7718E-02  0.3730E-02  0.1348E-02
     -6.780  0.5373E-01  0.5172E-01  0.9938E-02  0.1237E-01  0.2919E-02  0.1997E-02
     -6.715  0.3512E-01  0.7124E-01  0.7585E-02  0.1533E-01  0.2863E-02  0.2339E-02
     -6.650  0.3178E-01  0.7408E-01  0.8605E-02  0.1484E-01  0.4024E-02  0.2194E-02
     -6.584  0.4058E-01  0.5826E-01  0.1168E-01  0.1148E-01  0.5769E-02  0.1742E-02
     -6.519  0.4833E-01  0.3651E-01  0.1389E-01  0.8084E-02  0.7000E-02  0.1431E-02
     -6.453  0.4592E-01  0.2489E-01  0.1341E-01  0.7226E-02  0.6984E-02  0.1574E-02
     -6.388  0.3379E-01  0.2848E-01  0.1031E-01  0.9044E-02  0.5588E-02  0.2110E-02
     -6.323  0.1782E-01  0.3954E-01  0.5815E-02  0.1174E-01  0.3170E-02  0.2765E-02
     -6.257  0.4197E-02  0.4663E-01  0.1570E-02  0.1340E-01  0.5786E-03  0.3279E-02
     -6.192 -0.1875E-02  0.4361E-01 -0.4298E-03  0.1296E-01 -0.7815E-03  0.3384E-02
     -6.127  0.4421E-02  0.3176E-01  0.1950E-02  0.1020E-01  0.9659E-03  0.2849E-02
     -6.061  0.2604E-01  0.1671E-01  0.9980E-02  0.5867E-02  0.7406E-02  0.1734E-02
     -5.996  0.5920E-01  0.4236E-02  0.2213E-01  0.1629E-02  0.1794E-01  0.4959E-03
     -5.931  0.9021E-01 -0.2103E-02  0.3315E-01 -0.6379E-03  0.2842E-01 -0.2531E-03
     -5.865  0.1022E+00 -0.7063E-03  0.3701E-01  0.6073E-03  0.3342E-01  0.1820E-04
     -5.800  0.8981E-01  0.9431E-02  0.3244E-01  0.6344E-02  0.3187E-01  0.1722E-02
     -5.734  0.6559E-01  0.2882E-01  0.2460E-01  0.1628E-01  0.2892E-01  0.4999E-02
     -5.669  0.4710E-01  0.5530E-01  0.1953E-01  0.2774E-01  0.2958E-01  0.9293E-02
     -5.604  0.3903E-01  0.8119E-01  0.1770E-01  0.3580E-01  0.3112E-01  0.1308E-01
     -5.538  0.3268E-01  0.9426E-01  0.1506E-01  0.3613E-01  0.2561E-01  0.1443E-01
     -5.473  0.2133E-01  0.8587E-01  0.9633E-02  0.2861E-01  0.1137E-01  0.1253E-01
     -5.408  0.1036E-01  0.6045E-01  0.5058E-02  0.1801E-01  0.9801E-03  0.8710E-02
     -5.342  0.1208E-01  0.3406E-01  0.7376E-02  0.1063E-01  0.1789E-01  0.5808E-02
     -5.277  0.3435E-01  0.2122E-01  0.1957E-01  0.9873E-02  0.8367E-01  0.6043E-02
     -5.212  0.7309E-01  0.2369E-01  0.3841E-01  0.1431E-01  0.2002E+00  0.9233E-02
     -5.146  0.1124E+00  0.3166E-01  0.5525E-01  0.1901E-01  0.3370E+00  0.1273E-01
     -5.081  0.1336E+00  0.3370E-01  0.6099E-01  0.1924E-01  0.4404E+00  0.1334E-01
     -5.015  0.1284E+00  0.2592E-01  0.5262E-01  0.1418E-01  0.4695E+00  0.1015E-01
     -4.950  0.1048E+00  0.1361E-01  0.3617E-01  0.7545E-02  0.4303E+00  0.5548E-02
     -4.885  0.7897E-01  0.5605E-02  0.2256E-01  0.4502E-02  0.3733E+00  0.3556E-02
     -4.819  0.6198E-01  0.8083E-02  0.1990E-01  0.8339E-02  0.3539E+00  0.7047E-02
     -4.754  0.5680E-01  0.2282E-01  0.2847E-01  0.1948E-01  0.3911E+00  0.1625E-01
     -4.689  0.6070E-01  0.4759E-01  0.4161E-01  0.3536E-01  0.4634E+00  0.2853E-01
     -4.623  0.6723E-01  0.7518E-01  0.5123E-01  0.5038E-01  0.5426E+00  0.3938E-01
     -4.558  0.6870E-01  0.9434E-01  0.5376E-01  0.5796E-01  0.6245E+00  0.4519E-01
     -4.493  0.6171E-01  0.9652E-01  0.5156E-01  0.5501E-01  0.7208E+00  0.4584E-01
     -4.427  0.5024E-01  0.8266E-01  0.4899E-01  0.4412E-01  0.8272E+00  0.4390E-01
     -4.362  0.4153E-01  0.6141E-01  0.4809E-01  0.3097E-01  0.9161E+00  0.4157E-01
     -4.297  0.3912E-01  0.4196E-01  0.4788E-01  0.2043E-01  0.9576E+00  0.4033E-01
     -4.231  0.4045E-01  0.3012E-01  0.4678E-01  0.1542E-01  0.9394E+00  0.4273E-01
     -4.166  0.4032E-01  0.2788E-01  0.4492E-01  0.1684E-01  0.8723E+00  0.5093E-01
     -4.100  0.3581E-01  0.3327E-01  0.4379E-01  0.2289E-01  0.7883E+00  0.6354E-01
     -4.035  0.2820E-01  0.4234E-01  0.4418E-01  0.2977E-01  0.7256E+00  0.7822E-01
     -3.970  0.2083E-01  0.5312E-01  0.4531E-01  0.3461E-01  0.7055E+00  0.9708E-01
     -3.904  0.1587E-01  0.6559E-01  0.4620E-01  0.3710E-01  0.7230E+00  0.1247E+00
     -3.839  0.1329E-01  0.7812E-01  0.4694E-01  0.3837E-01  0.7590E+00  0.1604E+00
     -3.774  0.1192E-01  0.8747E-01  0.4811E-01  0.3948E-01  0.7961E+00  0.1966E+00
     -3.708  0.1079E-01  0.9228E-01  0.4978E-01  0.4120E-01  0.8220E+00  0.2236E+00
     -3.643  0.9548E-02  0.9309E-01  0.5171E-01  0.4395E-01  0.8313E+00  0.2361E+00
     -3.578  0.8334E-02  0.8902E-01  0.5402E-01  0.4755E-01  0.8278E+00  0.2347E+00
     -3.512  0.7519E-02  0.7809E-01  0.5668E-01  0.5118E-01  0.8170E+00  0.2266E+00
     -3.447  0.7278E-02  0.6150E-01  0.5865E-01  0.5324E-01  0.7979E+00  0.2205E+00
     -3.381  0.7425E-02  0.4485E-01  0.5838E-01  0.5218E-01  0.7669E+00  0.2207E+00
     -3.316  0.7744E-02  0.3395E-01  0.5538E-01  0.4839E-01  0.7314E+00  0.2258E+00
     -3.251  0.8377E-02  0.3074E-01  0.5136E-01  0.4484E-01  0.7174E+00  0.2356E+00
     -3.185  0.9645E-02  0.3285E-01  0.4968E-01  0.4449E-01  0.7563E+00  0.2551E+00
     -3.120  0.1157E-01  0.3598E-01  0.5336E-01  0.4729E-01  0.8586E+00  0.2907E+00
     -3.055  0.1367E-01  0.3677E-01  0.6258E-01  0.5042E-01  0.9964E+00  0.3406E+00
     -2.989  0.1513E-01  0.3426E-01  0.7388E-01  0.5110E-01  0.1120E+01  0.3885E+00
     -2.924  0.1527E-01  0.2935E-01  0.8248E-01  0.4884E-01  0.1196E+01  0.4127E+00
     -2.859  0.1412E-01  0.2368E-01  0.8576E-01  0.4538E-01  0.1233E+01  0.4074E+00
     -2.793  0.1252E-01  0.1886E-01  0.8445E-01  0.4294E-01  0.1260E+01  0.3919E+00
     -2.728  0.1159E-01  0.1582E-01  0.8090E-01  0.4296E-01  0.1292E+01  0.3934E+00
     -2.662  0.1187E-01  0.1455E-01  0.7708E-01  0.4609E-01  0.1318E+01  0.4233E+00
     -2.597  0.1305E-01  0.1431E-01  0.7358E-01  0.5240E-01  0.1314E+01  0.4707E+00
     -2.532  0.1419E-01  0.1413E-01  0.6937E-01  0.6021E-01  0.1273E+01  0.5091E+00
     -2.466  0.1425E-01  0.1311E-01  0.6257E-01  0.6556E-01  0.1199E+01  0.5107E+00
     -2.401  0.1274E-01  0.1099E-01  0.5256E-01  0.6504E-01  0.1099E+01  0.4651E+00
     -2.336  0.1006E-01  0.8434E-02  0.4158E-01  0.5974E-01  0.9907E+00  0.3916E+00
     -2.270  0.7287E-02  0.6467E-02  0.3369E-01  0.5546E-01  0.9197E+00  0.3292E+00
     -2.205  0.5484E-02  0.5582E-02  0.3150E-01  0.5789E-01  0.9249E+00  0.3082E+00
     -2.140  0.4989E-02  0.5438E-02  0.3407E-01  0.6719E-01  0.9875E+00  0.3304E+00
     -2.074  0.5439E-02  0.5399E-02  0.3759E-01  0.7770E-01  0.1037E+01  0.3732E+00
     -2.009  0.6220E-02  0.5213E-02  0.3835E-01  0.8342E-01  0.1019E+01  0.4093E+00
     -1.943  0.6851E-02  0.5129E-02  0.3537E-01  0.8379E-01  0.9482E+00  0.4247E+00
     -1.878  0.7103E-02  0.5425E-02  0.3054E-01  0.8306E-01  0.8942E+00  0.4211E+00
     -1.813  0.6930E-02  0.5984E-02  0.2632E-01  0.8421E-01  0.9142E+00  0.4069E+00
     -1.747  0.6383E-02  0.6366E-02  0.2362E-01  0.8498E-01  0.1004E+01  0.3906E+00
     -1.682  0.5595E-02  0.6231E-02  0.2188E-01  0.8109E-01  0.1106E+01  0.3815E+00
     -1.617  0.4778E-02  0.5664E-02  0.2045E-01  0.7204E-01  0.1156E+01  0.3895E+00
     -1.551  0.4137E-02  0.5094E-02  0.1914E-01  0.6228E-01  0.1142E+01  0.4180E+00
     -1.486  0.3782E-02  0.4957E-02  0.1798E-01  0.5642E-01  0.1103E+01  0.4572E+00