       N       E                     dE             d eps       ncg     rms          rms(c)
DAV:   1     0.435310644269E+04    0.43531E+04   -0.23268E+05  8160   0.141E+03
DAV:   2    -0.517935732356E+02   -0.44049E+04   -0.40968E+04  8160   0.327E+02
DAV:   3    -0.424588052846E+03   -0.37279E+03   -0.31485E+03  8496   0.135E+02
DAV:   4    -0.439617464111E+03   -0.15029E+02   -0.14699E+02  8652   0.296E+01
DAV:   5    -0.439867508414E+03   -0.25004E+00   -0.24984E+00  9246   0.327E+00    0.481E+01
RMM:   6    -0.574526545730E+03   -0.13466E+03   -0.51926E+01  8186   0.164E+01    0.147E+02
RMM:   7    -0.604281339261E+03   -0.29755E+02   -0.67650E+01  8186   0.197E+01    0.168E+02
RMM:   8    -0.443467135265E+03    0.16081E+03   -0.32190E+01  8212   0.132E+01    0.527E+01
RMM:   9    -0.437872564275E+03    0.55946E+01   -0.31448E+01  8215   0.145E+01    0.528E+01
RMM:  10    -0.435643743755E+03    0.22288E+01   -0.13726E+01  8220   0.938E+00    0.614E+01
RMM:  11    -0.431590013257E+03    0.40537E+01   -0.17034E+01  8222   0.980E+00    0.269E+01
RMM:  12    -0.434515918049E+03   -0.29259E+01   -0.74708E+00  8221   0.667E+00    0.347E+01
RMM:  13    -0.431315075558E+03    0.32008E+01   -0.41558E+00  8229   0.538E+00    0.185E+01
RMM:  14    -0.434026960048E+03   -0.27119E+01   -0.40547E+00  8229   0.484E+00    0.284E+01
RMM:  15    -0.432537040683E+03    0.14899E+01   -0.29680E+00  8228   0.432E+00    0.131E+01
RMM:  16    -0.433186030477E+03   -0.64899E+00   -0.15834E+00  8225   0.299E+00    0.995E+00
RMM:  17    -0.435966697798E+03   -0.27807E+01   -0.12147E+00  8210   0.233E+00    0.135E+01
RMM:  18    -0.437118642546E+03   -0.11519E+01   -0.10227E+00  8210   0.232E+00    0.776E+00
RMM:  19    -0.439454499933E+03   -0.23359E+01   -0.10655E+00  8206   0.211E+00    0.104E+01
RMM:  20    -0.441374876797E+03   -0.19204E+01   -0.12798E+00  8195   0.203E+00    0.442E+00
RMM:  21    -0.442562740931E+03   -0.11879E+01   -0.56821E-01  8213   0.136E+00    0.576E+00
RMM:  22    -0.443957827713E+03   -0.13951E+01   -0.67490E-01  8200   0.124E+00    0.304E+00
RMM:  23    -0.444467451483E+03   -0.50962E+00   -0.20183E-01  8216   0.798E-01    0.298E+00
RMM:  24    -0.445764919868E+03   -0.12975E+01   -0.55407E-01  8185   0.916E-01    0.259E+00
RMM:  25    -0.446298962820E+03   -0.53404E+00   -0.19016E-01  8201   0.677E-01    0.241E+00
RMM:  26    -0.447480375286E+03   -0.11814E+01   -0.52133E-01  8184   0.829E-01    0.265E+00
RMM:  27    -0.448006723738E+03   -0.52635E+00   -0.18748E-01  8189   0.602E-01    0.147E+00
RMM:  28    -0.448580767046E+03   -0.57404E+00   -0.17950E-01  8181   0.492E-01    0.169E+00
RMM:  29    -0.448681379103E+03   -0.10061E+00   -0.36795E-02  8197   0.321E-01    0.115E+00
RMM:  30    -0.448793202167E+03   -0.11182E+00   -0.33337E-02  8182   0.262E-01    0.120E+00
RMM:  31    -0.448842837053E+03   -0.49635E-01   -0.16932E-02  8194   0.232E-01    0.834E-01
RMM:  32    -0.448969027234E+03   -0.12619E+00   -0.16010E-02  8190   0.187E-01    0.811E-01
RMM:  33    -0.449025972919E+03   -0.56946E-01   -0.61010E-03  8197   0.150E-01    0.736E-01
RMM:  34    -0.449129984635E+03   -0.10401E+00   -0.90177E-03  8190   0.137E-01    0.650E-01
RMM:  35    -0.449195262145E+03   -0.65278E-01   -0.37537E-03  8197   0.111E-01    0.511E-01
RMM:  36    -0.449337745489E+03   -0.14248E+00   -0.56693E-03  8186   0.109E-01    0.534E-01
RMM:  37    -0.449400666052E+03   -0.62921E-01   -0.21125E-03  8203   0.830E-02    0.360E-01
RMM:  38    -0.449490385519E+03   -0.89719E-01   -0.26522E-03  8198   0.785E-02    0.414E-01
RMM:  39    -0.449539534633E+03   -0.49149E-01   -0.15900E-03  8197   0.661E-02    0.286E-01
RMM:  40    -0.449578813457E+03   -0.39279E-01   -0.20401E-03  8199   0.705E-02    0.371E-01
RMM:  41    -0.449593816094E+03   -0.15003E-01   -0.11056E-03  8189   0.598E-02    0.186E-01
RMM:  42    -0.449603244512E+03   -0.94284E-02   -0.58336E-04  8164   0.382E-02    0.199E-01
RMM:  43    -0.449606612510E+03   -0.33680E-02   -0.32508E-04  8156   0.317E-02    0.145E-01
RMM:  44    -0.449606175670E+03    0.43684E-03   -0.20550E-04  8152   0.232E-02    0.131E-01
RMM:  45    -0.449604018864E+03    0.21568E-02   -0.97323E-05  8002   0.205E-02    0.105E-01
RMM:  46    -0.449603282368E+03    0.73650E-03   -0.81145E-05  7940   0.177E-02    0.179E-01
RMM:  47    -0.449603125341E+03    0.15703E-03   -0.26798E-05  5934   0.128E-02    0.174E-01
RMM:  48    -0.449602582433E+03    0.54291E-03   -0.26740E-05  5824   0.117E-02    0.136E-01
RMM:  49    -0.449602405050E+03    0.17738E-03   -0.16193E-05  4890   0.105E-02    0.102E-01
RMM:  50    -0.449602926041E+03   -0.52099E-03   -0.23895E-05  5692   0.103E-02    0.655E-02
RMM:  51    -0.449602241409E+03    0.68463E-03   -0.15014E-05  4724   0.111E-02    0.727E-02
RMM:  52    -0.449603819640E+03   -0.15782E-02   -0.11723E-05  5079   0.791E-03    0.682E-02
RMM:  53    -0.449604384608E+03   -0.56497E-03   -0.91553E-06  4658   0.814E-03    0.575E-02
RMM:  54    -0.449605765476E+03   -0.13809E-02   -0.17860E-05  5621   0.775E-03    0.673E-02
RMM:  55    -0.449606053184E+03   -0.28771E-03   -0.73171E-06  4653   0.711E-03    0.626E-02
RMM:  56    -0.449606344066E+03   -0.29088E-03   -0.10889E-05  4792   0.603E-03    0.367E-02
RMM:  57    -0.449606658811E+03   -0.31474E-03   -0.54015E-06  4599   0.630E-03    0.274E-02
RMM:  58    -0.449606858742E+03   -0.19993E-03   -0.24180E-06  4547   0.347E-03    0.228E-02
RMM:  59    -0.449606971926E+03   -0.11318E-03   -0.27080E-06  4630   0.321E-03    0.148E-02
RMM:  60    -0.449607018540E+03   -0.46614E-04   -0.20488E-06  4537   0.295E-03    0.395E-03
RMM:  61    -0.449607046481E+03   -0.27942E-04   -0.65830E-07  4120   0.170E-03    0.580E-03
RMM:  62    -0.449607092306E+03   -0.45824E-04   -0.71336E-07  4065   0.157E-03    0.402E-03
RMM:  63    -0.449607111954E+03   -0.19648E-04   -0.27401E-07  3029   0.116E-03    0.368E-03
RMM:  64    -0.449607143028E+03   -0.31074E-04   -0.23927E-07  3002   0.109E-03    0.935E-03
RMM:  65    -0.449607179990E+03   -0.36962E-04   -0.21694E-07  2685   0.101E-03    0.465E-03
RMM:  66    -0.449607211027E+03   -0.31037E-04   -0.39228E-07  3153   0.110E-03    0.888E-03
RMM:  67    -0.449607214802E+03   -0.37749E-05   -0.83902E-08  2302   0.973E-04
   1 F= -.44960721E+03 E0= -.44962277E+03  d E =-.449607E+03  mag=   131.1258
       N       E                     dE             d eps       ncg     rms          rms(c)
DAV:   1    -0.448083476195E+03    0.15237E+01   -0.51645E+02  8166   0.333E+01    0.174E+01
RMM:   2    -0.484034626422E+03   -0.35951E+02   -0.39709E+01  8192   0.171E+01    0.783E+01
RMM:   3    -0.473440169270E+03    0.10594E+02   -0.13390E+01  8200   0.900E+00    0.637E+01
RMM:   4    -0.453873357050E+03    0.19567E+02   -0.72371E+00  8222   0.639E+00    0.234E+01
RMM:   5    -0.451922443641E+03    0.19509E+01   -0.31058E+00  8213   0.448E+00    0.158E+01
RMM:   6    -0.451413109557E+03    0.50933E+00   -0.14216E+00  8214   0.310E+00    0.984E+00
RMM:   7    -0.451211871493E+03    0.20124E+00   -0.33994E-01  8213   0.155E+00    0.590E+00
RMM:   8    -0.451187371496E+03    0.24500E-01   -0.15188E-01  8211   0.101E+00    0.423E+00
RMM:   9    -0.451335620246E+03   -0.14825E+00   -0.18763E-01  8212   0.103E+00    0.585E+00
RMM:  10    -0.451228996752E+03    0.10662E+00   -0.13435E-01  8218   0.940E-01    0.242E+00
RMM:  11    -0.451256005567E+03   -0.27009E-01   -0.49965E-02  8220   0.510E-01    0.280E+00
RMM:  12    -0.451239636350E+03    0.16369E-01   -0.24543E-02  8217   0.392E-01    0.147E+00
RMM:  13    -0.451239774050E+03   -0.13770E-03   -0.17759E-02  8213   0.310E-01    0.186E+00
RMM:  14    -0.451209115070E+03    0.30659E-01   -0.14370E-02  8223   0.294E-01    0.113E+00
RMM:  15    -0.451203783212E+03    0.53319E-02   -0.73678E-03  8209   0.205E-01    0.134E+00
RMM:  16    -0.451179460698E+03    0.24323E-01   -0.53457E-03  8217   0.176E-01    0.803E-01
RMM:  17    -0.451180216928E+03   -0.75623E-03   -0.44007E-03  8203   0.163E-01    0.870E-01
RMM:  18    -0.451191143557E+03   -0.10927E-01   -0.24681E-03  8199   0.125E-01    0.591E-01
RMM:  19    -0.451197143852E+03   -0.60003E-02   -0.10831E-03  8206   0.802E-02    0.525E-01
RMM:  20    -0.451225804723E+03   -0.28661E-01   -0.13901E-03  8192   0.726E-02    0.399E-01
RMM:  21    -0.451249497788E+03   -0.23693E-01   -0.14315E-03  8202   0.842E-02    0.449E-01
RMM:  22    -0.451300665423E+03   -0.51168E-01   -0.20283E-03  8190   0.707E-02    0.333E-01
RMM:  23    -0.451331844657E+03   -0.31179E-01   -0.18058E-03  8201   0.833E-02    0.399E-01
RMM:  24    -0.451377838770E+03   -0.45994E-01   -0.32762E-03  8198   0.818E-02    0.262E-01
RMM:  25    -0.451385981928E+03   -0.81432E-02   -0.97113E-04  8186   0.612E-02    0.225E-01
RMM:  26    -0.451394758941E+03   -0.87770E-02   -0.11968E-03  8184   0.470E-02    0.161E-01
RMM:  27    -0.451395049524E+03   -0.29058E-03   -0.20420E-04  8161   0.296E-02    0.641E-02
RMM:  28    -0.451395007631E+03    0.41893E-04   -0.10074E-04  7585   0.171E-02    0.709E-02
RMM:  29    -0.451394951814E+03    0.55817E-04   -0.29972E-05  5935   0.130E-02    0.230E-02
RMM:  30    -0.451395090555E+03   -0.13874E-03   -0.18059E-05  4984   0.777E-03    0.359E-02
RMM:  31    -0.451395213354E+03   -0.12280E-03   -0.12064E-05  4718   0.807E-03    0.151E-02
RMM:  32    -0.451395517157E+03   -0.30380E-03   -0.12870E-05  4801   0.535E-03    0.213E-02
RMM:  33    -0.451395728018E+03   -0.21086E-03   -0.70370E-06  4629   0.551E-03    0.920E-03
RMM:  34    -0.451396084257E+03   -0.35624E-03   -0.71953E-06  4672   0.353E-03    0.125E-02
RMM:  35    -0.451396290212E+03   -0.20595E-03   -0.32580E-06  4577   0.349E-03    0.749E-03
RMM:  36    -0.451396823452E+03   -0.53324E-03   -0.95046E-06  4742   0.302E-03    0.954E-03
RMM:  37    -0.451397058020E+03   -0.23457E-03   -0.31055E-06  4536   0.269E-03    0.905E-03
RMM:  38    -0.451397470032E+03   -0.41201E-03   -0.70020E-06  4520   0.267E-03    0.671E-03
RMM:  39    -0.451397622679E+03   -0.15265E-03   -0.22251E-06  4387   0.203E-03    0.621E-03
RMM:  40    -0.451397861080E+03   -0.23840E-03   -0.43977E-06  4129   0.203E-03    0.483E-03
RMM:  41    -0.451397946171E+03   -0.85091E-04   -0.15649E-06  3837   0.153E-03    0.477E-03
RMM:  42    -0.451398021664E+03   -0.75493E-04   -0.12054E-06  3376   0.137E-03    0.310E-03
RMM:  43    -0.451398049667E+03   -0.28003E-04   -0.39973E-07  2656   0.103E-03    0.411E-03
RMM:  44    -0.451398068456E+03   -0.18789E-04   -0.36993E-07  2380   0.976E-04    0.326E-03
RMM:  45    -0.451398076147E+03   -0.76907E-05   -0.40223E-07  2460   0.978E-04
   2 F= -.45139808E+03 E0= -.45142036E+03  d E =-.179086E+01  mag=   133.1844
       N       E                     dE             d eps       ncg     rms          rms(c)
DAV:   1    -0.450772950632E+03    0.62512E+00   -0.13752E+02  8166   0.168E+01    0.849E+00
RMM:   2    -0.455740502106E+03   -0.49676E+01   -0.58057E+00  8205   0.675E+00    0.275E+01
RMM:   3    -0.456688605029E+03   -0.94810E+00   -0.26353E+00  8203   0.393E+00    0.282E+01
RMM:   4    -0.452852284153E+03    0.38363E+01   -0.16779E+00  8222   0.303E+00    0.153E+01
RMM:   5    -0.451711145659E+03    0.11411E+01   -0.67934E-01  8214   0.221E+00    0.455E+00
RMM:   6    -0.451649921973E+03    0.61224E-01   -0.13386E-01  8213   0.915E-01    0.279E+00
RMM:   7    -0.451628738472E+03    0.21184E-01   -0.33347E-02  8213   0.478E-01    0.172E+00
RMM:   8    -0.451624535874E+03    0.42026E-02   -0.22572E-02  8197   0.383E-01    0.136E+00
RMM:   9    -0.451630870911E+03   -0.63350E-02   -0.22934E-02  8219   0.352E-01    0.176E+00
RMM:  10    -0.451617228943E+03    0.13642E-01   -0.14682E-02  8203   0.309E-01    0.650E-01
RMM:  11    -0.451619442805E+03   -0.22139E-02   -0.59905E-03  8203   0.184E-01    0.952E-01
RMM:  12    -0.451615952897E+03    0.34899E-02   -0.35426E-03  8206   0.157E-01    0.269E-01
RMM:  13    -0.451617906932E+03   -0.19540E-02   -0.15917E-03  8199   0.942E-02    0.432E-01
RMM:  14    -0.451619448656E+03   -0.15417E-02   -0.81720E-04  8191   0.738E-02    0.156E-01
RMM:  15    -0.451621031321E+03   -0.15827E-02   -0.26473E-04  8162   0.388E-02    0.145E-01
RMM:  16    -0.451624723411E+03   -0.36921E-02   -0.12827E-04  8125   0.244E-02    0.110E-01
RMM:  17    -0.451626492452E+03   -0.17690E-02   -0.81774E-05  7845   0.207E-02    0.101E-01
RMM:  18    -0.451630840084E+03   -0.43476E-02   -0.98299E-05  7220   0.154E-02    0.959E-02
RMM:  19    -0.451632742245E+03   -0.19022E-02   -0.53837E-05  6967   0.155E-02    0.787E-02
RMM:  20    -0.451637299216E+03   -0.45570E-02   -0.15527E-04  7540   0.160E-02    0.661E-02
RMM:  21    -0.451638924206E+03   -0.16250E-02   -0.55456E-05  6690   0.132E-02    0.392E-02
RMM:  22    -0.451642155190E+03   -0.32310E-02   -0.16396E-04  7554   0.153E-02    0.581E-02
RMM:  23    -0.451643387373E+03   -0.12322E-02   -0.60028E-05  6658   0.120E-02    0.256E-02
RMM:  24    -0.451644677446E+03   -0.12901E-02   -0.81074E-05  6941   0.111E-02    0.413E-02
RMM:  25    -0.451645106715E+03   -0.42927E-03   -0.42913E-05  6031   0.928E-03    0.141E-02
RMM:  26    -0.451645149996E+03   -0.43281E-04   -0.19623E-05  5548   0.591E-03    0.224E-02
RMM:  27    -0.451645110808E+03    0.39187E-04   -0.75682E-06  5130   0.565E-03    0.744E-03
RMM:  28    -0.451645120430E+03   -0.96218E-05   -0.17514E-06  4546   0.274E-03
   3 F= -.45164512E+03 E0= -.45166572E+03  d E =-.203791E+01  mag=   133.5432
       N       E                     dE             d eps       ncg     rms          rms(c)
DAV:   1    -0.451348342628E+03    0.29677E+00   -0.13994E+02  8178   0.171E+01    0.790E+00
RMM:   2    -0.454143557908E+03   -0.27952E+01   -0.40036E+00  8211   0.546E+00    0.204E+01
RMM:   3    -0.454380333988E+03   -0.23678E+00   -0.27291E+00  8206   0.416E+00    0.194E+01
RMM:   4    -0.455263090714E+03   -0.88276E+00   -0.11262E+00  8220   0.241E+00    0.229E+01
RMM:   5    -0.452170959234E+03    0.30921E+01   -0.60227E-01  8208   0.198E+00    0.397E+00
RMM:   6    -0.452111744335E+03    0.59215E-01   -0.11486E-01  8210   0.823E-01    0.232E+00
RMM:   7    -0.452090115859E+03    0.21628E-01   -0.20684E-02  8215   0.382E-01    0.136E+00
RMM:   8    -0.452087059158E+03    0.30567E-02   -0.15334E-02  8199   0.319E-01    0.124E+00
RMM:   9    -0.452075919905E+03    0.11139E-01   -0.15052E-02  8220   0.279E-01    0.114E+00
RMM:  10    -0.452070711087E+03    0.52088E-02   -0.11765E-02  8208   0.267E-01    0.699E-01
RMM:  11    -0.452073260149E+03   -0.25491E-02   -0.40792E-03  8207   0.156E-01    0.673E-01
RMM:  12    -0.452073408798E+03   -0.14865E-03   -0.26203E-03  8194   0.132E-01    0.321E-01
RMM:  13    -0.452078588284E+03   -0.51795E-02   -0.13291E-03  8209   0.840E-02    0.432E-01
RMM:  14    -0.452080797811E+03   -0.22095E-02   -0.76238E-04  8175   0.702E-02    0.134E-01
RMM:  15    -0.452085333355E+03   -0.45355E-02   -0.30255E-04  8167   0.389E-02    0.200E-01
RMM:  16    -0.452091135872E+03   -0.58025E-02   -0.20666E-04  8111   0.311E-02    0.119E-01
RMM:  17    -0.452095317992E+03   -0.41821E-02   -0.13216E-04  8137   0.237E-02    0.128E-01
RMM:  18    -0.452106610259E+03   -0.11292E-01   -0.37533E-04  8120   0.244E-02    0.894E-02
RMM:  19    -0.452110865105E+03   -0.42548E-02   -0.13976E-04  7966   0.204E-02    0.902E-02
RMM:  20    -0.452120767411E+03   -0.99023E-02   -0.53526E-04  8111   0.244E-02    0.675E-02
RMM:  21    -0.452122990381E+03   -0.22230E-02   -0.10932E-04  7426   0.163E-02    0.632E-02
RMM:  22    -0.452127487508E+03   -0.44971E-02   -0.32576E-04  7908   0.184E-02    0.479E-02
RMM:  23    -0.452128298560E+03   -0.81105E-03   -0.51811E-05  6526   0.114E-02    0.265E-02
RMM:  24    -0.452129230068E+03   -0.93151E-03   -0.61796E-05  6593   0.956E-03    0.388E-02
RMM:  25    -0.452129426206E+03   -0.19614E-03   -0.17010E-05  5384   0.738E-03    0.291E-02
RMM:  26    -0.452129492685E+03   -0.66479E-04   -0.10041E-05  4981   0.489E-03    0.167E-02
RMM:  27    -0.452129494788E+03   -0.21024E-05   -0.31356E-06  4626   0.414E-03
   4 F= -.45212949E+03 E0= -.45214966E+03  d E =-.484374E+00  mag=   134.0578
       N       E                     dE             d eps       ncg     rms          rms(c)
DAV:   1    -0.447795032142E+03    0.43345E+01   -0.78479E+02  8160   0.422E+01    0.188E+01
RMM:   2    -0.462207921760E+03   -0.14413E+02   -0.29287E+01  8212   0.146E+01    0.475E+01
RMM:   3    -0.456848759951E+03    0.53592E+01   -0.17256E+01  8213   0.106E+01    0.290E+01
RMM:   4    -0.456024028978E+03    0.82473E+00   -0.34624E+00  8212   0.495E+00    0.249E+01
RMM:   5    -0.454015851579E+03    0.20082E+01   -0.10245E+00  8212   0.245E+00    0.162E+01
RMM:   6    -0.452478034172E+03    0.15378E+01   -0.59618E-01  8221   0.182E+00    0.596E+00
RMM:   7    -0.452423280737E+03    0.54753E-01   -0.18186E-01  8216   0.110E+00    0.394E+00
RMM:   8    -0.452388217819E+03    0.35063E-01   -0.95916E-02  8206   0.799E-01    0.297E+00
RMM:   9    -0.452381300180E+03    0.69176E-02   -0.11081E-01  8221   0.744E-01    0.361E+00
RMM:  10    -0.452328169756E+03    0.53130E-01   -0.82558E-02  8212   0.701E-01    0.189E+00
RMM:  11    -0.452329463044E+03   -0.12933E-02   -0.41368E-02  8222   0.477E-01    0.244E+00
RMM:  12    -0.452307048675E+03    0.22414E-01   -0.23211E-02  8213   0.390E-01    0.719E-01
RMM:  13    -0.452324943860E+03   -0.17895E-01   -0.11813E-02  8219   0.254E-01    0.122E+00
RMM:  14    -0.452333406971E+03   -0.84631E-02   -0.73954E-03  8214   0.221E-01    0.409E-01
RMM:  15    -0.452353315949E+03   -0.19909E-01   -0.31230E-03  8216   0.128E-01    0.612E-01
RMM:  16    -0.452371850117E+03   -0.18534E-01   -0.17112E-03  8209   0.995E-02    0.257E-01
RMM:  17    -0.452393505336E+03   -0.21655E-01   -0.10590E-03  8202   0.658E-02    0.349E-01
RMM:  18    -0.452430457950E+03   -0.36953E-01   -0.11873E-03  8167   0.539E-02    0.223E-01
RMM:  19    -0.452457041636E+03   -0.26584E-01   -0.82750E-04  8186   0.467E-02    0.263E-01
RMM:  20    -0.452523746893E+03   -0.66705E-01   -0.32928E-03  8173   0.578E-02    0.150E-01
RMM:  21    -0.452547721757E+03   -0.23975E-01   -0.99911E-04  8188   0.433E-02    0.173E-01
RMM:  22    -0.452589126626E+03   -0.41405E-01   -0.30688E-03  8175   0.501E-02    0.150E-01
RMM:  23    -0.452594213493E+03   -0.50869E-02   -0.34377E-04  8173   0.267E-02    0.121E-01
RMM:  24    -0.452601513237E+03   -0.72997E-02   -0.47412E-04  8131   0.239E-02    0.993E-02
RMM:  25    -0.452603906010E+03   -0.23928E-02   -0.14419E-04  7843   0.184E-02    0.112E-01
RMM:  26    -0.452606186836E+03   -0.22808E-02   -0.12193E-04  7179   0.123E-02    0.876E-02
RMM:  27    -0.452606713716E+03   -0.52688E-03   -0.27308E-05  5786   0.949E-03    0.735E-02
RMM:  28    -0.452607570493E+03   -0.85678E-03   -0.56951E-05  6466   0.925E-03    0.381E-02
RMM:  29    -0.452607709945E+03   -0.13945E-03   -0.11281E-05  4929   0.656E-03    0.334E-02
RMM:  30    -0.452607897592E+03   -0.18765E-03   -0.11844E-05  5203   0.544E-03    0.213E-02
RMM:  31    -0.452607947225E+03   -0.49633E-04   -0.32783E-06  4611   0.392E-03    0.174E-02
RMM:  32    -0.452608049621E+03   -0.10240E-03   -0.43275E-06  4845   0.317E-03    0.101E-02
RMM:  33    -0.452608097238E+03   -0.47617E-04   -0.19139E-06  4556   0.270E-03    0.936E-03
RMM:  34    -0.452608189160E+03   -0.91922E-04   -0.37940E-06  4987   0.255E-03    0.540E-03
RMM:  35    -0.452608238868E+03   -0.49707E-04   -0.19918E-06  4529   0.226E-03    0.720E-03
RMM:  36    -0.452608303463E+03   -0.64596E-04   -0.27632E-06  4706   0.232E-03    0.330E-03
RMM:  37    -0.452608333666E+03   -0.30203E-04   -0.12681E-06  4068   0.169E-03    0.489E-03
RMM:  38    -0.452608361388E+03   -0.27722E-04   -0.11528E-06  4003   0.164E-03    0.606E-03
RMM:  39    -0.452608375819E+03   -0.14431E-04   -0.64756E-07  3045   0.127E-03    0.652E-03
RMM:  40    -0.452608381355E+03   -0.55358E-05   -0.26320E-07  2609   0.110E-03
   5 F= -.45260838E+03 E0= -.45262944E+03  d E =-.963261E+00  mag=   134.7883
       N       E                     dE             d eps       ncg     rms          rms(c)
DAV:   1    -0.451592510507E+03    0.10159E+01   -0.25756E+02  8160   0.234E+01    0.103E+01
RMM:   2    -0.455535071521E+03   -0.39426E+01   -0.63907E+00  8219   0.673E+00    0.233E+01
RMM:   3    -0.458069496004E+03   -0.25344E+01   -0.44698E+00  8205   0.521E+00    0.293E+01
RMM:   4    -0.457490379069E+03    0.57912E+00   -0.19014E+00  8219   0.317E+00    0.274E+01
RMM:   5    -0.453066189300E+03    0.44242E+01   -0.10527E+00  8207   0.262E+00    0.530E+00
RMM:   6    -0.452961740721E+03    0.10445E+00   -0.21823E-01  8216   0.111E+00    0.339E+00
RMM:   7    -0.452916654820E+03    0.45086E-01   -0.44005E-02  8209   0.549E-01    0.190E+00
RMM:   8    -0.452913279640E+03    0.33752E-02   -0.24713E-02  8203   0.392E-01    0.178E+00
RMM:   9    -0.452882834447E+03    0.30445E-01   -0.20857E-02  8221   0.335E-01    0.135E+00
RMM:  10    -0.452877008949E+03    0.58255E-02   -0.21655E-02  8208   0.357E-01    0.123E+00
RMM:  11    -0.452875341590E+03    0.16674E-02   -0.81834E-03  8211   0.220E-01    0.855E-01
RMM:  12    -0.452875359422E+03   -0.17832E-04   -0.46413E-03  8202   0.172E-01    0.419E-01
RMM:  13    -0.452886534686E+03   -0.11175E-01   -0.16825E-03  8206   0.918E-02    0.441E-01
RMM:  14    -0.452890527888E+03   -0.39932E-02   -0.81088E-04  8174   0.720E-02    0.168E-01
RMM:  15    -0.452903456401E+03   -0.12929E-01   -0.43396E-04  8201   0.433E-02    0.232E-01
RMM:  16    -0.452913108886E+03   -0.96525E-02   -0.27922E-04  8160   0.370E-02    0.136E-01
RMM:  17    -0.452927827503E+03   -0.14719E-01   -0.34779E-04  8171   0.312E-02    0.175E-01
RMM:  18    -0.452941486678E+03   -0.13659E-01   -0.30432E-04  8134   0.274E-02    0.853E-02
RMM:  19    -0.452954899743E+03   -0.13413E-01   -0.30438E-04  8138   0.241E-02    0.127E-01
RMM:  20    -0.452971007368E+03   -0.16108E-01   -0.48706E-04  8099   0.247E-02    0.819E-02
RMM:  21    -0.452980622040E+03   -0.96147E-02   -0.33031E-04  8045   0.221E-02    0.106E-01
RMM:  22    -0.452988571934E+03   -0.79499E-02   -0.40956E-04  8077   0.218E-02    0.449E-02
RMM:  23    -0.452991145803E+03   -0.25739E-02   -0.13224E-04  7371   0.160E-02    0.583E-02
RMM:  24    -0.452993599313E+03   -0.24535E-02   -0.14076E-04  7319   0.136E-02    0.507E-02
RMM:  25    -0.452994248000E+03   -0.64869E-03   -0.38734E-05  6032   0.869E-03    0.500E-02
RMM:  26    -0.452994463116E+03   -0.21512E-03   -0.34235E-05  5828   0.786E-03    0.231E-02
RMM:  27    -0.452994442233E+03    0.20883E-04   -0.64806E-06  4878   0.454E-03    0.200E-02
RMM:  28    -0.452994404936E+03    0.37297E-04   -0.57978E-06  5099   0.410E-03    0.844E-03
RMM:  29    -0.452994428490E+03   -0.23554E-04   -0.17833E-06  4561   0.276E-03    0.869E-03
RMM:  30    -0.452994478463E+03   -0.49973E-04   -0.14291E-06  4516   0.227E-03    0.550E-03
RMM:  31    -0.452994553209E+03   -0.74746E-04   -0.13079E-06  4341   0.177E-03    0.715E-03
RMM:  32    -0.452994640879E+03   -0.87670E-04   -0.14984E-06  4385   0.181E-03    0.373E-03
RMM:  33    -0.452994735224E+03   -0.94345E-04   -0.14226E-06  3953   0.148E-03    0.482E-03
RMM:  34    -0.452994804630E+03   -0.69405E-04   -0.93707E-07  3737   0.144E-03    0.193E-03
RMM:  35    -0.452994883503E+03   -0.78874E-04   -0.99613E-07  2815   0.123E-03    0.297E-03
RMM:  36    -0.452994922444E+03   -0.38940E-04   -0.44111E-07  2526   0.108E-03    0.196E-03
RMM:  37    -0.452994986743E+03   -0.64300E-04   -0.10147E-06  2881   0.118E-03    0.326E-03
RMM:  38    -0.452995010897E+03   -0.24153E-04   -0.35533E-07  2285   0.104E-03    0.271E-03
RMM:  39    -0.452995038284E+03   -0.27387E-04   -0.42145E-07  2412   0.106E-03    0.174E-03
RMM:  40    -0.452995050887E+03   -0.12602E-04   -0.34055E-07  2565   0.106E-03    0.130E-02
RMM:  41    -0.452995052304E+03   -0.14174E-05   -0.21229E-07  2519   0.101E-03
   6 F= -.45299505E+03 E0= -.45301455E+03  d E =-.386671E+00  mag=   135.0660
       N       E                     dE             d eps       ncg     rms          rms(c)
DAV:   1    -0.451564475023E+03    0.14306E+01   -0.28233E+02  8160   0.245E+01    0.107E+01
RMM:   2    -0.455447244827E+03   -0.38828E+01   -0.66820E+00  8219   0.685E+00    0.227E+01
RMM:   3    -0.458516686872E+03   -0.30694E+01   -0.48244E+00  8207   0.540E+00    0.303E+01
RMM:   4    -0.458245064368E+03    0.27162E+00   -0.20015E+00  8218   0.325E+00    0.291E+01
RMM:   5    -0.453192794469E+03    0.50523E+01   -0.11536E+00  8207   0.272E+00    0.550E+00
RMM:   6    -0.453081374250E+03    0.11142E+00   -0.24117E-01  8216   0.116E+00    0.358E+00
RMM:   7    -0.453032564427E+03    0.48810E-01   -0.50103E-02  8210   0.585E-01    0.205E+00
RMM:   8    -0.453026812175E+03    0.57523E-02   -0.25903E-02  8206   0.401E-01    0.183E+00
RMM:   9    -0.452992163293E+03    0.34649E-01   -0.20905E-02  8220   0.335E-01    0.133E+00
RMM:  10    -0.452984366997E+03    0.77963E-02   -0.22787E-02  8212   0.365E-01    0.126E+00
RMM:  11    -0.452980359709E+03    0.40073E-02   -0.90578E-03  8215   0.228E-01    0.878E-01
RMM:  12    -0.452980658034E+03   -0.29832E-03   -0.49227E-03  8206   0.175E-01    0.444E-01
RMM:  13    -0.452993924018E+03   -0.13266E-01   -0.16899E-03  8205   0.903E-02    0.411E-01
RMM:  14    -0.452998663889E+03   -0.47399E-02   -0.75652E-04  8179   0.690E-02    0.168E-01
RMM:  15    -0.453014764762E+03   -0.16101E-01   -0.48299E-04  8212   0.448E-02    0.245E-01
RMM:  16    -0.453027298040E+03   -0.12533E-01   -0.33349E-04  8165   0.395E-02    0.152E-01
RMM:  17    -0.453044754604E+03   -0.17457E-01   -0.38347E-04  8176   0.321E-02    0.183E-01
RMM:  18    -0.453059423199E+03   -0.14669E-01   -0.29987E-04  8137   0.279E-02    0.901E-02
RMM:  19    -0.453075904336E+03   -0.16481E-01   -0.36207E-04  8155   0.256E-02    0.135E-01
RMM:  20    -0.453092875504E+03   -0.16971E-01   -0.47145E-04  8105   0.253E-02    0.870E-02
RMM:  21    -0.453103717337E+03   -0.10842E-01   -0.34970E-04  8121   0.233E-02    0.111E-01
RMM:  22    -0.453112632542E+03   -0.89152E-02   -0.45447E-04  8112   0.232E-02    0.511E-02
RMM:  23    -0.453115217773E+03   -0.25852E-02   -0.12778E-04  7408   0.161E-02    0.602E-02
RMM:  24    -0.453117981443E+03   -0.27637E-02   -0.15257E-04  7385   0.141E-02    0.568E-02
RMM:  25    -0.453118681238E+03   -0.69979E-03   -0.42640E-05  6116   0.904E-03    0.572E-02
RMM:  26    -0.453118861197E+03   -0.17996E-03   -0.37762E-05  5899   0.806E-03    0.279E-02
RMM:  27    -0.453118827934E+03    0.33263E-04   -0.74325E-06  5007   0.465E-03    0.239E-02
RMM:  28    -0.453118800547E+03    0.27388E-04   -0.63326E-06  5087   0.430E-03    0.946E-03
RMM:  29    -0.453118834413E+03   -0.33867E-04   -0.21164E-06  4600   0.295E-03    0.973E-03
RMM:  30    -0.453118907261E+03   -0.72848E-04   -0.18033E-06  4563   0.247E-03    0.593E-03
RMM:  31    -0.453119016691E+03   -0.10943E-03   -0.17357E-06  4463   0.195E-03    0.807E-03
RMM:  32    -0.453119143900E+03   -0.12721E-03   -0.20116E-06  4575   0.205E-03    0.380E-03
RMM:  33    -0.453119280926E+03   -0.13703E-03   -0.19366E-06  4207   0.163E-03    0.501E-03
RMM:  34    -0.453119357547E+03   -0.76621E-04   -0.90647E-07  3843   0.153E-03    0.232E-03
RMM:  35    -0.453119464751E+03   -0.10720E-03   -0.12387E-06  3025   0.133E-03    0.341E-03
RMM:  36    -0.453119517114E+03   -0.52363E-04   -0.56370E-07  2711   0.115E-03    0.309E-03
RMM:  37    -0.453119600288E+03   -0.83174E-04   -0.12034E-06  2936   0.125E-03    0.319E-03
RMM:  38    -0.453119629055E+03   -0.28766E-04   -0.40135E-07  2353   0.109E-03    0.236E-03
RMM:  39    -0.453119665628E+03   -0.36573E-04   -0.74944E-07  3232   0.122E-03    0.153E-02
RMM:  40    -0.453119670141E+03   -0.45139E-05   -0.20358E-07  2447   0.102E-03
   7 F= -.45311967E+03 E0= -.45313779E+03  d E =-.511289E+00  mag=   135.2514
       N       E                     dE             d eps       ncg     rms          rms(c)
DAV:   1    -0.452704119043E+03    0.41555E+00   -0.94121E+01  8178   0.139E+01    0.621E+00
RMM:   2    -0.453699418667E+03   -0.99530E+00   -0.18772E+00  8219   0.369E+00    0.108E+01
RMM:   3    -0.454303410692E+03   -0.60399E+00   -0.15104E+00  8217   0.306E+00    0.141E+01
RMM:   4    -0.455136428156E+03   -0.83302E+00   -0.55829E-01  8218   0.180E+00    0.176E+01
RMM:   5    -0.453230184207E+03    0.19062E+01   -0.25988E-01  8206   0.125E+00    0.253E+00
RMM:   6    -0.453214048540E+03    0.16136E-01   -0.64898E-02  8215   0.616E-01    0.179E+00
RMM:   7    -0.453195781298E+03    0.18267E-01   -0.13695E-02  8212   0.321E-01    0.970E-01
RMM:   8    -0.453194627590E+03    0.11537E-02   -0.93361E-03  8206   0.239E-01    0.109E+00
RMM:   9    -0.453183992740E+03    0.10635E-01   -0.81444E-03  8223   0.210E-01    0.868E-01
RMM:  10    -0.453179755348E+03    0.42374E-02   -0.65842E-03  8213   0.197E-01    0.483E-01
RMM:  11    -0.453184440931E+03   -0.46856E-02   -0.20997E-03  8210   0.107E-01    0.490E-01
RMM:  12    -0.453185651416E+03   -0.12105E-02   -0.10813E-03  8205   0.842E-02    0.174E-01
RMM:  13    -0.453190932665E+03   -0.52812E-02   -0.41486E-04  8189   0.459E-02    0.229E-01
RMM:  14    -0.453193964385E+03   -0.30317E-02   -0.20778E-04  8159   0.364E-02    0.743E-02
RMM:  15    -0.453198865357E+03   -0.49010E-02   -0.12687E-04  8138   0.227E-02    0.129E-01
RMM:  16    -0.453203870358E+03   -0.50050E-02   -0.98895E-05  7755   0.194E-02    0.836E-02
RMM:  17    -0.453208821719E+03   -0.49514E-02   -0.96164E-05  7475   0.164E-02    0.932E-02
RMM:  18    -0.453213250006E+03   -0.44283E-02   -0.85646E-05  6995   0.148E-02    0.453E-02
RMM:  19    -0.453216886697E+03   -0.36367E-02   -0.79135E-05  7146   0.136E-02    0.726E-02
RMM:  20    -0.453221406376E+03   -0.45197E-02   -0.14446E-04  7370   0.145E-02    0.426E-02
RMM:  21    -0.453223299222E+03   -0.18928E-02   -0.60936E-05  6656   0.114E-02    0.486E-02
RMM:  22    -0.453226184018E+03   -0.28848E-02   -0.14356E-04  7270   0.133E-02    0.239E-02
RMM:  23    -0.453226744176E+03   -0.56016E-03   -0.20977E-05  5351   0.699E-03    0.269E-02
RMM:  24    -0.453227397058E+03   -0.65288E-03   -0.40796E-05  6006   0.731E-03    0.220E-02
RMM:  25    -0.453227430960E+03   -0.33902E-04   -0.84262E-06  4752   0.460E-03    0.169E-02
RMM:  26    -0.453227397929E+03    0.33031E-04   -0.71045E-06  5167   0.337E-03    0.823E-03
RMM:  27    -0.453227389310E+03    0.86189E-05   -0.14822E-06  4496   0.258E-03
   8 F= -.45322739E+03 E0= -.45324583E+03  d E =-.107719E+00  mag=   135.3483
       N       E                     dE             d eps       ncg     rms          rms(c)
DAV:   1    -0.453116903158E+03    0.11049E+00   -0.22532E+01  8256   0.677E+00    0.300E+00
RMM:   2    -0.453364370136E+03   -0.24747E+00   -0.38825E-01  8219   0.167E+00    0.539E+00
RMM:   3    -0.453713233951E+03   -0.34886E+00   -0.34138E-01  8218   0.143E+00    0.875E+00
RMM:   4    -0.453683405800E+03    0.29828E-01   -0.15537E-01  8215   0.900E-01    0.852E+00
RMM:   5    -0.453237579486E+03    0.44583E+00   -0.91494E-02  8211   0.773E-01    0.111E+00
RMM:   6    -0.453234792823E+03    0.27867E-02   -0.14132E-02  8219   0.281E-01    0.711E-01
RMM:   7    -0.453231724448E+03    0.30684E-02   -0.27358E-03  8207   0.135E-01    0.520E-01
RMM:   8    -0.453230870164E+03    0.85428E-03   -0.20671E-03  8188   0.114E-01    0.460E-01
RMM:   9    -0.453229158655E+03    0.17115E-02   -0.18499E-03  8223   0.100E-01    0.468E-01
RMM:  10    -0.453227914481E+03    0.12442E-02   -0.15130E-03  8193   0.961E-02    0.192E-01
RMM:  11    -0.453229082498E+03   -0.11680E-02   -0.49901E-04  8167   0.516E-02    0.253E-01
RMM:  12    -0.453229331107E+03   -0.24861E-03   -0.24451E-04  8155   0.406E-02    0.631E-02
RMM:  13    -0.453230238107E+03   -0.90700E-03   -0.71112E-05  7805   0.191E-02    0.932E-02
RMM:  14    -0.453231239926E+03   -0.10018E-02   -0.36021E-05  6429   0.146E-02    0.401E-02
RMM:  15    -0.453232026097E+03   -0.78617E-03   -0.22405E-05  5091   0.108E-02    0.566E-02
RMM:  16    -0.453233831263E+03   -0.18052E-02   -0.44843E-05  6266   0.113E-02    0.379E-02
RMM:  17    -0.453234410154E+03   -0.57889E-03   -0.12737E-05  4748   0.749E-03    0.373E-02
RMM:  18    -0.453235507788E+03   -0.10976E-02   -0.20964E-05  5301   0.737E-03    0.222E-02
RMM:  19    -0.453236157809E+03   -0.65002E-03   -0.13019E-05  4789   0.666E-03    0.291E-02
RMM:  20    -0.453237541871E+03   -0.13841E-02   -0.39074E-05  6072   0.770E-03    0.216E-02
RMM:  21    -0.453238154150E+03   -0.61228E-03   -0.15394E-05  4911   0.622E-03    0.254E-02
RMM:  22    -0.453239053141E+03   -0.89899E-03   -0.34542E-05  5705   0.679E-03    0.126E-02
RMM:  23    -0.453239222377E+03   -0.16924E-03   -0.66722E-06  4682   0.415E-03    0.125E-02
RMM:  24    -0.453239365886E+03   -0.14351E-03   -0.90532E-06  4804   0.363E-03    0.637E-03
RMM:  25    -0.453239370364E+03   -0.44777E-05   -0.25792E-06  4536   0.251E-03
   9 F= -.45323937E+03 E0= -.45325807E+03  d E =-.119700E+00  mag=   135.3843
       N       E                     dE             d eps       ncg     rms          rms(c)
DAV:   1    -0.453161617442E+03    0.77748E-01   -0.18971E+01  8256   0.622E+00    0.277E+00
RMM:   2    -0.453345029381E+03   -0.18341E+00   -0.29597E-01  8215   0.148E+00    0.444E+00
RMM:   3    -0.453874146031E+03   -0.52912E+00   -0.28335E-01  8218   0.126E+00    0.977E+00
RMM:   4    -0.453530916437E+03    0.34323E+00   -0.13617E-01  8220   0.850E-01    0.680E+00
RMM:   5    -0.453266413541E+03    0.26450E+00   -0.79732E-02  8208   0.728E-01    0.917E-01
RMM:   6    -0.453265169463E+03    0.12441E-02   -0.11698E-02  8210   0.248E-01    0.729E-01
RMM:   7    -0.453262954696E+03    0.22148E-02   -0.27271E-03  8210   0.132E-01    0.501E-01
RMM:   8    -0.453262410417E+03    0.54428E-03   -0.17485E-03  8193   0.105E-01    0.422E-01
RMM:   9    -0.453261459662E+03    0.95076E-03   -0.14372E-03  8218   0.895E-02    0.401E-01
RMM:  10    -0.453260750492E+03    0.70917E-03   -0.10464E-03  8195   0.800E-02    0.178E-01
RMM:  11    -0.453261075187E+03   -0.32470E-03   -0.38433E-04  8172   0.455E-02    0.216E-01
RMM:  12    -0.453260993402E+03    0.81786E-04   -0.18688E-04  8152   0.355E-02    0.487E-02
RMM:  13    -0.453261315798E+03   -0.32240E-03   -0.50935E-05  7244   0.164E-02    0.763E-02
RMM:  14    -0.453261595282E+03   -0.27948E-03   -0.24791E-05  5594   0.136E-02    0.308E-02
RMM:  15    -0.453261888538E+03   -0.29326E-03   -0.13008E-05  4716   0.850E-03    0.437E-02
RMM:  16    -0.453262491974E+03   -0.60344E-03   -0.15806E-05  4954   0.860E-03    0.217E-02
RMM:  17    -0.453262689374E+03   -0.19740E-03   -0.49070E-06  4587   0.507E-03    0.219E-02
RMM:  18    -0.453263146857E+03   -0.45748E-03   -0.64758E-06  4647   0.461E-03    0.151E-02
RMM:  19    -0.453263406320E+03   -0.25946E-03   -0.37935E-06  4589   0.389E-03    0.172E-02
RMM:  20    -0.453263989587E+03   -0.58327E-03   -0.92324E-06  4738   0.414E-03    0.123E-02
RMM:  21    -0.453264372105E+03   -0.38252E-03   -0.66252E-06  4644   0.400E-03    0.170E-02
RMM:  22    -0.453264914720E+03   -0.54261E-03   -0.14373E-05  4863   0.453E-03    0.894E-03
RMM:  23    -0.453265064884E+03   -0.15016E-03   -0.42222E-06  4642   0.305E-03    0.990E-03
RMM:  24    -0.453265202739E+03   -0.13785E-03   -0.46662E-06  4644   0.286E-03    0.444E-03
RMM:  25    -0.453265240698E+03   -0.37959E-04   -0.18484E-06  4345   0.197E-03    0.564E-03
RMM:  26    -0.453265250154E+03   -0.94561E-05   -0.20340E-06  4243   0.182E-03
  10 F= -.45326525E+03 E0= -.45328424E+03  d E =-.258798E-01  mag=   135.4008
       N       E                     dE             d eps       ncg     rms          rms(c)
DAV:   1    -0.453252657071E+03    0.12584E-01   -0.27216E+00  8358   0.235E+00    0.104E+00
RMM:   2    -0.453280259398E+03   -0.27602E-01   -0.41454E-02  8213   0.554E-01    0.176E+00
RMM:   3    -0.453359885285E+03   -0.79626E-01   -0.38785E-02  8217   0.464E-01    0.379E+00
RMM:   4    -0.453304375582E+03    0.55510E-01   -0.20488E-02  8217   0.328E-01    0.254E+00
RMM:   5    -0.453267373717E+03    0.37002E-01   -0.11686E-02  8208   0.280E-01    0.331E-01
RMM:   6    -0.453267053873E+03    0.31984E-03   -0.13869E-03  8212   0.845E-02    0.204E-01
RMM:   7    -0.453266709373E+03    0.34450E-03   -0.29846E-04  8162   0.418E-02    0.183E-01
RMM:   8    -0.453266543596E+03    0.16578E-03   -0.23523E-04  8161   0.386E-02    0.128E-01
RMM:   9    -0.453266405159E+03    0.13844E-03   -0.21809E-04  8160   0.344E-02    0.178E-01
RMM:  10    -0.453266214799E+03    0.19036E-03   -0.14548E-04  8123   0.301E-02    0.583E-02
RMM:  11    -0.453266256265E+03   -0.41466E-04   -0.45751E-05  7165   0.160E-02    0.745E-02
RMM:  12    -0.453266266794E+03   -0.10529E-04   -0.19018E-05  4837   0.129E-02    0.166E-02
RMM:  13    -0.453266318417E+03   -0.51623E-04   -0.50190E-06  4501   0.539E-03    0.209E-02
RMM:  14    -0.453266428842E+03   -0.11043E-03   -0.36332E-06  4570   0.490E-03    0.127E-02
RMM:  15    -0.453266489346E+03   -0.60504E-04   -0.16276E-06  4472   0.302E-03    0.136E-02
RMM:  16    -0.453266642940E+03   -0.15359E-03   -0.22533E-06  4566   0.277E-03    0.894E-03
RMM:  17    -0.453266713016E+03   -0.70075E-04   -0.10543E-06  4423   0.222E-03    0.914E-03
RMM:  18    -0.453266818481E+03   -0.10547E-03   -0.10526E-06  4358   0.185E-03    0.569E-03
RMM:  19    -0.453266886659E+03   -0.68178E-04   -0.61259E-07  4099   0.147E-03    0.681E-03
RMM:  20    -0.453267058045E+03   -0.17139E-03   -0.20401E-06  4207   0.171E-03    0.462E-03
RMM:  21    -0.453267159554E+03   -0.10151E-03   -0.14182E-06  4350   0.159E-03    0.603E-03
RMM:  22    -0.453267270625E+03   -0.11107E-03   -0.20630E-06  4213   0.173E-03    0.313E-03
RMM:  23    -0.453267333064E+03   -0.62439E-04   -0.16042E-06  3904   0.142E-03    0.420E-03
RMM:  24    -0.453267365333E+03   -0.32270E-04   -0.13614E-06  3724   0.142E-03    0.188E-03
RMM:  25    -0.453267370995E+03   -0.56617E-05   -0.41541E-07  2692   0.107E-03
  11 F= -.45326737E+03 E0= -.45328648E+03  d E =-.280006E-01  mag=   135.4068
       N       E                     dE             d eps       ncg     rms          rms(c)
DAV:   1    -0.453248218302E+03    0.19147E-01   -0.44757E+00  8310   0.301E+00    0.141E+00
RMM:   2    -0.453300307419E+03   -0.52089E-01   -0.76961E-02  8209   0.752E-01    0.257E+00
RMM:   3    -0.453388839298E+03   -0.88532E-01   -0.75754E-02  8217   0.664E-01    0.435E+00
RMM:   4    -0.453363782539E+03    0.25057E-01   -0.34150E-02  8218   0.418E-01    0.386E+00
RMM:   5    -0.453274531886E+03    0.89251E-01   -0.21212E-02  8201   0.371E-01    0.488E-01
RMM:   6    -0.453274099924E+03    0.43196E-03   -0.26449E-03  8201   0.118E-01    0.278E-01
RMM:   7    -0.453273941569E+03    0.15836E-03   -0.53819E-04  8196   0.561E-02    0.252E-01
RMM:   8    -0.453273762130E+03    0.17944E-03   -0.42646E-04  8171   0.521E-02    0.183E-01
RMM:   9    -0.453273791708E+03   -0.29578E-04   -0.41246E-04  8185   0.476E-02    0.239E-01
RMM:  10    -0.453273543127E+03    0.24858E-03   -0.29138E-04  8160   0.423E-02    0.874E-02
RMM:  11    -0.453273560285E+03   -0.17158E-04   -0.89234E-05  8016   0.222E-02    0.109E-01
RMM:  12    -0.453273506631E+03    0.53653E-04   -0.38333E-05  6813   0.166E-02    0.258E-02
RMM:  13    -0.453273512531E+03   -0.58994E-05   -0.91566E-06  4450   0.759E-03
  12 F= -.45327351E+03 E0= -.45329248E+03  d E =-.614154E-02  mag=   135.4082
       N       E                     dE             d eps       ncg     rms          rms(c)
DAV:   1    -0.453249953708E+03    0.23553E-01   -0.41007E+00  8196   0.289E+00    0.134E+00
RMM:   2    -0.453296787930E+03   -0.46834E-01   -0.69906E-02  8210   0.717E-01    0.242E+00
RMM:   3    -0.453379611809E+03   -0.82824E-01   -0.69043E-02  8216   0.634E-01    0.418E+00
RMM:   4    -0.453355051487E+03    0.24560E-01   -0.31014E-02  8221   0.398E-01    0.368E+00
RMM:   5    -0.453274153854E+03    0.80898E-01   -0.19364E-02  8194   0.355E-01    0.458E-01
RMM:   6    -0.453273722431E+03    0.43142E-03   -0.23779E-03  8195   0.112E-01    0.264E-01
RMM:   7    -0.453273523756E+03    0.19868E-03   -0.49251E-04  8193   0.536E-02    0.239E-01
RMM:   8    -0.453273350725E+03    0.17303E-03   -0.38980E-04  8170   0.498E-02    0.173E-01
RMM:   9    -0.453273375483E+03   -0.24758E-04   -0.38146E-04  8180   0.458E-02    0.232E-01
RMM:  10    -0.453273148564E+03    0.22692E-03   -0.26869E-04  8161   0.407E-02    0.826E-02
RMM:  11    -0.453273181187E+03   -0.32622E-04   -0.80342E-05  7956   0.211E-02    0.103E-01
RMM:  12    -0.453273145522E+03    0.35665E-04   -0.33366E-05  6367   0.156E-02    0.243E-02
RMM:  13    -0.453273163519E+03   -0.17998E-04   -0.82960E-06  4444   0.721E-03    0.282E-02
RMM:  14    -0.453273196441E+03   -0.32922E-04   -0.46534E-06  4440   0.632E-03    0.121E-02
RMM:  15    -0.453273216286E+03   -0.19845E-04   -0.15509E-06  4345   0.328E-03    0.126E-02
RMM:  16    -0.453273278197E+03   -0.61911E-04   -0.12774E-06  4457   0.280E-03    0.882E-03
RMM:  17    -0.453273299859E+03   -0.21662E-04   -0.65077E-07  4329   0.216E-03    0.614E-03
RMM:  18    -0.453273337899E+03   -0.38040E-04   -0.31687E-07  3653   0.125E-03    0.409E-03
RMM:  19    -0.453273356954E+03   -0.19055E-04   -0.13842E-07  2906   0.107E-03    0.388E-03
RMM:  20    -0.453273411825E+03   -0.54871E-04   -0.28603E-07  2478   0.101E-03    0.312E-03
RMM:  21    -0.453273437884E+03   -0.26060E-04   -0.19497E-07  2492   0.968E-04    0.308E-03
RMM:  22    -0.453273510102E+03   -0.72218E-04   -0.93459E-07  3344   0.114E-03    0.271E-03
RMM:  23    -0.453273539785E+03   -0.29683E-04   -0.37305E-07  2865   0.101E-03    0.243E-03
RMM:  24    -0.453273588643E+03   -0.48858E-04   -0.85902E-07  2889   0.108E-03    0.161E-03
RMM:  25    -0.453273600180E+03   -0.11537E-04   -0.24414E-07  2363   0.954E-04    0.133E-03
RMM:  26    -0.453273617112E+03   -0.16932E-04   -0.77651E-07  2908   0.103E-03    0.104E-03
RMM:  27    -0.453273618537E+03   -0.14246E-05   -0.10353E-07  1850   0.880E-04
  13 F= -.45327362E+03 E0= -.45329249E+03  d E =-.624754E-02  mag=   135.4071
       N       E                     dE             d eps       ncg     rms          rms(c)
DAV:   1    -0.453268264990E+03    0.53521E-02   -0.10859E+00  8349   0.148E+00    0.692E-01
RMM:   2    -0.453281995218E+03   -0.13730E-01   -0.19298E-02  8208   0.378E-01    0.135E+00
RMM:   3    -0.453308188310E+03   -0.26193E-01   -0.17331E-02  8217   0.314E-01    0.235E+00
RMM:   4    -0.453292930731E+03    0.15258E-01   -0.89045E-03  8210   0.212E-01    0.178E+00
RMM:   5    -0.453274615082E+03    0.18316E-01   -0.53016E-03  8195   0.188E-01    0.240E-01
RMM:   6    -0.453274482849E+03    0.13223E-03   -0.55968E-04  8183   0.540E-02    0.119E-01
RMM:   7    -0.453274443887E+03    0.38962E-04   -0.11923E-04  8159   0.260E-02    0.109E-01
RMM:   8    -0.453274400920E+03    0.42966E-04   -0.10063E-04  8122   0.252E-02    0.691E-02
RMM:   9    -0.453274418586E+03   -0.17666E-04   -0.81619E-05  8016   0.207E-02    0.107E-01
RMM:  10    -0.453274365507E+03    0.53079E-04   -0.49739E-05  7336   0.180E-02    0.293E-02
RMM:  11    -0.453274370040E+03   -0.45333E-05   -0.11574E-05  4516   0.857E-03
  14 F= -.45327437E+03 E0= -.45329329E+03  d E =-.699905E-02  mag=   135.4078
       N       E                     dE             d eps       ncg     rms          rms(c)
DAV:   1    -0.453263053950E+03    0.11312E-01   -0.24511E+00  8274   0.223E+00    0.103E+00
RMM:   2    -0.453280439205E+03   -0.17385E-01   -0.34386E-02  8217   0.505E-01    0.117E+00
RMM:   3    -0.453307970481E+03   -0.27531E-01   -0.34804E-02  8207   0.454E-01    0.242E+00
RMM:   4    -0.453309466542E+03   -0.14961E-02   -0.13211E-02  8204   0.290E-01    0.222E+00
RMM:   5    -0.453277759086E+03    0.31707E-01   -0.44344E-03  8204   0.161E-01    0.249E-01
RMM:   6    -0.453277742229E+03    0.16858E-04   -0.76091E-04  8186   0.630E-02    0.185E-01
RMM:   7    -0.453277605965E+03    0.13626E-03   -0.22761E-04  8168   0.355E-02    0.130E-01
RMM:   8    -0.453277591208E+03    0.14757E-04   -0.21986E-04  8165   0.360E-02    0.125E-01
RMM:   9    -0.453277600593E+03   -0.93850E-05   -0.16570E-04  8152   0.290E-02    0.123E-01
RMM:  10    -0.453277548200E+03    0.52393E-04   -0.82678E-05  8013   0.220E-02    0.439E-02
RMM:  11    -0.453277562017E+03   -0.13817E-04   -0.16497E-05  4746   0.103E-02    0.487E-02
RMM:  12    -0.453277555526E+03    0.64914E-05   -0.93114E-06  4440   0.956E-03
  15 F= -.45327756E+03 E0= -.45329643E+03  d E =-.318549E-02  mag=   135.4075
       N       E                     dE             d eps       ncg     rms          rms(c)
DAV:   1    -0.453266499438E+03    0.11063E-01   -0.20574E+00  8166   0.204E+00    0.944E-01
RMM:   2    -0.453281214857E+03   -0.14715E-01   -0.29000E-02  8214   0.463E-01    0.108E+00
RMM:   3    -0.453304348759E+03   -0.23134E-01   -0.29478E-02  8211   0.418E-01    0.222E+00
RMM:   4    -0.453306145135E+03   -0.17964E-02   -0.11126E-02  8206   0.266E-01    0.206E+00
RMM:   5    -0.453278865375E+03    0.27280E-01   -0.38113E-03  8202   0.149E-01    0.231E-01
RMM:   6    -0.453278845172E+03    0.20203E-04   -0.63785E-04  8189   0.578E-02    0.167E-01
RMM:   7    -0.453278736531E+03    0.10864E-03   -0.18798E-04  8161   0.324E-02    0.122E-01
RMM:   8    -0.453278715919E+03    0.20611E-04   -0.17550E-04  8160   0.324E-02    0.110E-01
RMM:   9    -0.453278736420E+03   -0.20501E-04   -0.13393E-04  8138   0.262E-02    0.123E-01
RMM:  10    -0.453278676473E+03    0.59947E-04   -0.73114E-05  7855   0.210E-02    0.403E-02
RMM:  11    -0.453278688323E+03   -0.11850E-04   -0.16595E-05  4695   0.102E-02    0.491E-02
RMM:  12    -0.453278680561E+03    0.77618E-05   -0.92774E-06  4446   0.952E-03
  16 F= -.45327868E+03 E0= -.45329752E+03  d E =-.431052E-02  mag=   135.4073
       N       E                     dE             d eps       ncg     rms          rms(c)
DAV:   1    -0.453266235337E+03    0.12453E-01   -0.24839E+00  8196   0.223E+00    0.105E+00
RMM:   2    -0.453282924925E+03   -0.16690E-01   -0.32743E-02  8217   0.488E-01    0.101E+00
RMM:   3    -0.453344795678E+03   -0.61871E-01   -0.30955E-02  8218   0.422E-01    0.321E+00
RMM:   4    -0.453305655988E+03    0.39140E-01   -0.12485E-02  8215   0.267E-01    0.199E+00
RMM:   5    -0.453281618547E+03    0.24037E-01   -0.64135E-03  8195   0.202E-01    0.195E-01
RMM:   6    -0.453281765963E+03   -0.14742E-03   -0.84749E-04  8191   0.639E-02    0.242E-01
RMM:   7    -0.453281505401E+03    0.26056E-03   -0.28764E-04  8163   0.410E-02    0.147E-01
RMM:   8    -0.453281451763E+03    0.53638E-04   -0.21449E-04  8160   0.356E-02    0.113E-01
RMM:   9    -0.453281466428E+03   -0.14665E-04   -0.16927E-04  8159   0.286E-02    0.126E-01
RMM:  10    -0.453281402267E+03    0.64161E-04   -0.81246E-05  7947   0.217E-02    0.424E-02
RMM:  11    -0.453281414087E+03   -0.11820E-04   -0.18984E-05  4920   0.109E-02    0.492E-02
RMM:  12    -0.453281406157E+03    0.79302E-05   -0.10836E-05  4444   0.105E-02
  17 F= -.45328141E+03 E0= -.45330033E+03  d E =-.272560E-02  mag=   135.4079
