 vasp.5.4.4.18Apr17-6-g9f103f2a35 (build Sep 06 2021 19:49:22) complex          
  
 executed on             LinuxIFC date 2022.01.05  14:36:03
 running on   72 total cores
 distrk:  each k-point on   72 cores,    1 groups
 distr:  one band on NCORES_PER_BAND=  24 cores,    3 groups


--------------------------------------------------------------------------------------------------------


 INCAR:
 POTCAR:    PAW_PBE Fe 06Sep2000                  
 POTCAR:    PAW_PBE Ni 02Aug2007                  

 ----------------------------------------------------------------------------- 
|                                                                             |
|           W    W    AA    RRRRR   N    N  II  N    N   GGGG   !!!           |
|           W    W   A  A   R    R  NN   N  II  NN   N  G    G  !!!           |
|           W    W  A    A  R    R  N N  N  II  N N  N  G       !!!           |
|           W WW W  AAAAAA  RRRRR   N  N N  II  N  N N  G  GGG   !            |
|           WW  WW  A    A  R   R   N   NN  II  N   NN  G    G                |
|           W    W  A    A  R    R  N    N  II  N    N   GGGG   !!!           |
|                                                                             |
|      For optimal performance we recommend to set                            |
|        NCORE= 4 - approx SQRT( number of cores)                             |
|      NCORE specifies how many cores store one orbital (NPAR=cpu/NCORE).     |
|      This setting can  greatly improve the performance of VASP for DFT.     |
|      The default,   NCORE=1            might be grossly inefficient         |
|      on modern multi-core architectures or massively parallel machines.     |
|      Do your own testing !!!!                                               |
|      Unfortunately you need to use the default for GW and RPA calculations. |
|      (for HF NCORE is supported but not extensively tested yet)             |
|                                                                             |
 ----------------------------------------------------------------------------- 

 POTCAR:    PAW_PBE Fe 06Sep2000                  
   VRHFIN =Fe:  d7 s1                                                           
   LEXCH  = PE                                                                  
   EATOM  =   594.3153 eV,   43.6809 Ry                                         
                                                                                
   TITEL  = PAW_PBE Fe 06Sep2000                                                
   LULTRA =        F    use ultrasoft PP ?                                      
   IUNSCR =        1    unscreen: 0-lin 1-nonlin 2-no                           
   RPACOR =    2.000    partial core radius                                     
   POMASS =   55.847; ZVAL   =    8.000    mass and valenz                      
   RCORE  =    2.300    outmost cutoff radius                                   
   RWIGS  =    2.460; RWIGS  =    1.302    wigner-seitz radius (au A)           
   ENMAX  =  267.882; ENMIN  =  200.911 eV                                      
   RCLOC  =    1.701    cutoff for local pot                                    
   LCOR   =        T    correct aug charges                                     
   LPAW   =        T    paw PP                                                  
   EAUG   =  511.368                                                            
   DEXC   =    0.000                                                            
   RMAX   =    2.356    core radius for proj-oper                               
   RAUG   =    1.300    factor for augmentation sphere                          
   RDEP   =    2.442    radius for radial grids                                 
   RDEPT  =    1.890    core radius for aug-charge                              
                                                                                
   Atomic configuration                                                         
    9 entries                                                                   
     n  l   j            E        occ.                                          
     1  0  0.50     -6993.8440   2.0000                                         
     2  0  0.50      -814.6047   2.0000                                         
     2  1  1.50      -693.3689   6.0000                                         
     3  0  0.50       -89.4732   2.0000                                         
     3  1  1.50       -55.6373   6.0000                                         
     3  2  2.50        -3.8151   7.0000                                         
     4  0  0.50        -4.2551   1.0000                                         
     4  1  1.50        -3.4015   0.0000                                         
     4  3  2.50        -1.3606   0.0000                                         
   Description                                                                  
     l       E           TYP  RCUT    TYP  RCUT                                 
     2     -3.8151135     23  2.300                                             
     2     -5.1756961     23  2.300                                             
     0     -4.2550963     23  2.300                                             
     0      7.2035603     23  2.300                                             
     1     -2.7211652     23  2.300                                             
     1     18.4316424     23  2.300                                             
  local pseudopotential read in
  partial core-charges read in
  partial kinetic energy density read in
  atomic valenz-charges read in
  non local Contribution for L=           2  read in
    real space projection operators read in
  non local Contribution for L=           2  read in
    real space projection operators read in
  non local Contribution for L=           0  read in
    real space projection operators read in
  non local Contribution for L=           0  read in
    real space projection operators read in
  non local Contribution for L=           1  read in
    real space projection operators read in
  non local Contribution for L=           1  read in
    real space projection operators read in
    PAW grid and wavefunctions read in
 
   number of l-projection  operators is LMAX  =           6
   number of lm-projection operators is LMMAX =          18
 
 POTCAR:    PAW_PBE Ni 02Aug2007                  
   VRHFIN =Ni:                                                                  
   LEXCH  = PE                                                                  
   EATOM  =  1077.6739 eV,   79.2068 Ry                                         
                                                                                
   TITEL  = PAW_PBE Ni 02Aug2007                                                
   LULTRA =        F    use ultrasoft PP ?                                      
   IUNSCR =        1    unscreen: 0-lin 1-nonlin 2-no                           
   RPACOR =    2.000    partial core radius                                     
   POMASS =   58.690; ZVAL   =   10.000    mass and valenz                      
   RCORE  =    2.300    outmost cutoff radius                                   
   RWIGS  =    2.430; RWIGS  =    1.286    wigner-seitz radius (au A)           
   ENMAX  =  269.532; ENMIN  =  202.149 eV                                      
   RCLOC  =    1.201    cutoff for local pot                                    
   LCOR   =        T    correct aug charges                                     
   LPAW   =        T    paw PP                                                  
   EAUG   =  544.565                                                            
   DEXC   =    0.000                                                            
   RMAX   =    2.357    core radius for proj-oper                               
   RAUG   =    1.300    factor for augmentation sphere                          
   RDEP   =    2.390    radius for radial grids                                 
   RDEPT  =    1.838    core radius for aug-charge                              
                                                                                
   Atomic configuration                                                         
    9 entries                                                                   
     n  l   j            E        occ.                                          
     1  0  0.50     -8206.4253   2.0000                                         
     2  0  0.50      -976.1748   2.0000                                         
     2  1  1.50      -839.0571   6.0000                                         
     3  0  0.50      -105.9991   2.0000                                         
     3  1  1.50       -66.4603   6.0000                                         
     3  2  2.50        -4.6458   9.0000                                         
     4  0  0.50        -4.4926   1.0000                                         
     4  1  1.50        -4.0817   0.0000                                         
     4  3  2.50        -1.3606   0.0000                                         
   Description                                                                  
     l       E           TYP  RCUT    TYP  RCUT                                 
     2     -4.6457903     23  2.300                                             
     2     -6.0063729     23  2.300                                             
     0     -4.4925590     23  2.300                                             
     0      5.0102601     23  2.300                                             
     1     -2.7211652     23  2.300                                             
     1     16.5183231     23  2.300                                             
  local pseudopotential read in
  partial core-charges read in
  partial kinetic energy density read in
  atomic valenz-charges read in
  non local Contribution for L=           2  read in
    real space projection operators read in
  non local Contribution for L=           2  read in
    real space projection operators read in
  non local Contribution for L=           0  read in
    real space projection operators read in
  non local Contribution for L=           0  read in
    real space projection operators read in
  non local Contribution for L=           1  read in
    real space projection operators read in
  non local Contribution for L=           1  read in
    real space projection operators read in
    PAW grid and wavefunctions read in
 
   number of l-projection  operators is LMAX  =           6
   number of lm-projection operators is LMMAX =          18
 
 Optimization of the real space projectors (new method)

 maximal supplied QI-value         = 16.25
 optimisation between [QCUT,QGAM] = [ 11.54, 23.24] = [ 37.28,151.24] Ry 
 Optimized for a Real-space Cutoff    1.53 Angstroem

   l    n(q)    QCUT    max X(q) W(low)/X(q) W(high)/X(q)  e(spline) 
   2     10    11.539    80.901    0.11E-03    0.14E-03    0.21E-06
   2     10    11.539    75.754    0.11E-03    0.14E-03    0.22E-06
   0     11    11.539    58.752    0.52E-04    0.18E-04    0.33E-06
   0     11    11.539    30.679    0.44E-04    0.16E-04    0.30E-06
   1     10    11.539    17.977    0.53E-04    0.29E-04    0.13E-06
   1     10    11.539    13.559    0.44E-04    0.25E-04    0.11E-06
 Optimization of the real space projectors (new method)

 maximal supplied QI-value         = 16.25
 optimisation between [QCUT,QGAM] = [ 11.54, 23.24] = [ 37.28,151.24] Ry 
 Optimized for a Real-space Cutoff    1.45 Angstroem

   l    n(q)    QCUT    max X(q) W(low)/X(q) W(high)/X(q)  e(spline) 
   2      9    11.539    60.317    0.19E-03    0.47E-04    0.16E-06
   2      9    11.539    55.921    0.19E-03    0.48E-04    0.16E-06
   0     10    11.539    51.690    0.80E-04    0.50E-04    0.24E-06
   0     10    11.539    30.015    0.73E-04    0.45E-04    0.22E-06
   1     10    11.539    18.849    0.87E-04    0.16E-03    0.71E-07
   1     10    11.539    14.624    0.73E-04    0.13E-03    0.64E-07
  PAW_PBE Fe 06Sep2000                  :
 energy of atom  1       EATOM= -594.3153
 kinetic energy error for atom=    0.0026 (will be added to EATOM!!)
  PAW_PBE Ni 02Aug2007                  :
 energy of atom  2       EATOM=-1077.6739
 kinetic energy error for atom=    0.0030 (will be added to EATOM!!)
 
 
 POSCAR: POSCAR                                  
  positions in direct lattice
  velocities in cartesian coordinates
 exchange correlation table for  LEXCH =        8
   RHO(1)=    0.500       N(1)  =     2000
   RHO(2)=  100.500       N(2)  =     4000
 


--------------------------------------------------------------------------------------------------------


 ion  position               nearest neighbor table
   1  0.002  0.999  0.195-   5 2.39  64 2.41  40 2.45  26 2.50  48 2.51   4 2.53  49 2.54  33 2.55
                            52 2.56  46 2.56   7 2.58   3 2.60
   2  0.499  0.996  0.194-  61 2.43   9 2.43   3 2.47  41 2.49  62 2.51  29 2.52  27 2.52  48 2.53
                            13 2.55  51 2.55  50 2.58  10 2.59
   3  0.743  0.996  0.193-  61 2.44  44 2.46   2 2.47  64 2.47  29 2.47  12 2.49  13 2.49  33 2.53
                            52 2.53  51 2.54  49 2.59   1 2.60
   4  0.249  0.253  0.195-   5 2.37  18 2.37   6 2.46  49 2.49  55 2.51  16 2.52  17 2.53   1 2.53
                            50 2.54  48 2.58  21 2.60   7 2.62
   5  0.090  0.163  0.285-   8 2.35   4 2.37   1 2.39   6 2.41  49 2.45  56 2.48  53 2.49  40 2.49
                            18 2.52  64 2.55  54 2.60  12 2.67
   6  0.330  0.166  0.287-   8 2.31  22 2.32  11 2.34   5 2.41   4 2.46  18 2.47  48 2.48  50 2.49
                            41 2.51  40 2.51   9 2.56  20 2.60
   7  0.168  0.081  0.095-  42 2.50  21 2.52  10 2.54  46 2.54  55 2.55  52 2.55  48 2.55   1 2.58
                             4 2.62
   8  0.170  0.084  0.373-   6 2.31   5 2.35  40 2.36  22 2.48  11 2.49  56 2.51  43 2.52  53 2.57
                            47 2.59
   9  0.581  0.162  0.286-  14 2.32  11 2.34  25 2.41   2 2.43  51 2.45  12 2.47  50 2.47  61 2.51
                            23 2.52  41 2.54   6 2.56  20 2.60
  10  0.422  0.087  0.095-  21 2.43  24 2.47  13 2.50  62 2.52   7 2.54  50 2.55   2 2.59  48 2.60
                            42 2.61
  11  0.417  0.085  0.373-   9 2.34   6 2.34  41 2.35  22 2.44   8 2.49  14 2.51  25 2.52  63 2.52
                            43 2.55
  12  0.827  0.165  0.287-  14 2.30  51 2.44  53 2.44   9 2.47  58 2.47  49 2.49   3 2.49  61 2.51
                            23 2.54  54 2.56  64 2.57   5 2.67
  13  0.667  0.083  0.097-   3 2.49  10 2.50  52 2.52  57 2.54  62 2.54  51 2.54   2 2.55  44 2.56
                            24 2.58
  14  0.671  0.095  0.373-  12 2.30   9 2.32  61 2.45  25 2.45  58 2.47  11 2.51  53 2.55  63 2.59
                            45 2.73
  15  0.003  0.511  0.193-  28 2.43  27 2.44  26 2.45  31 2.45  38 2.46  19 2.48  54 2.49  23 2.53
                            57 2.56  16 2.58  51 2.60  49 2.63
  16  0.256  0.506  0.196-  30 2.36  18 2.43  54 2.44  27 2.45  29 2.47  17 2.48   4 2.52  59 2.54
                            31 2.57  49 2.58  15 2.58  55 2.58
  17  0.500  0.503  0.196-  18 2.36  34 2.38  20 2.43  29 2.48  16 2.48  33 2.50   4 2.53  59 2.53
                            50 2.54  19 2.58  36 2.61  21 2.64
  18  0.338  0.414  0.284-  17 2.36   4 2.37  22 2.40  16 2.43   6 2.47  56 2.48  20 2.48  34 2.48
                            60 2.50   5 2.52  30 2.55  54 2.60
  19  0.757  0.508  0.195-  35 2.39  26 2.40  23 2.41  20 2.46  15 2.48  33 2.48  38 2.50  36 2.53
                            51 2.57  17 2.58  50 2.60  24 2.63
  20  0.587  0.423  0.287-  37 2.34  25 2.37  22 2.39  17 2.43  23 2.45  35 2.45  19 2.46  34 2.47
                            18 2.48  50 2.49   6 2.60   9 2.60
  21  0.420  0.327  0.095-  24 2.41  10 2.43  50 2.49   7 2.52  55 2.56  36 2.58   4 2.60  59 2.61
                            17 2.64
  22  0.417  0.327  0.374-   6 2.32  20 2.39  18 2.40  11 2.44  25 2.47   8 2.48  56 2.54  37 2.59
                            60 2.60
  23  0.826  0.415  0.286-  25 2.34  39 2.38  19 2.41  35 2.44  51 2.44  20 2.45  58 2.46   9 2.52
                            15 2.53  12 2.54  54 2.59  28 2.60
  24  0.662  0.335  0.094-  21 2.41  10 2.47  36 2.48  57 2.56  50 2.56  38 2.57  13 2.58  51 2.61
                            19 2.63
  25  0.666  0.335  0.374-  23 2.34  20 2.37   9 2.41  14 2.45  22 2.47  37 2.51  11 2.52  58 2.52
                            39 2.52
  26  0.992  0.747  0.194-  19 2.40  35 2.42  28 2.44  46 2.45  15 2.45  40 2.47  33 2.48  38 2.48
                             1 2.50  48 2.57  42 2.59  27 2.63
  27  0.251  0.746  0.195-  30 2.40  28 2.42  15 2.44  16 2.45  41 2.46  31 2.48  29 2.52   2 2.52
                            62 2.53  48 2.56  26 2.63  42 2.63
  28  0.084  0.672  0.286-  32 2.37  43 2.38  39 2.39  27 2.42  15 2.43  26 2.44  40 2.45  41 2.46
                            35 2.47  30 2.52  54 2.57  23 2.60
  29  0.502  0.749  0.196-  34 2.40  61 2.41  30 2.45  16 2.47   3 2.47  17 2.48  33 2.49  27 2.52
                             2 2.52  44 2.52  59 2.55  62 2.58
  30  0.328  0.661  0.286-  32 2.34  16 2.36  27 2.40  29 2.45  60 2.46  54 2.48  63 2.51  28 2.52
                            34 2.53  18 2.55  61 2.56  41 2.59
  31  0.164  0.589  0.099-  15 2.45  42 2.46  38 2.47  27 2.48  62 2.51  57 2.53  16 2.57  59 2.60
                            55 2.61
  32  0.169  0.594  0.374-  30 2.34  28 2.37  43 2.43  54 2.45  63 2.48  39 2.53  60 2.58  58 2.58
                            56 2.65
  33  0.748  0.749  0.192-  44 2.43  64 2.45  26 2.48  19 2.48  34 2.48  29 2.49  17 2.50  36 2.50
                            46 2.50   3 2.53  35 2.54   1 2.55
  34  0.580  0.663  0.286-  45 2.37  17 2.38  37 2.39  29 2.40  60 2.42  20 2.47  33 2.48  18 2.48
                            61 2.53  30 2.53  64 2.56  35 2.59
  35  0.834  0.661  0.287-  39 2.30  37 2.33  47 2.35  19 2.39  26 2.42  23 2.44  20 2.45  28 2.47
                            33 2.54  40 2.55  64 2.57  34 2.59
  36  0.672  0.585  0.096-  46 2.47  24 2.48  38 2.49  33 2.50  44 2.50  19 2.53  59 2.55  21 2.58
                            17 2.61
  37  0.671  0.586  0.374-  35 2.33  20 2.34  34 2.39  45 2.42  47 2.46  39 2.47  25 2.51  60 2.55
                            22 2.59
  38  0.919  0.587  0.098-  46 2.43  15 2.46  42 2.47  31 2.47  26 2.48  36 2.49  19 2.50  57 2.52
                            24 2.57
  39  0.915  0.584  0.374-  35 2.30  23 2.38  28 2.39  47 2.43  37 2.47  58 2.51  25 2.52  32 2.53
                            43 2.53
  40  0.085  0.915  0.287-   8 2.36  43 2.36  47 2.38  41 2.43   1 2.45  48 2.45  28 2.45  26 2.47
                             5 2.49   6 2.51  64 2.54  35 2.55
  41  0.326  0.916  0.287-  43 2.35  11 2.35  48 2.42  40 2.43  28 2.46  27 2.46  63 2.48   2 2.49
                             6 2.51   9 2.54  30 2.59  61 2.60
  42  0.163  0.832  0.095-  46 2.45  31 2.46  38 2.47   7 2.50  62 2.53  48 2.57  26 2.59  10 2.61
                            27 2.63
  43  0.166  0.833  0.375-  41 2.35  40 2.36  28 2.38  32 2.43  47 2.49   8 2.52  63 2.52  39 2.53
                            11 2.55
  44  0.669  0.831  0.100-  33 2.43   3 2.46  52 2.50  36 2.50  59 2.51  29 2.52  46 2.54  13 2.56
                            62 2.59
  45  0.671  0.825  0.375-  34 2.37  64 2.40  37 2.42  61 2.46  47 2.47  60 2.49  53 2.53  63 2.63
                            14 2.73
  46  0.919  0.827  0.098-  38 2.43  26 2.45  42 2.45  36 2.47  33 2.50   7 2.54  44 2.54   1 2.56
                            52 2.57
  47  0.917  0.826  0.374-  35 2.35  40 2.38  64 2.43  39 2.43  37 2.46  45 2.47  43 2.49   8 2.59
                            53 2.59
  48  0.249  0.998  0.194-  41 2.42  40 2.45   6 2.48   1 2.51   2 2.53  50 2.55   7 2.55  27 2.56
                            42 2.57  26 2.57   4 2.58  10 2.60
  49  0.001  0.250  0.195-  54 2.41   5 2.45  12 2.49   4 2.49   1 2.54  51 2.55  55 2.56  52 2.57
                            16 2.58  57 2.58   3 2.59  15 2.63
  50  0.499  0.252  0.194-   9 2.47  20 2.49   6 2.49  21 2.49  51 2.53   4 2.54  17 2.54  48 2.55
                            10 2.55  24 2.56   2 2.58  19 2.60
  51  0.749  0.251  0.194-  12 2.44  23 2.44   9 2.45  50 2.53  57 2.54  13 2.54   3 2.54  49 2.55
                             2 2.55  19 2.57  15 2.60  24 2.61
  52  0.914  0.079  0.097-  44 2.50  13 2.52   3 2.53   7 2.55   1 2.56  49 2.57  46 2.57  55 2.59
                            57 2.59
  53  0.915  0.081  0.377-  12 2.44  64 2.44   5 2.49  45 2.53  14 2.55  56 2.55   8 2.57  58 2.58
                            47 2.59
  54  0.082  0.416  0.285-  49 2.41  16 2.44  32 2.45  58 2.47  30 2.48  15 2.49  56 2.49  12 2.56
                            28 2.57  23 2.59  18 2.60   5 2.60
  55  0.171  0.334  0.097-   4 2.51  59 2.52   7 2.55  49 2.56  21 2.56  16 2.58  52 2.59  57 2.59
                            31 2.61
  56  0.169  0.332  0.378-   5 2.48  18 2.48  54 2.49   8 2.51  22 2.54  60 2.54  53 2.55  58 2.59
                            32 2.65
  57  0.916  0.336  0.096-  38 2.52  31 2.53  13 2.54  51 2.54  24 2.56  15 2.56  49 2.58  55 2.59
                            52 2.59
  58  0.916  0.337  0.379-  23 2.46  54 2.47  12 2.47  14 2.47  39 2.51  25 2.52  53 2.58  32 2.58
                            56 2.59
  59  0.419  0.585  0.097-  44 2.51  55 2.52  17 2.53  16 2.54  29 2.55  62 2.55  36 2.55  31 2.60
                            21 2.61
  60  0.419  0.585  0.379-  34 2.42  30 2.46  45 2.49  18 2.50  56 2.54  37 2.55  63 2.55  32 2.58
                            22 2.60
  61  0.582  0.914  0.286-  29 2.41   2 2.43   3 2.44  14 2.45  63 2.45  45 2.46  12 2.51   9 2.51
                            34 2.53  64 2.55  30 2.56  41 2.60
  62  0.415  0.834  0.097-   2 2.51  31 2.51  10 2.52  27 2.53  42 2.53  13 2.54  59 2.55  29 2.58
                            44 2.59
  63  0.417  0.836  0.379-  61 2.45  41 2.48  32 2.48  30 2.51  43 2.52  11 2.52  60 2.55  14 2.59
                            45 2.63
  64  0.834  0.915  0.285-  45 2.40   1 2.41  47 2.43  53 2.44  33 2.45   3 2.47  40 2.54  61 2.55
                             5 2.55  34 2.56  12 2.57  35 2.57
 

IMPORTANT INFORMATION: All symmetrisations will be switched off!
NOSYMM: (Re-)initialisation of all symmetry stuff for point group C_1.

 
 

Automatic generation of k-mesh.
 generate k-points for:    3    3    1
Space group operators:
 irot       det(A)        alpha          n_x          n_y          n_z        tau_x        tau_y        tau_z
    1     1.000000     0.000000     1.000000     0.000000     0.000000     0.000000     0.000000     0.000000
 
 Subroutine IBZKPT returns following result:
 ===========================================
 
 Found      5 irreducible k-points:
 
 Following reciprocal coordinates:
            Coordinates               Weight
  0.000000  0.000000  0.000000      1.000000
  0.333333  0.000000  0.000000      2.000000
  0.000000  0.333333  0.000000      2.000000
  0.333333  0.333333  0.000000      2.000000
 -0.333333  0.333333  0.000000      2.000000
 
 Following cartesian coordinates:
            Coordinates               Weight
  0.000000  0.000000  0.000000      1.000000
  0.032965  0.019033  0.000000      2.000000
  0.000000  0.038065  0.000000      2.000000
  0.032965  0.057098  0.000000      2.000000
 -0.032965  0.019033  0.000000      2.000000
 


--------------------------------------------------------------------------------------------------------




 Dimension of arrays:
   k-points           NKPTS =      5   k-points in BZ     NKDIM =      5   number of bands    NBANDS=    408
   number of dos      NEDOS =    301   number of ions     NIONS =     64
   non local maximal  LDIM  =      6   non local SUM 2l+1 LMDIM =     18
   total plane-waves  NPLWV = ******
   max r-space proj   IRMAX =   8251   max aug-charges    IRDMAX=  19525
   dimension x,y,z NGX =    80 NGY =   80 NGZ =  160
   dimension x,y,z NGXF=   160 NGYF=  160 NGZF=  320
   support grid    NGXF=   160 NGYF=  160 NGZF=  320
   ions per type =              47  17
   NGX,Y,Z   is equivalent  to a cutoff of  13.15, 13.15, 12.48 a.u.
   NGXF,Y,Z  is equivalent  to a cutoff of  26.31, 26.31, 24.96 a.u.

 SYSTEM =  SQS-NiFe                                
 POSCAR =  POSCAR                                  

 Startparameter for this run:
   NWRITE =      2    write-flag & timer
   PREC   = accura    normal or accurate (medium, high low for compatibility)
   ISTART =      0    job   : 0-new  1-cont  2-samecut
   ICHARG =      1    charge: 1-file 2-atom 10-const
   ISPIN  =      2    spin polarized calculation?
   LNONCOLLINEAR =      F non collinear calculations
   LSORBIT =      F    spin-orbit coupling
   INIWAV =      1    electr: 0-lowe 1-rand  2-diag
   LASPH  =      F    aspherical Exc in radial PAW
   METAGGA=      F    non-selfconsistent MetaGGA calc.

 Electronic Relaxation 1
   ENCUT  =  520.0 eV  38.22 Ry    6.18 a.u.  18.80 18.80 39.63*2*pi/ulx,y,z
   ENINI  =  520.0     initial cutoff
   ENAUG  =  544.6 eV  augmentation charge cutoff
   NELM   =    200;   NELMIN=  2; NELMDL= -5     # of ELM steps 
   EDIFF  = 0.1E-04   stopping-criterion for ELM
   LREAL  =      T    real-space projection
   NLSPLINE    = F    spline interpolate recip. space projectors
   LCOMPAT=      F    compatible to vasp.4.4
   GGA_COMPAT  = T    GGA compatible to vasp.4.4-vasp.4.6
   LMAXPAW     = -100 max onsite density
   LMAXMIX     =    2 max onsite mixed and CHGCAR
   VOSKOWN=      0    Vosko Wilk Nusair interpolation
   ROPT   =   -0.00025  -0.00025
 Ionic relaxation
   EDIFFG = -.5E-01   stopping-criterion for IOM
   NSW    =     99    number of steps for IOM
   NBLOCK =      1;   KBLOCK =     99    inner block; outer block 
   IBRION =      2    ionic relax: 0-MD 1-quasi-New 2-CG
   NFREE  =      1    steps in history (QN), initial steepest desc. (CG)
   ISIF   =      2    stress and relaxation
   IWAVPR =     11    prediction:  0-non 1-charg 2-wave 3-comb
   ISYM   =      0    0-nonsym 1-usesym 2-fastsym
   LCORR  =      T    Harris-Foulkes like correction to forces

   POTIM  = 0.5000    time-step for ionic-motion
   TEIN   =    0.0    initial temperature
   TEBEG  =    0.0;   TEEND  =   0.0 temperature during run
   SMASS  =  -3.00    Nose mass-parameter (am)
   estimated Nose-frequenzy (Omega)   =  0.10E-29 period in steps =****** mass=  -0.234E-26a.u.
   SCALEE = 1.0000    scale energy and forces
   NPACO  =    256;   APACO  = 16.0  distance and # of slots for P.C.
   PSTRESS=    0.0 pullay stress

  Mass of Ions in am
   POMASS =  55.85 58.69
  Ionic Valenz
   ZVAL   =   8.00 10.00
  Atomic Wigner-Seitz radii
   RWIGS  =  -1.00 -1.00
  virtual crystal weights 
   VCA    =   1.00  1.00
   NELECT =     546.0000    total number of electrons
   NUPDOWN=      -1.0000    fix difference up-down

 DOS related values:
   EMIN   =  10.00;   EMAX   =-10.00  energy-range for DOS
   EFERMI =   0.00
   ISMEAR =     1;   SIGMA  =   0.20  broadening in eV -4-tet -1-fermi 0-gaus

 Electronic relaxation 2 (details)
   IALGO  =     68    algorithm
   LDIAG  =      T    sub-space diagonalisation (order eigenvalues)
   LSUBROT=      F    optimize rotation matrix (better conditioning)
   TURBO    =      0    0=normal 1=particle mesh
   IRESTART =      0    0=no restart 2=restart with 2 vectors
   NREBOOT  =      0    no. of reboots
   NMIN     =      0    reboot dimension
   EREF     =   0.00    reference energy to select bands
   IMIX   =      4    mixing-type and parameters
     AMIX     =   0.40;   BMIX     =  1.00
     AMIX_MAG =   1.60;   BMIX_MAG =  1.00
     AMIN     =   0.10
     WC   =   100.;   INIMIX=   1;  MIXPRE=   1;  MAXMIX= -45

 Intra band minimization:
   WEIMIN = 0.0010     energy-eigenvalue tresh-hold
   EBREAK =  0.61E-08  absolut break condition
   DEPER  =   0.30     relativ break condition  

   TIME   =   0.40     timestep for ELM

  volume/ion in A,a.u.               =      29.49       199.00
  Fermi-wavevector in a.u.,A,eV,Ry     =   1.082752  2.046105 15.950816  1.172352
  Thomas-Fermi vector in A             =   2.218801
 
 Write flags
   LWAVE        =      F    write WAVECAR
   LDOWNSAMPLE  =      F    k-point downsampling of WAVECAR
   LCHARG       =      T    write CHGCAR
   LVTOT        =      F    write LOCPOT, total local potential
   LVHAR        =      F    write LOCPOT, Hartree potential only
   LELF         =      F    write electronic localiz. function (ELF)
   LORBIT       =     10    0 simple, 1 ext, 2 COOP (PROOUT), +10 PAW based schemes


 Dipole corrections
   LMONO  =      F    monopole corrections only (constant potential shift)
   LDIPOL =      T    correct potential (dipole corrections)
   IDIPOL =      3    1-x, 2-y, 3-z, 4-all directions 
   EPSILON=  1.0000000 bulk dielectric constant

 Exchange correlation treatment:
   GGA     =    --    GGA type
   LEXCH   =     8    internal setting for exchange type
   VOSKOWN=      0    Vosko Wilk Nusair interpolation
   LHFCALC =     F    Hartree Fock is set to
   LHFONE  =     F    Hartree Fock one center treatment
   AEXX    =    0.0000 exact exchange contribution

 Linear response parameters
   LEPSILON=     F    determine dielectric tensor
   LRPA    =     F    only Hartree local field effects (RPA)
   LNABLA  =     F    use nabla operator in PAW spheres
   LVEL    =     F    velocity operator in full k-point grid
   LINTERFAST=   F  fast interpolation
   KINTER  =     0    interpolate to denser k-point grid
   CSHIFT  =0.1000    complex shift for real part using Kramers Kronig
   OMEGAMAX=  -1.0    maximum frequency
   DEG_THRESHOLD= 0.2000000E-02 threshold for treating states as degnerate
   RTIME   =   -0.100 relaxation time in fs
  (WPLASMAI=    0.000 imaginary part of plasma frequency in eV, 0.658/RTIME)
   DFIELD  = 0.0000000 0.0000000 0.0000000 field for delta impulse in time
 
 Orbital magnetization related:
   ORBITALMAG=     F  switch on orbital magnetization
   LCHIMAG   =     F  perturbation theory with respect to B field
   DQ        =  0.001000  dq finite difference perturbation B field
   LLRAUG    =     F  two centre corrections for induced B field



--------------------------------------------------------------------------------------------------------


 conjugate gradient relaxation of ions
   using selective dynamics as specified on POSCAR
 charge density and potential will be updated during run
 spin polarized calculation
 RMM-DIIS sequential band-by-band and
  variant of blocked Davidson during initial phase
 perform sub-space diagonalisation
    before iterative eigenvector-optimisation
 modified Broyden-mixing scheme, WC =      100.0
 initial mixing is a Kerker type mixing with AMIX =  0.4000 and BMIX =      1.0000
 Hartree-type preconditioning will be used
 using additional bands          135
 real space projection scheme for non local part
 use partial core corrections
 calculate Harris-corrections to forces 
   (improved forces if not selfconsistent)
 use gradient corrections 
 use of overlap-Matrix (Vanderbilt PP)
 Methfessel and Paxton  Order N= 1 SIGMA  =   0.20


--------------------------------------------------------------------------------------------------------


  energy-cutoff  :      520.00
  volume of cell :     1887.25
      direct lattice vectors                 reciprocal lattice vectors
    10.111630000  0.000000000  0.000000000     0.098896024  0.057097646  0.000000000
    -5.055815000  8.756928450  0.000000000     0.000000000  0.114195292  0.000000000
     0.000000000  0.000000000 21.313618150     0.000000000  0.000000000  0.046918360

  length of vectors
    10.111630000 10.111629997 21.313618150     0.114195292  0.114195292  0.046918360


 
 k-points in units of 2pi/SCALE and weight: read from INCAR                         
   0.00000000  0.00000000  0.00000000       0.111
   0.03296534  0.01903255  0.00000000       0.222
   0.00000000  0.03806510  0.00000000       0.222
   0.03296534  0.05709765  0.00000000       0.222
  -0.03296534  0.01903255  0.00000000       0.222
 
 k-points in reciprocal lattice and weights: read from INCAR                         
   0.00000000  0.00000000  0.00000000       0.111
   0.33333333  0.00000000  0.00000000       0.222
   0.00000000  0.33333333  0.00000000       0.222
   0.33333333  0.33333333  0.00000000       0.222
  -0.33333333  0.33333333  0.00000000       0.222
 
 position of ions in fractional coordinates (direct lattice) 
   0.00194700  0.99920000  0.19504711
   0.49880600  0.99647600  0.19436468
   0.74316000  0.99645900  0.19265379
   0.24913600  0.25322600  0.19502823
   0.09006351  0.16344275  0.28460541
   0.32989434  0.16619550  0.28735768
   0.16766300  0.08094400  0.09476087
   0.17024773  0.08370839  0.37343341
   0.58123331  0.16243388  0.28592989
   0.42207800  0.08742500  0.09459963
   0.41745110  0.08534046  0.37256207
   0.82652289  0.16524220  0.28675410
   0.66737600  0.08327700  0.09665914
   0.67050413  0.09459308  0.37349193
   0.00320800  0.51090900  0.19273630
   0.25586900  0.50577700  0.19556308
   0.49960200  0.50304900  0.19575715
   0.33777472  0.41420038  0.28446861
   0.75679100  0.50804300  0.19452824
   0.58742256  0.42306429  0.28650287
   0.42032800  0.32671800  0.09530328
   0.41748832  0.32676463  0.37383394
   0.82556492  0.41547197  0.28619728
   0.66249300  0.33542400  0.09383672
   0.66584191  0.33473830  0.37424655
   0.99180600  0.74702800  0.19393325
   0.25104600  0.74563900  0.19525367
   0.08391866  0.67169099  0.28558160
   0.50153700  0.74905700  0.19574495
   0.32799603  0.66094712  0.28594810
   0.16407000  0.58904200  0.09862191
   0.16940125  0.59412869  0.37404831
   0.74777500  0.74863100  0.19226885
   0.57973320  0.66321080  0.28608409
   0.83436524  0.66094590  0.28727608
   0.67214400  0.58529400  0.09617600
   0.67139230  0.58550646  0.37390277
   0.91907500  0.58733100  0.09791739
   0.91487935  0.58436264  0.37367866
   0.08525156  0.91508048  0.28693381
   0.32576999  0.91622033  0.28682549
   0.16274300  0.83153600  0.09454501
   0.16628955  0.83294304  0.37533428
   0.66878300  0.83083000  0.09953909
   0.67133633  0.82470859  0.37500316
   0.91852300  0.82706000  0.09806963
   0.91666687  0.82596065  0.37421217
   0.24916500  0.99813100  0.19381878
   0.00129700  0.24974200  0.19480424
   0.49933100  0.25162700  0.19359363
   0.74944200  0.25071300  0.19395097
   0.91424100  0.07929400  0.09685844
   0.91542443  0.08129563  0.37655684
   0.08188610  0.41629031  0.28505658
   0.17077300  0.33437100  0.09693223
   0.16949527  0.33183953  0.37808406
   0.91567000  0.33646400  0.09645316
   0.91598174  0.33672427  0.37858743
   0.41923600  0.58471500  0.09724687
   0.41931188  0.58470966  0.37862096
   0.58170837  0.91413846  0.28594041
   0.41467000  0.83428900  0.09748597
   0.41722333  0.83603618  0.37907370
   0.83404396  0.91514605  0.28459698
 
 position of ions in cartesian coordinates  (Angst):
  -5.03208300  8.74992291  4.15715962
   0.00574341  8.72606903  4.14261457
   2.47664659  8.72592017  4.10614932
   1.23890724  2.21748196  4.15675722
   0.08435265  1.43125643  6.06597101
   2.49551578  1.45536208  6.12463188
   1.28610833  0.70882082  2.01969700
   1.29826797  0.73302834  7.95921708
   5.05598050  1.42242186  6.09420052
   3.82589194  0.76557447  2.01626039
   3.78964550  0.74732030  7.94064580
   7.52205967  1.44701414  6.11176731
   6.32722608  0.72925073  2.06015600
   6.30164450  0.82834486  7.96046444
  -2.55062328  4.47399356  4.10790790
   0.03013771  4.42905300  4.16815681
   2.50846789  4.40516410  4.17229315
   1.32133252  3.62712313  6.06305526
   5.08381916  4.44889620  4.14610063
   3.80086476  3.70474372  6.10641285
   2.59837545  2.86104615  2.03125772
   2.56942591  2.86145446  7.96775374
   6.24725763  3.63825829  6.09989963
   5.00304240  2.93728397  2.00000002
   5.04037218  2.93127930  7.97654804
   6.25193994  6.54167075  4.13341924
  -1.23132858  6.52950737  4.16156216
  -2.54739101  5.88194998  6.08677710
   1.28426296  6.55943855  4.17203312
  -0.02505190  5.78786663  6.09458868
  -1.31907225  5.15819865  2.10198973
  -1.29088193  5.20274242  7.97232280
   3.77628428  6.55570810  4.09794485
   2.50897649  5.80768956  6.09748697
   5.09517239  5.78785593  6.12289272
   3.83733325  5.12537768  2.04985854
   3.82865820  5.12723819  7.96922084
   6.32390946  5.14321554  2.08697386
   6.29649206  5.11722185  7.96444435
  -3.76444539  8.01329428  6.11559775
  -1.33817493  8.02327591  6.11328904
  -2.55849518  7.28170126  2.01509624
  -2.52974752  7.29402260  7.99973143
   2.56196347  7.27551886  2.12153816
   2.61873056  7.22191408  7.99267418
   5.10630237  7.24250524  2.09021865
   5.09309201  7.23287833  7.97581526
  -2.52690139  8.74056175  4.13097947
  -1.24953457  2.18697282  4.15198319
   3.77687076  2.20347964  4.12618071
   6.31052166  2.19547580  4.13379691
   8.84357093  0.69437188  2.06440380
   8.84541744  0.71190005  8.02578869
  -1.27668486  3.64542450  6.07558710
   0.03627547  2.92806292  2.06597654
   0.03615412  2.90589504  8.05833929
   7.55781650  2.94639117  2.05576582
   7.55965276  2.94867037  8.06906784
   1.28294845  5.12030742  2.07268265
   1.28374267  5.12026068  8.06978253
   1.26030491  8.00504507  6.09442471
  -0.02502123  7.30580908  2.07777874
  -0.00803634  7.32110905  8.07943220
   3.80673482  8.01386846  6.06579139
 


--------------------------------------------------------------------------------------------------------


 k-point  1 :   0.0000 0.0000 0.0000  plane waves:   50797
 k-point  2 :   0.3333 0.0000 0.0000  plane waves:   50810
 k-point  3 :   0.0000 0.3333 0.0000  plane waves:   50810
 k-point  4 :   0.3333 0.3333 0.0000  plane waves:   50829
 k-point  5 :  -0.3333 0.3333 0.0000  plane waves:   50810

 maximum and minimum number of plane-waves per node :      2135     2096

 maximum number of plane-waves:     50829
 maximum index in each direction: 
   IXMAX=   19   IYMAX=   18   IZMAX=   39
   IXMIN=  -19   IYMIN=  -19   IZMIN=  -39


 real space projection operators:
  total allocation   :      68531.20 KBytes
  max/ min on nodes  :       3437.58       2520.56


 parallel 3D FFT for wavefunctions:
    minimum data exchange during FFTs selected (reduces bandwidth)
 parallel 3D FFT for charge:
    minimum data exchange during FFTs selected (reduces bandwidth)


 total amount of memory used by VASP MPI-rank0   113537. kBytes
=======================================================================

   base      :      30000. kBytes
   nonlr-proj:      13128. kBytes
   fftplans  :       6403. kBytes
   grid      :      16455. kBytes
   one-center:         93. kBytes
   wavefun   :      47458. kBytes
 
     INWAV:  cpu time    0.0000: real time    0.0000
 Broyden mixing: mesh for mixing (old mesh)
   NGX = 37   NGY = 37   NGZ = 79
  (NGX  =160   NGY  =160   NGZ  =320)
  gives a total of 108151 points

 initial charge density was supplied:
 number of electron     545.9999938 magnetization     158.0000000
 keeping initial charge density in first step


--------------------------------------------------------------------------------------------------------


 Maximum index for non-local projection operator          764
 Maximum index for augmentation-charges         1127 (set IRDMAX)


--------------------------------------------------------------------------------------------------------


 First call to EWALD:  gamma=   0.143
 Maximum number of real-space cells 4x 4x 2
 Maximum number of reciprocal cells 2x 2x 4

    FEWALD:  cpu time    0.0220: real time    0.0213


--------------------------------------- Iteration      1(   1)  ---------------------------------------


    POTLOK:  cpu time    0.2440: real time    0.2506
    SETDIJ:  cpu time    0.0180: real time    0.0201
     EDDAV:  cpu time   24.2703: real time   24.5503
       DOS:  cpu time    0.0050: real time    0.0054
    --------------------------------------------
      LOOP:  cpu time   24.5373: real time   24.8265

 eigenvalue-minimisations  :  8160
 total energy-change (2. order) : 0.4353106E+04  (-0.2326778E+05)
 number of electron     545.9999938 magnetization     158.0000000
 augmentation part      545.9999938 magnetization     158.0000000

 DIPCOR: dipole corrections for dipol
 direction  3 min pos   231,
 dipolmoment           0.000000      0.000000     -0.093572 electrons x Angstroem
 Tr[quadrupol]     -9251.770517

 energy correction for charged system         0.000000 eV
 dipol+quadrupol energy correction           -0.000420 eV
 added-field ion interaction          1.999519 eV  (added to PSCEN)


 Free energy of the ion-electron system (eV)
  ---------------------------------------------------
  alpha Z        PSCENC =      1427.54904947
  Ewald energy   TEWEN  =    176949.70774431
  -Hartree energ DENC   =   -222755.95873228
  -exchange      EXHF   =         0.00000000
  -V(xc)+E(xc)   XCENC  =       714.39456918
  PAW double counting   =     50915.93132105   -52468.36891853
  entropy T*S    EENTRO =         0.00394629
  eigenvalues    EBANDS =      3316.74584029
  atomic energy  EATOM  =     46253.10162290
  Solvation  Ediel_sol  =         0.00000000
  ---------------------------------------------------
  free energy    TOTEN  =      4353.10644269 eV

  energy without entropy =     4353.10249640  energy(sigma->0) =     4353.10512726


--------------------------------------------------------------------------------------------------------




--------------------------------------- Iteration      1(   2)  ---------------------------------------


     EDDAV:  cpu time   24.0603: real time   24.3788
       DOS:  cpu time    0.0070: real time    0.0071
    --------------------------------------------
      LOOP:  cpu time   24.0673: real time   24.3858

 eigenvalue-minimisations  :  8160
 total energy-change (2. order) :-0.4404900E+04  (-0.4096846E+04)
 number of electron     545.9999938 magnetization     158.0000000
 augmentation part      545.9999938 magnetization     158.0000000

 DIPCOR: dipole corrections for dipol
 direction  3 min pos   231,
 dipolmoment           0.000000      0.000000     -0.093572 electrons x Angstroem
 Tr[quadrupol]     -9251.770517

 energy correction for charged system         0.000000 eV
 dipol+quadrupol energy correction           -0.000420 eV
 added-field ion interaction          1.999519 eV  (added to PSCEN)


 Free energy of the ion-electron system (eV)
  ---------------------------------------------------
  alpha Z        PSCENC =      1427.54904947
  Ewald energy   TEWEN  =    176949.70774431
  -Hartree energ DENC   =   -222755.95873228
  -exchange      EXHF   =         0.00000000
  -V(xc)+E(xc)   XCENC  =       714.39456918
  PAW double counting   =     50915.93132105   -52468.36891853
  entropy T*S    EENTRO =         0.00147595
  eigenvalues    EBANDS =     -1088.15170530
  atomic energy  EATOM  =     46253.10162290
  Solvation  Ediel_sol  =         0.00000000
  ---------------------------------------------------
  free energy    TOTEN  =       -51.79357324 eV

  energy without entropy =      -51.79504919  energy(sigma->0) =      -51.79406522


--------------------------------------------------------------------------------------------------------




--------------------------------------- Iteration      1(   3)  ---------------------------------------


     EDDAV:  cpu time   25.2282: real time   25.6002
       DOS:  cpu time    0.0080: real time    0.0078
    --------------------------------------------
      LOOP:  cpu time   25.2362: real time   25.6080

 eigenvalue-minimisations  :  8496
 total energy-change (2. order) :-0.3727945E+03  (-0.3148505E+03)
 number of electron     545.9999938 magnetization     158.0000000
 augmentation part      545.9999938 magnetization     158.0000000

 DIPCOR: dipole corrections for dipol
 direction  3 min pos   231,
 dipolmoment           0.000000      0.000000     -0.093572 electrons x Angstroem
 Tr[quadrupol]     -9251.770517

 energy correction for charged system         0.000000 eV
 dipol+quadrupol energy correction           -0.000420 eV
 added-field ion interaction          1.999519 eV  (added to PSCEN)


 Free energy of the ion-electron system (eV)
  ---------------------------------------------------
  alpha Z        PSCENC =      1427.54904947
  Ewald energy   TEWEN  =    176949.70774431
  -Hartree energ DENC   =   -222755.95873228
  -exchange      EXHF   =         0.00000000
  -V(xc)+E(xc)   XCENC  =       714.39456918
  PAW double counting   =     50915.93132105   -52468.36891853
  entropy T*S    EENTRO =         0.02701943
  eigenvalues    EBANDS =     -1460.97172839
  atomic energy  EATOM  =     46253.10162290
  Solvation  Ediel_sol  =         0.00000000
  ---------------------------------------------------
  free energy    TOTEN  =      -424.58805285 eV

  energy without entropy =     -424.61507228  energy(sigma->0) =     -424.59705932


--------------------------------------------------------------------------------------------------------




--------------------------------------- Iteration      1(   4)  ---------------------------------------


     EDDAV:  cpu time   25.5111: real time   25.8502
       DOS:  cpu time    0.0070: real time    0.0074
    --------------------------------------------
      LOOP:  cpu time   25.5181: real time   25.8576

 eigenvalue-minimisations  :  8652
 total energy-change (2. order) :-0.1502941E+02  (-0.1469948E+02)
 number of electron     545.9999938 magnetization     158.0000000
 augmentation part      545.9999938 magnetization     158.0000000

 DIPCOR: dipole corrections for dipol
 direction  3 min pos   231,
 dipolmoment           0.000000      0.000000     -0.093572 electrons x Angstroem
 Tr[quadrupol]     -9251.770517

 energy correction for charged system         0.000000 eV
 dipol+quadrupol energy correction           -0.000420 eV
 added-field ion interaction          1.999519 eV  (added to PSCEN)


 Free energy of the ion-electron system (eV)
  ---------------------------------------------------
  alpha Z        PSCENC =      1427.54904947
  Ewald energy   TEWEN  =    176949.70774431
  -Hartree energ DENC   =   -222755.95873228
  -exchange      EXHF   =         0.00000000
  -V(xc)+E(xc)   XCENC  =       714.39456918
  PAW double counting   =     50915.93132105   -52468.36891853
  entropy T*S    EENTRO =         0.02810994
  eigenvalues    EBANDS =     -1476.00223016
  atomic energy  EATOM  =     46253.10162290
  Solvation  Ediel_sol  =         0.00000000
  ---------------------------------------------------
  free energy    TOTEN  =      -439.61746411 eV

  energy without entropy =     -439.64557405  energy(sigma->0) =     -439.62683409


--------------------------------------------------------------------------------------------------------




--------------------------------------- Iteration      1(   5)  ---------------------------------------


     EDDAV:  cpu time   27.0669: real time   27.3706
       DOS:  cpu time    0.0080: real time    0.0080
    CHARGE:  cpu time    1.0018: real time    1.0026
    MIXING:  cpu time    0.0050: real time    0.0048
    --------------------------------------------
      LOOP:  cpu time   28.0817: real time   28.3861

 eigenvalue-minimisations  :  9246
 total energy-change (2. order) :-0.2500443E+00  (-0.2498380E+00)
 number of electron     545.9999936 magnetization     154.9202617
 augmentation part      305.7660700 magnetization     119.9511891

 DIPCOR: dipole corrections for dipol
 direction  3 min pos   231,
 dipolmoment           0.000000      0.000000     -0.093572 electrons x Angstroem
 Tr[quadrupol]     -9251.770517

 energy correction for charged system         0.000000 eV
 dipol+quadrupol energy correction           -0.000420 eV
 added-field ion interaction          1.999519 eV  (added to PSCEN)


 Broyden mixing:
  rms(total) = 0.48076E+01    rms(broyden)= 0.48075E+01
  rms(prec ) = 0.49272E+01
  weight for this iteration     100.00

 Free energy of the ion-electron system (eV)
  ---------------------------------------------------
  alpha Z        PSCENC =      1427.54904947
  Ewald energy   TEWEN  =    176949.70774431
  -Hartree energ DENC   =   -222755.95873228
  -exchange      EXHF   =         0.00000000
  -V(xc)+E(xc)   XCENC  =       714.39456918
  PAW double counting   =     50915.93132105   -52468.36891853
  entropy T*S    EENTRO =         0.02824226
  eigenvalues    EBANDS =     -1476.25240678
  atomic energy  EATOM  =     46253.10162290
  Solvation  Ediel_sol  =         0.00000000
  ---------------------------------------------------
  free energy    TOTEN  =      -439.86750841 eV

  energy without entropy =     -439.89575067  energy(sigma->0) =     -439.87692250


--------------------------------------------------------------------------------------------------------




--------------------------------------- Iteration      1(   6)  ---------------------------------------


    POTLOK:  cpu time    0.2430: real time    0.2439
    SETDIJ:  cpu time    0.0200: real time    0.0187
    EDDIAG:  cpu time    3.6564: real time    3.6728
  RMM-DIIS:  cpu time   15.0977: real time   15.2540
    ORTHCH:  cpu time    0.6449: real time    0.6521
       DOS:  cpu time    0.0080: real time    0.0077
    CHARGE:  cpu time    1.0748: real time    1.0841
    MIXING:  cpu time    0.0040: real time    0.0047
    --------------------------------------------
      LOOP:  cpu time   20.7488: real time   20.9379

 eigenvalue-minimisations  :  8186
 total energy-change (2. order) :-0.1346590E+03  (-0.5192578E+01)
 number of electron     545.9999936 magnetization     153.7743999
 augmentation part      295.4279057 magnetization     130.3081521

 DIPCOR: dipole corrections for dipol
 direction  3 min pos   228,
 dipolmoment           0.000000      0.000000      1.970334 electrons x Angstroem
 Tr[quadrupol]     -9254.719200

 energy correction for charged system         0.000000 eV
 dipol+quadrupol energy correction           -0.186126 eV
 added-field ion interaction        -62.715502 eV  (added to PSCEN)


 Broyden mixing:
  rms(total) = 0.14733E+02    rms(broyden)= 0.14733E+02
  rms(prec ) = 0.19711E+02
  weight for this iteration     100.00

 eigenvalues of (default mixing * dielectric matrix)
  average eigenvalue GAMMA=   0.2629
  0.2629

 Free energy of the ion-electron system (eV)
  ---------------------------------------------------
  alpha Z        PSCENC =      1362.64832270
  Ewald energy   TEWEN  =    176949.70774431
  -Hartree energ DENC   =   -223068.55357200
  -exchange      EXHF   =         0.00000000
  -V(xc)+E(xc)   XCENC  =       739.98347141
  PAW double counting   =     51810.68378869   -53407.91991698
  entropy T*S    EENTRO =         0.00621097
  eigenvalues    EBANDS =     -1214.18421773
  atomic energy  EATOM  =     46253.10162290
  Solvation  Ediel_sol  =         0.00000000
  ---------------------------------------------------
  free energy    TOTEN  =      -574.52654573 eV

  energy without entropy =     -574.53275670  energy(sigma->0) =     -574.52861605


--------------------------------------------------------------------------------------------------------




--------------------------------------- Iteration      1(   7)  ---------------------------------------


    POTLOK:  cpu time    0.2420: real time    0.2449
    SETDIJ:  cpu time    0.0190: real time    0.0186
    EDDIAG:  cpu time    3.5705: real time    3.6220
  RMM-DIIS:  cpu time   15.2037: real time   15.5252
    ORTHCH:  cpu time    0.6159: real time    0.6242
       DOS:  cpu time    0.0070: real time    0.0071
    CHARGE:  cpu time    1.0608: real time    1.0704
    MIXING:  cpu time    0.0050: real time    0.0047
    --------------------------------------------
      LOOP:  cpu time   20.7238: real time   21.1171

 eigenvalue-minimisations  :  8186
 total energy-change (2. order) :-0.2975479E+02  (-0.6764956E+01)
 number of electron     545.9999947 magnetization     152.1251190
 augmentation part      297.5359277 magnetization     127.3339882

 DIPCOR: dipole corrections for dipol
 direction  3 min pos   234,
 dipolmoment           0.000000      0.000000     -2.400393 electrons x Angstroem
 Tr[quadrupol]     -9254.244396

 energy correction for charged system         0.000000 eV
 dipol+quadrupol energy correction           -0.276243 eV
 added-field ion interaction         26.182895 eV  (added to PSCEN)


 Broyden mixing:
  rms(total) = 0.16836E+02    rms(broyden)= 0.16836E+02
  rms(prec ) = 0.24305E+02
  weight for this iteration     100.00

 eigenvalues of (default mixing * dielectric matrix)
  average eigenvalue GAMMA=   0.1853
  0.3125  0.0580

 Free energy of the ion-electron system (eV)
  ---------------------------------------------------
  alpha Z        PSCENC =      1451.45660300
  Ewald energy   TEWEN  =    176949.70774431
  -Hartree energ DENC   =   -222925.27623933
  -exchange      EXHF   =         0.00000000
  -V(xc)+E(xc)   XCENC  =       732.65668194
  PAW double counting   =     51863.72118460   -53459.54139206
  entropy T*S    EENTRO =         0.00981388
  eigenvalues    EBANDS =     -1470.11735849
  atomic energy  EATOM  =     46253.10162290
  Solvation  Ediel_sol  =         0.00000000
  ---------------------------------------------------
  free energy    TOTEN  =      -604.28133926 eV

  energy without entropy =     -604.29115314  energy(sigma->0) =     -604.28461055


--------------------------------------------------------------------------------------------------------




--------------------------------------- Iteration      1(   8)  ---------------------------------------


    POTLOK:  cpu time    0.2400: real time    0.2426
    SETDIJ:  cpu time    0.0180: real time    0.0187
    EDDIAG:  cpu time    3.6204: real time    3.7007
  RMM-DIIS:  cpu time   15.0767: real time   15.2896
    ORTHCH:  cpu time    0.6119: real time    0.6184
       DOS:  cpu time    0.0080: real time    0.0073
    CHARGE:  cpu time    1.0678: real time    1.0778
    MIXING:  cpu time    0.0050: real time    0.0049
    --------------------------------------------
      LOOP:  cpu time   20.6479: real time   20.9600

 eigenvalue-minimisations  :  8212
 total energy-change (2. order) : 0.1608142E+03  (-0.3219031E+01)
 number of electron     545.9999933 magnetization     150.8648308
 augmentation part      301.1157157 magnetization     115.0185684

 DIPCOR: dipole corrections for dipol
 direction  3 min pos   237,
 dipolmoment           0.000000      0.000000      0.102920 electrons x Angstroem
 Tr[quadrupol]     -9252.509064

 energy correction for charged system         0.000000 eV
 dipol+quadrupol energy correction           -0.000508 eV
 added-field ion interaction         -0.045974 eV  (added to PSCEN)


 Broyden mixing:
  rms(total) = 0.52672E+01    rms(broyden)= 0.52668E+01
  rms(prec ) = 0.59266E+01
  weight for this iteration     100.00

 eigenvalues of (default mixing * dielectric matrix)
  average eigenvalue GAMMA=   0.2307
  0.4444  0.1910  0.0569

 Free energy of the ion-electron system (eV)
  ---------------------------------------------------
  alpha Z        PSCENC =      1425.50346861
  Ewald energy   TEWEN  =    176949.70774431
  -Hartree energ DENC   =   -222875.00376533
  -exchange      EXHF   =         0.00000000
  -V(xc)+E(xc)   XCENC  =       727.84792709
  PAW double counting   =     51961.41512700   -53552.96785374
  entropy T*S    EENTRO =         0.01366793
  eigenvalues    EBANDS =     -1333.08507403
  atomic energy  EATOM  =     46253.10162290
  Solvation  Ediel_sol  =         0.00000000
  ---------------------------------------------------
  free energy    TOTEN  =      -443.46713526 eV

  energy without entropy =     -443.48080319  energy(sigma->0) =     -443.47169124


--------------------------------------------------------------------------------------------------------




--------------------------------------- Iteration      1(   9)  ---------------------------------------


    POTLOK:  cpu time    0.2390: real time    0.2425
    SETDIJ:  cpu time    0.0190: real time    0.0188
    EDDIAG:  cpu time    3.5995: real time    3.6392
  RMM-DIIS:  cpu time   15.2107: real time   15.4570
    ORTHCH:  cpu time    0.8039: real time    0.8106
       DOS:  cpu time    0.0080: real time    0.0077
    CHARGE:  cpu time    1.2788: real time    1.2926
    MIXING:  cpu time    0.0050: real time    0.0047
    --------------------------------------------
      LOOP:  cpu time   21.1638: real time   21.4730

 eigenvalue-minimisations  :  8215
 total energy-change (2. order) : 0.5594571E+01  (-0.3144834E+01)
 number of electron     545.9999938 magnetization     149.6092861
 augmentation part      300.4569435 magnetization     115.3157296

 DIPCOR: dipole corrections for dipol
 direction  3 min pos   236,
 dipolmoment           0.000000      0.000000     -0.327037 electrons x Angstroem
 Tr[quadrupol]     -9252.833899

 energy correction for charged system         0.000000 eV
 dipol+quadrupol energy correction           -0.005128 eV
 added-field ion interaction          1.286468 eV  (added to PSCEN)


 Broyden mixing:
  rms(total) = 0.52819E+01    rms(broyden)= 0.52817E+01
  rms(prec ) = 0.60826E+01
  weight for this iteration     100.00

 eigenvalues of (default mixing * dielectric matrix)
  average eigenvalue GAMMA=   0.2336
  0.5033  0.2494  0.0553  0.1262

 Free energy of the ion-electron system (eV)
  ---------------------------------------------------
  alpha Z        PSCENC =      1426.83129108
  Ewald energy   TEWEN  =    176949.70774431
  -Hartree energ DENC   =   -222887.80558849
  -exchange      EXHF   =         0.00000000
  -V(xc)+E(xc)   XCENC  =       730.43959769
  PAW double counting   =     52116.51887582   -53711.76095578
  entropy T*S    EENTRO =        -0.06163749
  eigenvalues    EBANDS =     -1314.84351433
  atomic energy  EATOM  =     46253.10162290
  Solvation  Ediel_sol  =         0.00000000
  ---------------------------------------------------
  free energy    TOTEN  =      -437.87256427 eV

  energy without entropy =     -437.81092679  energy(sigma->0) =     -437.85201844


--------------------------------------------------------------------------------------------------------




--------------------------------------- Iteration      1(  10)  ---------------------------------------


    POTLOK:  cpu time    0.2650: real time    0.2655
    SETDIJ:  cpu time    0.0190: real time    0.0188
    EDDIAG:  cpu time    3.5995: real time    3.6100
  RMM-DIIS:  cpu time   14.9507: real time   14.9763
    ORTHCH:  cpu time    0.6259: real time    0.6267
       DOS:  cpu time    0.0070: real time    0.0077
    CHARGE:  cpu time    1.0578: real time    1.0576
    MIXING:  cpu time    0.0050: real time    0.0049
    --------------------------------------------
      LOOP:  cpu time   20.5299: real time   20.5674

 eigenvalue-minimisations  :  8220
 total energy-change (2. order) : 0.2228821E+01  (-0.1372575E+01)
 number of electron     545.9999943 magnetization     148.4366658
 augmentation part      299.0568414 magnetization     115.4338422

 DIPCOR: dipole corrections for dipol
 direction  3 min pos   236,
 dipolmoment           0.000000      0.000000     -0.054328 electrons x Angstroem
 Tr[quadrupol]     -9252.996761

 energy correction for charged system         0.000000 eV
 dipol+quadrupol energy correction           -0.000142 eV
 added-field ion interaction          0.213710 eV  (added to PSCEN)


 Broyden mixing:
  rms(total) = 0.61401E+01    rms(broyden)= 0.61400E+01
  rms(prec ) = 0.69647E+01
  weight for this iteration     100.00

 eigenvalues of (default mixing * dielectric matrix)
  average eigenvalue GAMMA=   0.2412
  0.6098  0.2288  0.1960  0.0559  0.1154

 Free energy of the ion-electron system (eV)
  ---------------------------------------------------
  alpha Z        PSCENC =      1425.76351898
  Ewald energy   TEWEN  =    176949.70774431
  -Hartree energ DENC   =   -222914.03597756
  -exchange      EXHF   =         0.00000000
  -V(xc)+E(xc)   XCENC  =       733.82393224
  PAW double counting   =     52262.68606070   -53862.93839615
  entropy T*S    EENTRO =         0.12044002
  eigenvalues    EBANDS =     -1283.87268920
  atomic energy  EATOM  =     46253.10162290
  Solvation  Ediel_sol  =         0.00000000
  ---------------------------------------------------
  free energy    TOTEN  =      -435.64374376 eV

  energy without entropy =     -435.76418378  energy(sigma->0) =     -435.68389043


--------------------------------------------------------------------------------------------------------




--------------------------------------- Iteration      1(  11)  ---------------------------------------


    POTLOK:  cpu time    0.2420: real time    0.2433
    SETDIJ:  cpu time    0.0200: real time    0.0187
    EDDIAG:  cpu time    3.7244: real time    3.7664
  RMM-DIIS:  cpu time   14.9127: real time   14.9370
    ORTHCH:  cpu time    0.6209: real time    0.6208
       DOS:  cpu time    0.0070: real time    0.0075
    CHARGE:  cpu time    1.0398: real time    1.0402
    MIXING:  cpu time    0.0050: real time    0.0049
    --------------------------------------------
      LOOP:  cpu time   20.5719: real time   20.6389

 eigenvalue-minimisations  :  8222
 total energy-change (2. order) : 0.4053730E+01  (-0.1703395E+01)
 number of electron     545.9999937 magnetization     146.8134904
 augmentation part      301.3675735 magnetization     111.7526811

 DIPCOR: dipole corrections for dipol
 direction  3 min pos   229,
 dipolmoment           0.000000      0.000000     -0.188199 electrons x Angstroem
 Tr[quadrupol]     -9254.475012

 energy correction for charged system         0.000000 eV
 dipol+quadrupol energy correction           -0.001698 eV
 added-field ion interaction          5.334101 eV  (added to PSCEN)


 Broyden mixing:
  rms(total) = 0.26931E+01    rms(broyden)= 0.26929E+01
  rms(prec ) = 0.31994E+01
  weight for this iteration     100.00

 eigenvalues of (default mixing * dielectric matrix)
  average eigenvalue GAMMA=   0.2954
  0.7326  0.3854  0.3854  0.0558  0.1144  0.0990

 Free energy of the ion-electron system (eV)
  ---------------------------------------------------
  alpha Z        PSCENC =      1430.88235301
  Ewald energy   TEWEN  =    176949.70774431
  -Hartree energ DENC   =   -222928.64258591
  -exchange      EXHF   =         0.00000000
  -V(xc)+E(xc)   XCENC  =       734.55716182
  PAW double counting   =     52342.07321235   -53935.75420306
  entropy T*S    EENTRO =         0.03988601
  eigenvalues    EBANDS =     -1277.55520468
  atomic energy  EATOM  =     46253.10162290
  Solvation  Ediel_sol  =         0.00000000
  ---------------------------------------------------
  free energy    TOTEN  =      -431.59001326 eV

  energy without entropy =     -431.62989927  energy(sigma->0) =     -431.60330859


--------------------------------------------------------------------------------------------------------




--------------------------------------- Iteration      1(  12)  ---------------------------------------


    POTLOK:  cpu time    0.2420: real time    0.2434
    SETDIJ:  cpu time    0.0190: real time    0.0181
    EDDIAG:  cpu time    3.5335: real time    3.5390
  RMM-DIIS:  cpu time   14.9177: real time   14.9460
    ORTHCH:  cpu time    0.6639: real time    0.6660
       DOS:  cpu time    0.0080: real time    0.0082
    CHARGE:  cpu time    1.0208: real time    1.0212
    MIXING:  cpu time    0.0060: real time    0.0049
    --------------------------------------------
      LOOP:  cpu time   20.4109: real time   20.4469

 eigenvalue-minimisations  :  8221
 total energy-change (2. order) :-0.2925905E+01  (-0.7470805E+00)
 number of electron     545.9999936 magnetization     145.4105991
 augmentation part      301.7857197 magnetization     111.3029916

 DIPCOR: dipole corrections for dipol
 direction  3 min pos   225,
 dipolmoment           0.000000      0.000000     -0.008461 electrons x Angstroem
 Tr[quadrupol]     -9254.292310

 energy correction for charged system         0.000000 eV
 dipol+quadrupol energy correction           -0.000003 eV
 added-field ion interaction          0.357836 eV  (added to PSCEN)


 Broyden mixing:
  rms(total) = 0.34661E+01    rms(broyden)= 0.34660E+01
  rms(prec ) = 0.38798E+01
  weight for this iteration     100.00

 eigenvalues of (default mixing * dielectric matrix)
  average eigenvalue GAMMA=   0.3075
  0.8804  0.4222  0.4222  0.0558  0.1366  0.1366  0.0989

 Free energy of the ion-electron system (eV)
  ---------------------------------------------------
  alpha Z        PSCENC =      1425.90778233
  Ewald energy   TEWEN  =    176949.70774431
  -Hartree energ DENC   =   -222929.51633235
  -exchange      EXHF   =         0.00000000
  -V(xc)+E(xc)   XCENC  =       737.29286690
  PAW double counting   =     52508.67368599   -54103.27405793
  entropy T*S    EENTRO =         0.01012359
  eigenvalues    EBANDS =     -1276.41935379
  atomic energy  EATOM  =     46253.10162290
  Solvation  Ediel_sol  =         0.00000000
  ---------------------------------------------------
  free energy    TOTEN  =      -434.51591805 eV

  energy without entropy =     -434.52604164  energy(sigma->0) =     -434.51929258


--------------------------------------------------------------------------------------------------------




--------------------------------------- Iteration      1(  13)  ---------------------------------------


    POTLOK:  cpu time    0.2430: real time    0.2434
    SETDIJ:  cpu time    0.0180: real time    0.0182
    EDDIAG:  cpu time    3.6085: real time    3.6129
  RMM-DIIS:  cpu time   14.9527: real time   14.9781
    ORTHCH:  cpu time    0.6579: real time    0.6584
       DOS:  cpu time    0.0080: real time    0.0078
    CHARGE:  cpu time    1.0068: real time    1.0074
    MIXING:  cpu time    0.0050: real time    0.0054
    --------------------------------------------
      LOOP:  cpu time   20.4999: real time   20.5316

 eigenvalue-minimisations  :  8229
 total energy-change (2. order) : 0.3200842E+01  (-0.4155787E+00)
 number of electron     545.9999935 magnetization     143.7877669
 augmentation part      301.1888705 magnetization     110.3419608

 DIPCOR: dipole corrections for dipol
 direction  3 min pos   241,
 dipolmoment           0.000000      0.000000     -0.148844 electrons x Angstroem
 Tr[quadrupol]     -9255.675515

 energy correction for charged system         0.000000 eV
 dipol+quadrupol energy correction           -0.001062 eV
 added-field ion interaction         -2.009596 eV  (added to PSCEN)


 Broyden mixing:
  rms(total) = 0.18514E+01    rms(broyden)= 0.18513E+01
  rms(prec ) = 0.20668E+01
  weight for this iteration     100.00

 eigenvalues of (default mixing * dielectric matrix)
  average eigenvalue GAMMA=   0.3604
  1.0979  0.5228  0.5228  0.3389  0.0558  0.1344  0.1052  0.1052

 Free energy of the ion-electron system (eV)
  ---------------------------------------------------
  alpha Z        PSCENC =      1423.53929219
  Ewald energy   TEWEN  =    176949.70774431
  -Hartree energ DENC   =   -222985.76882491
  -exchange      EXHF   =         0.00000000
  -V(xc)+E(xc)   XCENC  =       737.47131132
  PAW double counting   =     52655.17963210   -54252.24192187
  entropy T*S    EENTRO =         0.05996293
  eigenvalues    EBANDS =     -1212.36389452
  atomic energy  EATOM  =     46253.10162290
  Solvation  Ediel_sol  =         0.00000000
  ---------------------------------------------------
  free energy    TOTEN  =      -431.31507556 eV

  energy without entropy =     -431.37503849  energy(sigma->0) =     -431.33506320


--------------------------------------------------------------------------------------------------------




--------------------------------------- Iteration      1(  14)  ---------------------------------------


    POTLOK:  cpu time    0.2410: real time    0.2417
    SETDIJ:  cpu time    0.0180: real time    0.0181
    EDDIAG:  cpu time    3.6534: real time    3.6929
  RMM-DIIS:  cpu time   14.9307: real time   15.0054
    ORTHCH:  cpu time    0.6169: real time    0.6187
       DOS:  cpu time    0.0080: real time    0.0076
    CHARGE:  cpu time    1.0008: real time    1.0012
    MIXING:  cpu time    0.0050: real time    0.0052
    --------------------------------------------
      LOOP:  cpu time   20.4739: real time   20.5909

 eigenvalue-minimisations  :  8229
 total energy-change (2. order) :-0.2711884E+01  (-0.4054675E+00)
 number of electron     545.9999938 magnetization     142.0219890
 augmentation part      301.2290848 magnetization     108.7915449

 DIPCOR: dipole corrections for dipol
 direction  3 min pos   249,
 dipolmoment           0.000000      0.000000     -0.110632 electrons x Angstroem
 Tr[quadrupol]     -9255.309705

 energy correction for charged system         0.000000 eV
 dipol+quadrupol energy correction           -0.000587 eV
 added-field ion interaction         -4.579874 eV  (added to PSCEN)


 Broyden mixing:
  rms(total) = 0.28411E+01    rms(broyden)= 0.28410E+01
  rms(prec ) = 0.32002E+01
  weight for this iteration     100.00

 eigenvalues of (default mixing * dielectric matrix)
  average eigenvalue GAMMA=   0.3984
  1.4835  0.6102  0.6102  0.3503  0.0558  0.1359  0.0999  0.1199  0.1199

 Free energy of the ion-electron system (eV)
  ---------------------------------------------------
  alpha Z        PSCENC =      1420.96948975
  Ewald energy   TEWEN  =    176949.70774431
  -Hartree energ DENC   =   -222984.56838425
  -exchange      EXHF   =         0.00000000
  -V(xc)+E(xc)   XCENC  =       738.62232390
  PAW double counting   =     52786.49519608   -54385.23614449
  entropy T*S    EENTRO =         0.02344848
  eigenvalues    EBANDS =     -1213.14225673
  atomic energy  EATOM  =     46253.10162290
  Solvation  Ediel_sol  =         0.00000000
  ---------------------------------------------------
  free energy    TOTEN  =      -434.02696005 eV

  energy without entropy =     -434.05040853  energy(sigma->0) =     -434.03477621


--------------------------------------------------------------------------------------------------------




--------------------------------------- Iteration      1(  15)  ---------------------------------------


    POTLOK:  cpu time    0.2430: real time    0.2427
    SETDIJ:  cpu time    0.0180: real time    0.0183
    EDDIAG:  cpu time    4.0274: real time    4.0775
  RMM-DIIS:  cpu time   14.7578: real time   14.9654
    ORTHCH:  cpu time    0.6479: real time    0.6494
       DOS:  cpu time    0.0080: real time    0.0076
    CHARGE:  cpu time    1.0118: real time    1.0239
    MIXING:  cpu time    0.0060: real time    0.0054
    --------------------------------------------
      LOOP:  cpu time   20.7199: real time   20.9901

 eigenvalue-minimisations  :  8228
 total energy-change (2. order) : 0.1489919E+01  (-0.2967984E+00)
 number of electron     545.9999937 magnetization     141.2711475
 augmentation part      300.9295074 magnetization     109.0761120

 DIPCOR: dipole corrections for dipol
 direction  3 min pos   236,
 dipolmoment           0.000000      0.000000     -0.073843 electrons x Angstroem
 Tr[quadrupol]     -9256.487708

 energy correction for charged system         0.000000 eV
 dipol+quadrupol energy correction           -0.000261 eV
 added-field ion interaction          0.290477 eV  (added to PSCEN)


 Broyden mixing:
  rms(total) = 0.13142E+01    rms(broyden)= 0.13141E+01
  rms(prec ) = 0.14750E+01
  weight for this iteration     100.00

 eigenvalues of (default mixing * dielectric matrix)
  average eigenvalue GAMMA=   0.4057
  1.6384  0.6559  0.6559  0.3026  0.2778  0.0558  0.1444  0.1015  0.1145  0.1100

 Free energy of the ion-electron system (eV)
  ---------------------------------------------------
  alpha Z        PSCENC =      1425.84016546
  Ewald energy   TEWEN  =    176949.70774431
  -Hartree energ DENC   =   -223025.35850507
  -exchange      EXHF   =         0.00000000
  -V(xc)+E(xc)   XCENC  =       738.42203907
  PAW double counting   =     52925.73582538   -54525.67874079
  entropy T*S    EENTRO =         0.05649292
  eigenvalues    EBANDS =     -1174.36368487
  atomic energy  EATOM  =     46253.10162290
  Solvation  Ediel_sol  =         0.00000000
  ---------------------------------------------------
  free energy    TOTEN  =      -432.53704068 eV

  energy without entropy =     -432.59353361  energy(sigma->0) =     -432.55587166


--------------------------------------------------------------------------------------------------------




--------------------------------------- Iteration      1(  16)  ---------------------------------------


    POTLOK:  cpu time    0.2420: real time    0.2431
    SETDIJ:  cpu time    0.0190: real time    0.0183
    EDDIAG:  cpu time    3.5635: real time    3.5681
  RMM-DIIS:  cpu time   14.7598: real time   14.7871
    ORTHCH:  cpu time    0.6189: real time    0.6202
       DOS:  cpu time    0.0080: real time    0.0077
    CHARGE:  cpu time    0.9948: real time    0.9968
    MIXING:  cpu time    0.0080: real time    0.0062
    --------------------------------------------
      LOOP:  cpu time   20.2139: real time   20.2476

 eigenvalue-minimisations  :  8225
 total energy-change (2. order) :-0.6489898E+00  (-0.1583375E+00)
 number of electron     545.9999937 magnetization     140.2172110
 augmentation part      300.8471734 magnetization     108.4626028

 DIPCOR: dipole corrections for dipol
 direction  3 min pos   229,
 dipolmoment           0.000000      0.000000     -0.027519 electrons x Angstroem
 Tr[quadrupol]     -9256.579233

 energy correction for charged system         0.000000 eV
 dipol+quadrupol energy correction           -0.000036 eV
 added-field ion interaction          0.779978 eV  (added to PSCEN)


 Broyden mixing:
  rms(total) = 0.99499E+00    rms(broyden)= 0.99494E+00
  rms(prec ) = 0.11541E+01
  weight for this iteration     100.00

 eigenvalues of (default mixing * dielectric matrix)
  average eigenvalue GAMMA=   0.4305
  1.7112  0.7852  0.7852  0.3946  0.3946  0.0558  0.1416  0.1292  0.1292  0.1017
  0.1069

 Free energy of the ion-electron system (eV)
  ---------------------------------------------------
  alpha Z        PSCENC =      1426.32989201
  Ewald energy   TEWEN  =    176949.70774431
  -Hartree energ DENC   =   -223029.78503526
  -exchange      EXHF   =         0.00000000
  -V(xc)+E(xc)   XCENC  =       738.01748036
  PAW double counting   =     52969.51249279   -54569.89455287
  entropy T*S    EENTRO =         0.05865699
  eigenvalues    EBANDS =     -1170.23433171
  atomic energy  EATOM  =     46253.10162290
  Solvation  Ediel_sol  =         0.00000000
  ---------------------------------------------------
  free energy    TOTEN  =      -433.18603048 eV

  energy without entropy =     -433.24468746  energy(sigma->0) =     -433.20558281


--------------------------------------------------------------------------------------------------------




--------------------------------------- Iteration      1(  17)  ---------------------------------------


    POTLOK:  cpu time    0.2450: real time    0.2462
    SETDIJ:  cpu time    0.0190: real time    0.0182
    EDDIAG:  cpu time    3.6884: real time    3.7060
  RMM-DIIS:  cpu time   14.8847: real time   14.9156
    ORTHCH:  cpu time    0.6479: real time    0.6494
       DOS:  cpu time    0.0080: real time    0.0075
    CHARGE:  cpu time    1.0018: real time    1.0045
    MIXING:  cpu time    0.0060: real time    0.0060
    --------------------------------------------
      LOOP:  cpu time   20.5009: real time   20.5534

 eigenvalue-minimisations  :  8210
 total energy-change (2. order) :-0.2780667E+01  (-0.1214694E+00)
 number of electron     545.9999938 magnetization     139.3272229
 augmentation part      300.8118194 magnetization     108.0556501

 DIPCOR: dipole corrections for dipol
 direction  3 min pos   241,
 dipolmoment           0.000000      0.000000     -0.199290 electrons x Angstroem
 Tr[quadrupol]     -9256.608883

 energy correction for charged system         0.000000 eV
 dipol+quadrupol energy correction           -0.001904 eV
 added-field ion interaction         -2.690697 eV  (added to PSCEN)


 Broyden mixing:
  rms(total) = 0.13548E+01    rms(broyden)= 0.13548E+01
  rms(prec ) = 0.15350E+01
  weight for this iteration     100.00

 eigenvalues of (default mixing * dielectric matrix)
  average eigenvalue GAMMA=   0.4237
  1.7257  0.8577  0.8577  0.4145  0.4145  0.0558  0.1522  0.1522  0.1351  0.1005
  0.1092  0.1092

 Free energy of the ion-electron system (eV)
  ---------------------------------------------------
  alpha Z        PSCENC =      1422.85734929
  Ewald energy   TEWEN  =    176949.70774431
  -Hartree energ DENC   =   -223039.04563473
  -exchange      EXHF   =         0.00000000
  -V(xc)+E(xc)   XCENC  =       736.79838438
  PAW double counting   =     53009.02233135   -54608.84787904
  entropy T*S    EENTRO =         0.06041389
  eigenvalues    EBANDS =     -1159.62103017
  atomic energy  EATOM  =     46253.10162290
  Solvation  Ediel_sol  =         0.00000000
  ---------------------------------------------------
  free energy    TOTEN  =      -435.96669780 eV

  energy without entropy =     -436.02711169  energy(sigma->0) =     -435.98683576


--------------------------------------------------------------------------------------------------------




--------------------------------------- Iteration      1(  18)  ---------------------------------------


    POTLOK:  cpu time    0.2430: real time    0.2437
    SETDIJ:  cpu time    0.0180: real time    0.0184
    EDDIAG:  cpu time    3.5825: real time    3.5872
  RMM-DIIS:  cpu time   14.7548: real time   14.7943
    ORTHCH:  cpu time    0.6399: real time    0.6416
       DOS:  cpu time    0.0080: real time    0.0079
    CHARGE:  cpu time    0.9968: real time    0.9974
    MIXING:  cpu time    0.0060: real time    0.0062
    --------------------------------------------
      LOOP:  cpu time   20.2489: real time   20.2967

 eigenvalue-minimisations  :  8210
 total energy-change (2. order) :-0.1151945E+01  (-0.1022696E+00)
 number of electron     545.9999937 magnetization     138.5137528
 augmentation part      300.7779624 magnetization     107.7697220

 DIPCOR: dipole corrections for dipol
 direction  3 min pos   232,
 dipolmoment           0.000000      0.000000     -0.122390 electrons x Angstroem
 Tr[quadrupol]     -9256.799104

 energy correction for charged system         0.000000 eV
 dipol+quadrupol energy correction           -0.000718 eV
 added-field ion interaction          2.188550 eV  (added to PSCEN)


 Broyden mixing:
  rms(total) = 0.77623E+00    rms(broyden)= 0.77618E+00
  rms(prec ) = 0.87321E+00
  weight for this iteration     100.00

 eigenvalues of (default mixing * dielectric matrix)
  average eigenvalue GAMMA=   0.4544
  1.8507  0.9868  0.8345  0.5458  0.5458  0.3472  0.0558  0.1579  0.1359  0.1254
  0.1145  0.1015  0.1047

 Free energy of the ion-electron system (eV)
  ---------------------------------------------------
  alpha Z        PSCENC =      1427.73778219
  Ewald energy   TEWEN  =    176949.70774431
  -Hartree energ DENC   =   -223041.66832744
  -exchange      EXHF   =         0.00000000
  -V(xc)+E(xc)   XCENC  =       736.38230802
  PAW double counting   =     53040.34955437   -54639.87203932
  entropy T*S    EENTRO =         0.07290006
  eigenvalues    EBANDS =     -1162.93018764
  atomic energy  EATOM  =     46253.10162290
  Solvation  Ediel_sol  =         0.00000000
  ---------------------------------------------------
  free energy    TOTEN  =      -437.11864255 eV

  energy without entropy =     -437.19154260  energy(sigma->0) =     -437.14294257


[...]
   -.726E+02 0.321E+02 -.203E+04   0.732E+02 -.324E+02 0.202E+04   -.572E+00 0.291E+00 0.296E+01   0.102E-02 -.561E-04 -.755E-03
   0.896E+02 -.626E+02 -.678E+03   -.902E+02 0.628E+02 0.677E+03   0.600E+00 -.224E+00 0.375E+00   0.245E-02 0.352E-02 -.182E-01
   0.104E+02 -.291E+02 0.205E+04   -.108E+02 0.290E+02 -.205E+04   0.872E+00 0.292E-02 -.196E+01   0.463E-03 0.815E-02 -.220E-02
   0.386E+02 -.211E+02 -.200E+04   -.392E+02 0.208E+02 0.200E+04   0.571E+00 0.360E+00 0.234E+01   0.134E-01 -.698E-02 -.407E-02
   -.973E+01 -.481E+01 0.640E+03   0.100E+02 0.552E+01 -.639E+03   0.592E+00 0.249E+00 -.212E+00   -.115E-02 -.483E-02 -.135E-01
   0.368E+02 -.108E+02 0.633E+03   -.369E+02 0.109E+02 -.633E+03   -.257E+00 0.638E+00 -.758E+00   0.151E-02 -.630E-03 -.108E-01
   0.539E+02 -.523E+02 -.692E+03   -.539E+02 0.527E+02 0.692E+03   0.376E-01 -.424E+00 0.195E+00   0.668E-03 0.188E-02 -.165E-01
   -.942E+01 0.209E+02 0.641E+03   0.954E+01 -.207E+02 -.640E+03   -.362E+00 -.173E-01 -.706E+00   -.170E-03 0.223E-02 -.146E-01
   0.252E+02 0.405E+01 -.651E+03   -.255E+02 -.421E+01 0.650E+03   0.382E+00 0.133E+00 0.780E+00   -.916E-02 0.106E-01 -.160E-01
   0.112E+02 -.177E+02 0.200E+04   -.113E+02 0.178E+02 -.199E+04   0.822E+00 -.520E+00 -.287E+01   -.275E-02 0.424E-02 0.153E-03
   0.644E+02 -.656E+02 -.202E+04   -.649E+02 0.661E+02 0.202E+04   0.417E+00 -.497E+00 0.262E+01   -.314E-02 0.536E-02 -.495E-02
   -.229E+02 0.351E+02 0.685E+03   0.227E+02 -.348E+02 -.684E+03   0.158E+00 0.196E+00 0.399E+00   0.585E-04 -.101E-02 -.165E-01
   -.514E+02 0.706E+02 -.675E+03   0.515E+02 -.709E+02 0.675E+03   -.140E+00 0.219E+00 0.465E+00   -.272E-02 0.124E-01 -.211E-01
   -.242E+02 0.363E+02 -.711E+03   0.244E+02 -.364E+02 0.711E+03   -.186E+00 0.123E+00 0.227E+00   -.215E-02 0.501E-02 -.224E-01
   -.624E+01 0.828E+01 0.201E+04   0.653E+01 -.850E+01 -.200E+04   -.668E+00 -.642E-01 -.272E+01   0.264E-02 0.549E-02 -.732E-03
   -.487E+02 0.169E+02 -.203E+04   0.493E+02 -.167E+02 0.203E+04   -.569E+00 -.147E+00 0.306E+01   0.482E-02 0.954E-02 -.726E-02
   0.263E+02 -.130E+02 0.200E+04   -.264E+02 0.131E+02 -.200E+04   0.154E-01 -.572E+00 -.205E+01   -.358E-02 0.214E-02 -.556E-03
   0.378E+02 -.298E+02 -.203E+04   -.379E+02 0.304E+02 0.202E+04   0.580E-01 -.632E+00 0.287E+01   0.742E-02 0.259E-02 -.925E-02
   -.381E+02 0.310E+02 -.694E+03   0.381E+02 -.313E+02 0.694E+03   0.674E-02 0.234E+00 0.411E-01   -.200E-02 -.109E-01 -.159E-01
   0.771E+02 -.132E+02 -.675E+03   -.774E+02 0.134E+02 0.674E+03   0.345E+00 -.186E+00 0.538E+00   0.426E-02 -.949E-02 -.133E-01
   0.136E+02 -.739E+01 0.203E+04   -.140E+02 0.745E+01 -.202E+04   0.527E+00 0.354E+00 -.234E+01   -.108E-02 -.698E-02 -.265E-03
   0.274E+02 -.152E+02 -.200E+04   -.280E+02 0.151E+02 0.200E+04   0.597E+00 0.486E-01 0.256E+01   0.698E-02 -.489E-02 -.898E-02
   -.184E+02 0.157E+02 0.200E+04   0.186E+02 -.157E+02 -.200E+04   -.486E+00 -.172E-01 -.274E+01   0.220E-02 -.765E-02 0.369E-03
   -.466E+02 0.295E+02 -.205E+04   0.470E+02 -.297E+02 0.205E+04   -.398E+00 0.234E+00 0.249E+01   0.237E-02 0.228E-02 -.411E-02
   -.104E+01 0.548E+01 0.200E+04   0.936E+00 -.541E+01 -.200E+04   -.205E+00 0.539E+00 -.236E+01   -.323E-02 -.981E-02 -.947E-03
   -.492E+02 0.477E+02 -.201E+04   0.496E+02 -.482E+02 0.201E+04   -.366E+00 0.530E+00 0.196E+01   0.241E-02 -.598E-03 -.836E-02
   0.144E+02 0.338E+02 0.835E+03   -.143E+02 -.339E+02 -.834E+03   0.544E-01 0.292E+00 -.490E+00   0.445E-02 -.113E-01 -.147E-01
   -.311E+02 0.363E+00 0.833E+03   0.311E+02 -.382E+00 -.833E+03   -.314E+00 0.117E+00 -.702E+00   -.522E-02 0.310E-02 -.138E-01
   0.215E+02 -.437E+02 0.825E+03   -.214E+02 0.439E+02 -.824E+03   0.271E+00 -.239E+00 -.413E+00   0.630E-02 0.125E-02 -.212E-01
   0.578E+02 -.355E+02 0.840E+03   -.579E+02 0.356E+02 -.839E+03   0.856E-01 0.174E+00 -.653E+00   -.191E-03 0.395E-02 -.147E-01
   -.256E+02 0.656E+02 0.254E+04   0.257E+02 -.660E+02 -.253E+04   0.861E-01 0.829E+00 -.118E+01   -.259E-02 -.822E-02 -.471E-02
   -.233E+02 0.634E+02 -.254E+04   0.233E+02 -.638E+02 0.253E+04   -.849E-03 0.373E+00 0.909E+00   -.784E-02 -.615E-02 -.606E-02
   0.805E+01 -.798E+02 -.755E+03   -.810E+01 0.801E+02 0.755E+03   0.569E-01 -.275E+00 0.366E+00   -.911E-02 0.837E-02 -.181E-01
   -.443E+02 -.121E+02 0.252E+04   0.448E+02 0.121E+02 -.252E+04   -.623E+00 -.641E-01 -.159E+01   0.409E-04 0.660E-02 -.403E-02
   -.658E+02 0.117E+02 -.251E+04   0.661E+02 -.119E+02 0.251E+04   -.343E+00 0.145E+00 0.646E+00   -.135E-01 0.284E-02 -.200E-02
   0.376E+02 -.403E+02 0.255E+04   -.379E+02 0.405E+02 -.255E+04   0.547E+00 -.352E+00 -.792E+00   -.505E-02 0.815E-02 -.280E-02
   0.101E+03 -.448E+02 -.249E+04   -.102E+03 0.449E+02 0.249E+04   0.469E+00 -.635E-01 0.301E+00   0.739E-03 -.228E-02 -.838E-02
   -.407E+02 0.577E+01 0.250E+04   0.410E+02 -.581E+01 -.250E+04   -.430E+00 -.100E+00 -.149E+01   0.430E-02 0.843E-02 -.189E-02
   -.613E+02 0.317E+01 -.253E+04   0.617E+02 -.302E+01 0.253E+04   -.301E+00 -.141E+00 0.135E+01   -.118E-01 0.144E-01 -.282E-02
   0.434E+02 0.533E+01 -.831E+03   -.434E+02 -.528E+01 0.830E+03   0.240E-01 -.517E-01 0.695E+00   -.192E-02 -.144E-02 -.148E-01
   0.110E+02 -.153E+02 0.250E+04   -.112E+02 0.156E+02 -.250E+04   0.343E+00 -.506E+00 -.102E+01   0.241E-02 -.567E-02 0.204E-02
   0.748E+02 -.413E+02 -.252E+04   -.751E+02 0.416E+02 0.252E+04   0.265E+00 -.228E+00 0.470E+00   -.872E-03 0.188E-02 -.775E-02
   -.821E+02 0.798E+02 -.795E+03   0.824E+02 -.802E+02 0.794E+03   -.300E+00 0.387E+00 0.575E+00   -.429E-02 -.442E-02 -.176E-01
 -----------------------------------------------------------------------------------------------
   0.644E+00 0.275E+00 0.240E+01   -.284E-13 0.796E-12 0.443E-11   -.641E+00 -.252E+00 -.178E+01   -.413E-02 -.152E-01 -.613E+00
 
 
 POSITION                                       TOTAL-FORCE (eV/Angst)
 -----------------------------------------------------------------------------------
     -5.03208      8.74992      4.15716        -0.342923      0.321692     -0.187272
      0.00574      8.72607      4.14261        -0.335500      0.486723     -0.168106
      2.47665      8.72592      4.10615         0.583013      0.409598      0.405603
      1.23891      2.21748      4.15676         0.314225     -0.240815     -0.370784
     -0.01162      1.46895      6.25341         0.004984      0.003145     -0.001955
      2.54446      1.46552      6.19984         0.011590     -0.003675     -0.009039
      1.28611      0.70882      2.01970        -0.101454      0.173067      0.198281
      1.25149      0.72099      8.36895        -0.005016      0.005920      0.003835
      5.12246      1.48747      6.18514         0.001164      0.000896      0.000860
      3.82589      0.76557      2.01626        -0.182944     -0.232268      0.211895
      3.76355      0.75674      8.30460        -0.016450      0.020531     -0.017258
      7.62180      1.45688      6.17974        -0.003537      0.004650      0.014022
      6.32723      0.72925      2.06016         0.060332      0.078988     -0.079018
      6.30377      0.77702      8.31725        -0.030933      0.021813     -0.015407
     -2.55062      4.47399      4.10791         0.422112     -1.566053      0.416509
      0.03014      4.42905      4.16816        -0.294412     -0.651217     -0.220820
      2.50847      4.40516      4.17229         0.218797     -0.497970     -0.211682
      1.24810      3.67331      6.30652         0.011557      0.003134      0.008571
      5.08382      4.44890      4.14610        -0.566255     -1.392104      0.208591
      3.78941      3.64333      6.26686         0.002209     -0.010516      0.007412
      2.59838      2.86105      2.03126        -0.771650      0.545757      0.089382
      2.48604      2.92538      8.41010        -0.022434     -0.008125     -0.015849
      6.35186      3.67861      6.22879         0.004183     -0.000039     -0.020647
      5.00304      2.93728      2.00000         0.535429     -0.098192      0.309838
      5.02646      2.90798      8.33786        -0.015032     -0.004462     -0.009841
      6.25194      6.54167      4.13342         0.884165      0.952391      0.594217
     -1.23133      6.52951      4.16156        -0.402493      0.738850     -0.107456
     -2.48935      5.84084      6.26533         0.026015      0.000778     -0.007314
      1.28426      6.55944      4.17203        -0.250390      0.163351     -0.170051
      0.06385      5.87738      6.28803         0.010262     -0.021567     -0.000021
     -1.31907      5.15820      2.10199         0.778499     -0.469118     -0.388112
     -1.22095      5.04428      8.28847         0.003588     -0.017775     -0.002222
      3.77628      6.55571      4.09794        -0.035965      0.459518      0.870752
      2.57658      5.87168      6.28664         0.015232      0.000371     -0.001530
      5.05129      5.86783      6.28063         0.020252      0.012339      0.021712
      3.83733      5.12538      2.04986        -0.370390     -0.284579     -0.444015
      3.79040      5.12402      8.42855        -0.022269      0.015804      0.002435
      6.32391      5.14322      2.08697        -0.146080     -0.430829     -0.824938
      6.33345      5.11510      8.39687         0.002889     -0.003192     -0.003325
     -3.77120      8.04592      6.22699        -0.009223      0.010304      0.014701
     -1.19667      8.03185      6.22374        -0.003990      0.019012     -0.021957
     -2.55850      7.28170      2.01510         0.174284      0.404342      0.101749
     -2.55968      7.26492      8.34848        -0.022638     -0.005118     -0.012132
      2.56196      7.27552      2.12154        -0.322380      0.012145     -0.411559
      2.46152      7.32798      8.28809        -0.036460      0.027327      0.001444
      5.10630      7.24251      2.09022        -0.311033      0.601806     -0.706112
      5.01121      7.32499      8.31012        -0.024229      0.017687     -0.002666
     -2.52690      8.74056      4.13098         0.177179      0.094662     -0.261228
     -1.24953      2.18697      4.15198        -0.288434      0.101333     -0.430471
      3.77687      2.20348      4.12618         0.317506     -0.095616      0.075026
      6.31052      2.19548      4.13380         0.039562      0.275839     -0.308895
      8.84357      0.69437      2.06440         0.176083      0.383961      0.440475
      8.81258      0.74896      8.25522        -0.023718      0.013834      0.002643
     -1.25981      3.65482      6.17955         0.002572      0.011757     -0.000395
      0.03628      2.92806      2.06598        -0.195632     -0.064461      0.462796
     -0.00944      2.88524      8.25581        -0.014737      0.008409     -0.010487
      7.55782      2.94639      2.05577         0.222577     -0.071327      0.536109
      7.57813      2.92626      8.21245         0.012240      0.011093     -0.025334
      1.28295      5.12031      2.07268        -0.082717     -0.128636      0.269878
      1.26238      5.10429      8.33089         0.004404      0.015021      0.004085
      1.29696      8.06410      6.26334         0.018282     -0.002820     -0.002814
     -0.02502      7.30581      2.07778         0.206703     -0.144208      0.210560
     -0.02090      7.29875      8.27076        -0.008616      0.002762     -0.008573
      3.77536      8.05475      6.21732        -0.001955      0.014071     -0.004096
 -----------------------------------------------------------------------------------
    total drift:                               -0.001183      0.007799      0.007687


--------------------------------------------------------------------------------------------------------



  FREE ENERGIE OF THE ION-ELECTRON SYSTEM (eV)
  ---------------------------------------------------
  free  energy   TOTEN  =      -453.28140616 eV

  energy  without entropy=     -453.33817955  energy(sigma->0) =     -453.30033062
 
 d Force = 0.2809379E-02[ 0.212E-02, 0.350E-02]  d Energy = 0.2725596E-02 0.838E-04
 d Force =-0.3647611E+02[-0.365E+02,-0.365E+02]  d Ewald  =-0.3647611E+02 0.418E-05


--------------------------------------------------------------------------------------------------------


    POTLOK:  cpu time    0.2780: real time    0.2792


--------------------------------------------------------------------------------------------------------


 Conjugate gradient step on ions:
 trial-energy change:   -0.002726  1 .order   -0.002809   -0.003495   -0.002124
  (g-gl).g = 0.160E-02      g.g   = 0.176E-02  gl.gl    = 0.195E-02
 g(Force)  = 0.176E-02   g(Stress)= 0.000E+00 ortho     = 0.169E-03
 gamma     =   0.81703
 trial     =   1.83742
 opt step  =   4.68190  (harmonic =   4.68190) maximal distance =0.01816947
 next E    =  -453.283134   (d E  =  -0.00445)


--------------------------------------------------------------------------------------------------------


  
 reached required accuracy - stopping structural energy minimisation
     LOOP+:  cpu time  265.0017: real time  266.1308
    4ORBIT:  cpu time    0.0000: real time    0.0000
 


 total charge     
 
# of ion       s       p       d       tot
------------------------------------------
    1        0.469   0.492   6.197   7.158
    2        0.472   0.499   6.203   7.174
    3        0.477   0.503   6.217   7.197
    4        0.467   0.488   6.197   7.152
    5        0.477   0.507   6.203   7.187
    6        0.470   0.495   6.197   7.163
    7        0.469   0.376   6.157   7.001
    8        0.471   0.385   6.165   7.020
    9        0.476   0.506   6.208   7.190
   10        0.472   0.398   6.173   7.043
   11        0.473   0.396   6.177   7.046
   12        0.475   0.500   6.204   7.179
   13        0.471   0.383   6.155   7.009
   14        0.468   0.382   6.165   7.016
   15        0.485   0.514   6.223   7.223
   16        0.477   0.501   6.214   7.192
   17        0.474   0.501   6.204   7.178
   18        0.475   0.506   6.209   7.190
   19        0.483   0.516   6.219   7.218
   20        0.471   0.498   6.202   7.171
   21        0.474   0.395   6.171   7.039
   22        0.467   0.385   6.160   7.012
   23        0.475   0.498   6.205   7.179
   24        0.472   0.394   6.168   7.034
   25        0.474   0.396   6.181   7.051
   26        0.494   0.540   6.241   7.276
   27        0.484   0.520   6.225   7.230
   28        0.476   0.510   6.213   7.199
   29        0.485   0.518   6.236   7.239
   30        0.479   0.509   6.228   7.217
   31        0.479   0.397   6.173   7.049
   32        0.465   0.389   6.151   7.005
   33        0.493   0.539   6.249   7.281
   34        0.475   0.505   6.221   7.201
   35        0.475   0.507   6.207   7.190
   36        0.484   0.410   6.193   7.088
   37        0.468   0.381   6.160   7.010
   38        0.498   0.444   6.212   7.154
   39        0.469   0.384   6.165   7.018
   40        0.472   0.502   6.204   7.178
   41        0.475   0.500   6.212   7.188
   42        0.476   0.402   6.175   7.053
   43        0.469   0.390   6.165   7.024
   44        0.478   0.405   6.198   7.081
   45        0.468   0.393   6.163   7.025
   46        0.493   0.432   6.214   7.138
   47        0.471   0.399   6.172   7.042
   48        0.501   0.503   8.301   9.305
   49        0.492   0.474   8.309   9.275
   50        0.500   0.502   8.305   9.307
   51        0.499   0.492   8.306   9.297
   52        0.493   0.364   8.308   9.165
   53        0.509   0.401   8.316   9.226
   54        0.510   0.512   8.327   9.349
   55        0.483   0.346   8.308   9.137
   56        0.512   0.402   8.323   9.237
   57        0.487   0.356   8.307   9.150
   58        0.511   0.407   8.315   9.233
   59        0.492   0.367   8.320   9.179
   60        0.512   0.399   8.321   9.232
   61        0.519   0.535   8.322   9.377
   62        0.504   0.388   8.314   9.207
   63        0.511   0.401   8.317   9.229
   64        0.511   0.521   8.317   9.349
--------------------------------------------------
tot         30.909  28.759 432.490 492.157
 


 magnetization (x)
 
# of ion       s       p       d       tot
------------------------------------------
    1       -0.009  -0.033   2.654   2.612
    2       -0.009  -0.035   2.637   2.594
    3       -0.010  -0.031   2.611   2.569
    4       -0.010  -0.036   2.631   2.585
    5       -0.008  -0.030   2.640   2.602
    6       -0.014  -0.046   2.639   2.579
    7       -0.003  -0.007   2.770   2.761
    8       -0.006  -0.017   2.746   2.723
    9       -0.014  -0.045   2.603   2.544
   10       -0.002  -0.023   2.712   2.687
   11       -0.009  -0.024   2.696   2.663
   12       -0.003  -0.020   2.650   2.626
   13       -0.001  -0.007   2.776   2.768
   14        0.001  -0.008   2.754   2.746
   15       -0.013  -0.035   2.600   2.552
   16       -0.010  -0.031   2.597   2.556
   17       -0.012  -0.038   2.636   2.586
   18       -0.012  -0.037   2.608   2.558
   19       -0.016  -0.045   2.613   2.552
   20       -0.018  -0.052   2.613   2.543
   21       -0.002  -0.017   2.735   2.716
   22       -0.003  -0.018   2.758   2.738
   23       -0.013  -0.035   2.619   2.571
   24       -0.001  -0.019   2.739   2.718
   25       -0.008  -0.022   2.695   2.664
   26       -0.019  -0.054   2.556   2.483
   27       -0.018  -0.049   2.562   2.495
   28       -0.018  -0.053   2.586   2.515
   29       -0.013  -0.036   2.543   2.494
   30       -0.011  -0.032   2.555   2.512
   31       -0.003  -0.009   2.752   2.740
   32        0.003  -0.012   2.801   2.792
   33       -0.020  -0.055   2.504   2.430
   34       -0.013  -0.039   2.577   2.526
   35       -0.015  -0.051   2.619   2.552
   36       -0.009  -0.018   2.684   2.657
   37       -0.007  -0.021   2.760   2.732
   38       -0.010  -0.028   2.646   2.608
   39       -0.006  -0.020   2.750   2.724
   40       -0.016  -0.050   2.615   2.549
   41       -0.013  -0.039   2.588   2.537
   42       -0.003  -0.018   2.729   2.708
   43       -0.007  -0.024   2.754   2.722
   44       -0.003  -0.013   2.673   2.657
   45        0.004  -0.011   2.764   2.757
   46       -0.011  -0.025   2.626   2.590
   47       -0.006  -0.025   2.721   2.689
   48       -0.034  -0.071   0.771   0.666
   49       -0.025  -0.041   0.734   0.669
   50       -0.032  -0.068   0.763   0.663
   51       -0.031  -0.057   0.752   0.664
   52       -0.028  -0.025   0.733   0.680
   53       -0.028  -0.034   0.714   0.651
   54       -0.030  -0.053   0.703   0.620
   55       -0.024  -0.021   0.721   0.676
   56       -0.029  -0.031   0.704   0.644
   57       -0.027  -0.026   0.711   0.658
   58       -0.031  -0.036   0.718   0.651
   59       -0.029  -0.026   0.701   0.647
   60       -0.031  -0.034   0.715   0.650
   61       -0.033  -0.068   0.735   0.635
   62       -0.032  -0.034   0.721   0.654
   63       -0.033  -0.036   0.732   0.663
   64       -0.031  -0.063   0.742   0.648
--------------------------------------------------
tot         -0.927  -2.117 137.465 134.421
 

 total amount of memory used by VASP MPI-rank0   113537. kBytes
=======================================================================

   base      :      30000. kBytes
   nonlr-proj:      13128. kBytes
   fftplans  :       6403. kBytes
   grid      :      16455. kBytes
   one-center:         93. kBytes
   wavefun   :      47458. kBytes
 
  
  
 General timing and accounting informations for this job:
 ========================================================
  
                  Total CPU time used (sec):     9496.955
                            User time (sec):     9430.469
                          System time (sec):       66.486
                         Elapsed time (sec):     9554.440
  
                   Maximum memory used (kb):      168708.
                   Average memory used (kb):           0.
  
                          Minor page faults:      1841444
                          Major page faults:            0
                 Voluntary context switches:         8659
