SQS-NiFe                                
           1
    10.111630    0.000000    0.000000
    -5.055815    8.756928    0.000000
     0.000000    0.000000   21.313618
   Fe   Ni
  47  17
Direct configuration=     1
   0.00194700  0.99920000  0.19504711
   0.49880600  0.99647600  0.19436468
   0.74316000  0.99645900  0.19265379
   0.24913600  0.25322600  0.19502823
   0.09006351  0.16344275  0.28460541
   0.32989434  0.16619550  0.28735768
   0.16766300  0.08094400  0.09476087
   0.17024773  0.08370839  0.37343341
   0.58123331  0.16243388  0.28592989
   0.42207800  0.08742500  0.09459963
   0.41745110  0.08534046  0.37256207
   0.82652289  0.16524220  0.28675410
   0.66737600  0.08327700  0.09665914
   0.67050413  0.09459308  0.37349193
   0.00320800  0.51090900  0.19273630
   0.25586900  0.50577700  0.19556308
   0.49960200  0.50304900  0.19575715
   0.33777472  0.41420038  0.28446861
   0.75679100  0.50804300  0.19452824
   0.58742256  0.42306429  0.28650287
   0.42032800  0.32671800  0.09530328
   0.41748832  0.32676463  0.37383394
   0.82556492  0.41547197  0.28619728
   0.66249300  0.33542400  0.09383672
   0.66584191  0.33473830  0.37424655
   0.99180600  0.74702800  0.19393325
   0.25104600  0.74563900  0.19525367
   0.08391866  0.67169099  0.28558160
   0.50153700  0.74905700  0.19574495
   0.32799603  0.66094712  0.28594810
   0.16407000  0.58904200  0.09862191
   0.16940125  0.59412869  0.37404831
   0.74777500  0.74863100  0.19226885
   0.57973320  0.66321080  0.28608409
   0.83436524  0.66094590  0.28727608
   0.67214400  0.58529400  0.09617600
   0.67139230  0.58550646  0.37390277
   0.91907500  0.58733100  0.09791739
   0.91487935  0.58436264  0.37367866
   0.08525156  0.91508048  0.28693381
   0.32576999  0.91622033  0.28682549
   0.16274300  0.83153600  0.09454501
   0.16628955  0.83294304  0.37533428
   0.66878300  0.83083000  0.09953909
   0.67133633  0.82470859  0.37500316
   0.91852300  0.82706000  0.09806963
   0.91666687  0.82596065  0.37421217
   0.24916500  0.99813100  0.19381878
   0.00129700  0.24974200  0.19480424
   0.49933100  0.25162700  0.19359363
   0.74944200  0.25071300  0.19395097
   0.91424100  0.07929400  0.09685844
   0.91542443  0.08129563  0.37655684
   0.08188610  0.41629031  0.28505658
   0.17077300  0.33437100  0.09693223
   0.16949527  0.33183953  0.37808406
   0.91567000  0.33646400  0.09645316
   0.91598174  0.33672427  0.37858743
   0.41923600  0.58471500  0.09724687
   0.41931188  0.58470966  0.37862096
   0.58170837  0.91413846  0.28594041
   0.41467000  0.83428900  0.09748597
   0.41722333  0.83603618  0.37907370
   0.83404396  0.91514605  0.28459698
Direct configuration=     2
   0.00194700  0.99920000  0.19504711
   0.49880600  0.99647600  0.19436468
   0.74316000  0.99645900  0.19265379
   0.24913600  0.25322600  0.19502823
   0.08346755  0.16606117  0.28580632
   0.33393635  0.16665056  0.28337915
   0.16766300  0.08094400  0.09476087
   0.16732609  0.08276114  0.37715593
   0.58078519  0.16344791  0.28327069
   0.42207800  0.08742500  0.09459963
   0.41818237  0.08415328  0.37663015
   0.83240618  0.16570029  0.28596691
   0.66737600  0.08327700  0.09665914
   0.66954419  0.09051744  0.37678464
   0.00320800  0.51090900  0.19273630
   0.25586900  0.50577700  0.19556308
   0.49960200  0.50304900  0.19575715
   0.33275281  0.41606319  0.28676985
   0.75679100  0.50804300  0.19452824
   0.58363283  0.41745803  0.28452100
   0.42032800  0.32671800  0.09530328
   0.41746915  0.33114118  0.37687453
   0.83173832  0.41322531  0.28554654
   0.66249300  0.33542400  0.09383672
   0.66648197  0.33496093  0.37719809
   0.99180600  0.74702800  0.19393325
   0.25104600  0.74563900  0.19525367
   0.08260717  0.66596034  0.28471549
   0.50153700  0.74905700  0.19574495
   0.33234048  0.66509307  0.28767247
   0.16407000  0.58904200  0.09862191
   0.16859431  0.58902302  0.37608063
   0.74777500  0.74863100  0.19226885
   0.58248333  0.66731412  0.28606708
   0.83358267  0.66783688  0.28518803
   0.67214400  0.58529400  0.09617600
   0.66792867  0.58350964  0.37743104
   0.91907500  0.58733100  0.09791739
   0.91766017  0.58306078  0.37713744
   0.08168243  0.91568107  0.28498025
   0.33238281  0.91476402  0.28601483
   0.16274300  0.83153600  0.09454501
   0.16588650  0.83249415  0.37863280
   0.66878300  0.83083000  0.09953909
   0.66971811  0.82852212  0.37646969
   0.91852300  0.82706000  0.09806963
   0.91782472  0.82976751  0.37673293
   0.24916500  0.99813100  0.19381878
   0.00129700  0.24974200  0.19480424
   0.49933100  0.25162700  0.19359363
   0.74944200  0.25071300  0.19395097
   0.91424100  0.07929400  0.09685844
   0.91651511  0.08221431  0.37729875
   0.08010377  0.41487748  0.28592614
   0.17077300  0.33437100  0.09693223
   0.16884456  0.33259843  0.37783965
   0.91567000  0.33646400  0.09645316
   0.91799385  0.33683139  0.37864743
   0.41923600  0.58471500  0.09724687
   0.41786555  0.58347600  0.37931533
   0.58112465  0.91393481  0.28701676
   0.41467000  0.83428900  0.09748597
   0.41848439  0.83568030  0.37892835
   0.83254908  0.91579684  0.28484109
Direct configuration=     3
   0.00194700  0.99920000  0.19504711
   0.49880600  0.99647600  0.19436468
   0.74316000  0.99645900  0.19265379
   0.24913600  0.25322600  0.19502823
   0.08003313  0.16742454  0.28643162
   0.33604097  0.16688750  0.28130758
   0.16766300  0.08094400  0.09476087
   0.16580483  0.08226792  0.37909418
   0.58055186  0.16397590  0.28188609
   0.42207800  0.08742500  0.09459963
   0.41856313  0.08353513  0.37874833
   0.83546953  0.16593881  0.28555703
   0.66737600  0.08327700  0.09665914
   0.66904437  0.08839532  0.37849911
   0.00320800  0.51090900  0.19273630
   0.25586900  0.50577700  0.19556308
   0.49960200  0.50304900  0.19575715
   0.33013797  0.41703313  0.28796807
   0.75679100  0.50804300  0.19452824
   0.58165957  0.41453893  0.28348907
   0.42032800  0.32671800  0.09530328
   0.41745917  0.33341999  0.37845773
   0.83495271  0.41205552  0.28520771
   0.66249300  0.33542400  0.09383672
   0.66681524  0.33507686  0.37873491
   0.99180600  0.74702800  0.19393325
   0.25104600  0.74563900  0.19525367
   0.08192429  0.66297648  0.28426452
   0.50153700  0.74905700  0.19574495
   0.33460257  0.66725180  0.28857032
   0.16407000  0.58904200  0.09862191
   0.16817415  0.58636457  0.37713883
   0.74777500  0.74863100  0.19226885
   0.58391528  0.66945065  0.28605823
   0.83317520  0.67142492  0.28410082
   0.67214400  0.58529400  0.09617600
   0.66612521  0.58246992  0.37926816
   0.91907500  0.58733100  0.09791739
   0.91910811  0.58238291  0.37893838
   0.07982403  0.91599379  0.28396306
   0.33582601  0.91400574  0.28559273
   0.16274300  0.83153600  0.09454501
   0.16567664  0.83226042  0.38035030
   0.66878300  0.83083000  0.09953909
   0.66887553  0.83050777  0.37723330
   0.91852300  0.82706000  0.09806963
   0.91842759  0.83174969  0.37804545
   0.24916500  0.99813100  0.19381878
   0.00129700  0.24974200  0.19480424
   0.49933100  0.25162700  0.19359363
   0.74944200  0.25071300  0.19395097
   0.91424100  0.07929400  0.09685844
   0.91708301  0.08269265  0.37768506
   0.07917574  0.41414184  0.28637891
   0.17077300  0.33437100  0.09693223
   0.16850575  0.33299358  0.37771238
   0.91567000  0.33646400  0.09645316
   0.91904153  0.33688716  0.37867867
   0.41923600  0.58471500  0.09724687
   0.41711247  0.58283364  0.37967688
   0.58082072  0.91382878  0.28757720
   0.41467000  0.83428900  0.09748597
   0.41914100  0.83549500  0.37885266
   0.83177072  0.91613570  0.28496820
Direct configuration=     4
   0.00194700  0.99920000  0.19504711
   0.49880600  0.99647600  0.19436468
   0.74316000  0.99645900  0.19265379
   0.24913600  0.25322600  0.19502823
   0.07935242  0.16804995  0.28759172
   0.33342585  0.16506671  0.28288953
   0.16766300  0.08094400  0.09476087
   0.16687395  0.08277516  0.38073742
   0.58437335  0.16460648  0.28326651
   0.42207800  0.08742500  0.09459963
   0.41874027  0.08455897  0.38054696
   0.83487553  0.16398677  0.28585425
   0.66737600  0.08327700  0.09665914
   0.66904310  0.08749575  0.38002197
   0.00320800  0.51090900  0.19273630
   0.25586900  0.50577700  0.19556308
   0.49960200  0.50304900  0.19575715
   0.32859654  0.41760325  0.28924698
   0.75679100  0.50804300  0.19452824
   0.58261191  0.41498426  0.28489425
   0.42032800  0.32671800  0.09530328
   0.41634482  0.33360333  0.38029383
   0.83565902  0.41289724  0.28609040
   0.66249300  0.33542400  0.09383672
   0.66619965  0.33381276  0.38021476
   0.99180600  0.74702800  0.19393325
   0.25104600  0.74563900  0.19525367
   0.08244910  0.66345730  0.28571052
   0.50153700  0.74905700  0.19574495
   0.33639765  0.66891404  0.28980770
   0.16407000  0.58904200  0.09862191
   0.16834221  0.58270668  0.37897343
   0.74777500  0.74863100  0.19226885
   0.58486564  0.66972696  0.28727151
   0.83084514  0.67021499  0.28545181
   0.67214400  0.58529400  0.09617600
   0.66538155  0.58155244  0.38097145
   0.91907500  0.58733100  0.09791739
   0.91949180  0.58267870  0.38055953
   0.08247375  0.91756027  0.28487620
   0.33622218  0.91305569  0.28634255
   0.16274300  0.83153600  0.09454501
   0.16474533  0.83194266  0.38166844
   0.66878300  0.83083000  0.09953909
   0.66756406  0.83272927  0.37889218
   0.91852300  0.82706000  0.09806963
   0.91866150  0.83317425  0.37972698
   0.24916500  0.99813100  0.19381878
   0.00129700  0.24974200  0.19480424
   0.49933100  0.25162700  0.19359363
   0.74944200  0.25071300  0.19395097
   0.91424100  0.07929400  0.09685844
   0.91703124  0.08339851  0.37908502
   0.07999332  0.41462883  0.28664836
   0.17077300  0.33437100  0.09693223
   0.16704775  0.33285370  0.37876426
   0.91567000  0.33646400  0.09645316
   0.91948127  0.33541980  0.37933414
   0.41923600  0.58471500  0.09724687
   0.41685745  0.58301600  0.38092999
   0.58350775  0.91666538  0.28827211
   0.41467000  0.83428900  0.09748597
   0.41933117  0.83467938  0.38001698
   0.83054176  0.91826393  0.28584381
Direct configuration=     5
   0.00194700  0.99920000  0.19504711
   0.49880600  0.99647600  0.19436468
   0.74316000  0.99645900  0.19265379
   0.24913600  0.25322600  0.19502823
   0.07776236  0.16951083  0.29030156
   0.32731729  0.16081360  0.28658475
   0.16766300  0.08094400  0.09476087
   0.16937126  0.08396001  0.38457579
   0.59329983  0.16607944  0.28649099
   0.42207800  0.08742500  0.09459963
   0.41915404  0.08695052  0.38474831
   0.83348802  0.15942705  0.28654854
   0.66737600  0.08327700  0.09665914
   0.66904014  0.08539448  0.38357917
   0.00320800  0.51090900  0.19273630
   0.25586900  0.50577700  0.19556308
   0.49960200  0.50304900  0.19575715
   0.32499599  0.41893498  0.29223432
   0.75679100  0.50804300  0.19452824
   0.58483644  0.41602449  0.28817657
   0.42032800  0.32671800  0.09530328
   0.41374185  0.33403159  0.38458271
   0.83730886  0.41486338  0.28815225
   0.66249300  0.33542400  0.09383672
   0.66476171  0.33086001  0.38367149
   0.99180600  0.74702800  0.19393325
   0.25104600  0.74563900  0.19525367
   0.08367496  0.66458043  0.28908816
   0.50153700  0.74905700  0.19574495
   0.34059071  0.67279682  0.29269806
   0.16407000  0.58904200  0.09862191
   0.16873479  0.57416235  0.38325880
   0.74777500  0.74863100  0.19226885
   0.58708556  0.67037237  0.29010558
   0.82540242  0.66738877  0.28860753
   0.67214400  0.58529400  0.09617600
   0.66364446  0.57940934  0.38495012
   0.91907500  0.58733100  0.09791739
   0.92038806  0.58336961  0.38434633
   0.08866314  0.92121936  0.28700916
   0.33714756  0.91083652  0.28809403
   0.16274300  0.83153600  0.09454501
   0.16256991  0.83120042  0.38474743
   0.66878300  0.83083000  0.09953909
   0.66450067  0.83791840  0.38276712
   0.91852300  0.82706000  0.09806963
   0.91920790  0.83650184  0.38365478
   0.24916500  0.99813100  0.19381878
   0.00129700  0.24974200  0.19480424
   0.49933100  0.25162700  0.19359363
   0.74944200  0.25071300  0.19395097
   0.91424100  0.07929400  0.09685844
   0.91691031  0.08504730  0.38235513
   0.08190307  0.41576636  0.28727778
   0.17077300  0.33437100  0.09693223
   0.16364208  0.33252696  0.38122131
   0.91567000  0.33646400  0.09645316
   0.92050844  0.33199225  0.38086523
   0.41923600  0.58471500  0.09724687
   0.41626177  0.58344195  0.38385707
   0.58978431  0.92329129  0.28989533
   0.41467000  0.83428900  0.09748597
   0.41977539  0.83277422  0.38273666
   0.82767108  0.92323517  0.28788912
Direct configuration=     6
   0.00194700  0.99920000  0.19504711
   0.49880600  0.99647600  0.19436468
   0.74316000  0.99645900  0.19265379
   0.24913600  0.25322600  0.19502823
   0.07814148  0.16823555  0.29130278
   0.33043373  0.16269028  0.28860046
   0.16766300  0.08094400  0.09476087
   0.16978000  0.08515300  0.38731061
   0.59287319  0.16689520  0.28819850
   0.42207800  0.08742500  0.09459963
   0.41931216  0.08753860  0.38633700
   0.83508704  0.16297937  0.28748531
   0.66737600  0.08327700  0.09665914
   0.66983744  0.08647347  0.38628119
   0.00320800  0.51090900  0.19273630
   0.25586900  0.50577700  0.19556308
   0.49960200  0.50304900  0.19575715
   0.32782962  0.41968425  0.29285045
   0.75679100  0.50804300  0.19452824
   0.58157833  0.41284893  0.29000045
   0.42032800  0.32671800  0.09530328
   0.41233196  0.33391337  0.38718509
   0.83863179  0.41639744  0.28958965
   0.66249300  0.33542400  0.09383672
   0.66461787  0.32927221  0.38598083
   0.99180600  0.74702800  0.19393325
   0.25104600  0.74563900  0.19525367
   0.08379827  0.66532368  0.29117606
   0.50153700  0.74905700  0.19574495
   0.34131865  0.67309472  0.29334691
   0.16407000  0.58904200  0.09862191
   0.16834356  0.57251173  0.38562966
   0.74777500  0.74863100  0.19226885
   0.58668877  0.67079091  0.29202440
   0.82823332  0.66996164  0.29098374
   0.67214400  0.58529400  0.09617600
   0.66351846  0.58005681  0.38775101
   0.91907500  0.58733100  0.09791739
   0.92025896  0.58324569  0.38659658
   0.08599469  0.91913787  0.28882153
   0.33895554  0.91306341  0.28959492
   0.16274300  0.83153600  0.09454501
   0.16262356  0.82998336  0.38652763
   0.66878300  0.83083000  0.09953909
   0.66370986  0.83821777  0.38518021
   0.91852300  0.82706000  0.09806963
   0.91802591  0.83771180  0.38514771
   0.24916500  0.99813100  0.19381878
   0.00129700  0.24974200  0.19480424
   0.49933100  0.25162700  0.19359363
   0.74944200  0.25071300  0.19395097
   0.91424100  0.07929400  0.09685844
   0.91679299  0.08532464  0.38471484
   0.08207274  0.41731426  0.28750127
   0.17077300  0.33437100  0.09693223
   0.16252744  0.33064363  0.38380829
   0.91567000  0.33646400  0.09645316
   0.91873234  0.33045517  0.38174896
   0.41923600  0.58471500  0.09724687
   0.41711797  0.58355467  0.38637982
   0.58917471  0.92282887  0.29069110
   0.41467000  0.83428900  0.09748597
   0.41854473  0.83299525  0.38489631
   0.82993172  0.92162362  0.28932218
Direct configuration=     7
   0.00194700  0.99920000  0.19504711
   0.49880600  0.99647600  0.19436468
   0.74316000  0.99645900  0.19265379
   0.24913600  0.25322600  0.19502823
   0.07853820  0.16690108  0.29235047
   0.33369480  0.16465405  0.29070971
   0.16766300  0.08094400  0.09476087
   0.17020771  0.08640136  0.39017235
   0.59242674  0.16774880  0.28998526
   0.42207800  0.08742500  0.09459963
   0.41947761  0.08815397  0.38799942
   0.83676026  0.16669653  0.28846555
   0.66737600  0.08327700  0.09665914
   0.67067175  0.08760254  0.38910860
   0.00320800  0.51090900  0.19273630
   0.25586900  0.50577700  0.19556308
   0.49960200  0.50304900  0.19575715
   0.33079476  0.42046830  0.29349517
   0.75679100  0.50804300  0.19452824
   0.57816901  0.40952600  0.29190897
   0.42032800  0.32671800  0.09530328
   0.41085665  0.33378965  0.38990824
   0.84001611  0.41800269  0.29109375
   0.66249300  0.33542400  0.09383672
   0.66446735  0.32761072  0.38839736
   0.99180600  0.74702800  0.19393325
   0.25104600  0.74563900  0.19525367
   0.08392730  0.66610143  0.29336085
   0.50153700  0.74905700  0.19574495
   0.34208038  0.67340645  0.29402587
   0.16407000  0.58904200  0.09862191
   0.16793416  0.57078450  0.38811056
   0.74777500  0.74863100  0.19226885
   0.58627356  0.67122887  0.29403227
   0.83119560  0.67265392  0.29347022
   0.67214400  0.58529400  0.09617600
   0.66338661  0.58073433  0.39068188
   0.91907500  0.58733100  0.09791739
   0.92012386  0.58311603  0.38895126
   0.08320240  0.91695979  0.29071801
   0.34084742  0.91539364  0.29116547
   0.16274300  0.83153600  0.09454501
   0.16267970  0.82870983  0.38839043
   0.66878300  0.83083000  0.09953909
   0.66288235  0.83853103  0.38770529
   0.91852300  0.82706000  0.09806963
   0.91678907  0.83897790  0.38670992
   0.24916500  0.99813100  0.19381878
   0.00129700  0.24974200  0.19480424
   0.49933100  0.25162700  0.19359363
   0.74944200  0.25071300  0.19395097
   0.91424100  0.07929400  0.09685844
   0.91667024  0.08561485  0.38718406
   0.08225028  0.41893399  0.28773513
   0.17077300  0.33437100  0.09693223
   0.16136107  0.32867290  0.38651533
   0.91567000  0.33646400  0.09645316
   0.91687381  0.32884675  0.38267371
   0.41923600  0.58471500  0.09724687
   0.41801389  0.58367263  0.38901965
   0.58853683  0.92234499  0.29152380
   0.41467000  0.83428900  0.09748597
   0.41725696  0.83322653  0.38715618
   0.83229727  0.91993729  0.29082174
Direct configuration=     8
   0.00194700  0.99920000  0.19504711
   0.49880600  0.99647600  0.19436468
   0.74316000  0.99645900  0.19265379
   0.24913600  0.25322600  0.19502823
   0.08104855  0.16736432  0.29303389
   0.33380756  0.16407479  0.29057168
   0.16766300  0.08094400  0.09476087
   0.16893314  0.08567434  0.39178617
   0.59139368  0.16820063  0.29000857
   0.42207800  0.08742500  0.09459963
   0.41881568  0.08730059  0.38909155
   0.83719201  0.16699022  0.28939459
   0.66737600  0.08327700  0.09665914
   0.67026130  0.08725592  0.39036272
   0.00320800  0.51090900  0.19273630
   0.25586900  0.50577700  0.19556308
   0.49960200  0.50304900  0.19575715
   0.33127608  0.41993326  0.29455805
   0.75679100  0.50804300  0.19452824
   0.57957789  0.41156821  0.29286293
   0.42032800  0.32671800  0.09530328
   0.41092546  0.33433850  0.39195173
   0.83801603  0.42016476  0.29134680
   0.66249300  0.33542400  0.09383672
   0.66479334  0.32858440  0.39002638
   0.99180600  0.74702800  0.19393325
   0.25104600  0.74563900  0.19525367
   0.08571003  0.66685337  0.29367563
   0.50153700  0.74905700  0.19574495
   0.34026782  0.67187392  0.29483633
   0.16407000  0.58904200  0.09862191
   0.16770788  0.57237928  0.38882877
   0.74777500  0.74863100  0.19226885
   0.58731166  0.67095905  0.29456255
   0.83088294  0.67011843  0.29398797
   0.67214400  0.58529400  0.09617600
   0.66443093  0.58166957  0.39238406
   0.91907500  0.58733100  0.09791739
   0.91906011  0.58213852  0.39088906
   0.08445523  0.91790548  0.29135207
   0.34036166  0.91747262  0.29167232
   0.16274300  0.83153600  0.09454501
   0.16363292  0.82866188  0.38973302
   0.66878300  0.83083000  0.09953909
   0.66293494  0.83770189  0.38876151
   0.91852300  0.82706000  0.09806963
   0.91587139  0.83905893  0.38810053
   0.24916500  0.99813100  0.19381878
   0.00129700  0.24974200  0.19480424
   0.49933100  0.25162700  0.19359363
   0.74944200  0.25071300  0.19395097
   0.91424100  0.07929400  0.09685844
   0.91601559  0.08486497  0.38786573
   0.08422910  0.41940931  0.28851568
   0.17077300  0.33437100  0.09693223
   0.16252122  0.32812187  0.38716490
   0.91567000  0.33646400  0.09645316
   0.91630325  0.33013222  0.38372285
   0.41923600  0.58471500  0.09724687
   0.41741761  0.58318649  0.39040577
   0.58909212  0.92161757  0.29289066
   0.41467000  0.83428900  0.09748597
   0.41591393  0.83351287  0.38803079
   0.83258589  0.92002111  0.29146839
Direct configuration=     9
   0.00194700  0.99920000  0.19504711
   0.49880600  0.99647600  0.19436468
   0.74316000  0.99645900  0.19265379
   0.24913600  0.25322600  0.19502823
   0.08227835  0.16759126  0.29336869
   0.33386280  0.16379102  0.29050405
   0.16766300  0.08094400  0.09476087
   0.16830873  0.08531818  0.39257678
   0.59088759  0.16842198  0.29001999
   0.42207800  0.08742500  0.09459963
   0.41849141  0.08688252  0.38962658
   0.83740352  0.16713410  0.28984972
   0.66737600  0.08327700  0.09665914
   0.67006023  0.08708612  0.39097711
   0.00320800  0.51090900  0.19273630
   0.25586900  0.50577700  0.19556308
   0.49960200  0.50304900  0.19575715
   0.33151187  0.41967115  0.29507875
   0.75679100  0.50804300  0.19452824
   0.58026809  0.41256868  0.29333027
   0.42032800  0.32671800  0.09530328
   0.41095917  0.33460737  0.39295283
   0.83703621  0.42122395  0.29147077
   0.66249300  0.33542400  0.09383672
   0.66495304  0.32906140  0.39082443
   0.99180600  0.74702800  0.19393325
   0.25104600  0.74563900  0.19525367
   0.08658338  0.66722174  0.29382984
   0.50153700  0.74905700  0.19574495
   0.33937986  0.67112314  0.29523336
   0.16407000  0.58904200  0.09862191
   0.16759703  0.57316056  0.38918062
   0.74777500  0.74863100  0.19226885
   0.58782023  0.67082687  0.29482233
   0.83072977  0.66887631  0.29424161
   0.67214400  0.58529400  0.09617600
   0.66494253  0.58212773  0.39321794
   0.91907500  0.58733100  0.09791739
   0.91853898  0.58165964  0.39183838
   0.08506898  0.91836878  0.29166269
   0.34012370  0.91849111  0.29192063
   0.16274300  0.83153600  0.09454501
   0.16409990  0.82863838  0.39039075
   0.66878300  0.83083000  0.09953909
   0.66296071  0.83729570  0.38927895
   0.91852300  0.82706000  0.09806963
   0.91542182  0.83909863  0.38878178
   0.24916500  0.99813100  0.19381878
   0.00129700  0.24974200  0.19480424
   0.49933100  0.25162700  0.19359363
   0.74944200  0.25071300  0.19395097
   0.91424100  0.07929400  0.09685844
   0.91569489  0.08449761  0.38819968
   0.08519850  0.41964217  0.28889807
   0.17077300  0.33437100  0.09693223
   0.16308957  0.32785192  0.38748313
   0.91567000  0.33646400  0.09645316
   0.91602374  0.33076196  0.38423682
   0.41923600  0.58471500  0.09724687
   0.41712549  0.58294834  0.39108482
   0.58936416  0.92126122  0.29356028
   0.41467000  0.83428900  0.09748597
   0.41525599  0.83365314  0.38845926
   0.83272728  0.92006217  0.29178518
Direct configuration=    10
   0.00194700  0.99920000  0.19504711
   0.49880600  0.99647600  0.19436468
   0.74316000  0.99645900  0.19265379
   0.24913600  0.25322600  0.19502823
   0.08289671  0.16789929  0.29353820
   0.33392733  0.16495910  0.29056573
   0.16766300  0.08094400  0.09476087
   0.16758731  0.08368221  0.39294993
   0.59141362  0.16886284  0.29017317
   0.42207800  0.08742500  0.09459963
   0.41812960  0.08713510  0.38996709
   0.83750777  0.16735519  0.29022240
   0.66737600  0.08327700  0.09665914
   0.66923121  0.08673019  0.39100432
   0.00320800  0.51090900  0.19273630
   0.25586900  0.50577700  0.19556308
   0.49960200  0.50304900  0.19575715
   0.33227132  0.41939639  0.29564924
   0.75679100  0.50804300  0.19452824
   0.58037220  0.41376667  0.29376078
   0.42032800  0.32671800  0.09530328
   0.41214857  0.33422492  0.39360729
   0.83699755  0.42071781  0.29147835
   0.66249300  0.33542400  0.09383672
   0.66392977  0.32942424  0.39122233
   0.99180600  0.74702800  0.19393325
   0.25104600  0.74563900  0.19525367
   0.08692859  0.66752023  0.29374389
   0.50153700  0.74905700  0.19574495
   0.34037050  0.67198334  0.29559624
   0.16407000  0.58904200  0.09862191
   0.16712475  0.57401119  0.38925469
   0.74777500  0.74863100  0.19226885
   0.58786501  0.67034917  0.29479432
   0.83175362  0.66920272  0.29424648
   0.67214400  0.58529400  0.09617600
   0.66607243  0.58304550  0.39397367
   0.91907500  0.58733100  0.09791739
   0.91869186  0.58241601  0.39277138
   0.08501300  0.91809337  0.29200453
   0.34028721  0.91791914  0.29193222
   0.16274300  0.83153600  0.09454501
   0.16330562  0.82890619  0.39099115
   0.66878300  0.83083000  0.09953909
   0.66226710  0.83633058  0.38946202
   0.91852300  0.82706000  0.09806963
   0.91558161  0.83779585  0.38926353
   0.24916500  0.99813100  0.19381878
   0.00129700  0.24974200  0.19480424
   0.49933100  0.25162700  0.19359363
   0.74944200  0.25071300  0.19395097
   0.91424100  0.07929400  0.09685844
   0.91533738  0.08474603  0.38797528
   0.08424511  0.41835690  0.28955868
   0.17077300  0.33437100  0.09693223
   0.16337960  0.32863780  0.38739553
   0.91567000  0.33646400  0.09645316
   0.91676466  0.33234121  0.38454764
   0.41923600  0.58471500  0.09724687
   0.41651514  0.58312019  0.39121376
   0.58870793  0.92090040  0.29427402
   0.41467000  0.83428900  0.09748597
   0.41528625  0.83348201  0.38832905
   0.83284785  0.92025868  0.29179388
Direct configuration=    11
   0.00194700  0.99920000  0.19504711
   0.49880600  0.99647600  0.19436468
   0.74316000  0.99645900  0.19265379
   0.24913600  0.25322600  0.19502823
   0.08313096  0.16801598  0.29360242
   0.33395178  0.16540160  0.29058909
   0.16766300  0.08094400  0.09476087
   0.16731401  0.08306246  0.39309129
   0.59161289  0.16902986  0.29023119
   0.42207800  0.08742500  0.09459963
   0.41799254  0.08723079  0.39009609
   0.83754726  0.16743895  0.29036358
   0.66737600  0.08327700  0.09665914
   0.66891715  0.08659535  0.39101463
   0.00320800  0.51090900  0.19273630
   0.25586900  0.50577700  0.19556308
   0.49960200  0.50304900  0.19575715
   0.33255902  0.41929231  0.29586536
   0.75679100  0.50804300  0.19452824
   0.58041164  0.41422051  0.29392388
   0.42032800  0.32671800  0.09530328
   0.41259915  0.33408003  0.39385522
   0.83698290  0.42052607  0.29148122
   0.66249300  0.33542400  0.09383672
   0.66354213  0.32956170  0.39137307
   0.99180600  0.74702800  0.19393325
   0.25104600  0.74563900  0.19525367
   0.08705937  0.66763331  0.29371134
   0.50153700  0.74905700  0.19574495
   0.34074579  0.67230921  0.29573371
   0.16407000  0.58904200  0.09862191
   0.16694584  0.57433343  0.38928274
   0.74777500  0.74863100  0.19226885
   0.58788198  0.67016821  0.29478370
   0.83214148  0.66932637  0.29424832
   0.67214400  0.58529400  0.09617600
   0.66650047  0.58339318  0.39425996
   0.91907500  0.58733100  0.09791739
   0.91874978  0.58270255  0.39312483
   0.08499179  0.91798903  0.29213403
   0.34034916  0.91770246  0.29193662
   0.16274300  0.83153600  0.09454501
   0.16300473  0.82900765  0.39121860
   0.66878300  0.83083000  0.09953909
   0.66200435  0.83596497  0.38953137
   0.91852300  0.82706000  0.09806963
   0.91564214  0.83730232  0.38944604
   0.24916500  0.99813100  0.19381878
   0.00129700  0.24974200  0.19480424
   0.49933100  0.25162700  0.19359363
   0.74944200  0.25071300  0.19395097
   0.91424100  0.07929400  0.09685844
   0.91520195  0.08484013  0.38789027
   0.08388394  0.41787000  0.28980895
   0.17077300  0.33437100  0.09693223
   0.16348947  0.32893551  0.38736235
   0.91567000  0.33646400  0.09645316
   0.91704534  0.33293947  0.38466539
   0.41923600  0.58471500  0.09724687
   0.41628392  0.58318530  0.39126260
   0.58845933  0.92076371  0.29454441
   0.41467000  0.83428900  0.09748597
   0.41529771  0.83341718  0.38827973
   0.83289352  0.92033312  0.29179718
Direct configuration=    12
   0.00194700  0.99920000  0.19504711
   0.49880600  0.99647600  0.19436468
   0.74316000  0.99645900  0.19265379
   0.24913600  0.25322600  0.19502823
   0.08279772  0.16769703  0.29358246
   0.33434296  0.16579148  0.29081730
   0.16766300  0.08094400  0.09476087
   0.16684648  0.08254059  0.39301467
   0.59158432  0.16942940  0.29040492
   0.42207800  0.08742500  0.09459963
   0.41737252  0.08702923  0.38995704
   0.83729279  0.16691350  0.29029288
   0.66737600  0.08327700  0.09665914
   0.66870080  0.08707779  0.39086277
   0.00320800  0.51090900  0.19273630
   0.25586900  0.50577700  0.19556308
   0.49960200  0.50304900  0.19575715
   0.33272688  0.41975337  0.29596077
   0.75679100  0.50804300  0.19452824
   0.58093068  0.41444380  0.29396084
   0.42032800  0.32671800  0.09530328
   0.41298426  0.33389948  0.39413333
   0.83738427  0.42031102  0.29180491
   0.66249300  0.33542400  0.09383672
   0.66338720  0.33006025  0.39130269
   0.99180600  0.74702800  0.19393325
   0.25104600  0.74563900  0.19525367
   0.08686207  0.66712578  0.29379654
   0.50153700  0.74905700  0.19574495
   0.34089671  0.67161627  0.29542659
   0.16407000  0.58904200  0.09862191
   0.16683142  0.57495577  0.38920503
   0.74777500  0.74863100  0.19226885
   0.58838058  0.67039880  0.29481851
   0.83281513  0.66983339  0.29438795
   0.67214400  0.58529400  0.09617600
   0.66714613  0.58413390  0.39459776
   0.91907500  0.58733100  0.09791739
   0.91876072  0.58320946  0.39337314
   0.08522642  0.91809314  0.29218387
   0.34035307  0.91782513  0.29194070
   0.16274300  0.83153600  0.09454501
   0.16263611  0.82921129  0.39142716
   0.66878300  0.83083000  0.09953909
   0.66199948  0.83559451  0.38943284
   0.91852300  0.82706000  0.09806963
   0.91524448  0.83651066  0.38958492
   0.24916500  0.99813100  0.19381878
   0.00129700  0.24974200  0.19480424
   0.49933100  0.25162700  0.19359363
   0.74944200  0.25071300  0.19395097
   0.91424100  0.07929400  0.09685844
   0.91500854  0.08500936  0.38767535
   0.08387962  0.41789171  0.28993827
   0.17077300  0.33437100  0.09693223
   0.16371684  0.32926674  0.38738258
   0.91567000  0.33646400  0.09645316
   0.91683509  0.33354263  0.38489257
   0.41923600  0.58471500  0.09724687
   0.41608216  0.58303127  0.39117380
   0.58882814  0.92097391  0.29439829
   0.41467000  0.83428900  0.09748597
   0.41511357  0.83352519  0.38844845
   0.83278828  0.92022017  0.29177840
Direct configuration=    13
   0.00194700  0.99920000  0.19504711
   0.49880600  0.99647600  0.19436468
   0.74316000  0.99645900  0.19265379
   0.24913600  0.25322600  0.19502823
   0.08247868  0.16739167  0.29356336
   0.33471746  0.16616473  0.29103577