  16  16   1   0
  0.1113753E+02  0.4341721E-09  0.5605137E-09  0.7520081E-09  0.5000000E-15
  1.000000000000000E-004
  CAR 
 SQS-NiFe                                
     22.17142986     -2.49266749  301      8.42608783      1.00000000
     -2.493  0.0000E+00  0.0000E+00  0.0000E+00  0.0000E+00
     -2.410  0.0000E+00  0.0000E+00  0.0000E+00  0.0000E+00
     -2.328  0.0000E+00  0.0000E+00  0.0000E+00  0.0000E+00
     -2.246  0.0000E+00  0.0000E+00  0.0000E+00  0.0000E+00
     -2.164 -0.2301E-32  0.0000E+00 -0.1892E-33  0.0000E+00
     -2.082 -0.1776E-29 -0.1316E-30 -0.1462E-30 -0.1082E-31
     -1.999 -0.9761E-27 -0.8271E-28 -0.8040E-28 -0.6810E-29
     -1.917 -0.3813E-24 -0.3701E-25 -0.3143E-25 -0.3049E-26
     -1.835 -0.1059E-21 -0.1177E-22 -0.8734E-23 -0.9706E-24
     -1.753 -0.2087E-19 -0.2659E-20 -0.1725E-20 -0.2196E-21
     -1.671 -0.2807E-17 -0.4265E-18 -0.2325E-18 -0.3528E-19
     -1.588 -0.2804E-15 -0.4705E-16 -0.2329E-16 -0.3904E-17
     -1.506 -0.1960E-13 -0.3773E-14 -0.1634E-14 -0.3141E-15
     -1.424 -0.9673E-12 -0.2139E-12 -0.8116E-13 -0.1790E-13
     -1.342 -0.3363E-10 -0.8553E-11 -0.2846E-11 -0.7210E-12
     -1.259 -0.8201E-09 -0.2403E-09 -0.7027E-10 -0.2048E-10
     -1.177 -0.1395E-07 -0.4722E-08 -0.1218E-08 -0.4087E-09
     -1.095 -0.1642E-06 -0.6442E-07 -0.1471E-07 -0.5705E-08
     -1.013 -0.1315E-05 -0.6028E-06 -0.1228E-06 -0.5526E-07
     -0.931 -0.6970E-05 -0.3784E-05 -0.6959E-06 -0.3663E-06
     -0.848 -0.2286E-04 -0.1521E-04 -0.2575E-05 -0.1617E-05
     -0.766 -0.3685E-04 -0.3439E-04 -0.5605E-05 -0.4445E-05
     -0.684  0.2006E-04 -0.1772E-04 -0.3955E-05 -0.5901E-05
     -0.602  0.2229E-03  0.1259E-03  0.1437E-04  0.4450E-05
     -0.520  0.4538E-03  0.3773E-03  0.5168E-04  0.3547E-04
     -0.437  0.4666E-03  0.4914E-03  0.9004E-04  0.7587E-04
     -0.355  0.4988E-03  0.4342E-03  0.1310E-03  0.1116E-03
     -0.273  0.1337E-02  0.8679E-03  0.2410E-03  0.1829E-03
     -0.191  0.2987E-02  0.2297E-02  0.4865E-03  0.3718E-03
     -0.108  0.4172E-02  0.3830E-02  0.8295E-03  0.6867E-03
     -0.026  0.4313E-02  0.4327E-02  0.1184E-02  0.1042E-02
      0.056  0.4364E-02  0.4271E-02  0.1543E-02  0.1394E-02
      0.138  0.4945E-02  0.4639E-02  0.1949E-02  0.1775E-02
      0.220  0.5807E-02  0.5415E-02  0.2427E-02  0.2220E-02
      0.303  0.6619E-02  0.6284E-02  0.2971E-02  0.2737E-02
      0.385  0.6632E-02  0.6759E-02  0.3516E-02  0.3292E-02
      0.467  0.5042E-02  0.5910E-02  0.3931E-02  0.3778E-02
      0.549  0.2458E-02  0.3579E-02  0.4133E-02  0.4073E-02
      0.631  0.9894E-03  0.1320E-02  0.4214E-02  0.4181E-02
      0.714  0.2323E-02  0.1245E-02  0.4405E-02  0.4283E-02
      0.796  0.5937E-02  0.3946E-02  0.4893E-02  0.4608E-02
      0.878  0.9359E-02  0.7776E-02  0.5663E-02  0.5247E-02
      0.960  0.1028E-01  0.1012E-01  0.6508E-02  0.6079E-02
      1.043  0.8924E-02  0.9645E-02  0.7241E-02  0.6872E-02
      1.125  0.8453E-02  0.8014E-02  0.7936E-02  0.7531E-02
      1.207  0.1147E-01  0.8839E-02  0.8880E-02  0.8258E-02
      1.289  0.1576E-01  0.1312E-01  0.1017E-01  0.9337E-02
      1.371  0.1597E-01  0.1659E-01  0.1149E-01  0.1070E-01
      1.454  0.1078E-01  0.1450E-01  0.1237E-01  0.1189E-01
      1.536  0.4830E-02  0.8186E-02  0.1277E-01  0.1257E-01
      1.618  0.2662E-02  0.3252E-02  0.1299E-01  0.1283E-01
      1.700  0.4463E-02  0.2638E-02  0.1336E-01  0.1305E-01
      1.782  0.7713E-02  0.5083E-02  0.1399E-01  0.1347E-01
      1.865  0.9705E-02  0.8041E-02  0.1479E-01  0.1413E-01
      1.947  0.9355E-02  0.9498E-02  0.1556E-01  0.1491E-01
      2.029  0.8556E-02  0.8804E-02  0.1626E-01  0.1563E-01
      2.111  0.1071E-01  0.7576E-02  0.1714E-01  0.1626E-01
      2.194  0.1613E-01  0.9048E-02  0.1847E-01  0.1700E-01
      2.276  0.2000E-01  0.1426E-01  0.2011E-01  0.1817E-01
      2.358  0.1793E-01  0.1895E-01  0.2159E-01  0.1973E-01
      2.440  0.1247E-01  0.1795E-01  0.2261E-01  0.2121E-01
      2.522  0.1065E-01  0.1237E-01  0.2349E-01  0.2222E-01
      2.605  0.1579E-01  0.8624E-02  0.2479E-01  0.2293E-01
      2.687  0.2411E-01  0.1116E-01  0.2677E-01  0.2385E-01
      2.769  0.2882E-01  0.1829E-01  0.2914E-01  0.2535E-01
      2.851  0.2647E-01  0.2445E-01  0.3132E-01  0.2736E-01
      2.933  0.1991E-01  0.2539E-01  0.3295E-01  0.2945E-01
      3.016  0.1505E-01  0.2126E-01  0.3419E-01  0.3120E-01
      3.098  0.1464E-01  0.1565E-01  0.3539E-01  0.3249E-01
      3.180  0.1745E-01  0.1214E-01  0.3683E-01  0.3348E-01
      3.262  0.2306E-01  0.1131E-01  0.3872E-01  0.3441E-01
      3.345  0.3354E-01  0.1142E-01  0.4148E-01  0.3535E-01
      3.427  0.4956E-01  0.1215E-01  0.4555E-01  0.3635E-01
      3.509  0.6768E-01  0.1476E-01  0.5112E-01  0.3757E-01
      3.591  0.8233E-01  0.1875E-01  0.5789E-01  0.3911E-01
      3.673  0.8967E-01  0.2246E-01  0.6526E-01  0.4095E-01
      3.756  0.8947E-01  0.2604E-01  0.7262E-01  0.4309E-01
      3.838  0.8534E-01  0.3058E-01  0.7963E-01  0.4561E-01
      3.920  0.8418E-01  0.3631E-01  0.8655E-01  0.4859E-01
      4.002  0.9240E-01  0.4252E-01  0.9415E-01  0.5209E-01
      4.084  0.1093E+00  0.4763E-01  0.1031E+00  0.5601E-01
      4.167  0.1258E+00  0.5027E-01  0.1135E+00  0.6014E-01
      4.249  0.1337E+00  0.5148E-01  0.1245E+00  0.6437E-01
      4.331  0.1355E+00  0.5534E-01  0.1356E+00  0.6892E-01
      4.413  0.1382E+00  0.6420E-01  0.1470E+00  0.7420E-01
      4.495  0.1430E+00  0.7395E-01  0.1587E+00  0.8028E-01
      4.578  0.1448E+00  0.7905E-01  0.1706E+00  0.8678E-01
      4.660  0.1409E+00  0.7958E-01  0.1822E+00  0.9332E-01
      4.742  0.1354E+00  0.7854E-01  0.1933E+00  0.9978E-01
      4.824  0.1361E+00  0.7858E-01  0.2045E+00  0.1062E+00
      4.907  0.1437E+00  0.8242E-01  0.2163E+00  0.1130E+00
      4.989  0.1491E+00  0.9119E-01  0.2286E+00  0.1205E+00
      5.071  0.1448E+00  0.1035E+00  0.2405E+00  0.1290E+00
      5.153  0.1369E+00  0.1168E+00  0.2518E+00  0.1386E+00
      5.235  0.1380E+00  0.1290E+00  0.2631E+00  0.1492E+00
      5.318  0.1503E+00  0.1380E+00  0.2755E+00  0.1606E+00
      5.400  0.1649E+00  0.1430E+00  0.2890E+00  0.1723E+00
      5.482  0.1748E+00  0.1444E+00  0.3034E+00  0.1842E+00
      5.564  0.1821E+00  0.1413E+00  0.3184E+00  0.1958E+00
      5.646  0.1923E+00  0.1332E+00  0.3342E+00  0.2068E+00
      5.729  0.2063E+00  0.1252E+00  0.3511E+00  0.2171E+00
      5.811  0.2198E+00  0.1235E+00  0.3692E+00  0.2272E+00
      5.893  0.2284E+00  0.1262E+00  0.3880E+00  0.2376E+00
      5.975  0.2341E+00  0.1282E+00  0.4072E+00  0.2481E+00
      6.058  0.2421E+00  0.1333E+00  0.4271E+00  0.2591E+00
      6.140  0.2499E+00  0.1464E+00  0.4477E+00  0.2711E+00
      6.222  0.2479E+00  0.1604E+00  0.4681E+00  0.2843E+00
      6.304  0.2313E+00  0.1666E+00  0.4871E+00  0.2980E+00
      6.386  0.2059E+00  0.1687E+00  0.5040E+00  0.3119E+00
      6.469  0.1826E+00  0.1741E+00  0.5190E+00  0.3262E+00
      6.551  0.1711E+00  0.1810E+00  0.5331E+00  0.3411E+00
      6.633  0.1752E+00  0.1851E+00  0.5475E+00  0.3563E+00
      6.715  0.1887E+00  0.1883E+00  0.5630E+00  0.3718E+00
      6.797  0.1997E+00  0.1947E+00  0.5794E+00  0.3878E+00
      6.880  0.2037E+00  0.2042E+00  0.5962E+00  0.4046E+00
      6.962  0.2063E+00  0.2140E+00  0.6131E+00  0.4222E+00
      7.044  0.2101E+00  0.2200E+00  0.6304E+00  0.4402E+00
      7.126  0.2118E+00  0.2178E+00  0.6478E+00  0.4581E+00
      7.209  0.2098E+00  0.2061E+00  0.6651E+00  0.4751E+00
      7.291  0.2043E+00  0.1904E+00  0.6819E+00  0.4907E+00
      7.373  0.1976E+00  0.1795E+00  0.6981E+00  0.5055E+00
      7.455  0.1987E+00  0.1769E+00  0.7144E+00  0.5201E+00
      7.537  0.2214E+00  0.1780E+00  0.7326E+00  0.5347E+00
      7.620  0.2695E+00  0.1770E+00  0.7548E+00  0.5492E+00
      7.702  0.3199E+00  0.1733E+00  0.7811E+00  0.5635E+00
      7.784  0.3260E+00  0.1699E+00  0.8079E+00  0.5775E+00
      7.866  0.2630E+00  0.1691E+00  0.8295E+00  0.5914E+00
      7.948  0.1615E+00  0.1698E+00  0.8428E+00  0.6053E+00
      8.031  0.7620E-01  0.1691E+00  0.8491E+00  0.6192E+00
      8.113  0.3299E-01  0.1637E+00  0.8518E+00  0.6327E+00
      8.195  0.2127E-01  0.1526E+00  0.8535E+00  0.6452E+00
      8.277  0.2164E-01  0.1385E+00  0.8553E+00  0.6566E+00
      8.360  0.2460E-01  0.1302E+00  0.8573E+00  0.6673E+00
      8.442  0.2845E-01  0.1338E+00  0.8597E+00  0.6783E+00
      8.524  0.3239E-01  0.1431E+00  0.8623E+00  0.6901E+00
      8.606  0.3444E-01  0.1472E+00  0.8652E+00  0.7022E+00
      8.688  0.3296E-01  0.1435E+00  0.8679E+00  0.7140E+00
      8.771  0.2849E-01  0.1385E+00  0.8702E+00  0.7254E+00
      8.853  0.2265E-01  0.1364E+00  0.8721E+00  0.7366E+00
      8.935  0.1707E-01  0.1332E+00  0.8735E+00  0.7475E+00
      9.017  0.1428E-01  0.1254E+00  0.8746E+00  0.7578E+00
      9.099  0.1574E-01  0.1165E+00  0.8759E+00  0.7674E+00
      9.182  0.1886E-01  0.1101E+00  0.8775E+00  0.7765E+00
      9.264  0.2047E-01  0.1069E+00  0.8792E+00  0.7853E+00
      9.346  0.2169E-01  0.1089E+00  0.8810E+00  0.7942E+00
      9.428  0.2477E-01  0.1166E+00  0.8830E+00  0.8038E+00
      9.511  0.2865E-01  0.1267E+00  0.8854E+00  0.8142E+00
      9.593  0.3078E-01  0.1341E+00  0.8879E+00  0.8252E+00
      9.675  0.3001E-01  0.1341E+00  0.8903E+00  0.8363E+00
      9.757  0.2675E-01  0.1246E+00  0.8925E+00  0.8465E+00
      9.839  0.2272E-01  0.1057E+00  0.8944E+00  0.8552E+00
      9.922  0.2024E-01  0.8048E-01  0.8961E+00  0.8618E+00
     10.004  0.2056E-01  0.5720E-01  0.8978E+00  0.8665E+00
     10.086  0.2221E-01  0.4333E-01  0.8996E+00  0.8701E+00
     10.168  0.2197E-01  0.3820E-01  0.9014E+00  0.8732E+00
     10.250  0.1887E-01  0.3696E-01  0.9030E+00  0.8763E+00
     10.333  0.1593E-01  0.3652E-01  0.9043E+00  0.8793E+00
     10.415  0.1585E-01  0.3477E-01  0.9056E+00  0.8821E+00
     10.497  0.1757E-01  0.3067E-01  0.9070E+00  0.8846E+00
     10.579  0.1877E-01  0.2671E-01  0.9086E+00  0.8868E+00
     10.662  0.1875E-01  0.2646E-01  0.9101E+00  0.8890E+00
     10.744  0.1820E-01  0.2976E-01  0.9116E+00  0.8915E+00
     10.826  0.1837E-01  0.3248E-01  0.9131E+00  0.8941E+00
     10.908  0.2041E-01  0.3164E-01  0.9148E+00  0.8967E+00
     10.990  0.2388E-01  0.2888E-01  0.9167E+00  0.8991E+00
     11.073  0.2683E-01  0.2723E-01  0.9189E+00  0.9013E+00
     11.155  0.2792E-01  0.2684E-01  0.9212E+00  0.9036E+00
     11.237  0.2764E-01  0.2627E-01  0.9235E+00  0.9057E+00
     11.319  0.2719E-01  0.2514E-01  0.9258E+00  0.9078E+00
     11.401  0.2597E-01  0.2423E-01  0.9279E+00  0.9098E+00
     11.484  0.2235E-01  0.2346E-01  0.9297E+00  0.9117E+00
     11.566  0.1782E-01  0.2188E-01  0.9312E+00  0.9135E+00
     11.648  0.1566E-01  0.2068E-01  0.9325E+00  0.9152E+00
     11.730  0.1590E-01  0.2286E-01  0.9338E+00  0.9171E+00
     11.813  0.1548E-01  0.2823E-01  0.9351E+00  0.9194E+00
     11.895  0.1282E-01  0.3230E-01  0.9361E+00  0.9221E+00
     11.977  0.1024E-01  0.3182E-01  0.9370E+00  0.9247E+00
     12.059  0.1102E-01  0.2840E-01  0.9379E+00  0.9270E+00
     12.141  0.1495E-01  0.2498E-01  0.9391E+00  0.9291E+00
     12.224  0.1831E-01  0.2176E-01  0.9406E+00  0.9308E+00
     12.306  0.1808E-01  0.1825E-01  0.9421E+00  0.9323E+00
     12.388  0.1454E-01  0.1555E-01  0.9433E+00  0.9336E+00
     12.470  0.1069E-01  0.1470E-01  0.9442E+00  0.9348E+00
     12.552  0.9735E-02  0.1559E-01  0.9450E+00  0.9361E+00
     12.635  0.1156E-01  0.1725E-01  0.9459E+00  0.9375E+00
     12.717  0.1312E-01  0.1821E-01  0.9470E+00  0.9390E+00
     12.799  0.1335E-01  0.1761E-01  0.9481E+00  0.9405E+00
     12.881  0.1422E-01  0.1631E-01  0.9493E+00  0.9418E+00
     12.964  0.1648E-01  0.1524E-01  0.9506E+00  0.9431E+00
     13.046  0.1837E-01  0.1370E-01  0.9521E+00  0.9442E+00
     13.128  0.1821E-01  0.1153E-01  0.9536E+00  0.9451E+00
     13.210  0.1578E-01  0.1074E-01  0.9549E+00  0.9460E+00
     13.292  0.1276E-01  0.1259E-01  0.9560E+00  0.9471E+00
     13.375  0.1168E-01  0.1551E-01  0.9569E+00  0.9483E+00
     13.457  0.1282E-01  0.1758E-01  0.9580E+00  0.9498E+00
     13.539  0.1357E-01  0.1843E-01  0.9591E+00  0.9513E+00
     13.621  0.1275E-01  0.1833E-01  0.9601E+00  0.9528E+00
     13.703  0.1209E-01  0.1727E-01  0.9611E+00  0.9542E+00
     13.786  0.1203E-01  0.1552E-01  0.9621E+00  0.9555E+00
     13.868  0.1081E-01  0.1396E-01  0.9630E+00  0.9567E+00
     13.950  0.8040E-02  0.1323E-01  0.9637E+00  0.9577E+00
     14.032  0.6001E-02  0.1306E-01  0.9642E+00  0.9588E+00
     14.114  0.7777E-02  0.1314E-01  0.9648E+00  0.9599E+00
     14.197  0.1398E-01  0.1356E-01  0.9660E+00  0.9610E+00
     14.279  0.2056E-01  0.1384E-01  0.9676E+00  0.9621E+00
     14.361  0.2202E-01  0.1248E-01  0.9695E+00  0.9632E+00
     14.443  0.1795E-01  0.8767E-02  0.9709E+00  0.9639E+00
     14.526  0.1351E-01  0.4294E-02  0.9720E+00  0.9642E+00
     14.608  0.1329E-01  0.1733E-02  0.9731E+00  0.9644E+00
     14.690  0.1778E-01  0.2791E-02  0.9746E+00  0.9646E+00
     14.772  0.2497E-01  0.7607E-02  0.9766E+00  0.9652E+00
     14.854  0.3185E-01  0.1476E-01  0.9793E+00  0.9665E+00
     14.937  0.3539E-01  0.2092E-01  0.9822E+00  0.9682E+00
     15.019  0.3496E-01  0.2237E-01  0.9850E+00  0.9700E+00
     15.101  0.3273E-01  0.1938E-01  0.9877E+00  0.9716E+00
     15.183  0.2983E-01  0.1727E-01  0.9902E+00  0.9730E+00
     15.265  0.2549E-01  0.2027E-01  0.9923E+00  0.9747E+00
     15.348  0.2136E-01  0.2718E-01  0.9940E+00  0.9769E+00
     15.430  0.2066E-01  0.3381E-01  0.9957E+00  0.9797E+00
     15.512  0.2264E-01  0.3670E-01  0.9976E+00  0.9827E+00
     15.594  0.2349E-01  0.3546E-01  0.9995E+00  0.9856E+00
     15.677  0.2197E-01  0.3286E-01  0.1001E+01  0.9883E+00
     15.759  0.2055E-01  0.3067E-01  0.1003E+01  0.9909E+00
     15.841  0.2092E-01  0.2817E-01  0.1005E+01  0.9932E+00
     15.923  0.2188E-01  0.2541E-01  0.1007E+01  0.9953E+00
     16.005  0.2220E-01  0.2331E-01  0.1008E+01  0.9972E+00
     16.088  0.2194E-01  0.2233E-01  0.1010E+01  0.9990E+00
     16.170  0.2109E-01  0.2317E-01  0.1012E+01  0.1001E+01
     16.252  0.1914E-01  0.2482E-01  0.1013E+01  0.1003E+01
     16.334  0.1574E-01  0.2429E-01  0.1015E+01  0.1005E+01
     16.416  0.1291E-01  0.2162E-01  0.1016E+01  0.1007E+01
     16.499  0.1404E-01  0.2052E-01  0.1017E+01  0.1008E+01
     16.581  0.1795E-01  0.2248E-01  0.1018E+01  0.1010E+01
     16.663  0.1911E-01  0.2406E-01  0.1020E+01  0.1012E+01
     16.745  0.1624E-01  0.2146E-01  0.1021E+01  0.1014E+01
     16.828  0.1395E-01  0.1589E-01  0.1023E+01  0.1015E+01
     16.910  0.1522E-01  0.1257E-01  0.1024E+01  0.1016E+01
     16.992  0.1805E-01  0.1421E-01  0.1025E+01  0.1018E+01
     17.074  0.1949E-01  0.1750E-01  0.1027E+01  0.1019E+01
     17.156  0.1961E-01  0.1798E-01  0.1028E+01  0.1020E+01
     17.239  0.1993E-01  0.1633E-01  0.1030E+01  0.1022E+01
     17.321  0.2000E-01  0.1617E-01  0.1032E+01  0.1023E+01
     17.403  0.1860E-01  0.1783E-01  0.1033E+01  0.1025E+01
     17.485  0.1724E-01  0.1902E-01  0.1035E+01  0.1026E+01
     17.567  0.1880E-01  0.1948E-01  0.1036E+01  0.1028E+01
     17.650  0.2321E-01  0.2069E-01  0.1038E+01  0.1029E+01
     17.732  0.2712E-01  0.2191E-01  0.1040E+01  0.1031E+01
     17.814  0.2760E-01  0.2070E-01  0.1043E+01  0.1033E+01
     17.896  0.2452E-01  0.1815E-01  0.1045E+01  0.1034E+01
     17.979  0.1977E-01  0.1818E-01  0.1046E+01  0.1036E+01
     18.061  0.1524E-01  0.2119E-01  0.1048E+01  0.1038E+01
     18.143  0.1208E-01  0.2378E-01  0.1049E+01  0.1040E+01
     18.225  0.1074E-01  0.2424E-01  0.1049E+01  0.1042E+01
     18.307  0.1081E-01  0.2374E-01  0.1050E+01  0.1044E+01
     18.390  0.1140E-01  0.2271E-01  0.1051E+01  0.1045E+01
     18.472  0.1157E-01  0.1967E-01  0.1052E+01  0.1047E+01
     18.554  0.1079E-01  0.1469E-01  0.1053E+01  0.1048E+01
     18.636  0.9830E-02  0.1124E-01  0.1054E+01  0.1049E+01
     18.718  0.9777E-02  0.1167E-01  0.1055E+01  0.1050E+01
     18.801  0.1022E-01  0.1348E-01  0.1056E+01  0.1051E+01
     18.883  0.9977E-02  0.1288E-01  0.1056E+01  0.1052E+01
     18.965  0.8319E-02  0.1029E-01  0.1057E+01  0.1053E+01
     19.047  0.5613E-02  0.8996E-02  0.1058E+01  0.1054E+01
     19.130  0.3397E-02  0.9956E-02  0.1058E+01  0.1055E+01
     19.212  0.2976E-02  0.1091E-01  0.1058E+01  0.1056E+01
     19.294  0.3967E-02  0.1008E-01  0.1058E+01  0.1056E+01
     19.376  0.4933E-02  0.8025E-02  0.1059E+01  0.1057E+01
     19.458  0.5168E-02  0.6056E-02  0.1059E+01  0.1058E+01
     19.541  0.4934E-02  0.4922E-02  0.1060E+01  0.1058E+01
     19.623  0.4327E-02  0.4573E-02  0.1060E+01  0.1058E+01
     19.705  0.3296E-02  0.4408E-02  0.1060E+01  0.1059E+01
     19.787  0.2254E-02  0.4387E-02  0.1060E+01  0.1059E+01
     19.869  0.1496E-02  0.4791E-02  0.1061E+01  0.1060E+01
     19.952  0.8381E-03  0.4827E-02  0.1061E+01  0.1060E+01
     20.034  0.2581E-03  0.3705E-02  0.1061E+01  0.1060E+01
     20.116 -0.4189E-04  0.2244E-02  0.1061E+01  0.1060E+01
     20.198 -0.8051E-04  0.1401E-02  0.1061E+01  0.1061E+01
     20.281 -0.3784E-04  0.9050E-03  0.1061E+01  0.1061E+01
     20.363 -0.1005E-04  0.3808E-03  0.1061E+01  0.1061E+01
     20.445 -0.1708E-05  0.1393E-04  0.1061E+01  0.1061E+01
     20.527 -0.1945E-06 -0.7922E-04  0.1061E+01  0.1061E+01
     20.609 -0.1518E-07 -0.4645E-04  0.1061E+01  0.1061E+01
     20.692 -0.8213E-09 -0.1400E-04  0.1061E+01  0.1061E+01
     20.774 -0.3106E-10 -0.2634E-05  0.1061E+01  0.1061E+01
     20.856 -0.8249E-12 -0.3285E-06  0.1061E+01  0.1061E+01
     20.938 -0.1544E-13 -0.2791E-07  0.1061E+01  0.1061E+01
     21.020 -0.2046E-15 -0.1640E-08  0.1061E+01  0.1061E+01
     21.103 -0.1819E-17 -0.6725E-10  0.1061E+01  0.1061E+01
     21.185  0.0000E+00 -0.1935E-11  0.1061E+01  0.1061E+01
     21.267  0.0000E+00 -0.3919E-13  0.1061E+01  0.1061E+01
     21.349  0.0000E+00 -0.5611E-15  0.1061E+01  0.1061E+01
     21.432  0.0000E+00 -0.5456E-17  0.1061E+01  0.1061E+01
     21.514  0.0000E+00  0.0000E+00  0.1061E+01  0.1061E+01
     21.596  0.0000E+00  0.0000E+00  0.1061E+01  0.1061E+01
     21.678  0.0000E+00  0.0000E+00  0.1061E+01  0.1061E+01
     21.760  0.0000E+00  0.0000E+00  0.1061E+01  0.1061E+01
     21.843  0.0000E+00  0.0000E+00  0.1061E+01  0.1061E+01
     21.925  0.0000E+00  0.0000E+00  0.1061E+01  0.1061E+01
     22.007  0.0000E+00  0.0000E+00  0.1061E+01  0.1061E+01
     22.089  0.0000E+00  0.0000E+00  0.1061E+01  0.1061E+01
     22.171  0.0000E+00  0.0000E+00  0.1061E+01  0.1061E+01
     22.17142986     -2.49266749  301      8.42608783      1.00000000
     -2.493  0.0000E+00  0.0000E+00  0.0000E+00  0.0000E+00  0.0000E+00  0.0000E+00
     -2.410  0.0000E+00  0.0000E+00  0.0000E+00  0.0000E+00  0.0000E+00  0.0000E+00
     -2.328  0.0000E+00  0.0000E+00  0.0000E+00  0.0000E+00  0.0000E+00  0.0000E+00
     -2.246  0.0000E+00  0.0000E+00  0.0000E+00  0.0000E+00  0.0000E+00  0.0000E+00
     -2.164 -0.1043E-31  0.0000E+00 -0.1123E-35  0.0000E+00 -0.1039E-35  0.0000E+00
     -2.082 -0.8054E-29 -0.6028E-30 -0.8669E-33 -0.5574E-35 -0.8018E-33 -0.4919E-34
     -1.999 -0.4425E-26 -0.3789E-27 -0.4764E-30 -0.3503E-32 -0.4406E-30 -0.3092E-31
     -1.917 -0.1729E-23 -0.1695E-24 -0.1861E-27 -0.1568E-29 -0.1721E-27 -0.1383E-28
     -1.835 -0.4799E-21 -0.5392E-22 -0.5166E-25 -0.4985E-27 -0.4778E-25 -0.4399E-26
     -1.753 -0.9462E-19 -0.1218E-19 -0.1019E-22 -0.1126E-24 -0.9421E-23 -0.9939E-24
     -1.671 -0.1273E-16 -0.1954E-17 -0.1370E-20 -0.1807E-22 -0.1267E-20 -0.1594E-21
     -1.588 -0.1271E-14 -0.2156E-15 -0.1369E-18 -0.1993E-20 -0.1266E-18 -0.1759E-19
     -1.506 -0.8884E-13 -0.1728E-13 -0.9564E-17 -0.1598E-18 -0.8845E-17 -0.1410E-17
     -1.424 -0.4385E-11 -0.9800E-12 -0.4721E-15 -0.9063E-17 -0.4366E-15 -0.7997E-16
     -1.342 -0.1524E-09 -0.3918E-10 -0.1641E-13 -0.3625E-15 -0.1518E-13 -0.3197E-14
     -1.259 -0.3718E-08 -0.1101E-08 -0.4004E-12 -0.1020E-13 -0.3702E-12 -0.8983E-13
     -1.177 -0.6326E-07 -0.2163E-07 -0.6821E-11 -0.2021E-12 -0.6299E-11 -0.1765E-11
     -1.095 -0.7442E-06 -0.2951E-06 -0.8065E-10 -0.2847E-11 -0.7411E-10 -0.2408E-10
     -1.013 -0.5962E-05 -0.2761E-05 -0.6611E-09 -0.3040E-10 -0.5942E-09 -0.2255E-09
     -0.931 -0.3160E-04 -0.1733E-04 -0.3887E-08 -0.3015E-09 -0.3162E-08 -0.1418E-08
     -0.848 -0.1036E-03 -0.6969E-04 -0.1971E-07 -0.3512E-08 -0.1059E-07 -0.5767E-08
     -0.766 -0.1670E-03 -0.1575E-03 -0.1224E-06 -0.4199E-07 -0.1994E-07 -0.1398E-07
     -0.684  0.9174E-04 -0.8076E-04 -0.8619E-06 -0.3952E-06 -0.1824E-07 -0.1750E-07
     -0.602  0.1015E-02  0.5795E-03 -0.4745E-05 -0.2586E-05 -0.4954E-07 -0.2416E-07
     -0.520  0.2073E-02  0.1740E-02 -0.1683E-04 -0.1103E-04 -0.3160E-06 -0.1619E-06
     -0.437  0.2145E-02  0.2279E-02 -0.3163E-04 -0.2754E-04 -0.7551E-06 -0.5751E-06
     -0.355  0.2263E-02  0.2013E-02 -0.7380E-06 -0.2401E-04  0.1375E-06 -0.5398E-06
     -0.273  0.5928E-02  0.3900E-02  0.1497E-03  0.7348E-04  0.4678E-05  0.2089E-05
     -0.191  0.1319E-01  0.1023E-01  0.3918E-03  0.2936E-03  0.1189E-04  0.8141E-05
     -0.108  0.1838E-01  0.1702E-01  0.5823E-03  0.5192E-03  0.1780E-04  0.1437E-04
     -0.026  0.1889E-01  0.1916E-01  0.7055E-03  0.6555E-03  0.2371E-04  0.1882E-04
      0.056  0.1893E-01  0.1873E-01  0.9042E-03  0.8110E-03  0.3685E-04  0.2644E-04
      0.138  0.2126E-01  0.2012E-01  0.1222E-02  0.1085E-02  0.6367E-04  0.4447E-04
      0.220  0.2479E-01  0.2327E-01  0.1627E-02  0.1448E-02  0.1081E-03  0.7836E-04
      0.303  0.2804E-01  0.2679E-01  0.2058E-02  0.1875E-02  0.1597E-03  0.1255E-03
      0.385  0.2792E-01  0.2861E-01  0.2215E-02  0.2199E-02  0.1821E-03  0.1612E-03
      0.467  0.2113E-01  0.2486E-01  0.1747E-02  0.2031E-02  0.1412E-03  0.1493E-03
      0.549  0.1035E-01  0.1501E-01  0.8421E-03  0.1253E-02  0.6181E-04  0.8563E-04
      0.631  0.4359E-02  0.5676E-02  0.3568E-03  0.4400E-03  0.4080E-04  0.3066E-04
      0.714  0.9848E-02  0.5617E-02  0.1114E-02  0.5256E-03  0.1731E-03  0.7850E-04
      0.796  0.2423E-01  0.1685E-01  0.3029E-02  0.1930E-02  0.4455E-03  0.2679E-03
      0.878  0.3750E-01  0.3226E-01  0.4952E-02  0.4019E-02  0.7129E-03  0.5223E-03
      0.960  0.4088E-01  0.4147E-01  0.5599E-02  0.5443E-02  0.8128E-03  0.6888E-03
      1.043  0.3541E-01  0.3941E-01  0.5038E-02  0.5360E-02  0.7904E-03  0.6801E-03
      1.125  0.3321E-01  0.3272E-01  0.5120E-02  0.4690E-02  0.1006E-02  0.6608E-03
      1.207  0.4418E-01  0.3563E-01  0.7444E-02  0.5607E-02  0.1735E-02  0.9980E-03
      1.289  0.5952E-01  0.5178E-01  0.1057E-01  0.8710E-02  0.2555E-02  0.1756E-02
      1.371  0.5908E-01  0.6407E-01  0.1095E-01  0.1123E-01  0.2613E-02  0.2331E-02
      1.454  0.3887E-01  0.5463E-01  0.7576E-02  0.9979E-02  0.1747E-02  0.2066E-02
      1.536  0.1688E-01  0.3000E-01  0.3578E-02  0.5800E-02  0.7796E-03  0.1171E-02
      1.618  0.9277E-02  0.1173E-01  0.2224E-02  0.2534E-02  0.5420E-03  0.4838E-03
      1.700  0.1579E-01  0.9732E-02  0.3811E-02  0.2346E-02  0.1163E-02  0.5071E-03
      1.782  0.2714E-01  0.1848E-01  0.6558E-02  0.4424E-02  0.2180E-02  0.1139E-02
      1.865  0.3408E-01  0.2907E-01  0.8342E-02  0.6935E-02  0.2849E-02  0.1951E-02
      1.947  0.3302E-01  0.3468E-01  0.8184E-02  0.8341E-02  0.2837E-02  0.2412E-02
      2.029  0.3025E-01  0.3274E-01  0.7579E-02  0.7993E-02  0.3030E-02  0.2293E-02
      2.111  0.3637E-01  0.2853E-01  0.9575E-02  0.7057E-02  0.4919E-02  0.2206E-02
      2.194  0.5177E-01  0.3291E-01  0.1469E-01  0.8486E-02  0.8413E-02  0.3390E-02
      2.276  0.6187E-01  0.4868E-01  0.1847E-01  0.1360E-01  0.1096E-01  0.6135E-02
      2.358  0.5460E-01  0.6174E-01  0.1651E-01  0.1846E-01  0.1038E-01  0.8534E-02
      2.440  0.3801E-01  0.5687E-01  0.1127E-01  0.1771E-01  0.8162E-02  0.8368E-02
      2.522  0.3192E-01  0.3903E-01  0.9899E-02  0.1212E-01  0.8287E-02  0.6221E-02
      2.605  0.4545E-01  0.2771E-01  0.1581E-01  0.8274E-02  0.1285E-01  0.5178E-02
      2.687  0.6775E-01  0.3533E-01  0.2491E-01  0.1110E-01  0.1971E-01  0.7535E-02
      2.769  0.7942E-01  0.5672E-01  0.2986E-01  0.1909E-01  0.2454E-01  0.1249E-01
      2.851  0.7108E-01  0.7557E-01  0.2698E-01  0.2628E-01  0.2461E-01  0.1700E-01
      2.933  0.5181E-01  0.7847E-01  0.1955E-01  0.2775E-01  0.2144E-01  0.1849E-01
      3.016  0.3867E-01  0.6483E-01  0.1400E-01  0.2343E-01  0.1930E-01  0.1672E-01
      3.098  0.3831E-01  0.4592E-01  0.1316E-01  0.1731E-01  0.2067E-01  0.1363E-01
      3.180  0.4432E-01  0.3391E-01  0.1531E-01  0.1352E-01  0.2642E-01  0.1163E-01
      3.262  0.5202E-01  0.3049E-01  0.1888E-01  0.1290E-01  0.4082E-01  0.1149E-01
      3.345  0.6540E-01  0.3009E-01  0.2398E-01  0.1319E-01  0.7141E-01  0.1266E-01
      3.427  0.8704E-01  0.3200E-01  0.3006E-01  0.1345E-01  0.1211E+00  0.1586E-01
      3.509  0.1088E+00  0.3898E-01  0.3576E-01  0.1557E-01  0.1827E+00  0.2210E-01
      3.591  0.1172E+00  0.4738E-01  0.4044E-01  0.2012E-01  0.2420E+00  0.2960E-01
      3.673  0.1066E+00  0.5188E-01  0.4361E-01  0.2505E-01  0.2851E+00  0.3674E-01
      3.756  0.8552E-01  0.5446E-01  0.4396E-01  0.2890E-01  0.3038E+00  0.4549E-01
      3.838  0.6756E-01  0.6044E-01  0.4159E-01  0.3210E-01  0.3016E+00  0.5837E-01
      3.920  0.5872E-01  0.7093E-01  0.3974E-01  0.3585E-01  0.3028E+00  0.7627E-01
      4.002  0.5551E-01  0.8142E-01  0.4133E-01  0.4012E-01  0.3408E+00  0.9902E-01
      4.084  0.5248E-01  0.8625E-01  0.4483E-01  0.4233E-01  0.4223E+00  0.1242E+00
      4.167  0.4803E-01  0.8333E-01  0.4624E-01  0.3991E-01  0.5117E+00  0.1481E+00
      4.249  0.4283E-01  0.7515E-01  0.4485E-01  0.3403E-01  0.5704E+00  0.1737E+00
      4.331  0.3693E-01  0.6754E-01  0.4401E-01  0.2963E-01  0.6019E+00  0.2142E+00
      4.413  0.3033E-01  0.6565E-01  0.4576E-01  0.3099E-01  0.6318E+00  0.2732E+00
      4.495  0.2405E-01  0.6817E-01  0.4788E-01  0.3697E-01  0.6627E+00  0.3268E+00
      4.578  0.1938E-01  0.6924E-01  0.4791E-01  0.4257E-01  0.6757E+00  0.3518E+00
      4.660  0.1649E-01  0.6558E-01  0.4708E-01  0.4464E-01  0.6596E+00  0.3572E+00
      4.742  0.1440E-01  0.5861E-01  0.4853E-01  0.4371E-01  0.6294E+00  0.3651E+00
      4.824  0.1232E-01  0.5216E-01  0.5302E-01  0.4207E-01  0.6202E+00  0.3860E+00
      4.907  0.1009E-01  0.4867E-01  0.5740E-01  0.4153E-01  0.6430E+00  0.4247E+00
      4.989  0.7873E-02  0.4648E-01  0.5781E-01  0.4189E-01  0.6605E+00  0.4859E+00
      5.071  0.6007E-02  0.4264E-01  0.5406E-01  0.4223E-01  0.6371E+00  0.5690E+00
      5.153  0.4974E-02  0.3681E-01  0.5013E-01  0.4304E-01  0.5984E+00  0.6614E+00
      5.235  0.5010E-02  0.3046E-01  0.5021E-01  0.4549E-01  0.6078E+00  0.7460E+00
      5.318  0.5841E-02  0.2442E-01  0.5442E-01  0.4973E-01  0.6867E+00  0.8162E+00
      5.400  0.7040E-02  0.1877E-01  0.5940E-01  0.5485E-01  0.7912E+00  0.8749E+00
      5.482  0.8639E-02  0.1379E-01  0.6268E-01  0.5914E-01  0.8747E+00  0.9180E+00
      5.564  0.1085E-01  0.9961E-02  0.6476E-01  0.6040E-01  0.9388E+00  0.9251E+00
      5.646  0.1335E-01  0.7411E-02  0.6700E-01  0.5807E-01  0.1017E+01  0.8873E+00
      5.729  0.1534E-01  0.5807E-02  0.6931E-01  0.5453E-01  0.1131E+01  0.8401E+00
      5.811  0.1612E-01  0.4646E-02  0.7037E-01  0.5262E-01  0.1253E+01  0.8260E+00
      5.893  0.1554E-01  0.3698E-02  0.6881E-01  0.5274E-01  0.1334E+01  0.8308E+00
      5.975  0.1409E-01  0.3151E-02  0.6429E-01  0.5428E-01  0.1376E+01  0.8248E+00
      6.058  0.1260E-01  0.3334E-02  0.5825E-01  0.5845E-01  0.1412E+01  0.8429E+00
      6.140  0.1183E-01  0.4244E-02  0.5346E-01  0.6622E-01  0.1434E+01  0.9254E+00
      6.222  0.1184E-01  0.5355E-02  0.5154E-01  0.7463E-01  0.1403E+01  0.1021E+01
      6.304  0.1169E-01  0.6225E-02  0.5070E-01  0.8002E-01  0.1311E+01  0.1062E+01
      6.386  0.1064E-01  0.7114E-02  0.4799E-01  0.8274E-01  0.1189E+01  0.1064E+01
      6.469  0.9191E-02  0.8516E-02  0.4351E-01  0.8467E-01  0.1073E+01  0.1083E+01
      6.551  0.8202E-02  0.1032E-01  0.3989E-01  0.8480E-01  0.1015E+01  0.1126E+01
      6.633  0.7783E-02  0.1201E-01  0.3854E-01  0.8106E-01  0.1065E+01  0.1174E+01
      6.715  0.7462E-02  0.1331E-01  0.3800E-01  0.7485E-01  0.1194E+01  0.1213E+01
      6.797  0.6916E-02  0.1401E-01  0.3538E-01  0.7000E-01  0.1297E+01  0.1239E+01
      6.880  0.6449E-02  0.1397E-01  0.3004E-01  0.6846E-01  0.1322E+01  0.1257E+01
      6.962  0.6627E-02  0.1358E-01  0.2502E-01  0.6950E-01  0.1323E+01  0.1286E+01
      7.044  0.7266E-02  0.1346E-01  0.2291E-01  0.7155E-01  0.1346E+01  0.1333E+01
      7.126  0.7434E-02  0.1371E-01  0.2316E-01  0.7284E-01  0.1376E+01  0.1368E+01
      7.209  0.6652E-02  0.1367E-01  0.2386E-01  0.7165E-01  0.1383E+01  0.1358E+01
      7.291  0.5389E-02  0.1253E-01  0.2292E-01  0.6710E-01  0.1348E+01  0.1308E+01
      7.373  0.4474E-02  0.1034E-01  0.1936E-01  0.5954E-01  0.1290E+01  0.1266E+01
      7.455  0.4428E-02  0.8218E-02  0.1521E-01  0.5128E-01  0.1288E+01  0.1265E+01
      7.537  0.5174E-02  0.7040E-02  0.1336E-01  0.4547E-01  0.1437E+01  0.1275E+01
      7.620  0.6250E-02  0.6665E-02  0.1373E-01  0.4258E-01  0.1742E+01  0.1251E+01
      7.702  0.7225E-02  0.6687E-02  0.1408E-01  0.4047E-01  0.2029E+01  0.1188E+01
      7.784  0.7776E-02  0.6849E-02  0.1309E-01  0.3775E-01  0.2011E+01  0.1112E+01
      7.866  0.7868E-02  0.6818E-02  0.1153E-01  0.3474E-01  0.1570E+01  0.1050E+01
      7.948  0.8012E-02  0.6412E-02  0.1145E-01  0.3204E-01  0.9249E+00  0.1002E+01
      8.031  0.8648E-02  0.5841E-02  0.1400E-01  0.2989E-01  0.4070E+00  0.9501E+00
      8.113  0.9504E-02  0.5369E-02  0.1727E-01  0.2765E-01  0.1539E+00  0.8858E+00
      8.195  0.1023E-01  0.5119E-02  0.1814E-01  0.2434E-01  0.9049E-01  0.8111E+00
      8.277  0.1110E-01  0.5206E-02  0.1699E-01  0.2066E-01  0.9607E-01  0.7289E+00
      8.360  0.1249E-01  0.5691E-02  0.1763E-01  0.1911E-01  0.1112E+00  0.6651E+00
      8.442  0.1423E-01  0.6434E-02  0.2213E-01  0.2045E-01  0.1267E+00  0.6565E+00
      8.524  0.1584E-01  0.7139E-02  0.2857E-01  0.2248E-01  0.1414E+00  0.6950E+00
      8.606  0.1668E-01  0.7586E-02  0.3310E-01  0.2328E-01  0.1472E+00  0.7339E+00
      8.688  0.1613E-01  0.7885E-02  0.3297E-01  0.2346E-01  0.1381E+00  0.7403E+00
      8.771  0.1413E-01  0.8224E-02  0.2868E-01  0.2459E-01  0.1178E+00  0.7127E+00