       N       E                     dE             d eps       ncg     rms          rms(c)
DAV:   1     0.129832832558E+04    0.12983E+04   -0.62764E+04 13020   0.206E+03
DAV:   2     0.429168812673E+02   -0.12554E+04   -0.11893E+04 13020   0.421E+02
DAV:   3    -0.109040245578E+03   -0.15196E+03   -0.12678E+03 13026   0.182E+02
DAV:   4    -0.114937992729E+03   -0.58977E+01   -0.57997E+01 14130   0.428E+01
DAV:   5    -0.115036941429E+03   -0.98949E-01   -0.98905E-01 19380   0.460E+00    0.419E+01
RMM:   6    -0.119173094366E+03   -0.41362E+01   -0.16404E+02 13020   0.745E+01    0.562E+01
RMM:   7    -0.122188478916E+03   -0.30154E+01   -0.51185E+01 13020   0.384E+01    0.739E+01
RMM:   8    -0.999369217656E+02    0.22252E+02   -0.11832E+01 13020   0.195E+01    0.246E+01
RMM:   9    -0.102019850021E+03   -0.20829E+01   -0.86584E+00 13020   0.151E+01    0.263E+01
RMM:  10    -0.100509446212E+03    0.15104E+01   -0.28662E+00 13020   0.936E+00    0.204E+01
RMM:  11    -0.984951109687E+02    0.20143E+01   -0.10885E+00 13020   0.555E+00    0.827E+00
RMM:  12    -0.985702207376E+02   -0.75110E-01   -0.22245E-01 13020   0.204E+00    0.604E+00
RMM:  13    -0.987124983540E+02   -0.14228E+00   -0.21939E-01 13020   0.231E+00    0.675E+00
RMM:  14    -0.987380526077E+02   -0.25554E-01   -0.20768E-01 13020   0.217E+00    0.363E+00
RMM:  15    -0.987808035180E+02   -0.42751E-01   -0.15929E-01 13020   0.199E+00    0.423E+00
RMM:  16    -0.987500082553E+02    0.30795E-01   -0.68351E-02 13020   0.138E+00    0.261E+00
RMM:  17    -0.987452273302E+02    0.47809E-02   -0.32982E-02 13020   0.907E-01    0.205E+00
RMM:  18    -0.987351345514E+02    0.10093E-01   -0.10178E-02 13020   0.514E-01    0.857E-01
RMM:  19    -0.987343056318E+02    0.82892E-03   -0.30440E-03 13020   0.279E-01    0.717E-01
RMM:  20    -0.987324855117E+02    0.18201E-02   -0.12205E-03 13020   0.178E-01    0.184E-01
RMM:  21    -0.987327866464E+02   -0.30113E-03   -0.37679E-04 13020   0.935E-02    0.275E-01
RMM:  22    -0.987325713193E+02    0.21533E-03   -0.30862E-04 13020   0.907E-02    0.135E-01
RMM:  23    -0.987326124365E+02   -0.41117E-04   -0.14078E-04 13016   0.601E-02    0.146E-01
RMM:  24    -0.987325305310E+02    0.81905E-04   -0.83436E-05 12624   0.484E-02    0.482E-02
RMM:  25    -0.987325530853E+02   -0.22554E-04   -0.29971E-05  9583   0.285E-02    0.769E-02
RMM:  26    -0.987325335495E+02    0.19536E-04   -0.18136E-05  7539   0.252E-02    0.254E-02
RMM:  27    -0.987325351454E+02   -0.15958E-05   -0.60673E-06  6780   0.128E-02
   1 F= -.98732535E+02 E0= -.98734610E+02  d E =-.987325E+02  mag=    17.7431
       N       E                     dE             d eps       ncg     rms          rms(c)
DAV:   1    -0.983955964180E+02    0.33694E+00   -0.10709E+02 13068   0.305E+01    0.851E+00
RMM:   2    -0.102826082995E+03   -0.44305E+01   -0.73538E+00 13020   0.153E+01    0.326E+01
RMM:   3    -0.992240532458E+02    0.36020E+01   -0.23890E+00 13020   0.821E+00    0.735E+00
RMM:   4    -0.993733839588E+02   -0.14933E+00   -0.57078E-01 13020   0.382E+00    0.773E+00
RMM:   5    -0.991227237919E+02    0.25066E+00   -0.21978E-01 13020   0.252E+00    0.141E+00
RMM:   6    -0.991292146712E+02   -0.64909E-02   -0.34594E-02 13020   0.922E-01    0.190E+00
RMM:   7    -0.991124567779E+02    0.16758E-01   -0.15593E-02 13020   0.650E-01    0.621E-01
RMM:   8    -0.991160346799E+02   -0.35779E-02   -0.11451E-02 13020   0.496E-01    0.128E+00
RMM:   9    -0.991090362973E+02    0.69984E-02   -0.78354E-03 13020   0.441E-01    0.292E-01
RMM:  10    -0.991091045149E+02   -0.68218E-04   -0.10242E-03 13020   0.152E-01    0.291E-01
RMM:  11    -0.991087772833E+02    0.32723E-03   -0.40521E-04 13020   0.998E-02    0.974E-02
RMM:  12    -0.991088099036E+02   -0.32620E-04   -0.10209E-04 12897   0.491E-02    0.124E-01
RMM:  13    -0.991087516288E+02    0.58275E-04   -0.56131E-05 11470   0.391E-02    0.307E-02
RMM:  14    -0.991087632305E+02   -0.11602E-04   -0.14127E-05  7325   0.192E-02    0.599E-02
RMM:  15    -0.991087505016E+02    0.12729E-04   -0.11641E-05  7068   0.198E-02    0.172E-02
RMM:  16    -0.991087518326E+02   -0.13309E-05   -0.26646E-06  6765   0.902E-03
   2 F= -.99108752E+02 E0= -.99110260E+02  d E =-.376217E+00  mag=    17.9539
       N       E                     dE             d eps       ncg     rms          rms(c)
DAV:   1    -0.987523118528E+02    0.35644E+00   -0.63008E+01 13050   0.231E+01    0.635E+00
RMM:   2    -0.100764887947E+03   -0.20126E+01   -0.32890E+00 13020   0.103E+01    0.214E+01
RMM:   3    -0.992398470563E+02    0.15250E+01   -0.11512E+00 13020   0.565E+00    0.535E+00
RMM:   4    -0.993211533807E+02   -0.81306E-01   -0.26351E-01 13020   0.261E+00    0.556E+00
RMM:   5    -0.991883081632E+02    0.13285E+00   -0.11902E-01 13020   0.185E+00    0.931E-01
RMM:   6    -0.991927064703E+02   -0.43983E-02   -0.17667E-02 13020   0.663E-01    0.144E+00
RMM:   7    -0.991826477999E+02    0.10059E-01   -0.95936E-03 13020   0.511E-01    0.402E-01
RMM:   8    -0.991839806907E+02   -0.13329E-02   -0.56244E-03 13020   0.341E-01    0.841E-01
RMM:   9    -0.991809727342E+02    0.30080E-02   -0.34527E-03 13020   0.290E-01    0.219E-01
RMM:  10    -0.991811864431E+02   -0.21371E-03   -0.70134E-04 13020   0.130E-01    0.294E-01
RMM:  11    -0.991808292412E+02    0.35720E-03   -0.32004E-04 13020   0.930E-02    0.681E-02
RMM:  12    -0.991808488141E+02   -0.19573E-04   -0.69240E-05 12073   0.411E-02    0.911E-02
RMM:  13    -0.991808161351E+02    0.32679E-04   -0.29876E-05  9307   0.299E-02    0.225E-02
RMM:  14    -0.991808209593E+02   -0.48242E-05   -0.93926E-06  7031   0.161E-02
   3 F= -.99180821E+02 E0= -.99182010E+02  d E =-.448286E+00  mag=    18.0847
       N       E                     dE             d eps       ncg     rms          rms(c)
DAV:   1    -0.991787436116E+02    0.20725E-02   -0.42132E-01 13530   0.186E+00    0.478E-01
RMM:   2    -0.991861260532E+02   -0.73824E-02   -0.91851E-03 13020   0.525E-01    0.113E+00
RMM:   3    -0.991821119837E+02    0.40141E-02   -0.48562E-03 13020   0.359E-01    0.492E-01
RMM:   4    -0.991821055025E+02    0.64813E-05   -0.11354E-03 13020   0.176E-01    0.371E-01
RMM:   5    -0.991814920835E+02    0.61342E-03   -0.46746E-04 13020   0.116E-01    0.505E-02
RMM:   6    -0.991815138603E+02   -0.21777E-04   -0.68048E-05 12314   0.411E-02    0.999E-02
RMM:   7    -0.991814635902E+02    0.50270E-04   -0.50163E-05 11151   0.369E-02    0.273E-02
RMM:   8    -0.991814795631E+02   -0.15973E-04   -0.30911E-05  9435   0.279E-02    0.695E-02
RMM:   9    -0.991814593562E+02    0.20207E-04   -0.20974E-05  7419   0.263E-02    0.150E-02
RMM:  10    -0.991814594109E+02   -0.54650E-07   -0.39685E-06  6672   0.101E-02
   4 F= -.99181459E+02 E0= -.99182663E+02  d E =-.448924E+00  mag=    18.0754
       N       E                     dE             d eps       ncg     rms          rms(c)
DAV:   1    -0.991880239357E+02   -0.65646E-02   -0.11771E+01 13068   0.103E+01    0.139E+00
RMM:   2    -0.992542958139E+02   -0.66272E-01   -0.17919E-01 13020   0.260E+00    0.322E+00
RMM:   3    -0.992245582410E+02    0.29738E-01   -0.47067E-02 13020   0.112E+00    0.142E+00
RMM:   4    -0.992225496161E+02    0.20086E-02   -0.97654E-03 13020   0.511E-01    0.955E-01
RMM:   5    -0.992186898184E+02    0.38598E-02   -0.39304E-03 13020   0.327E-01    0.241E-01
RMM:   6    -0.992186373277E+02    0.52491E-04   -0.11184E-03 13020   0.165E-01    0.389E-01
RMM:   7    -0.992179208162E+02    0.71651E-03   -0.11002E-03 13020   0.165E-01    0.153E-01
RMM:   8    -0.992179032036E+02    0.17613E-04   -0.36174E-04 13020   0.845E-02    0.153E-01
RMM:   9    -0.992178126510E+02    0.90553E-04   -0.13213E-04 12987   0.559E-02    0.483E-02
RMM:  10    -0.992178138503E+02   -0.11993E-05   -0.21719E-05  8196   0.244E-02
   5 F= -.99217814E+02 E0= -.99219240E+02  d E =-.363544E-01  mag=    18.0948
       N       E                     dE             d eps       ncg     rms          rms(c)
DAV:   1    -0.991928631938E+02    0.24949E-01   -0.15463E+01 13080   0.118E+01    0.160E+00
RMM:   2    -0.992804566753E+02   -0.87593E-01   -0.23833E-01 13020   0.300E+00    0.371E+00
RMM:   3    -0.992411840553E+02    0.39273E-01   -0.62186E-02 13020   0.128E+00    0.163E+00
RMM:   4    -0.992383803839E+02    0.28037E-02   -0.12703E-02 13020   0.584E-01    0.108E+00
RMM:   5    -0.992334965400E+02    0.48838E-02   -0.51239E-03 13020   0.373E-01    0.283E-01
RMM:   6    -0.992334231517E+02    0.73388E-04   -0.14399E-03 13020   0.188E-01    0.443E-01
RMM:   7    -0.992324923913E+02    0.93076E-03   -0.14065E-03 13020   0.187E-01    0.180E-01
RMM:   8    -0.992324660467E+02    0.26345E-04   -0.52091E-04 13020   0.101E-01    0.184E-01
RMM:   9    -0.992323312914E+02    0.13476E-03   -0.18584E-04 13020   0.662E-02    0.536E-02
RMM:  10    -0.992323350659E+02   -0.37745E-05   -0.31001E-05  9556   0.287E-02
   6 F= -.99232335E+02 E0= -.99233997E+02  d E =-.508757E-01  mag=    18.1157
       N       E                     dE             d eps       ncg     rms          rms(c)
DAV:   1    -0.992322049115E+02    0.12638E-03   -0.40991E+00 13128   0.604E+00    0.712E-01
RMM:   2    -0.992445480111E+02   -0.12343E-01   -0.51570E-02 13020   0.139E+00    0.106E+00
RMM:   3    -0.992447015248E+02   -0.15351E-03   -0.12511E-02 13020   0.568E-01    0.969E-01
RMM:   4    -0.992422923164E+02    0.24092E-02   -0.29305E-03 13020   0.284E-01    0.470E-01
RMM:   5    -0.992412804127E+02    0.10119E-02   -0.80198E-04 13020   0.147E-01    0.124E-01
RMM:   6    -0.992413759188E+02   -0.95506E-04   -0.38865E-04 13020   0.979E-02    0.264E-01
RMM:   7    -0.992410264474E+02    0.34947E-03   -0.34258E-04 13020   0.894E-02    0.765E-02
RMM:   8    -0.992411246638E+02   -0.98216E-04   -0.23389E-04 13020   0.735E-02    0.167E-01
RMM:   9    -0.992410027673E+02    0.12190E-03   -0.10911E-04 12947   0.538E-02    0.169E-02
RMM:  10    -0.992410054857E+02   -0.27184E-05   -0.78332E-06  7023   0.142E-02
   7 F= -.99241005E+02 E0= -.99242678E+02  d E =-.867042E-02  mag=    18.1181
       N       E                     dE             d eps       ncg     rms          rms(c)
DAV:   1    -0.992359966960E+02    0.50061E-02   -0.33336E+00 13122   0.544E+00    0.642E-01
RMM:   2    -0.992461092306E+02   -0.10113E-01   -0.41933E-02 13020   0.126E+00    0.960E-01
RMM:   3    -0.992460444566E+02    0.64774E-04   -0.10143E-02 13020   0.511E-01    0.856E-01
RMM:   4    -0.992442441978E+02    0.18003E-02   -0.24014E-03 13020   0.257E-01    0.439E-01
RMM:   5    -0.992433645326E+02    0.87967E-03   -0.68032E-04 13020   0.136E-01    0.113E-01
RMM:   6    -0.992434518774E+02   -0.87345E-04   -0.32618E-04 13020   0.895E-02    0.242E-01
RMM:   7    -0.992431567027E+02    0.29517E-03   -0.30117E-04 13020   0.828E-02    0.717E-02
RMM:   8    -0.992432271462E+02   -0.70444E-04   -0.18349E-04 13020   0.653E-02    0.143E-01
RMM:   9    -0.992431383693E+02    0.88777E-04   -0.77851E-05 12309   0.459E-02    0.157E-02
RMM:  10    -0.992431402416E+02   -0.18724E-05   -0.63461E-06  6917   0.130E-02
   8 F= -.99243140E+02 E0= -.99244803E+02  d E =-.108052E-01  mag=    18.1205
       N       E                     dE             d eps       ncg     rms          rms(c)
DAV:   1    -0.992405930065E+02    0.25454E-02   -0.15337E+00 13164   0.368E+00    0.512E-01
RMM:   2    -0.992451974847E+02   -0.46045E-02   -0.18804E-02 13020   0.832E-01    0.504E-01
RMM:   3    -0.992477372838E+02   -0.25398E-02   -0.49977E-03 13020   0.357E-01    0.832E-01
RMM:   4    -0.992451915478E+02    0.25457E-02   -0.16000E-03 13020   0.213E-01    0.216E-01
RMM:   5    -0.992449887831E+02    0.20276E-03   -0.24575E-04 13020   0.792E-02    0.822E-02
RMM:   6    -0.992449963618E+02   -0.75787E-05   -0.14891E-04 13020   0.583E-02    0.150E-01
RMM:   7    -0.992448913076E+02    0.10505E-03   -0.13113E-04 13011   0.562E-02    0.407E-02
RMM:   8    -0.992449104739E+02   -0.19166E-04   -0.39395E-05 10320   0.301E-02    0.782E-02
RMM:   9    -0.992448851171E+02    0.25357E-04   -0.24284E-05  7857   0.281E-02    0.952E-03
RMM:  10    -0.992448855159E+02   -0.39884E-06   -0.22515E-06  6731   0.811E-03
   9 F= -.99244886E+02 E0= -.99246613E+02  d E =-.174527E-02  mag=    18.1184
       N       E                     dE             d eps       ncg     rms          rms(c)
DAV:   1    -0.992448627504E+02    0.22367E-04   -0.10285E-02 13554   0.303E-01    0.424E-02
RMM:   2    -0.992448945633E+02   -0.31813E-04   -0.12622E-04 12891   0.678E-02    0.425E-02
RMM:   3    -0.992449107178E+02   -0.16155E-04   -0.31134E-05  9332   0.295E-02    0.683E-02
RMM:   4    -0.992448944005E+02    0.16317E-04   -0.13368E-05  7192   0.227E-02    0.188E-02
RMM:   5    -0.992448929539E+02    0.14466E-05   -0.24128E-06  6628   0.884E-03
  10 F= -.99244893E+02 E0= -.99246625E+02  d E =-.175271E-02  mag=    18.1183
       N       E                     dE             d eps       ncg     rms          rms(c)
DAV:   1    -0.992448470619E+02    0.47339E-04   -0.12993E-01 13140   0.108E+00    0.139E-01
RMM:   2    -0.992454845493E+02   -0.63749E-03   -0.17320E-03 13020   0.256E-01    0.306E-01
RMM:   3    -0.992452233966E+02    0.26115E-03   -0.47750E-04 13020   0.112E-01    0.149E-01
RMM:   4    -0.992451966609E+02    0.26736E-04   -0.88955E-05 12787   0.495E-02    0.894E-02
RMM:   5    -0.992451595652E+02    0.37096E-04   -0.27731E-05  9155   0.291E-02    0.239E-02
RMM:   6    -0.992451637984E+02   -0.42332E-05   -0.13011E-05  7057   0.191E-02
  11 F= -.99245164E+02 E0= -.99246896E+02  d E =-.270844E-03  mag=    18.1198
