 vasp.5.4.4.18Apr17-6-g9f103f2a35 (build Sep 06 2021 19:49:22) complex          
  
 executed on             LinuxIFC date 2021.12.27  21:58:41
 running on   24 total cores
 distrk:  each k-point on   24 cores,    1 groups
 distr:  one band on NCORES_PER_BAND=   8 cores,    3 groups


--------------------------------------------------------------------------------------------------------


 INCAR:
 POTCAR:    PAW_PBE Ni 02Aug2007                  
 POTCAR:    PAW_PBE Fe 06Sep2000                  
 POTCAR:    PAW_PBE Ni 02Aug2007                  
   VRHFIN =Ni:                                                                  
   LEXCH  = PE                                                                  
   EATOM  =  1077.6739 eV,   79.2068 Ry                                         
                                                                                
   TITEL  = PAW_PBE Ni 02Aug2007                                                
   LULTRA =        F    use ultrasoft PP ?                                      
   IUNSCR =        1    unscreen: 0-lin 1-nonlin 2-no                           
   RPACOR =    2.000    partial core radius                                     
   POMASS =   58.690; ZVAL   =   10.000    mass and valenz                      
   RCORE  =    2.300    outmost cutoff radius                                   
   RWIGS  =    2.430; RWIGS  =    1.286    wigner-seitz radius (au A)           
   ENMAX  =  269.532; ENMIN  =  202.149 eV                                      
   RCLOC  =    1.201    cutoff for local pot                                    
   LCOR   =        T    correct aug charges                                     
   LPAW   =        T    paw PP                                                  
   EAUG   =  544.565                                                            
   DEXC   =    0.000                                                            
   RMAX   =    2.357    core radius for proj-oper                               
   RAUG   =    1.300    factor for augmentation sphere                          
   RDEP   =    2.390    radius for radial grids                                 
   RDEPT  =    1.838    core radius for aug-charge                              
                                                                                
   Atomic configuration                                                         
    9 entries                                                                   
     n  l   j            E        occ.                                          
     1  0  0.50     -8206.4253   2.0000                                         
     2  0  0.50      -976.1748   2.0000                                         
     2  1  1.50      -839.0571   6.0000                                         
     3  0  0.50      -105.9991   2.0000                                         
     3  1  1.50       -66.4603   6.0000                                         
     3  2  2.50        -4.6458   9.0000                                         
     4  0  0.50        -4.4926   1.0000                                         
     4  1  1.50        -4.0817   0.0000                                         
     4  3  2.50        -1.3606   0.0000                                         
   Description                                                                  
     l       E           TYP  RCUT    TYP  RCUT                                 
     2     -4.6457903     23  2.300                                             
     2     -6.0063729     23  2.300                                             
     0     -4.4925590     23  2.300                                             
     0      5.0102601     23  2.300                                             
     1     -2.7211652     23  2.300                                             
     1     16.5183231     23  2.300                                             
  local pseudopotential read in
  partial core-charges read in
  partial kinetic energy density read in
  atomic valenz-charges read in
  non local Contribution for L=           2  read in
    real space projection operators read in
  non local Contribution for L=           2  read in
    real space projection operators read in
  non local Contribution for L=           0  read in
    real space projection operators read in
  non local Contribution for L=           0  read in
    real space projection operators read in
  non local Contribution for L=           1  read in
    real space projection operators read in
  non local Contribution for L=           1  read in
    real space projection operators read in
    PAW grid and wavefunctions read in
 
   number of l-projection  operators is LMAX  =           6
   number of lm-projection operators is LMMAX =          18
 
 POTCAR:    PAW_PBE Fe 06Sep2000                  
   VRHFIN =Fe:  d7 s1                                                           
   LEXCH  = PE                                                                  
   EATOM  =   594.3153 eV,   43.6809 Ry                                         
                                                                                
   TITEL  = PAW_PBE Fe 06Sep2000                                                
   LULTRA =        F    use ultrasoft PP ?                                      
   IUNSCR =        1    unscreen: 0-lin 1-nonlin 2-no                           
   RPACOR =    2.000    partial core radius                                     
   POMASS =   55.847; ZVAL   =    8.000    mass and valenz                      
   RCORE  =    2.300    outmost cutoff radius                                   
   RWIGS  =    2.460; RWIGS  =    1.302    wigner-seitz radius (au A)           
   ENMAX  =  267.882; ENMIN  =  200.911 eV                                      
   RCLOC  =    1.701    cutoff for local pot                                    
   LCOR   =        T    correct aug charges                                     
   LPAW   =        T    paw PP                                                  
   EAUG   =  511.368                                                            
   DEXC   =    0.000                                                            
   RMAX   =    2.356    core radius for proj-oper                               
   RAUG   =    1.300    factor for augmentation sphere                          
   RDEP   =    2.442    radius for radial grids                                 
   RDEPT  =    1.890    core radius for aug-charge                              
                                                                                
   Atomic configuration                                                         
    9 entries                                                                   
     n  l   j            E        occ.                                          
     1  0  0.50     -6993.8440   2.0000                                         
     2  0  0.50      -814.6047   2.0000                                         
     2  1  1.50      -693.3689   6.0000                                         
     3  0  0.50       -89.4732   2.0000                                         
     3  1  1.50       -55.6373   6.0000                                         
     3  2  2.50        -3.8151   7.0000                                         
     4  0  0.50        -4.2551   1.0000                                         
     4  1  1.50        -3.4015   0.0000                                         
     4  3  2.50        -1.3606   0.0000                                         
   Description                                                                  
     l       E           TYP  RCUT    TYP  RCUT                                 
     2     -3.8151135     23  2.300                                             
     2     -5.1756961     23  2.300                                             
     0     -4.2550963     23  2.300                                             
     0      7.2035603     23  2.300                                             
     1     -2.7211652     23  2.300                                             
     1     18.4316424     23  2.300                                             
  local pseudopotential read in
  partial core-charges read in
  partial kinetic energy density read in
  atomic valenz-charges read in
  non local Contribution for L=           2  read in
    real space projection operators read in
  non local Contribution for L=           2  read in
    real space projection operators read in
  non local Contribution for L=           0  read in
    real space projection operators read in
  non local Contribution for L=           0  read in
    real space projection operators read in
  non local Contribution for L=           1  read in
    real space projection operators read in
  non local Contribution for L=           1  read in
    real space projection operators read in
    PAW grid and wavefunctions read in
 
   number of l-projection  operators is LMAX  =           6
   number of lm-projection operators is LMMAX =          18
 
 Optimization of the real space projectors (new method)

 maximal supplied QI-value         = 16.25
 optimisation between [QCUT,QGAM] = [ 11.54, 23.24] = [ 37.28,151.24] Ry 
 Optimized for a Real-space Cutoff    1.45 Angstroem

   l    n(q)    QCUT    max X(q) W(low)/X(q) W(high)/X(q)  e(spline) 
   2      9    11.539    60.317    0.19E-03    0.47E-04    0.16E-06
   2      9    11.539    55.921    0.19E-03    0.48E-04    0.16E-06
   0     10    11.539    51.690    0.80E-04    0.50E-04    0.24E-06
   0     10    11.539    30.015    0.73E-04    0.45E-04    0.22E-06
   1     10    11.539    18.849    0.87E-04    0.16E-03    0.71E-07
   1     10    11.539    14.624    0.73E-04    0.13E-03    0.64E-07
 Optimization of the real space projectors (new method)

 maximal supplied QI-value         = 16.25
 optimisation between [QCUT,QGAM] = [ 11.54, 23.24] = [ 37.28,151.24] Ry 
 Optimized for a Real-space Cutoff    1.53 Angstroem

   l    n(q)    QCUT    max X(q) W(low)/X(q) W(high)/X(q)  e(spline) 
   2     10    11.539    80.901    0.11E-03    0.14E-03    0.21E-06
   2     10    11.539    75.754    0.11E-03    0.14E-03    0.22E-06
   0     11    11.539    58.752    0.52E-04    0.18E-04    0.33E-06
   0     11    11.539    30.679    0.44E-04    0.16E-04    0.30E-06
   1     10    11.539    17.977    0.53E-04    0.29E-04    0.13E-06
   1     10    11.539    13.559    0.44E-04    0.25E-04    0.11E-06
  PAW_PBE Ni 02Aug2007                  :
 energy of atom  1       EATOM=-1077.6739
 kinetic energy error for atom=    0.0030 (will be added to EATOM!!)
  PAW_PBE Fe 06Sep2000                  :
 energy of atom  2       EATOM= -594.3153
 kinetic energy error for atom=    0.0026 (will be added to EATOM!!)
 
 
 POSCAR: POSCAR                                  
  positions in direct lattice
  velocities in cartesian coordinates
 exchange correlation table for  LEXCH =        8
   RHO(1)=    0.500       N(1)  =     2000
   RHO(2)=  100.500       N(2)  =     4000
 


--------------------------------------------------------------------------------------------------------


 ion  position               nearest neighbor table
   1  0.247  0.689  0.817-  15 2.46  11 2.46  10 2.48   6 2.49  13 2.50   3 2.52   2 2.52   6 2.52
                             7 2.52   4 2.54  14 2.55  13 2.57
   2  0.998  0.249  0.751-   7 2.48  14 2.49  11 2.50  10 2.50   3 2.51   7 2.51   6 2.51   1 2.52
                             4 2.53  13 2.54  12 2.54  14 2.55
   3  0.250  0.938  0.565-   6 2.49   7 2.50   2 2.51   4 2.51   1 2.52  12 2.53   9 2.53  12 2.53
                             6 2.53   8 2.54   5 2.54  14 2.58
   4  0.000  0.500  0.498-   8 2.49  12 2.50   9 2.51   3 2.51   5 2.52   7 2.53   2 2.53   7 2.53
                             8 2.53   6 2.54   1 2.54  16 2.58
   5  0.003  0.749  0.246-  13 2.46  10 2.46  11 2.48   8 2.49  15 2.50   4 2.52   9 2.52   8 2.52
                            12 2.52   3 2.54  16 2.55  15 2.57
   6  0.743  0.812  0.690-   3 2.49   1 2.49  11 2.50   7 2.50   2 2.51   1 2.52  14 2.53   8 2.53
                             3 2.53   4 2.54  12 2.56  13 2.56
   7  0.502  0.374  0.630-   2 2.48   6 2.50  13 2.50   3 2.50   2 2.51  14 2.51   1 2.52   4 2.53
                            12 2.53   4 2.53   9 2.54   8 2.56
   8  0.507  0.625  0.372-   4 2.49   5 2.49  10 2.50  12 2.50   9 2.51   5 2.52  16 2.53   6 2.53
                             4 2.53   3 2.54   7 2.56  15 2.56
   9  0.252  0.188  0.311-  12 2.48  16 2.49  10 2.50  11 2.50   4 2.51  12 2.51   8 2.51   5 2.52
                             3 2.53  15 2.54   7 2.54  16 2.55
  10  0.247  0.440  0.063-  13 2.43   5 2.46  14 2.48   1 2.48  16 2.48   8 2.50  16 2.50   9 2.50
                             2 2.50  13 2.50  11 2.52  15 2.55
  11  0.003  0.998  1.000-  15 2.43   1 2.46  16 2.48   5 2.48  14 2.48   6 2.50  14 2.50   2 2.50
                             9 2.50  15 2.50  10 2.52  13 2.55
  12  0.748  0.063  0.432-   9 2.48   8 2.50  15 2.50   4 2.50   9 2.51  16 2.51   5 2.52   3 2.53
                             7 2.53   3 2.53   2 2.54   6 2.56
  13  0.737  0.556  0.946-  16 2.39  14 2.41  10 2.43  15 2.44   5 2.46   1 2.50   7 2.50  10 2.50
                             2 2.54  11 2.55   6 2.56   1 2.57
  14  0.508  0.132  0.885-  16 2.34  15 2.39  13 2.41  10 2.48  11 2.48   2 2.49  11 2.50   7 2.51
                             6 2.53   1 2.55   2 2.55   3 2.58
  15  0.513  0.882  0.117-  14 2.39  16 2.41  11 2.43  13 2.44   1 2.46   5 2.50  12 2.50  11 2.50
                             9 2.54  10 2.55   8 2.56   5 2.57
  16  0.742  0.306  0.177-  14 2.34  13 2.39  15 2.41  11 2.48  10 2.48   9 2.49  10 2.50  12 2.51
                             8 2.53   5 2.55   9 2.55   4 2.58
 

IMPORTANT INFORMATION: All symmetrisations will be switched off!
NOSYMM: (Re-)initialisation of all symmetry stuff for point group C_1.

 
 

Automatic generation of k-mesh.
 generate k-points for:    5    4    3
Space group operators:
 irot       det(A)        alpha          n_x          n_y          n_z        tau_x        tau_y        tau_z
    1     1.000000     0.000001     1.000000     0.000000     0.000000     0.000000     0.000000     0.000000
 
 Subroutine IBZKPT returns following result:
 ===========================================
 
 Found     31 irreducible k-points:
 
 Following reciprocal coordinates:
            Coordinates               Weight
  0.000000  0.000000  0.000000      1.000000
  0.200000  0.000000  0.000000      2.000000
  0.400000  0.000000  0.000000      2.000000
  0.000000  0.250000  0.000000      2.000000
  0.200000  0.250000  0.000000      2.000000
  0.400000  0.250000  0.000000      2.000000
 -0.400000  0.250000  0.000000      2.000000
 -0.200000  0.250000  0.000000      2.000000
  0.000000  0.500000  0.000000      1.000000
  0.200000  0.500000  0.000000      2.000000
  0.400000  0.500000  0.000000      2.000000
  0.000000  0.000000  0.333333      2.000000
  0.200000  0.000000  0.333333      2.000000
  0.400000  0.000000  0.333333      2.000000
 -0.400000  0.000000  0.333333      2.000000
 -0.200000  0.000000  0.333333      2.000000
  0.000000  0.250000  0.333333      2.000000
  0.200000  0.250000  0.333333      2.000000
  0.400000  0.250000  0.333333      2.000000
 -0.400000  0.250000  0.333333      2.000000
 -0.200000  0.250000  0.333333      2.000000
  0.000000  0.500000  0.333333      2.000000
  0.200000  0.500000  0.333333      2.000000
  0.400000  0.500000  0.333333      2.000000
 -0.400000  0.500000  0.333333      2.000000
 -0.200000  0.500000  0.333333      2.000000
  0.000000 -0.250000  0.333333      2.000000
  0.200000 -0.250000  0.333333      2.000000
  0.400000 -0.250000  0.333333      2.000000
 -0.400000 -0.250000  0.333333      2.000000
 -0.200000 -0.250000  0.333333      2.000000
 
 Following cartesian coordinates:
            Coordinates               Weight
 -0.000000 -0.000000 -0.000000      1.000000
  0.050000  0.050000 -0.150000      2.000000
  0.100000  0.100000 -0.300000      2.000000
 -0.015625 -0.140625 -0.078125      2.000000
  0.034375 -0.090625 -0.228125      2.000000
  0.084375 -0.040625 -0.378125      2.000000
 -0.115625 -0.240625  0.221875      2.000000
 -0.065625 -0.190625  0.071875      2.000000
 -0.031250 -0.281250 -0.156250      1.000000
  0.018750 -0.231250 -0.306250      2.000000
  0.068750 -0.181250 -0.456250      2.000000
 -0.145833  0.020833 -0.062500      2.000000
 -0.095833  0.070833 -0.212500      2.000000
 -0.045833  0.120833 -0.362500      2.000000
 -0.245833 -0.079167  0.237500      2.000000
 -0.195833 -0.029167  0.087500      2.000000
 -0.161458 -0.119792 -0.140625      2.000000
 -0.111458 -0.069792 -0.290625      2.000000
 -0.061458 -0.019792 -0.440625      2.000000
 -0.261458 -0.219792  0.159375      2.000000
 -0.211458 -0.169792  0.009375      2.000000
 -0.177083 -0.260417 -0.218750      2.000000
 -0.127083 -0.210417 -0.368750      2.000000
 -0.077083 -0.160417 -0.518750      2.000000
 -0.277083 -0.360417  0.081250      2.000000
 -0.227083 -0.310417 -0.068750      2.000000
 -0.130208  0.161458  0.015625      2.000000
 -0.080208  0.211458 -0.134375      2.000000
 -0.030208  0.261458 -0.284375      2.000000
 -0.230208  0.061458  0.315625      2.000000
 -0.180208  0.111458  0.165625      2.000000
 


--------------------------------------------------------------------------------------------------------




 Dimension of arrays:
   k-points           NKPTS =     31   k-points in BZ     NKDIM =     31   number of bands    NBANDS=    105
   number of dos      NEDOS =    301   number of ions     NIONS =     16
   non local maximal  LDIM  =      6   non local SUM 2l+1 LMDIM =     18
   total plane-waves  NPLWV =  75264
   max r-space proj   IRMAX =   6433   max aug-charges    IRDMAX=  15243
   dimension x,y,z NGX =    32 NGY =   42 NGZ =   56
   dimension x,y,z NGXF=    64 NGYF=   84 NGZF=  112
   support grid    NGXF=    64 NGYF=   84 NGZF=  112
   ions per type =              12   4
   NGX,Y,Z   is equivalent  to a cutoff of  12.25, 12.46, 12.38 a.u.
   NGXF,Y,Z  is equivalent  to a cutoff of  24.51, 24.91, 24.76 a.u.

 SYSTEM =  SQS-NiFe                                
 POSCAR =  POSCAR                                  

 Startparameter for this run:
   NWRITE =      2    write-flag & timer
   PREC   = accura    normal or accurate (medium, high low for compatibility)
   ISTART =      0    job   : 0-new  1-cont  2-samecut
   ICHARG =      2    charge: 1-file 2-atom 10-const
   ISPIN  =      2    spin polarized calculation?
   LNONCOLLINEAR =      F non collinear calculations
   LSORBIT =      F    spin-orbit coupling
   INIWAV =      1    electr: 0-lowe 1-rand  2-diag
   LASPH  =      F    aspherical Exc in radial PAW
   METAGGA=      F    non-selfconsistent MetaGGA calc.

 Electronic Relaxation 1
   ENCUT  =  520.0 eV  38.22 Ry    6.18 a.u.   8.07 10.42 13.98*2*pi/ulx,y,z
   ENINI  =  520.0     initial cutoff
   ENAUG  =  544.6 eV  augmentation charge cutoff
   NELM   =    200;   NELMIN=  2; NELMDL= -5     # of ELM steps 
   EDIFF  = 0.1E-04   stopping-criterion for ELM
   LREAL  =      T    real-space projection
   NLSPLINE    = F    spline interpolate recip. space projectors
   LCOMPAT=      F    compatible to vasp.4.4
   GGA_COMPAT  = T    GGA compatible to vasp.4.4-vasp.4.6
   LMAXPAW     = -100 max onsite density
   LMAXMIX     =    2 max onsite mixed and CHGCAR
   VOSKOWN=      0    Vosko Wilk Nusair interpolation
   ROPT   =   -0.00025  -0.00025
 Ionic relaxation
   EDIFFG = -.2E-01   stopping-criterion for IOM
   NSW    =     99    number of steps for IOM
   NBLOCK =      1;   KBLOCK =     99    inner block; outer block 
   IBRION =      2    ionic relax: 0-MD 1-quasi-New 2-CG
   NFREE  =      1    steps in history (QN), initial steepest desc. (CG)
   ISIF   =      2    stress and relaxation
   IWAVPR =     11    prediction:  0-non 1-charg 2-wave 3-comb
   ISYM   =      0    0-nonsym 1-usesym 2-fastsym
   LCORR  =      T    Harris-Foulkes like correction to forces

   POTIM  = 0.5000    time-step for ionic-motion
   TEIN   =    0.0    initial temperature
   TEBEG  =    0.0;   TEEND  =   0.0 temperature during run
   SMASS  =  -3.00    Nose mass-parameter (am)
   estimated Nose-frequenzy (Omega)   =  0.10E-29 period in steps =****** mass=  -0.431E-27a.u.
   SCALEE = 1.0000    scale energy and forces
   NPACO  =    256;   APACO  = 16.0  distance and # of slots for P.C.
   PSTRESS=    0.0 pullay stress

  Mass of Ions in am
   POMASS =  58.69 55.85
  Ionic Valenz
   ZVAL   =  10.00  8.00
  Atomic Wigner-Seitz radii
   RWIGS  =  -1.00 -1.00
  virtual crystal weights 
   VCA    =   1.00  1.00
   NELECT =     152.0000    total number of electrons
   NUPDOWN=      -1.0000    fix difference up-down

 DOS related values:
   EMIN   =  10.00;   EMAX   =-10.00  energy-range for DOS
   EFERMI =   0.00
   ISMEAR =     1;   SIGMA  =   0.20  broadening in eV -4-tet -1-fermi 0-gaus

 Electronic relaxation 2 (details)
   IALGO  =     68    algorithm
   LDIAG  =      T    sub-space diagonalisation (order eigenvalues)
   LSUBROT=      F    optimize rotation matrix (better conditioning)
   TURBO    =      0    0=normal 1=particle mesh
   IRESTART =      0    0=no restart 2=restart with 2 vectors
   NREBOOT  =      0    no. of reboots
   NMIN     =      0    reboot dimension
   EREF     =   0.00    reference energy to select bands
   IMIX   =      4    mixing-type and parameters
     AMIX     =   0.40;   BMIX     =  1.00
     AMIX_MAG =   1.60;   BMIX_MAG =  1.00
     AMIN     =   0.10
     WC   =   100.;   INIMIX=   1;  MIXPRE=   1;  MAXMIX= -45

 Intra band minimization:
   WEIMIN = 0.0010     energy-eigenvalue tresh-hold
   EBREAK =  0.24E-07  absolut break condition
   DEPER  =   0.30     relativ break condition  

   TIME   =   0.40     timestep for ELM

  volume/ion in A,a.u.               =      11.14        75.16
  Fermi-wavevector in a.u.,A,eV,Ry     =   1.552577  2.933945 32.796776  2.410495
  Thomas-Fermi vector in A             =   2.656932
 
 Write flags
   LWAVE        =      F    write WAVECAR
   LDOWNSAMPLE  =      F    k-point downsampling of WAVECAR
   LCHARG       =      F    write CHGCAR
   LVTOT        =      F    write LOCPOT, total local potential
   LVHAR        =      F    write LOCPOT, Hartree potential only
   LELF         =      F    write electronic localiz. function (ELF)
   LORBIT       =     10    0 simple, 1 ext, 2 COOP (PROOUT), +10 PAW based schemes


 Dipole corrections
   LMONO  =      F    monopole corrections only (constant potential shift)
   LDIPOL =      F    correct potential (dipole corrections)
   IDIPOL =      0    1-x, 2-y, 3-z, 4-all directions 
   EPSILON=  1.0000000 bulk dielectric constant

 Exchange correlation treatment:
   GGA     =    --    GGA type
   LEXCH   =     8    internal setting for exchange type
   VOSKOWN=      0    Vosko Wilk Nusair interpolation
   LHFCALC =     F    Hartree Fock is set to
   LHFONE  =     F    Hartree Fock one center treatment
   AEXX    =    0.0000 exact exchange contribution

 Linear response parameters
   LEPSILON=     F    determine dielectric tensor
   LRPA    =     F    only Hartree local field effects (RPA)
   LNABLA  =     F    use nabla operator in PAW spheres
   LVEL    =     F    velocity operator in full k-point grid
   LINTERFAST=   F  fast interpolation
   KINTER  =     0    interpolate to denser k-point grid
   CSHIFT  =0.1000    complex shift for real part using Kramers Kronig
   OMEGAMAX=  -1.0    maximum frequency
   DEG_THRESHOLD= 0.2000000E-02 threshold for treating states as degnerate
   RTIME   =   -0.100 relaxation time in fs
  (WPLASMAI=    0.000 imaginary part of plasma frequency in eV, 0.658/RTIME)
   DFIELD  = 0.0000000 0.0000000 0.0000000 field for delta impulse in time
 
 Orbital magnetization related:
   ORBITALMAG=     F  switch on orbital magnetization
   LCHIMAG   =     F  perturbation theory with respect to B field
   DQ        =  0.001000  dq finite difference perturbation B field
   LLRAUG    =     F  two centre corrections for induced B field



--------------------------------------------------------------------------------------------------------


 conjugate gradient relaxation of ions
 charge density and potential will be updated during run
 spin polarized calculation
 RMM-DIIS sequential band-by-band and
  variant of blocked Davidson during initial phase
 perform sub-space diagonalisation
    before iterative eigenvector-optimisation
 modified Broyden-mixing scheme, WC =      100.0
 initial mixing is a Kerker type mixing with AMIX =  0.4000 and BMIX =      1.0000
 Hartree-type preconditioning will be used
 using additional bands           29
 real space projection scheme for non local part
 use partial core corrections
 calculate Harris-corrections to forces 
   (improved forces if not selfconsistent)
 use gradient corrections 
 use of overlap-Matrix (Vanderbilt PP)
 Methfessel and Paxton  Order N= 1 SIGMA  =   0.20


--------------------------------------------------------------------------------------------------------


  energy-cutoff  :      520.00
  volume of cell :      178.20
      direct lattice vectors                 reciprocal lattice vectors
     1.772500000  1.772500000 -3.545000000     0.070521862  0.070521862 -0.211565585
     0.000000000 -5.317500000 -1.772500000    -0.017630465 -0.158674189 -0.088152327
    -7.090000000  1.772500000 -1.772500000    -0.123413258  0.017630465 -0.052891396

  length of vectors
     4.341720569  5.605137153  7.520080618     0.233894555  0.182370953  0.135422175


 
 k-points in units of 2pi/SCALE and weight: read from INCAR                         
  -0.00000000 -0.00000000 -0.00000000       0.017
   0.05000000  0.05000000 -0.15000000       0.033
   0.10000000  0.10000000 -0.30000000       0.033
  -0.01562500 -0.14062500 -0.07812500       0.033
   0.03437500 -0.09062500 -0.22812500       0.033
   0.08437500 -0.04062500 -0.37812500       0.033
  -0.11562500 -0.24062500  0.22187500       0.033
  -0.06562500 -0.19062500  0.07187500       0.033
  -0.03125000 -0.28125000 -0.15625000       0.017
   0.01875000 -0.23125000 -0.30625000       0.033
   0.06875000 -0.18125000 -0.45625000       0.033
  -0.14583333  0.02083333 -0.06250000       0.033
  -0.09583333  0.07083333 -0.21250000       0.033
  -0.04583333  0.12083333 -0.36250000       0.033
  -0.24583333 -0.07916667  0.23750000       0.033
  -0.19583333 -0.02916667  0.08750000       0.033
  -0.16145833 -0.11979167 -0.14062500       0.033
  -0.11145833 -0.06979167 -0.29062500       0.033
  -0.06145833 -0.01979167 -0.44062500       0.033
  -0.26145833 -0.21979167  0.15937500       0.033
  -0.21145833 -0.16979167  0.00937500       0.033
  -0.17708333 -0.26041667 -0.21875000       0.033
  -0.12708333 -0.21041667 -0.36875000       0.033
  -0.07708333 -0.16041667 -0.51875000       0.033
  -0.27708333 -0.36041667  0.08125000       0.033
  -0.22708333 -0.31041667 -0.06875000       0.033
  -0.13020833  0.16145833  0.01562500       0.033
  -0.08020833  0.21145833 -0.13437500       0.033
  -0.03020833  0.26145833 -0.28437500       0.033
  -0.23020833  0.06145833  0.31562500       0.033
  -0.18020833  0.11145833  0.16562500       0.033
 
 k-points in reciprocal lattice and weights: read from INCAR                         
   0.00000000  0.00000000  0.00000000       0.017
   0.20000000  0.00000000  0.00000000       0.033
   0.40000000  0.00000000  0.00000000       0.033
   0.00000000  0.25000000  0.00000000       0.033
   0.20000000  0.25000000  0.00000000       0.033
   0.40000000  0.25000000  0.00000000       0.033
  -0.40000000  0.25000000  0.00000000       0.033
  -0.20000000  0.25000000  0.00000000       0.033
   0.00000000  0.50000000  0.00000000       0.017
   0.20000000  0.50000000  0.00000000       0.033
   0.40000000  0.50000000  0.00000000       0.033
   0.00000000  0.00000000  0.33333333       0.033
   0.20000000  0.00000000  0.33333333       0.033
   0.40000000  0.00000000  0.33333333       0.033
  -0.40000000  0.00000000  0.33333333       0.033
  -0.20000000  0.00000000  0.33333333       0.033
   0.00000000  0.25000000  0.33333333       0.033
   0.20000000  0.25000000  0.33333333       0.033
   0.40000000  0.25000000  0.33333333       0.033
  -0.40000000  0.25000000  0.33333333       0.033
  -0.20000000  0.25000000  0.33333333       0.033
   0.00000000  0.50000000  0.33333333       0.033
   0.20000000  0.50000000  0.33333333       0.033
   0.40000000  0.50000000  0.33333333       0.033
  -0.40000000  0.50000000  0.33333333       0.033
  -0.20000000  0.50000000  0.33333333       0.033
   0.00000000 -0.25000000  0.33333333       0.033
   0.20000000 -0.25000000  0.33333333       0.033
   0.40000000 -0.25000000  0.33333333       0.033
  -0.40000000 -0.25000000  0.33333333       0.033
  -0.20000000 -0.25000000  0.33333333       0.033
 
 position of ions in fractional coordinates (direct lattice) 
   0.24739748  0.68882197  0.81659703
   0.99773116  0.24926100  0.75127120
   0.24993590  0.93770049  0.56458050
   0.00009886  0.49980023  0.49791815
   0.00261033  0.74866297  0.24591541
   0.74344086  0.81246782  0.69043602
   0.50180854  0.37435267  0.63016006
   0.50655348  0.62503244  0.37206447
   0.25227693  0.18824998  0.31123196
   0.24723563  0.43967399  0.06286185
   0.00276649  0.99783414  0.99963535
   0.74818512  0.06314582  0.43232711
   0.73718275  0.55566445  0.94563521
   0.50795853  0.13187900  0.88534129
   0.51281493  0.88181004  0.11686989
   0.74200301  0.30564297  0.17715450
 
 position of ions in cartesian coordinates  (Angst):
  -5.35116090 -1.77688056 -3.54537924
  -3.55803434  1.77466130 -5.31040030
  -3.55986434 -3.54249203 -3.54881581
  -3.53006445 -1.77495256 -1.76880629
  -1.73891344 -3.54050349 -1.77214382
  -3.57744249 -1.77875084 -5.29939490
  -3.57837922  0.01579402 -3.55941009
  -1.74007103 -1.76625969 -3.56308636
  -1.75947375 -0.00219978 -1.77965346
  -0.00746536 -1.78831867 -1.76719510
  -7.08251104 -3.52922580 -3.55032188
  -1.73904107  1.75668003 -3.53054201
  -5.39789720  0.02804909 -5.27436650
  -5.37671325  1.76835735 -3.60373596
   0.08035696 -3.57290854 -3.58808909
   0.05917491  0.00395016 -3.48615918
 


--------------------------------------------------------------------------------------------------------


 k-point  1 :   0.0000 0.0000 0.0000  plane waves:    4803
 k-point  2 :   0.2000 0.0000 0.0000  plane waves:    4785
 k-point  3 :   0.4000 0.0000 0.0000  plane waves:    4796
 k-point  4 :   0.0000 0.2500 0.0000  plane waves:    4787
 k-point  5 :   0.2000 0.2500 0.0000  plane waves:    4793
 k-point  6 :   0.4000 0.2500 0.0000  plane waves:    4794
 k-point  7 :  -0.4000 0.2500 0.0000  plane waves:    4817
 k-point  8 :  -0.2000 0.2500 0.0000  plane waves:    4796
 k-point  9 :   0.0000 0.5000 0.0000  plane waves:    4768
 k-point 10 :   0.2000 0.5000 0.0000  plane waves:    4788
 k-point 11 :   0.4000 0.5000 0.0000  plane waves:    4797
 k-point 12 :   0.0000 0.0000 0.3333  plane waves:    4787
 k-point 13 :   0.2000 0.0000 0.3333  plane waves:    4805
 k-point 14 :   0.4000 0.0000 0.3333  plane waves:    4812
 k-point 15 :  -0.4000 0.0000 0.3333  plane waves:    4818
 k-point 16 :  -0.2000 0.0000 0.3333  plane waves:    4808
 k-point 17 :   0.0000 0.2500 0.3333  plane waves:    4800
 k-point 18 :   0.2000 0.2500 0.3333  plane waves:    4794
 k-point 19 :   0.4000 0.2500 0.3333  plane waves:    4810
 k-point 20 :  -0.4000 0.2500 0.3333  plane waves:    4812
 k-point 21 :  -0.2000 0.2500 0.3333  plane waves:    4813
 k-point 22 :   0.0000 0.5000 0.3333  plane waves:    4794
 k-point 23 :   0.2000 0.5000 0.3333  plane waves:    4784
 k-point 24 :   0.4000 0.5000 0.3333  plane waves:    4788
 k-point 25 :  -0.4000 0.5000 0.3333  plane waves:    4808
 k-point 26 :  -0.2000 0.5000 0.3333  plane waves:    4789
 k-point 27 :   0.0000-0.2500 0.3333  plane waves:    4783
 k-point 28 :   0.2000-0.2500 0.3333  plane waves:    4789
 k-point 29 :   0.4000-0.2500 0.3333  plane waves:    4814
 k-point 30 :  -0.4000-0.2500 0.3333  plane waves:    4809
 k-point 31 :  -0.2000-0.2500 0.3333  plane waves:    4795

 maximum and minimum number of plane-waves per node :       619      573

 maximum number of plane-waves:      4818
 maximum index in each direction: 
   IXMAX=    8   IYMAX=   10   IZMAX=   13
   IXMIN=   -8   IYMIN=  -10   IZMIN=  -14


 real space projection operators:
  total allocation   :      12241.12 KBytes
  max/ min on nodes  :       1615.92       1456.73


 parallel 3D FFT for wavefunctions:
    minimum data exchange during FFTs selected (reduces bandwidth)
 parallel 3D FFT for charge:
    minimum data exchange during FFTs selected (reduces bandwidth)


 total amount of memory used by VASP MPI-rank0    60668. kBytes
=======================================================================

   base      :      30000. kBytes
   nonlr-proj:       3730. kBytes
   fftplans  :       1226. kBytes
   grid      :       3048. kBytes
   one-center:         62. kBytes
   wavefun   :      22602. kBytes
 
     INWAV:  cpu time    0.0010: real time    0.0001
 Broyden mixing: mesh for mixing (old mesh)
   NGX = 17   NGY = 21   NGZ = 27
  (NGX  = 64   NGY  = 84   NGZ  =112)
  gives a total of   9639 points

 initial charge density was supplied:
 charge density of overlapping atoms calculated
 number of electron     152.0000000 magnetization      24.0000000
 keeping initial charge density in first step


--------------------------------------------------------------------------------------------------------


 Maximum index for non-local projection operator          823
 Maximum index for augmentation-charges          723 (set IRDMAX)


--------------------------------------------------------------------------------------------------------


 First call to EWALD:  gamma=   0.315
 Maximum number of real-space cells 3x 3x 2
 Maximum number of reciprocal cells 2x 3x 4

    FEWALD:  cpu time    0.0020: real time    0.0045


--------------------------------------- Iteration      1(   1)  ---------------------------------------


    POTLOK:  cpu time    0.0580: real time    0.0690
    SETDIJ:  cpu time    0.0160: real time    0.0193
     EDDAV:  cpu time    6.4510: real time    6.5157
       DOS:  cpu time    0.0090: real time    0.0104
    --------------------------------------------
      LOOP:  cpu time    6.5340: real time    6.6144

 eigenvalue-minimisations  : 13020
 total energy-change (2. order) : 0.1298328E+04  (-0.6276447E+04)
 number of electron     152.0000000 magnetization      24.0000000
 augmentation part      152.0000000 magnetization      24.0000000

 Free energy of the ion-electron system (eV)
  ---------------------------------------------------
  alpha Z        PSCENC =       816.77350523
  Ewald energy   TEWEN  =    -13494.68874643
  -Hartree energ DENC   =     -3486.97408092
  -exchange      EXHF   =         0.00000000
  -V(xc)+E(xc)   XCENC  =       400.94767066
  PAW double counting   =     13769.03515065   -14601.98969573
  entropy T*S    EENTRO =         0.00159114
  eigenvalues    EBANDS =      2585.92117535
  atomic energy  EATOM  =     15309.30175564
  Solvation  Ediel_sol  =         0.00000000
  ---------------------------------------------------
  free energy    TOTEN  =      1298.32832558 eV

  energy without entropy =     1298.32673445  energy(sigma->0) =     1298.32779521


--------------------------------------------------------------------------------------------------------




--------------------------------------- Iteration      1(   2)  ---------------------------------------


     EDDAV:  cpu time    6.3160: real time    6.3341
       DOS:  cpu time    0.0090: real time    0.0090
    --------------------------------------------
      LOOP:  cpu time    6.3250: real time    6.3432

 eigenvalue-minimisations  : 13020
 total energy-change (2. order) :-0.1255411E+04  (-0.1189323E+04)
 number of electron     152.0000000 magnetization      24.0000000
 augmentation part      152.0000000 magnetization      24.0000000

 Free energy of the ion-electron system (eV)
  ---------------------------------------------------
  alpha Z        PSCENC =       816.77350523
  Ewald energy   TEWEN  =    -13494.68874643
  -Hartree energ DENC   =     -3486.97408092
  -exchange      EXHF   =         0.00000000
  -V(xc)+E(xc)   XCENC  =       400.94767066
  PAW double counting   =     13769.03515065   -14601.98969573
  entropy T*S    EENTRO =         0.00213466
  eigenvalues    EBANDS =      1330.50918751
  atomic energy  EATOM  =     15309.30175564
  Solvation  Ediel_sol  =         0.00000000
  ---------------------------------------------------
  free energy    TOTEN  =        42.91688127 eV

  energy without entropy =       42.91474661  energy(sigma->0) =       42.91616971


--------------------------------------------------------------------------------------------------------




--------------------------------------- Iteration      1(   3)  ---------------------------------------


     EDDAV:  cpu time    6.3080: real time    6.3248
       DOS:  cpu time    0.0110: real time    0.0099
    --------------------------------------------
      LOOP:  cpu time    6.3190: real time    6.3346

 eigenvalue-minimisations  : 13026
 total energy-change (2. order) :-0.1519571E+03  (-0.1267831E+03)
 number of electron     152.0000000 magnetization      24.0000000
 augmentation part      152.0000000 magnetization      24.0000000

 Free energy of the ion-electron system (eV)
  ---------------------------------------------------
  alpha Z        PSCENC =       816.77350523
  Ewald energy   TEWEN  =    -13494.68874643
  -Hartree energ DENC   =     -3486.97408092
  -exchange      EXHF   =         0.00000000
  -V(xc)+E(xc)   XCENC  =       400.94767066
  PAW double counting   =     13769.03515065   -14601.98969573
  entropy T*S    EENTRO =         0.03748950
  eigenvalues    EBANDS =      1178.51670583
  atomic energy  EATOM  =     15309.30175564
  Solvation  Ediel_sol  =         0.00000000
  ---------------------------------------------------
  free energy    TOTEN  =      -109.04024558 eV

  energy without entropy =     -109.07773507  energy(sigma->0) =     -109.05274208


--------------------------------------------------------------------------------------------------------




--------------------------------------- Iteration      1(   4)  ---------------------------------------


     EDDAV:  cpu time    6.6920: real time    6.7040
       DOS:  cpu time    0.0100: real time    0.0104
    --------------------------------------------
      LOOP:  cpu time    6.7020: real time    6.7144

 eigenvalue-minimisations  : 14130
 total energy-change (2. order) :-0.5897747E+01  (-0.5799677E+01)
 number of electron     152.0000000 magnetization      24.0000000
 augmentation part      152.0000000 magnetization      24.0000000

 Free energy of the ion-electron system (eV)
  ---------------------------------------------------
  alpha Z        PSCENC =       816.77350523
  Ewald energy   TEWEN  =    -13494.68874643
  -Hartree energ DENC   =     -3486.97408092
  -exchange      EXHF   =         0.00000000
  -V(xc)+E(xc)   XCENC  =       400.94767066
  PAW double counting   =     13769.03515065   -14601.98969573
  entropy T*S    EENTRO =         0.03975506
  eigenvalues    EBANDS =      1172.61669311
  atomic energy  EATOM  =     15309.30175564
  Solvation  Ediel_sol  =         0.00000000
  ---------------------------------------------------
  free energy    TOTEN  =      -114.93799273 eV

  energy without entropy =     -114.97774779  energy(sigma->0) =     -114.95124442


--------------------------------------------------------------------------------------------------------




--------------------------------------- Iteration      1(   5)  ---------------------------------------


     EDDAV:  cpu time    8.7347: real time    8.7713
       DOS:  cpu time    0.0110: real time    0.0106
    CHARGE:  cpu time    0.2690: real time    0.2723
    MIXING:  cpu time    0.0020: real time    0.0045
    --------------------------------------------
      LOOP:  cpu time    9.0166: real time    9.0588

 eigenvalue-minimisations  : 19380
 total energy-change (2. order) :-0.9894870E-01  (-0.9890515E-01)
 number of electron     151.9999999 magnetization      20.8798157
 augmentation part       81.6485570 magnetization      16.7696862

 Broyden mixing:
  rms(total) = 0.41930E+01    rms(broyden)= 0.41929E+01
  rms(prec ) = 0.55260E+01
  weight for this iteration     100.00

 Free energy of the ion-electron system (eV)
  ---------------------------------------------------
  alpha Z        PSCENC =       816.77350523
  Ewald energy   TEWEN  =    -13494.68874643
  -Hartree energ DENC   =     -3486.97408092
  -exchange      EXHF   =         0.00000000
  -V(xc)+E(xc)   XCENC  =       400.94767066
  PAW double counting   =     13769.03515065   -14601.98969573
  entropy T*S    EENTRO =         0.03979351
  eigenvalues    EBANDS =      1172.51770596
  atomic energy  EATOM  =     15309.30175564
  Solvation  Ediel_sol  =         0.00000000
  ---------------------------------------------------
  free energy    TOTEN  =      -115.03694143 eV

  energy without entropy =     -115.07673494  energy(sigma->0) =     -115.05020593


--------------------------------------------------------------------------------------------------------




--------------------------------------- Iteration      1(   6)  ---------------------------------------


    POTLOK:  cpu time    0.0360: real time    0.0363
    SETDIJ:  cpu time    0.0090: real time    0.0088
    EDDIAG:  cpu time    0.9798: real time    0.9847
  RMM-DIIS:  cpu time    3.9974: real time    4.0630
    ORTHCH:  cpu time    0.1270: real time    0.1278
       DOS:  cpu time    0.0110: real time    0.0108
    CHARGE:  cpu time    0.2820: real time    0.2817
    MIXING:  cpu time    0.0020: real time    0.0028
    --------------------------------------------
      LOOP:  cpu time    5.4442: real time    5.5158

 eigenvalue-minimisations  : 13020
 total energy-change (2. order) :-0.4136153E+01  (-0.1640364E+02)
 number of electron     151.9999998 magnetization      19.1726646
 augmentation part       95.3872195 magnetization      16.2231471

 Broyden mixing:
  rms(total) = 0.56172E+01    rms(broyden)= 0.56171E+01
  rms(prec ) = 0.90058E+01
  weight for this iteration     100.00

 eigenvalues of (default mixing * dielectric matrix)
  average eigenvalue GAMMA=   0.3409
  0.3409

 Free energy of the ion-electron system (eV)
  ---------------------------------------------------
  alpha Z        PSCENC =       816.77350523
  Ewald energy   TEWEN  =    -13494.68874643
  -Hartree energ DENC   =     -3112.90304499
  -exchange      EXHF   =         0.00000000
  -V(xc)+E(xc)   XCENC  =       382.05186368
  PAW double counting   =     14717.56888034   -15484.42632998
  entropy T*S    EENTRO =         0.00196144
  eigenvalues    EBANDS =       747.14706072
  atomic energy  EATOM  =     15309.30175564
  Solvation  Ediel_sol  =         0.00000000
  ---------------------------------------------------
  free energy    TOTEN  =      -119.17309437 eV

  energy without entropy =     -119.17505580  energy(sigma->0) =     -119.17374818


--------------------------------------------------------------------------------------------------------




--------------------------------------- Iteration      1(   7)  ---------------------------------------


    POTLOK:  cpu time    0.0330: real time    0.0340
    SETDIJ:  cpu time    0.0090: real time    0.0088
    EDDIAG:  cpu time    0.9729: real time    0.9736
  RMM-DIIS:  cpu time    3.9734: real time    3.9873
    ORTHCH:  cpu time    0.1270: real time    0.1272
       DOS:  cpu time    0.0120: real time    0.0115
    CHARGE:  cpu time    0.2620: real time    0.2619
    MIXING:  cpu time    0.0010: real time    0.0011
    --------------------------------------------
      LOOP:  cpu time    5.3902: real time    5.4054

 eigenvalue-minimisations  : 13020
 total energy-change (2. order) :-0.3015385E+01  (-0.5118528E+01)
 number of electron     152.0000000 magnetization      16.8547434
 augmentation part       91.2375887 magnetization      14.8668816

 Broyden mixing:
  rms(total) = 0.73862E+01    rms(broyden)= 0.73861E+01
  rms(prec ) = 0.12661E+02
  weight for this iteration     100.00

 eigenvalues of (default mixing * dielectric matrix)
  average eigenvalue GAMMA=   0.3528
  0.5794  0.1263

 Free energy of the ion-electron system (eV)
  ---------------------------------------------------
  alpha Z        PSCENC =       816.77350523
  Ewald energy   TEWEN  =    -13494.68874643
  -Hartree energ DENC   =     -3195.82062729
  -exchange      EXHF   =         0.00000000
  -V(xc)+E(xc)   XCENC  =       385.51703514
  PAW double counting   =     15084.39909201   -15888.54731034
  entropy T*S    EENTRO =        -0.01686661
  eigenvalues    EBANDS =       860.89368374
  atomic energy  EATOM  =     15309.30175564
  Solvation  Ediel_sol  =         0.00000000
  ---------------------------------------------------
  free energy    TOTEN  =      -122.18847892 eV

  energy without entropy =     -122.17161231  energy(sigma->0) =     -122.18285671


--------------------------------------------------------------------------------------------------------




--------------------------------------- Iteration      1(   8)  ---------------------------------------


    POTLOK:  cpu time    0.0340: real time    0.0340
    SETDIJ:  cpu time    0.0090: real time    0.0088
    EDDIAG:  cpu time    0.9469: real time    0.9486
  RMM-DIIS:  cpu time    3.9904: real time    4.0129
    ORTHCH:  cpu time    0.1270: real time    0.1282
       DOS:  cpu time    0.0110: real time    0.0108
    CHARGE:  cpu time    0.2800: real time    0.2812
    MIXING:  cpu time    0.0010: real time    0.0009
    --------------------------------------------
      LOOP:  cpu time    5.3992: real time    5.4254

 eigenvalue-minimisations  : 13020
 total energy-change (2. order) : 0.2225156E+02  (-0.1183154E+01)
 number of electron     152.0000001 magnetization      16.3930064
 augmentation part       90.2005752 magnetization      13.4962317

 Broyden mixing:
  rms(total) = 0.24607E+01    rms(broyden)= 0.24606E+01
  rms(prec ) = 0.41620E+01
  weight for this iteration     100.00

 eigenvalues of (default mixing * dielectric matrix)
  average eigenvalue GAMMA=   0.4427
  0.6777  0.5256  0.1248

 Free energy of the ion-electron system (eV)
  ---------------------------------------------------
  alpha Z        PSCENC =       816.77350523
  Ewald energy   TEWEN  =    -13494.68874643
  -Hartree energ DENC   =     -3214.22860071
  -exchange      EXHF   =         0.00000000
  -V(xc)+E(xc)   XCENC  =       384.74196806
  PAW double counting   =     15489.33659863   -16318.77346227
  entropy T*S    EENTRO =        -0.00641000
  eigenvalues    EBANDS =       927.60647009
  atomic energy  EATOM  =     15309.30175564
  Solvation  Ediel_sol  =         0.00000000
  ---------------------------------------------------
  free energy    TOTEN  =       -99.93692177 eV

  energy without entropy =      -99.93051176  energy(sigma->0) =      -99.93478510


--------------------------------------------------------------------------------------------------------




--------------------------------------- Iteration      1(   9)  ---------------------------------------


    POTLOK:  cpu time    0.0340: real time    0.0343
    SETDIJ:  cpu time    0.0090: real time    0.0088
    EDDIAG:  cpu time    0.9559: real time    0.9606
  RMM-DIIS:  cpu time    4.0114: real time    4.0344
    ORTHCH:  cpu time    0.1270: real time    0.1273
       DOS:  cpu time    0.0110: real time    0.0106
    CHARGE:  cpu time    0.2610: real time    0.2612
    MIXING:  cpu time    0.0010: real time    0.0013
    --------------------------------------------
      LOOP:  cpu time    5.4102: real time    5.4385

 eigenvalue-minimisations  : 13020
 total energy-change (2. order) :-0.2082928E+01  (-0.8658383E+00)
 number of electron     151.9999997 magnetization      14.8578006
 augmentation part       90.4652443 magnetization      12.1597698

 Broyden mixing:
  rms(total) = 0.26270E+01    rms(broyden)= 0.26269E+01
  rms(prec ) = 0.40687E+01
  weight for this iteration     100.00

 eigenvalues of (default mixing * dielectric matrix)
  average eigenvalue GAMMA=   0.5096
  1.2157  0.5584  0.1322  0.1322

 Free energy of the ion-electron system (eV)
  ---------------------------------------------------
  alpha Z        PSCENC =       816.77350523
  Ewald energy   TEWEN  =    -13494.68874643
  -Hartree energ DENC   =     -3201.31695740
  -exchange      EXHF   =         0.00000000
  -V(xc)+E(xc)   XCENC  =       384.34313819
  PAW double counting   =     15610.43029178   -16442.17967155
  entropy T*S    EENTRO =        -0.00013135
  eigenvalues    EBANDS =       915.31696586
  atomic energy  EATOM  =     15309.30175564
  Solvation  Ediel_sol  =         0.00000000
  ---------------------------------------------------
  free energy    TOTEN  =      -102.01985002 eV

  energy without entropy =     -102.01971867  energy(sigma->0) =     -102.01980624


--------------------------------------------------------------------------------------------------------




--------------------------------------- Iteration      1(  10)  ---------------------------------------


    POTLOK:  cpu time    0.0340: real time    0.0349
    SETDIJ:  cpu time    0.0090: real time    0.0089
    EDDIAG:  cpu time    0.9779: real time    0.9806
  RMM-DIIS:  cpu time    4.0064: real time    4.0188
    ORTHCH:  cpu time    0.1300: real time    0.1340
       DOS:  cpu time    0.0110: real time    0.0108
    CHARGE:  cpu time    0.2640: real time    0.2650
    MIXING:  cpu time    0.0010: real time    0.0010
    --------------------------------------------
      LOOP:  cpu time    5.4332: real time    5.4539

 eigenvalue-minimisations  : 13020
 total energy-change (2. order) : 0.1510404E+01  (-0.2866226E+00)
 number of electron     151.9999995 magnetization      14.7458166
 augmentation part       90.5015521 magnetization      12.3740575

 Broyden mixing:
  rms(total) = 0.20449E+01    rms(broyden)= 0.20449E+01
  rms(prec ) = 0.33803E+01
  weight for this iteration     100.00

 eigenvalues of (default mixing * dielectric matrix)
  average eigenvalue GAMMA=   0.4443
  1.2504  0.5374  0.1167  0.1585  0.1585

 Free energy of the ion-electron system (eV)
  ---------------------------------------------------
  alpha Z        PSCENC =       816.77350523
  Ewald energy   TEWEN  =    -13494.68874643
  -Hartree energ DENC   =     -3191.71134047
  -exchange      EXHF   =         0.00000000
  -V(xc)+E(xc)   XCENC  =       384.42113151
  PAW double counting   =     15979.81237027   -16825.35119104
  entropy T*S    EENTRO =        -0.00469886
  eigenvalues    EBANDS =       920.93776792
  atomic energy  EATOM  =     15309.30175564
  Solvation  Ediel_sol  =         0.00000000
  ---------------------------------------------------
  free energy    TOTEN  =      -100.50944621 eV

  energy without entropy =     -100.50474735  energy(sigma->0) =     -100.50787993


--------------------------------------------------------------------------------------------------------




--------------------------------------- Iteration      1(  11)  ---------------------------------------


    POTLOK:  cpu time    0.0340: real time    0.0364
    SETDIJ:  cpu time    0.0090: real time    0.0089
    EDDIAG:  cpu time    0.9529: real time    0.9534
  RMM-DIIS:  cpu time    3.9944: real time    4.0022
    ORTHCH:  cpu time    0.1260: real time    0.1268
       DOS:  cpu time    0.0120: real time    0.0108
    CHARGE:  cpu time    0.2800: real time    0.2803
    MIXING:  cpu time    0.0010: real time    0.0010
    --------------------------------------------
      LOOP:  cpu time    5.4092: real time    5.4198

 eigenvalue-minimisations  : 13020
 total energy-change (2. order) : 0.2014335E+01  (-0.1088530E+00)
 number of electron     151.9999999 magnetization      15.2463092
 augmentation part       90.4245732 magnetization      12.7561690

 Broyden mixing:
  rms(total) = 0.82677E+00    rms(broyden)= 0.82672E+00
  rms(prec ) = 0.11061E+01
  weight for this iteration     100.00

 eigenvalues of (default mixing * dielectric matrix)
  average eigenvalue GAMMA=   0.4277
  1.2707  0.4557  0.4557  0.1587  0.1126  0.1126

 Free energy of the ion-electron system (eV)
  ---------------------------------------------------
  alpha Z        PSCENC =       816.77350523
  Ewald energy   TEWEN  =    -13494.68874643
  -Hartree energ DENC   =     -3191.24273766
  -exchange      EXHF   =         0.00000000
  -V(xc)+E(xc)   XCENC  =       384.51230887
  PAW double counting   =     16033.14507257   -16880.70384843
  entropy T*S    EENTRO =         0.02244611
  eigenvalues    EBANDS =       924.38513312
  atomic energy  EATOM  =     15309.30175564
  Solvation  Ediel_sol  =         0.00000000
  ---------------------------------------------------
  free energy    TOTEN  =       -98.49511097 eV

  energy without entropy =      -98.51755708  energy(sigma->0) =      -98.50259301


--------------------------------------------------------------------------------------------------------




--------------------------------------- Iteration      1(  12)  ---------------------------------------


    POTLOK:  cpu time    0.0340: real time    0.0345
    SETDIJ:  cpu time    0.0090: real time    0.0088
    EDDIAG:  cpu time    0.9499: real time    0.9502
  RMM-DIIS:  cpu time    3.9964: real time    4.0052
    ORTHCH:  cpu time    0.1270: real time    0.1265
       DOS:  cpu time    0.0110: real time    0.0108
    CHARGE:  cpu time    0.2610: real time    0.2613
    MIXING:  cpu time    0.0020: real time    0.0010
    --------------------------------------------
      LOOP:  cpu time    5.3902: real time    5.3984

 eigenvalue-minimisations  : 13020
 total energy-change (2. order) :-0.7510977E-01  (-0.2224487E-01)
 number of electron     151.9999999 magnetization      15.5490421
 augmentation part       90.4506031 magnetization      13.1727853

 Broyden mixing:
  rms(total) = 0.60366E+00    rms(broyden)= 0.60364E+00
  rms(prec ) = 0.72210E+00
  weight for this iteration     100.00

 eigenvalues of (default mixing * dielectric matrix)
  average eigenvalue GAMMA=   0.4674
  1.2867  0.5574  0.5574  0.4663  0.1536  0.1355  0.1149

 Free energy of the ion-electron system (eV)
  ---------------------------------------------------
  alpha Z        PSCENC =       816.77350523
  Ewald energy   TEWEN  =    -13494.68874643
  -Hartree energ DENC   =     -3189.69772590
  -exchange      EXHF   =         0.00000000
  -V(xc)+E(xc)   XCENC  =       385.19642490
  PAW double counting   =     16105.34269950   -16955.08697575
  entropy T*S    EENTRO =         0.02424791
  eigenvalues    EBANDS =       924.26459416
  atomic energy  EATOM  =     15309.30175564
  Solvation  Ediel_sol  =         0.00000000
  ---------------------------------------------------
  free energy    TOTEN  =       -98.57022074 eV

  energy without entropy =      -98.59446865  energy(sigma->0) =      -98.57830337


--------------------------------------------------------------------------------------------------------




--------------------------------------- Iteration      1(  13)  ---------------------------------------


    POTLOK:  cpu time    0.0330: real time    0.0343
    SETDIJ:  cpu time    0.0090: real time    0.0088
    EDDIAG:  cpu time    0.9709: real time    0.9710
  RMM-DIIS:  cpu time    4.3203: real time    4.5068
    ORTHCH:  cpu time    0.1250: real time    0.1268
       DOS:  cpu time    0.0120: real time    0.0104
    CHARGE:  cpu time    0.2630: real time    0.2634
    MIXING:  cpu time    0.0010: real time    0.0011
    --------------------------------------------
      LOOP:  cpu time    5.7341: real time    5.9227

 eigenvalue-minimisations  : 13020
 total energy-change (2. order) :-0.1422776E+00  (-0.2193940E-01)
 number of electron     152.0000000 magnetization      16.5477623
 augmentation part       90.4751424 magnetization      14.2200986

 Broyden mixing:
  rms(total) = 0.67476E+00    rms(broyden)= 0.67475E+00
  rms(prec ) = 0.90977E+00
  weight for this iteration     100.00

 eigenvalues of (default mixing * dielectric matrix)
  average eigenvalue GAMMA=   0.5434
  1.4137  0.9081  0.9081  0.5657  0.1644  0.1160  0.1280  0.1431

 Free energy of the ion-electron system (eV)
  ---------------------------------------------------
  alpha Z        PSCENC =       816.77350523
  Ewald energy   TEWEN  =    -13494.68874643
  -Hartree energ DENC   =     -3187.91618393
  -exchange      EXHF   =         0.00000000
  -V(xc)+E(xc)   XCENC  =       385.49769005
  PAW double counting   =     16155.27679487   -17006.25935688
  entropy T*S    EENTRO =         0.02332304
  eigenvalues    EBANDS =       923.27872006
  atomic energy  EATOM  =     15309.30175564
  Solvation  Ediel_sol  =         0.00000000
  ---------------------------------------------------
  free energy    TOTEN  =       -98.71249835 eV

  energy without entropy =      -98.73582139  energy(sigma->0) =      -98.72027270


--------------------------------------------------------------------------------------------------------




--------------------------------------- Iteration      1(  14)  ---------------------------------------


    POTLOK:  cpu time    0.0340: real time    0.0341
    SETDIJ:  cpu time    0.0090: real time    0.0088
    EDDIAG:  cpu time    0.9719: real time    0.9728
  RMM-DIIS:  cpu time    3.9994: real time    4.0342
    ORTHCH:  cpu time    0.1260: real time    0.1270
       DOS:  cpu time    0.0120: real time    0.0107
    CHARGE:  cpu time    0.2640: real time    0.2643
    MIXING:  cpu time    0.0010: real time    0.0011
    --------------------------------------------
      LOOP:  cpu time    5.4172: real time    5.4532

 eigenvalue-minimisations  : 13020
 total energy-change (2. order) :-0.2555425E-01  (-0.2076850E-01)
 number of electron     151.9999999 magnetization      16.8326671
 augmentation part       90.5096302 magnetization      14.6456644

 Broyden mixing:
  rms(total) = 0.36313E+00    rms(broyden)= 0.36311E+00
  rms(prec ) = 0.50413E+00
  weight for this iteration     100.00

 eigenvalues of (default mixing * dielectric matrix)
  average eigenvalue GAMMA=   0.5707
  1.6461  0.9501  0.9501  0.5244  0.5244  0.1150  0.1560  0.1343  0.1361

 Free energy of the ion-electron system (eV)
  ---------------------------------------------------
  alpha Z        PSCENC =       816.77350523
  Ewald energy   TEWEN  =    -13494.68874643
  -Hartree energ DENC   =     -3183.01440830
  -exchange      EXHF   =         0.00000000
  -V(xc)+E(xc)   XCENC  =       386.44948127
  PAW double counting   =     16325.87923580   -17181.23678339
  entropy T*S    EENTRO =         0.01175997
  eigenvalues    EBANDS =       921.78614759
  atomic energy  EATOM  =     15309.30175564
  Solvation  Ediel_sol  =         0.00000000
  ---------------------------------------------------
  free energy    TOTEN  =       -98.73805261 eV

  energy without entropy =      -98.74981258  energy(sigma->0) =      -98.74197260


--------------------------------------------------------------------------------------------------------




--------------------------------------- Iteration      1(  15)  ---------------------------------------


    POTLOK:  cpu time    0.0340: real time    0.0342
    SETDIJ:  cpu time    0.0090: real time    0.0088
    EDDIAG:  cpu time    0.9489: real time    0.9497
  RMM-DIIS:  cpu time    3.9924: real time    4.0016
    ORTHCH:  cpu time    0.1250: real time    0.1264
       DOS:  cpu time    0.0120: real time    0.0107
    CHARGE:  cpu time    0.2810: real time    0.2816
    MIXING:  cpu time    0.0010: real time    0.0012
    --------------------------------------------
      LOOP:  cpu time    5.4032: real time    5.4142

 eigenvalue-minimisations  : 13020
 total energy-change (2. order) :-0.4275091E-01  (-0.1592911E-01)
 number of electron     152.0000000 magnetization      17.2286706
 augmentation part       90.5059392 magnetization      15.0690096

 Broyden mixing:
  rms(total) = 0.42302E+00    rms(broyden)= 0.42301E+00
  rms(prec ) = 0.61297E+00
  weight for this iteration     100.00

 eigenvalues of (default mixing * dielectric matrix)
  average eigenvalue GAMMA=   0.5976
  1.9305  1.0497  1.0497  0.6267  0.6267  0.1616  0.1147  0.1495  0.1334  0.1334

 Free energy of the ion-electron system (eV)
  ---------------------------------------------------
  alpha Z        PSCENC =       816.77350523
  Ewald energy   TEWEN  =    -13494.68874643
  -Hartree energ DENC   =     -3181.16816877
  -exchange      EXHF   =         0.00000000
  -V(xc)+E(xc)   XCENC  =       386.62635536
  PAW double counting   =     16383.96325334   -17240.64343503
  entropy T*S    EENTRO =         0.00923940
  eigenvalues    EBANDS =       921.04543775
  atomic energy  EATOM  =     15309.30175564
  Solvation  Ediel_sol  =         0.00000000
  ---------------------------------------------------
  free energy    TOTEN  =       -98.78080352 eV

  energy without entropy =      -98.79004291  energy(sigma->0) =      -98.78388332


--------------------------------------------------------------------------------------------------------




--------------------------------------- Iteration      1(  16)  ---------------------------------------


    POTLOK:  cpu time    0.0340: real time    0.0341
    SETDIJ:  cpu time    0.0090: real time    0.0089
    EDDIAG:  cpu time    0.9839: real time    0.9851
  RMM-DIIS:  cpu time    3.9794: real time    3.9863
    ORTHCH:  cpu time    0.1260: real time    0.1263
       DOS:  cpu time    0.0110: real time    0.0110
    CHARGE:  cpu time    0.2640: real time    0.2639
    MIXING:  cpu time    0.0020: real time    0.0017
    --------------------------------------------
      LOOP:  cpu time    5.4092: real time    5.4172

 eigenvalue-minimisations  : 13020
 total energy-change (2. order) : 0.3079526E-01  (-0.6835051E-02)
 number of electron     151.9999999 magnetization      17.3606749
 augmentation part       90.5510782 magnetization      15.1759364

 Broyden mixing:
  rms(total) = 0.26104E+00    rms(broyden)= 0.26103E+00
  rms(prec ) = 0.40880E+00
  weight for this iteration     100.00

 eigenvalues of (default mixing * dielectric matrix)
  average eigenvalue GAMMA=   0.5842
  1.9845  1.0829  1.0829  0.6192  0.6192  0.3512  0.1150  0.1561  0.1488  0.1312
  0.1349

 Free energy of the ion-electron system (eV)
  ---------------------------------------------------
  alpha Z        PSCENC =       816.77350523
  Ewald energy   TEWEN  =    -13494.68874643
  -Hartree energ DENC   =     -3177.68009745
  -exchange      EXHF   =         0.00000000
  -V(xc)+E(xc)   XCENC  =       386.67634242
  PAW double counting   =     16471.32463341   -17329.64632040
  entropy T*S    EENTRO =         0.01012375
  eigenvalues    EBANDS =       919.17879557
  atomic energy  EATOM  =     15309.30175564
  Solvation  Ediel_sol  =         0.00000000
  ---------------------------------------------------
  free energy    TOTEN  =       -98.75000826 eV

  energy without entropy =      -98.76013200  energy(sigma->0) =      -98.75338284


--------------------------------------------------------------------------------------------------------




--------------------------------------- Iteration      1(  17)  ---------------------------------------


    POTLOK:  cpu time    0.0340: real time    0.0340
    SETDIJ:  cpu time    0.0090: real time    0.0088
    EDDIAG:  cpu time    0.9649: real time    0.9664
  RMM-DIIS:  cpu time    3.9904: real time    4.0522
    ORTHCH:  cpu time    0.1420: real time    0.1522
       DOS:  cpu time    0.0110: real time    0.0110
    CHARGE:  cpu time    0.2630: real time    0.2666
    MIXING:  cpu time    0.0010: real time    0.0016
    --------------------------------------------
      LOOP:  cpu time    5.4152: real time    5.4928

 eigenvalue-minimisations  : 13020
 total energy-change (2. order) : 0.4780925E-02  (-0.3298151E-02)
 number of electron     151.9999999 magnetization      17.6972634
 augmentation part       90.5616669 magnetization      15.5080191

 Broyden mixing:
  rms(total) = 0.20459E+00    rms(broyden)= 0.20458E+00
  rms(prec ) = 0.32107E+00
  weight for this iteration     100.00

 eigenvalues of (default mixing * dielectric matrix)
  average eigenvalue GAMMA=   0.6105
  2.1706  0.9301  0.9301  0.9255  0.9255  0.6282  0.1557  0.1557  0.1149  0.1337
  0.1337  0.1219

 Free energy of the ion-electron system (eV)
  ---------------------------------------------------
  alpha Z        PSCENC =       816.77350523
  Ewald energy   TEWEN  =    -13494.68874643
  -Hartree energ DENC   =     -3177.19952592
  -exchange      EXHF   =         0.00000000
  -V(xc)+E(xc)   XCENC  =       386.75365750
  PAW double counting   =     16489.35462482   -17348.01861662
  entropy T*S    EENTRO =         0.00708081
  eigenvalues    EBANDS =       918.97103764
  atomic energy  EATOM  =     15309.30175564
  Solvation  Ediel_sol  =         0.00000000
  ---------------------------------------------------
  free energy    TOTEN  =       -98.74522733 eV

  energy without entropy =      -98.75230814  energy(sigma->0) =      -98.74758760


--------------------------------------------------------------------------------------------------------




--------------------------------------- Iteration      1(  18)  ---------------------------------------


    POTLOK:  cpu time    0.0330: real time    0.0346
    SETDIJ:  cpu time    0.0100: real time    0.0089
    EDDIAG:  cpu time    0.9559: real time    0.9746
  RMM-DIIS:  cpu time    4.0064: real time    4.0382
    ORTHCH:  cpu time    0.1260: real time    0.1270
       DOS:  cpu time    0.0110: real time    0.0109
    CHARGE:  cpu time    0.2640: real time    0.2663
    MIXING:  cpu time    0.0020: real time    0.0015
    --------------------------------------------
      LOOP:  cpu time    5.4082: real time    5.4621

 eigenvalue-minimisations  : 13020
 total energy-change (2. order) : 0.1009278E-01  (-0.1017801E-02)
 number of electron     151.9999999 magnetization      17.7170618
 augmentation part       90.5974323 magnetization      15.5163515

 Broyden mixing:
  rms(total) = 0.85688E-01    rms(broyden)= 0.85684E-01
  rms(prec ) = 0.14085E+00
  weight for this iteration     100.00

 eigenvalues of (default mixing * dielectric matrix)
  average eigenvalue GAMMA=   0.5980
  2.1562  1.1533  0.8878  0.8878  0.8748  0.6361  0.3637  0.1615  0.1514  0.1341
  0.1341  0.1150  0.1190

 Free energy of the ion-electron system (eV)
  ---------------------------------------------------
  alpha Z        PSCENC =       816.77350523
  Ewald energy   TEWEN  =    -13494.68874643
  -Hartree energ DENC   =     -3175.82029818
  -exchange      EXHF   =         0.00000000
  -V(xc)+E(xc)   XCENC  =       386.93986642
  PAW double counting   =     16529.45253716   -17388.65808511
  entropy T*S    EENTRO =         0.00641731
  eigenvalues    EBANDS =       917.95791341
  atomic energy  EATOM  =     15309.30175564
  Solvation  Ediel_sol  =         0.00000000
  ---------------------------------------------------
  free energy    TOTEN  =       -98.73513455 eV

  energy without entropy =      -98.74155186  energy(sigma->0) =      -98.73727365


--------------------------------------------------------------------------------------------------------




--------------------------------------- Iteration      1(  19)  ---------------------------------------


    POTLOK:  cpu time    0.0340: real time    0.0343
    SETDIJ:  cpu time    0.0090: real time    0.0089
    EDDIAG:  cpu time    0.9509: real time    0.9580
  RMM-DIIS:  cpu time    4.0314: real time    4.0880
    ORTHCH:  cpu time    0.1260: real time    0.1270
       DOS:  cpu time    0.0110: real time    0.0110
    CHARGE:  cpu time    0.2740: real time    0.2762
    MIXING:  cpu time    0.0080: real time    0.0079
    --------------------------------------------
      LOOP:  cpu time    5.4442: real time    5.5111

 eigenvalue-minimisations  : 13020
 total energy-change (2. order) : 0.8289196E-03  (-0.3043978E-03)
 number of electron     151.9999999 magnetization      17.7566782
 augmentation part       90.5982944 magnetization      15.5531548

 Broyden mixing:
  rms(total) = 0.71737E-01    rms(broyden)= 0.71735E-01
  rms(prec ) = 0.11687E+00
  weight for this iteration     100.00

 eigenvalues of (default mixing * dielectric matrix)
  average eigenvalue GAMMA=   0.6074
  2.0844  1.5776  0.8901  0.8901  0.8043  0.6640  0.6640  0.1594  0.1532  0.1342
  0.1342  0.1222  0.1149  0.1111

 Free energy of the ion-electron system (eV)
  ---------------------------------------------------
  alpha Z        PSCENC =       816.77350523
  Ewald energy   TEWEN  =    -13494.68874643
  -Hartree energ DENC   =     -3175.78892842
  -exchange      EXHF   =         0.00000000
  -V(xc)+E(xc)   XCENC  =       386.94101326
  PAW double counting   =     16532.29089800   -17391.50481268
  entropy T*S    EENTRO =         0.00661849
  eigenvalues    EBANDS =       917.93439129
  atomic energy  EATOM  =     15309.30175564
  Solvation  Ediel_sol  =         0.00000000
  ---------------------------------------------------
  free energy    TOTEN  =       -98.73430563 eV

  energy without entropy =      -98.74092412  energy(sigma->0) =      -98.73651179


--------------------------------------------------------------------------------------------------------




--------------------------------------- Iteration      1(  20)  ---------------------------------------


    POTLOK:  cpu time    0.0350: real time    0.0351
    SETDIJ:  cpu time    0.0090: real time    0.0088
    EDDIAG:  cpu time    0.9579: real time    0.9668
  RMM-DIIS:  cpu time    4.0414: real time    4.1009
    ORTHCH:  cpu time    0.1260: real time    0.1274
       DOS:  cpu time    0.0110: real time    0.0109
    CHARGE:  cpu time    0.2650: real time    0.2663
    MIXING:  cpu time    0.0020: real time    0.0015
    --------------------------------------------
      LOOP:  cpu time    5.4472: real time    5.5178

 eigenvalue-minimisations  : 13020
 total energy-change (2. order) : 0.1820120E-02  (-0.1220462E-03)
 number of electron     151.9999999 magnetization      17.7562243
 augmentation part       90.5936903 magnetization      15.5432966

 Broyden mixing:
  rms(total) = 0.18405E-01    rms(broyden)= 0.18402E-01
  rms(prec ) = 0.23590E-01
  weight for this iteration     100.00

 eigenvalues of (default mixing * dielectric matrix)
  average eigenvalue GAMMA=   0.6330
  2.1115  1.6328  0.8379  0.8379  0.8800  0.8800  0.7788  0.6082  0.1593  0.1532
  0.1341  0.1341  0.1149  0.1219  0.1099

 Free energy of the ion-electron system (eV)
  ---------------------------------------------------
  alpha Z        PSCENC =       816.77350523
  Ewald energy   TEWEN  =    -13494.68874643
  -Hartree energ DENC   =     -3175.90236555
  -exchange      EXHF   =         0.00000000
  -V(xc)+E(xc)   XCENC  =       386.93521530
  PAW double counting   =     16539.45022143   -17398.67959002
  entropy T*S    EENTRO =         0.00622794
  eigenvalues    EBANDS =       918.07129095
  atomic energy  EATOM  =     15309.30175564
  Solvation  Ediel_sol  =         0.00000000
  ---------------------------------------------------
  free energy    TOTEN  =       -98.73248551 eV

  energy without entropy =      -98.73871345  energy(sigma->0) =      -98.73456149


--------------------------------------------------------------------------------------------------------




--------------------------------------- Iteration      1(  21)  ---------------------------------------


    POTLOK:  cpu time    0.0360: real time    0.0367
    SETDIJ:  cpu time    0.0090: real time    0.0088
    EDDIAG:  cpu time    0.9739: real time    0.9819
  RMM-DIIS:  cpu time    4.0194: real time    4.0770
    ORTHCH:  cpu time    0.1250: real time    0.1270
       DOS:  cpu time    0.0110: real time    0.0108
    CHARGE:  cpu time    0.2630: real time    0.2646
    MIXING:  cpu time    0.0020: real time    0.0016
    --------------------------------------------
      LOOP:  cpu time    5.4392: real time    5.5083

 eigenvalue-minimisations  : 13020
 total energy-change (2. order) :-0.3011347E-03  (-0.3767906E-04)
 number of electron     151.9999999 magnetization      17.7535613
 augmentation part       90.5929297 magnetization      15.5431750

 Broyden mixing:
  rms(total) = 0.27483E-01    rms(broyden)= 0.27483E-01
  rms(prec ) = 0.40937E-01
  weight for this iteration     100.00

 eigenvalues of (default mixing * dielectric matrix)
  average eigenvalue GAMMA=   0.6170
  2.0807  1.6764  0.8672  0.8672  0.9203  0.9203  0.7872  0.6069  0.2184  0.1589
  0.1537  0.1341  0.1341  0.1149  0.1219  0.1099

 Free energy of the ion-electron system (eV)
  ---------------------------------------------------
  alpha Z        PSCENC =       816.77350523
  Ewald energy   TEWEN  =    -13494.68874643
  -Hartree energ DENC   =     -3175.85589412
  -exchange      EXHF   =         0.00000000
  -V(xc)+E(xc)   XCENC  =       386.93030513
  PAW double counting   =     16544.10632917   -17403.36835520
  entropy T*S    EENTRO =         0.00624727
  eigenvalues    EBANDS =       918.06206667
  atomic energy  EATOM  =     15309.30175564
  Solvation  Ediel_sol  =         0.00000000
  ---------------------------------------------------
  free energy    TOTEN  =       -98.73278665 eV

  energy without entropy =      -98.73903391  energy(sigma->0) =      -98.73486907


--------------------------------------------------------------------------------------------------------




--------------------------------------- Iteration      1(  22)  ---------------------------------------


    POTLOK:  cpu time    0.0340: real time    0.0343
    SETDIJ:  cpu time    0.0090: real time    0.0088
    EDDIAG:  cpu time    0.9519: real time    0.9591
  RMM-DIIS:  cpu time    4.0164: real time    4.0744
    ORTHCH:  cpu time    0.1430: real time    0.1456
       DOS:  cpu time    0.0120: real time    0.0107
    CHARGE:  cpu time    0.2660: real time    0.2680
    MIXING:  cpu time    0.0020: real time    0.0017
    --------------------------------------------
      LOOP:  cpu time    5.4342: real time    5.5026

 eigenvalue-minimisations  : 13020
 total energy-change (2. order) : 0.2153271E-03  (-0.3086246E-04)
 number of electron     151.9999999 magnetization      17.7444518
 augmentation part       90.5927928 magnetization      15.5354172

 Broyden mixing:
  rms(total) = 0.13547E-01    rms(broyden)= 0.13546E-01
  rms(prec ) = 0.19211E-01
  weight for this iteration     100.00

 eigenvalues of (default mixing * dielectric matrix)
  average eigenvalue GAMMA=   0.6426
  1.9458  1.9458  0.9468  0.9468  0.9695  0.9695  0.9164  0.6087  0.6087  0.1591
  0.1535  0.1149  0.1099  0.1219  0.1341  0.1341  0.1390

 Free energy of the ion-electron system (eV)
  ---------------------------------------------------
  alpha Z        PSCENC =       816.77350523
  Ewald energy   TEWEN  =    -13494.68874643
  -Hartree energ DENC   =     -3175.83779052
  -exchange      EXHF   =         0.00000000
  -V(xc)+E(xc)   XCENC  =       386.92728087
  PAW double counting   =     16546.08502294   -17405.35829691
  entropy T*S    EENTRO =         0.00619585
  eigenvalues    EBANDS =       918.05850200
  atomic energy  EATOM  =     15309.30175564
  Solvation  Ediel_sol  =         0.00000000
  ---------------------------------------------------
  free energy    TOTEN  =       -98.73257132 eV

  energy without entropy =      -98.73876717  energy(sigma->0) =      -98.73463660


--------------------------------------------------------------------------------------------------------




--------------------------------------- Iteration      1(  23)  ---------------------------------------


    POTLOK:  cpu time    0.0340: real time    0.0349
    SETDIJ:  cpu time    0.0090: real time    0.0090
    EDDIAG:  cpu time    0.9509: real time    0.9585
  RMM-DIIS:  cpu time    4.0254: real time    4.0848
    ORTHCH:  cpu time    0.1240: real time    0.1265
       DOS:  cpu time    0.0110: real time    0.0105
    CHARGE:  cpu time    0.2620: real time    0.2629
    MIXING:  cpu time    0.0020: real time    0.0017
    --------------------------------------------
      LOOP:  cpu time    5.4182: real time    5.4889

 eigenvalue-minimisations  : 13016
 total energy-change (2. order) :-0.4111719E-04  (-0.1407766E-04)
 number of electron     151.9999999 magnetization      17.7422948
 augmentation part       90.5937862 magnetization      15.5342238

 Broyden mixing:
  rms(total) = 0.14607E-01    rms(broyden)= 0.14607E-01
  rms(prec ) = 0.21898E-01
  weight for this iteration     100.00

 eigenvalues of (default mixing * dielectric matrix)
  average eigenvalue GAMMA=   0.6282
  2.0103  2.0103  0.9418  0.9418  1.0103  1.0103  0.8806  0.6218  0.6218  0.1948
  0.1593  0.1533  0.1149  0.1099  0.1219  0.1339  0.1339  0.1362

 Free energy of the ion-electron system (eV)
  ---------------------------------------------------
  alpha Z        PSCENC =       816.77350523
  Ewald energy   TEWEN  =    -13494.68874643
  -Hartree energ DENC   =     -3175.82033043
  -exchange      EXHF   =         0.00000000
  -V(xc)+E(xc)   XCENC  =       386.91962068
  PAW double counting   =     16548.09145124   -17407.35872389
  entropy T*S    EENTRO =         0.00621236
  eigenvalues    EBANDS =       918.04264317
  atomic energy  EATOM  =     15309.30175564
  Solvation  Ediel_sol  =         0.00000000
  ---------------------------------------------------
  free energy    TOTEN  =       -98.73261244 eV

  energy without entropy =      -98.73882479  energy(sigma->0) =      -98.73468322


--------------------------------------------------------------------------------------------------------




--------------------------------------- Iteration      1(  24)  ---------------------------------------


    POTLOK:  cpu time    0.0330: real time    0.0344
    SETDIJ:  cpu time    0.0090: real time    0.0089
    EDDIAG:  cpu time    1.0048: real time    1.0125
  RMM-DIIS:  cpu time    3.9544: real time    4.0295
    ORTHCH:  cpu time    0.1250: real time    0.1273
       DOS:  cpu time    0.0110: real time    0.0109
    CHARGE:  cpu time    0.2680: real time    0.2693
    MIXING:  cpu time    0.0020: real time    0.0018
    --------------------------------------------
      LOOP:  cpu time    5.4072: real time    5.4946

 eigenvalue-minimisations  : 12624
 total energy-change (2. order) : 0.8190546E-04  (-0.8343616E-05)
 number of electron     151.9999999 magnetization      17.7461722
 augmentation part       90.5943079 magnetization      15.5382658

 Broyden mixing:
  rms(total) = 0.48168E-02    rms(broyden)= 0.48164E-02
  rms(prec ) = 0.66373E-02
  weight for this iteration     100.00

 eigenvalues of (default mixing * dielectric matrix)
  average eigenvalue GAMMA=   0.6563
  2.1649  2.1649  1.2064  1.2064  0.8863  0.8863  0.7300  0.7300  0.6797  0.5973
  0.1534  0.1590  0.1590  0.1149  0.1099  0.1219  0.1341  0.1341  0.1309

 Free energy of the ion-electron system (eV)
  ---------------------------------------------------
  alpha Z        PSCENC =       816.77350523
  Ewald energy   TEWEN  =    -13494.68874643
  -Hartree energ DENC   =     -3175.81028953
  -exchange      EXHF   =         0.00000000
  -V(xc)+E(xc)   XCENC  =       386.91818022
  PAW double counting   =     16549.19509167   -17408.46323612
  entropy T*S    EENTRO =         0.00623083
  eigenvalues    EBANDS =       918.03497797
[...]
 total charge-density along one line
 
 pseudopotential strength for first ion, spin component:           1
 -1.315  -0.014  -0.003  -0.004   0.001  -1.961  -0.014  -0.003
 -0.014  -1.253  -0.000   0.001   0.005  -0.014  -1.902  -0.000
 -0.003  -0.000  -1.261  -0.019   0.007  -0.003  -0.000  -1.910
 -0.004   0.001  -0.019  -1.250   0.016  -0.004   0.001  -0.019
  0.001   0.005   0.007   0.016  -1.175   0.001   0.005   0.007
 -1.961  -0.014  -0.003  -0.004   0.001  -2.537  -0.013  -0.003
 -0.014  -1.902  -0.000   0.001   0.005  -0.013  -2.481  -0.000
 -0.003  -0.000  -1.910  -0.019   0.007  -0.003  -0.000  -2.488
 -0.004   0.001  -0.019  -1.899   0.015  -0.004   0.001  -0.018
  0.001   0.005   0.007   0.015  -1.827   0.001   0.004   0.006
 -0.000   0.001   0.001   0.001   0.001  -0.000   0.001   0.001
 -0.001   0.002   0.002   0.003   0.001  -0.001   0.002   0.002
 -0.005  -0.007  -0.000   0.000   0.000  -0.004  -0.007  -0.000
  0.000  -0.000  -0.005  -0.009   0.002   0.000  -0.000  -0.005
  0.000   0.000   0.002  -0.003  -0.007   0.000   0.000   0.002
 -0.006  -0.009   0.000   0.000   0.000  -0.006  -0.009  -0.000
  0.000   0.000  -0.007  -0.011   0.003   0.000   0.000  -0.007
  0.000   0.000   0.002  -0.004  -0.009   0.000   0.000   0.002
 pseudopotential strength for first ion, spin component:           2
 -0.630   0.006  -0.001  -0.001  -0.002  -1.308   0.006  -0.001
  0.006  -0.676  -0.001   0.001   0.003   0.006  -1.352  -0.001
 -0.001  -0.001  -0.648   0.012  -0.001  -0.001  -0.001  -1.325
 -0.001   0.001   0.012  -0.682  -0.009  -0.001   0.001   0.011
 -0.002   0.003  -0.001  -0.009  -0.682  -0.001   0.003  -0.001
 -1.308   0.006  -0.001  -0.001  -0.001  -1.914   0.006  -0.001
  0.006  -1.352  -0.001   0.001   0.003   0.006  -1.957  -0.001
 -0.001  -0.001  -1.325   0.011  -0.001  -0.001  -0.001  -1.931
 -0.001   0.001   0.011  -1.358  -0.008  -0.001   0.001   0.011
 -0.001   0.003  -0.001  -0.008  -1.358  -0.001   0.003  -0.001
 -0.000   0.000  -0.000  -0.000   0.000  -0.000   0.000  -0.000
 -0.001   0.001  -0.001  -0.001   0.000  -0.001   0.001  -0.001
 -0.004  -0.003  -0.000  -0.000   0.000  -0.004  -0.003  -0.000
 -0.000  -0.000  -0.003  -0.003  -0.000  -0.000  -0.000  -0.003
  0.000  -0.000   0.003  -0.003  -0.004   0.000  -0.000   0.002
 -0.005  -0.003  -0.000  -0.000  -0.000  -0.005  -0.003  -0.000
 -0.000  -0.000  -0.004  -0.003  -0.001  -0.000   0.000  -0.004
  0.000  -0.000   0.003  -0.004  -0.004   0.000  -0.000   0.003
 total augmentation occupancy for first ion, spin component:           1
  2.648  -0.068  -0.012   0.004  -0.001  -1.207   0.050   0.006  -0.004   0.000   0.009  -0.000   0.017   0.001  -0.002  -0.001
 -0.068   2.702   0.024  -0.001   0.024   0.050  -1.178  -0.015   0.000  -0.010  -0.010   0.000  -0.026  -0.003   0.002   0.001
 -0.012   0.024   3.170  -0.047   0.004   0.006  -0.015  -1.418   0.030   0.004  -0.001   0.002   0.004  -0.001  -0.027  -0.000
  0.004  -0.001  -0.047   2.735   0.093  -0.005   0.000   0.030  -1.201  -0.044   0.046  -0.006   0.002  -0.033   0.028  -0.000
 -0.001   0.024   0.004   0.093   3.326   0.000  -0.010   0.004  -0.045  -1.442  -0.004   0.001   0.002   0.033  -0.006  -0.000
 -1.207   0.050   0.006  -0.005   0.000   1.446  -0.045  -0.002   0.004   0.000  -0.005   0.000  -0.015  -0.000   0.007   0.002
  0.050  -1.178  -0.015   0.000  -0.010  -0.045   1.406   0.008   0.001  -0.001   0.011  -0.000  -0.002   0.003  -0.001  -0.001
  0.006  -0.015  -1.418   0.030   0.004  -0.002   0.008   1.429  -0.030  -0.007   0.020  -0.001  -0.004  -0.007   0.018   0.000
 -0.004   0.000   0.030  -1.201  -0.045   0.004   0.001  -0.030   1.428   0.013  -0.048   0.007  -0.001   0.006  -0.026  -0.000
  0.000  -0.010   0.004  -0.044  -1.442   0.000  -0.001  -0.007   0.013   1.395   0.010  -0.002   0.000  -0.015  -0.011   0.000
  0.009  -0.010  -0.001   0.046  -0.004  -0.005   0.011   0.020  -0.048   0.010   2.323  -0.317   0.004  -0.022  -0.021  -0.001
 -0.000   0.000   0.002  -0.006   0.001   0.000  -0.000  -0.001   0.007  -0.002  -0.317   0.051  -0.001   0.001   0.001   0.000
  0.017  -0.026   0.004   0.002   0.002  -0.015  -0.002  -0.004  -0.001   0.000   0.004  -0.001   0.306   0.001   0.000  -0.033
  0.001  -0.003  -0.001  -0.033   0.033  -0.000   0.003  -0.007   0.006  -0.015  -0.022   0.001   0.001   0.310  -0.004   0.000
 -0.002   0.002  -0.027   0.028  -0.006   0.007  -0.001   0.018  -0.026  -0.011  -0.021   0.001   0.000  -0.004   0.310   0.000
 -0.001   0.001  -0.000  -0.000  -0.000   0.002  -0.001   0.000  -0.000   0.000  -0.001   0.000  -0.033   0.000   0.000   0.004
  0.000   0.000   0.000   0.001  -0.001  -0.000  -0.001   0.001  -0.001   0.002   0.001   0.000   0.000  -0.032   0.000  -0.000
  0.000  -0.000   0.002  -0.001  -0.001  -0.000  -0.000  -0.002   0.003   0.001   0.001  -0.000   0.000   0.000  -0.033   0.000
 total augmentation occupancy for first ion, spin component:           2
  1.239   0.064   0.011   0.011  -0.015  -0.609  -0.031  -0.007  -0.006   0.009  -0.008  -0.002  -0.013  -0.001  -0.001   0.000
  0.064   1.091  -0.012  -0.000  -0.016  -0.031  -0.606   0.009   0.001   0.012  -0.001   0.000   0.048  -0.000  -0.003  -0.002
  0.011  -0.012   1.020   0.093  -0.022  -0.007   0.009  -0.509  -0.044   0.010  -0.025  -0.000  -0.004   0.003   0.027   0.000
  0.011  -0.000   0.093   1.066  -0.106  -0.005   0.000  -0.042  -0.595   0.060   0.004   0.001  -0.004   0.050  -0.020   0.000
 -0.015  -0.016  -0.022  -0.106   0.705   0.009   0.011   0.010   0.061  -0.386  -0.002   0.001  -0.003  -0.042   0.022   0.000
 -0.609  -0.031  -0.007  -0.005   0.009   0.192   0.012   0.004   0.002  -0.005   0.005   0.000   0.013   0.000   0.000  -0.001
 -0.031  -0.606   0.009   0.000   0.011   0.012   0.253  -0.007  -0.001  -0.009   0.001   0.000  -0.028   0.000   0.002   0.003
 -0.007   0.009  -0.509  -0.042   0.010   0.004  -0.007   0.160   0.016  -0.003   0.013  -0.003   0.003   0.004  -0.019  -0.000
 -0.006   0.001  -0.044  -0.595   0.061   0.002  -0.001   0.016   0.249  -0.032  -0.004  -0.001   0.002  -0.027   0.018  -0.000
  0.009   0.012   0.010   0.060  -0.386  -0.005  -0.009  -0.003  -0.032   0.143   0.001  -0.001   0.002   0.027  -0.011  -0.000
 -0.008  -0.001  -0.025   0.004  -0.002   0.005   0.001   0.013  -0.004   0.001  -0.162   0.042  -0.001   0.009   0.007   0.000
 -0.002   0.000  -0.000   0.001   0.001   0.000   0.000  -0.003  -0.001  -0.001   0.042  -0.008   0.000   0.001   0.001  -0.000
 -0.013   0.048  -0.004  -0.004  -0.003   0.013  -0.028   0.003   0.002   0.002  -0.001   0.000  -0.024  -0.000  -0.000   0.003
 -0.001  -0.000   0.003   0.050  -0.042   0.000   0.000   0.004  -0.027   0.027   0.009   0.001  -0.000  -0.020   0.000   0.000
 -0.001  -0.003   0.027  -0.020   0.022   0.000   0.002  -0.019   0.018  -0.011   0.007   0.001  -0.000   0.000  -0.025  -0.000
  0.000  -0.002   0.000   0.000   0.000  -0.001   0.003  -0.000  -0.000  -0.000   0.000  -0.000   0.003   0.000  -0.000  -0.000
 -0.000  -0.000   0.000  -0.002   0.001   0.000   0.000   0.000   0.003  -0.002   0.000  -0.000   0.000   0.002   0.000  -0.000
  0.000   0.000  -0.001   0.000  -0.001  -0.000  -0.000   0.001  -0.001   0.002   0.001  -0.000  -0.000   0.000   0.002   0.000


------------------------ aborting loop because EDIFF is reached ----------------------------------------


 


 total charge     
 
# of ion       s       p       d       tot
------------------------------------------
    1        0.507   0.508   8.326   9.341
    2        0.502   0.502   8.325   9.329
    3        0.492   0.484   8.316   9.292
    4        0.492   0.484   8.316   9.293
    5        0.507   0.508   8.326   9.341
    6        0.499   0.495   8.324   9.319
    7        0.498   0.493   8.317   9.308
    8        0.499   0.495   8.324   9.319
    9        0.502   0.502   8.325   9.329
   10        0.509   0.515   8.321   9.345
   11        0.509   0.515   8.321   9.345
   12        0.498   0.493   8.317   9.308
   13        0.475   0.509   6.166   7.150
   14        0.473   0.504   6.163   7.139
   15        0.475   0.509   6.166   7.150
   16        0.473   0.504   6.163   7.139
--------------------------------------------------
tot          7.912   8.019 124.517 140.448
 


 magnetization (x)
 
# of ion       s       p       d       tot
------------------------------------------
    1       -0.018  -0.039   0.671   0.614
    2       -0.014  -0.036   0.643   0.593
    3       -0.010  -0.029   0.647   0.608
    4       -0.010  -0.029   0.647   0.608
    5       -0.018  -0.039   0.671   0.614
    6       -0.012  -0.030   0.642   0.600
    7       -0.013  -0.032   0.653   0.609
    8       -0.012  -0.030   0.642   0.600
    9       -0.014  -0.036   0.643   0.593
   10       -0.020  -0.047   0.701   0.634
   11       -0.020  -0.047   0.701   0.634
   12       -0.013  -0.032   0.653   0.609
   13        0.004  -0.018   2.744   2.730
   14        0.003  -0.019   2.744   2.728
   15        0.004  -0.018   2.744   2.730
   16        0.003  -0.019   2.744   2.728
--------------------------------------------------
tot         -0.157  -0.501  18.893  18.234
 
    CHARGE:  cpu time    0.2630: real time    0.2635
    FORLOC:  cpu time    0.0020: real time    0.0027
    FORNL :  cpu time    1.6368: real time    1.6397
    STRESS:  cpu time    4.9043: real time    4.9193
    FORCOR:  cpu time    0.0360: real time    0.0356
    FORHAR:  cpu time    0.0050: real time    0.0058
    MIXING:  cpu time    0.0010: real time    0.0009
    OFIELD:  cpu time    0.0000: real time    0.0000

  FORCE on cell =-STRESS in cart. coord.  units (eV):
  Direction    XX          YY          ZZ          XY          YZ          ZX
  --------------------------------------------------------------------------------------
  Alpha Z   816.77351   816.77351   816.77351
  Ewald   -4530.18030 -4445.76929 -4483.52762    -2.13876    24.54309   -20.19634
  Hartree  1028.23140  1108.93014  1074.04612    -0.76613    23.31964   -20.19773
  E(xc)    -820.32222  -820.36087  -820.27140     0.00760    -0.06581    -0.01231
  Local     204.62836    40.95037   113.42722     2.09752   -48.01436    40.26882
  n-local  -194.25436  -195.00710  -194.20368     0.00569    -0.21584     0.26219
  augment  2269.36445  2268.86416  2268.55617     0.60282     0.16848    -0.11845
  Kinetic  1225.49001  1225.02910  1224.79242     0.15367     0.40369    -0.31100
  Fock        0.00000     0.00000     0.00000     0.00000     0.00000     0.00000
  -------------------------------------------------------------------------------------
  Total      -0.26914    -0.58999    -0.40726    -0.03758     0.13889    -0.30482
  in kB      -2.41981    -5.30455    -3.66163    -0.33789     1.24875    -2.74062
  external pressure =       -3.80 kB  Pullay stress =        0.00 kB


 VOLUME and BASIS-vectors are now :
 -----------------------------------------------------------------------------
  energy-cutoff  :      520.00
  volume of cell :      178.20
      direct lattice vectors                 reciprocal lattice vectors
     1.772500000  1.772500000 -3.545000000     0.070521862  0.070521862 -0.211565585
     0.000000000 -5.317500000 -1.772500000    -0.017630465 -0.158674189 -0.088152327
    -7.090000000  1.772500000 -1.772500000    -0.123413258  0.017630465 -0.052891396

  length of vectors
     4.341720569  5.605137153  7.520080618     0.233894555  0.182370953  0.135422175


 FORCES acting on ions
    electron-ion (+dipol)            ewald-force                    non-local-force                 convergence-correction
 -----------------------------------------------------------------------------------------------
   0.818E+02 -.890E+01 0.541E+02   -.816E+02 0.886E+01 -.541E+02   -.144E+00 -.120E-01 -.128E-01   0.146E-01 0.497E-01 0.186E-01
   0.871E+02 -.565E+01 0.229E+02   -.871E+02 0.565E+01 -.228E+02   -.101E+00 0.337E-01 -.106E+00   0.807E-01 -.399E-01 0.966E-02
   0.177E+02 -.271E+00 0.192E+02   -.177E+02 0.338E+00 -.191E+02   -.349E-01 0.209E-01 -.750E-01   0.594E-01 -.884E-01 -.297E-01
   -.176E+02 0.268E+00 -.192E+02   0.177E+02 -.335E+00 0.191E+02   0.349E-01 -.212E-01 0.751E-01   -.578E-01 0.878E-01 0.292E-01
   -.818E+02 0.893E+01 -.541E+02   0.817E+02 -.889E+01 0.541E+02   0.144E+00 0.123E-01 0.133E-01   -.151E-01 -.547E-01 -.219E-01
   0.751E+02 -.429E+01 0.235E+02   -.749E+02 0.425E+01 -.235E+02   -.216E+00 0.670E-01 -.299E-01   0.247E-01 -.293E-01 -.179E-01
   0.550E+02 -.246E+02 0.278E+02   -.549E+02 0.245E+02 -.278E+02   -.729E-01 0.406E-01 0.127E-01   0.171E-01 0.241E-01 0.121E-01
   -.751E+02 0.432E+01 -.235E+02   0.749E+02 -.427E+01 0.235E+02   0.215E+00 -.674E-01 0.303E-01   -.236E-01 0.251E-01 0.161E-01
   -.871E+02 0.561E+01 -.229E+02   0.871E+02 -.562E+01 0.228E+02   0.101E+00 -.341E-01 0.106E+00   -.803E-01 0.455E-01 -.721E-02
   -.310E+02 -.156E+02 0.916E+01   0.311E+02 0.157E+02 -.922E+01   -.488E-01 -.121E+00 0.378E-01   -.167E-02 -.137E-01 0.320E-01
   0.310E+02 0.156E+02 -.915E+01   -.311E+02 -.157E+02 0.921E+01   0.488E-01 0.120E+00 -.373E-01   -.596E-03 0.148E-01 -.329E-01
   -.550E+02 0.246E+02 -.278E+02   0.549E+02 -.245E+02 0.278E+02   0.730E-01 -.404E-01 -.123E-01   -.143E-01 -.216E-01 -.100E-01
   0.696E+02 -.257E+02 -.124E+02   -.697E+02 0.259E+02 0.126E+02   0.794E-01 -.245E+00 -.160E+00   0.599E-02 0.134E-01 0.813E-02
   0.797E+02 -.679E+01 0.564E+02   -.799E+02 0.680E+01 -.566E+02   0.223E+00 0.322E-01 0.222E+00   0.369E-01 -.460E-01 -.237E-01
   -.696E+02 0.257E+02 0.124E+02   0.697E+02 -.259E+02 -.126E+02   -.785E-01 0.245E+00 0.160E+00   -.769E-02 -.157E-01 -.837E-02
   -.797E+02 0.679E+01 -.564E+02   0.799E+02 -.681E+01 0.566E+02   -.223E+00 -.320E-01 -.222E+00   -.375E-01 0.487E-01 0.253E-01
 -----------------------------------------------------------------------------------------------
   -.320E-03 0.724E-03 0.886E-03   -.142E-12 -.782E-13 -.171E-12   0.125E-02 -.135E-02 0.133E-02   0.780E-03 -.192E-03 -.622E-03
 
 
 POSITION                                       TOTAL-FORCE (eV/Angst)
 -----------------------------------------------------------------------------------
     -5.31020     -1.76083     -3.59017         0.003942     -0.003042     -0.000126
     -3.56127      1.77678     -5.32116         0.008266      0.000110     -0.002844
     -3.53800     -3.55239     -3.54480         0.002992      0.000309     -0.004282
     -3.55199     -1.76513     -1.77272        -0.003113     -0.000145      0.004068
     -1.77987     -3.55666     -1.72734        -0.003814      0.003069      0.000325
     -3.52638     -1.77665     -5.32870        -0.000767     -0.004374     -0.004311
     -3.54985      0.00059     -3.53863         0.001915     -0.004958     -0.004948
     -1.79109     -1.76831     -3.53374         0.000809      0.004284      0.004116
     -1.75621     -0.00431     -1.76887        -0.008288     -0.000099      0.002758
      0.01595     -1.76247     -1.79121        -0.007288     -0.001637      0.008200
     -0.01596     -0.01005      0.01874         0.006903      0.001579     -0.007976
     -1.76767      1.77189     -3.55136        -0.001605      0.005045      0.004899
     -5.24420     -0.02159     -5.36658        -0.005343     -0.001927     -0.002500
     -5.28938      1.77167     -3.51586         0.008956     -0.002803     -0.008058
     -0.07325     -3.52341     -3.49589         0.005456      0.002079      0.002596
     -0.02811      0.00086     -3.57420        -0.009023      0.002511      0.008083
 -----------------------------------------------------------------------------------
    total drift:                                0.001707     -0.000816      0.001598


--------------------------------------------------------------------------------------------------------



  FREE ENERGIE OF THE ION-ELECTRON SYSTEM (eV)
  ---------------------------------------------------
  free  energy   TOTEN  =       -99.24516380 eV

  energy  without entropy=      -99.25036032  energy(sigma->0) =      -99.24689597
 
 d Force = 0.2620658E-03[ 0.149E-03, 0.375E-03]  d Energy = 0.2708445E-03-0.878E-05
 d Force =-0.6476904E+00[-0.655E+00,-0.641E+00]  d Ewald  =-0.6476901E+00-0.216E-06


--------------------------------------------------------------------------------------------------------


    POTLOK:  cpu time    0.0430: real time    0.0433


--------------------------------------------------------------------------------------------------------


 Conjugate gradient step on ions:
 trial-energy change:   -0.000271  1 .order   -0.000262   -0.000375   -0.000149
  (g-gl).g = 0.102E-03      g.g   = 0.225E-03  gl.gl    = 0.211E-02
 g(Force)  = 0.225E-03   g(Stress)= 0.000E+00 ortho     =-0.431E-04
 gamma     =   0.04813
 trial     =   1.68367
 opt step  =   2.79147  (harmonic =   2.79147) maximal distance =0.00296813
 next E    =   -99.245204   (d E  =  -0.00031)


--------------------------------------------------------------------------------------------------------


  
 reached required accuracy - stopping structural energy minimisation
     LOOP+:  cpu time   37.5723: real time   37.7299
    4ORBIT:  cpu time    0.0000: real time    0.0000
 


 total charge     
 
# of ion       s       p       d       tot
------------------------------------------
    1        0.507   0.508   8.326   9.341
    2        0.502   0.502   8.325   9.329
    3        0.492   0.484   8.316   9.292
    4        0.492   0.484   8.316   9.293
    5        0.507   0.508   8.326   9.341
    6        0.499   0.495   8.324   9.319
    7        0.498   0.493   8.317   9.308
    8        0.499   0.495   8.324   9.319
    9        0.502   0.502   8.325   9.329
   10        0.509   0.515   8.321   9.345
   11        0.509   0.515   8.321   9.345
   12        0.498   0.493   8.317   9.308
   13        0.475   0.509   6.166   7.150
   14        0.473   0.504   6.163   7.139
   15        0.475   0.509   6.166   7.150
   16        0.473   0.504   6.163   7.139
--------------------------------------------------
tot          7.912   8.019 124.517 140.448
 


 magnetization (x)
 
# of ion       s       p       d       tot
------------------------------------------
    1       -0.018  -0.039   0.671   0.614
    2       -0.014  -0.036   0.643   0.593
    3       -0.010  -0.029   0.647   0.608
    4       -0.010  -0.029   0.647   0.608
    5       -0.018  -0.039   0.671   0.614
    6       -0.012  -0.030   0.642   0.600
    7       -0.013  -0.032   0.653   0.609
    8       -0.012  -0.030   0.642   0.600
    9       -0.014  -0.036   0.643   0.593
   10       -0.020  -0.047   0.701   0.634
   11       -0.020  -0.047   0.701   0.634
   12       -0.013  -0.032   0.653   0.609
   13        0.004  -0.018   2.744   2.730
   14        0.003  -0.019   2.744   2.728
   15        0.004  -0.018   2.744   2.730
   16        0.003  -0.019   2.744   2.728
--------------------------------------------------
tot         -0.157  -0.501  18.893  18.234
 

 total amount of memory used by VASP MPI-rank0    60668. kBytes
=======================================================================

   base      :      30000. kBytes
   nonlr-proj:       3730. kBytes
   fftplans  :       1226. kBytes
   grid      :       3048. kBytes
   one-center:         62. kBytes
   wavefun   :      22602. kBytes
 
  
  
 General timing and accounting informations for this job:
 ========================================================
  
                  Total CPU time used (sec):      768.911
                            User time (sec):      761.934
                          System time (sec):        6.977
                         Elapsed time (sec):      773.987
  
                   Maximum memory used (kb):       92800.
                   Average memory used (kb):           0.
  
                          Minor page faults:        13530
                          Major page faults:            0
                 Voluntary context switches:         8052
