SQS-NiFe                                
           1
     1.772500    1.772500   -3.545000
     0.000000   -5.317500   -1.772500
    -7.090000    1.772500   -1.772500
   Ni   Fe
  12   4
Direct configuration=     1
   0.24739748  0.68882197  0.81659703
   0.99773116  0.24926100  0.75127120
   0.24993590  0.93770049  0.56458050
   0.00009886  0.49980023  0.49791815
   0.00261033  0.74866297  0.24591541
   0.74344086  0.81246782  0.69043602
   0.50180854  0.37435267  0.63016006
   0.50655348  0.62503244  0.37206447
   0.25227693  0.18824998  0.31123196
   0.24723563  0.43967399  0.06286185
   0.00276649  0.99783414  0.99963535
   0.74818512  0.06314582  0.43232711
   0.73718275  0.55566445  0.94563521
   0.50795853  0.13187900  0.88534129
   0.51281493  0.88181004  0.11686989
   0.74200301  0.30564297  0.17715450
Direct configuration=     2
   0.24739432  0.68778750  0.81503134
   0.99869544  0.24924604  0.75129973
   0.24916042  0.93815988  0.56464215
   0.00086225  0.49934095  0.49785934
   0.00261264  0.74970859  0.24748023
   0.74501309  0.81197521  0.68946612
   0.50034609  0.37502728  0.62857822
   0.50499494  0.62552622  0.37303712
   0.25130315  0.18826472  0.31119703
   0.24559464  0.43988674  0.06322613
   0.00439587  0.99761808  0.99927699
   0.74965534  0.06247334  0.43390655
   0.74694811  0.56244263  0.93883820
   0.50071656  0.12620064  0.87513531
   0.50305649  0.87504711  0.12366074
   0.74925066  0.31129507  0.18736479
Direct configuration=     3
   0.24739188  0.68698904  0.81382285
   0.99943972  0.24923449  0.75132176
   0.24856187  0.93851447  0.56468973
   0.00145148  0.49898645  0.49781394
   0.00261442  0.75051565  0.24868804
   0.74622662  0.81159500  0.68871750
   0.49921729  0.37554798  0.62735727
   0.50379197  0.62590734  0.37378788
   0.25055154  0.18827609  0.31117008
   0.24432803  0.44005094  0.06350730
   0.00565351  0.99745132  0.99900039
   0.75079014  0.06195429  0.43512565
   0.75448555  0.56767440  0.93359190
   0.49512680  0.12181776  0.86725777
   0.49552438  0.86982711  0.12890230
   0.75484481  0.31565767  0.19524565
Direct configuration=     4
   0.24739208  0.68705477  0.81392233
   0.99937845  0.24923544  0.75131994
   0.24861114  0.93848528  0.56468582
   0.00140298  0.49901564  0.49781768
   0.00261427  0.75044921  0.24858862
   0.74612673  0.81162629  0.68877912
   0.49931021  0.37550512  0.62745777
   0.50389099  0.62587597  0.37372608
   0.25061341  0.18827515  0.31117229
   0.24443229  0.44003743  0.06348416
   0.00554999  0.99746505  0.99902316
   0.75069673  0.06199702  0.43502530
   0.75386510  0.56724374  0.93402375
   0.49558693  0.12217855  0.86790622
   0.49614440  0.87025680  0.12847083
   0.75438432  0.31529855  0.19459693
Direct configuration=     5
   0.25075460  0.68664499  0.81353870
   0.99880057  0.24944959  0.75153245
   0.24793636  0.93809947  0.56329180
   0.00207273  0.49940533  0.49921268
  -0.00075173  0.75085347  0.24896473
   0.74746936  0.81180031  0.68729728
   0.49861374  0.37574804  0.62586440
   0.50254542  0.62570473  0.37520572
   0.25118966  0.18805918  0.31095941
   0.24800985  0.43844666  0.06261985
   0.00198945  0.99905643  0.99988590
   0.75138767  0.06174750  0.43662190
   0.75645733  0.56812869  0.93263532
   0.49632985  0.12190324  0.86853826
   0.49353545  0.86936313  0.12986526
   0.75365967  0.31558926  0.19396635
Direct configuration=     6
   0.25460831  0.68617535  0.81309904
   0.99813827  0.24969501  0.75177599
   0.24716300  0.93765730  0.56169416
   0.00284032  0.49985194  0.50081145
  -0.00460942  0.75131679  0.24939577
   0.74900813  0.81199975  0.68559897
   0.49781553  0.37602644  0.62403827
   0.50100330  0.62550848  0.37690150
   0.25185010  0.18781165  0.31071542
   0.25211001  0.43662352  0.06162928
  -0.00209120  0.00088027  0.00087467
   0.75217954  0.06146154  0.43845173
   0.75942823  0.56914290  0.93104408
   0.49718129  0.12158772  0.86926262
   0.49054541  0.86833891  0.13146338
   0.75282916  0.31592243  0.19324366
Direct configuration=     7
   0.25725998  0.68771231  0.81379190
   0.99858933  0.24949098  0.75194604
   0.24826322  0.93837559  0.56186502
   0.00173749  0.49913317  0.50063750
  -0.00726074  0.74978391  0.24870815
   0.75072422  0.81286180  0.68573834
   0.49798949  0.37479660  0.62414665
   0.49927572  0.62463719  0.37676406
   0.25140376  0.18802035  0.31054782
   0.25399803  0.43685420  0.06164473
  -0.00399238  0.00064689  0.00085498
   0.75200001  0.06269671  0.43834581
   0.76122428  0.56931253  0.93095149
   0.49646066  0.12145069  0.86958892
   0.48876648  0.86818048  0.13155117
   0.75356047  0.31604661  0.19291743
Direct configuration=     8
   0.25965148  0.68909846  0.81441679
   0.99899613  0.24930697  0.75209940
   0.24925549  0.93902340  0.56201912
   0.00074286  0.49848493  0.50048060
  -0.00965194  0.74840143  0.24808800
   0.75227194  0.81363926  0.68586403
   0.49814638  0.37368742  0.62424439
   0.49771765  0.62385139  0.37664010
   0.25100121  0.18820857  0.31039667
   0.25570080  0.43706225  0.06165866
  -0.00570703  0.00043641  0.00083722
   0.75183809  0.06381070  0.43825029
   0.76284411  0.56946552  0.93086798
   0.49581073  0.12132710  0.86988321
   0.48716209  0.86803759  0.13163034
   0.75422003  0.31615861  0.19262320
Direct configuration=     9
   0.26075164  0.68948331  0.81433282
   0.99976381  0.24987207  0.75243175
   0.24981131  0.93865607  0.56168610
   0.00018698  0.49885097  0.50081121
  -0.01075618  0.74801542  0.24817689
   0.75324010  0.81363613  0.68576802
   0.49835166  0.37405895  0.62516837
   0.49674679  0.62385223  0.37672946
   0.25024089  0.18763910  0.31006390
   0.25600402  0.43714914  0.06159722
  -0.00601450  0.00034947  0.00089854
   0.75163803  0.06344348  0.43733783
   0.76388150  0.56893877  0.93057281
   0.49550389  0.12192927  0.87005355
   0.48613361  0.86856233  0.13192178
   0.75451646  0.31556329  0.19244976
Direct configuration=    10
   0.26084191  0.68951489  0.81432593
   0.99982680  0.24991844  0.75245902
   0.24985692  0.93862593  0.56165877
   0.00014137  0.49888100  0.50083834
  -0.01084679  0.74798374  0.24818419
   0.75331955  0.81363588  0.68576014
   0.49836850  0.37408944  0.62524419
   0.49666712  0.62385230  0.37673679
   0.25017850  0.18759237  0.31003659
   0.25602890  0.43715627  0.06159217
  -0.00603973  0.00034233  0.00090357
   0.75162162  0.06341335  0.43726295
   0.76396663  0.56889555  0.93054859
   0.49547871  0.12197869  0.87006752
   0.48604921  0.86860538  0.13194570
   0.75454078  0.31551443  0.19243553
Direct configuration=    11
   0.26089384  0.68950155  0.81419434
   0.99992985  0.24993015  0.75227757
   0.24993165  0.93853124  0.56149491
   0.00007258  0.49897331  0.50100451
  -0.01089583  0.74800006  0.24831606
   0.75339002  0.81381833  0.68572140
   0.49835085  0.37442955  0.62527246
   0.49660267  0.62367129  0.37677335
   0.25007658  0.18757614  0.31022108
   0.25579085  0.43727671  0.06169838
  -0.00579870  0.00022474  0.00080070
   0.75164356  0.06307274  0.43722919
   0.76403065  0.56895930  0.93066932
   0.49575906  0.12206672  0.86997398
   0.48596729  0.86853597  0.13182357
   0.75425508  0.31543219  0.19252918
