  48  48   1   0
  0.1113753E+02  0.1002677E-08  0.1002677E-08  0.6140120E-09  0.5000000E-15
  1.000000000000000E-004
  CAR 
 SQS-NiFe                                
     22.15494920     -2.49653222  301      8.40424496      1.00000000
     -2.497  0.0000E+00  0.0000E+00  0.0000E+00  0.0000E+00
     -2.414  0.0000E+00  0.0000E+00  0.0000E+00  0.0000E+00
     -2.332  0.0000E+00  0.0000E+00  0.0000E+00  0.0000E+00
     -2.250  0.0000E+00  0.0000E+00  0.0000E+00  0.0000E+00
     -2.168 -0.3785E-32  0.0000E+00 -0.3110E-33  0.0000E+00
     -2.086 -0.2914E-29 -0.1312E-30 -0.2397E-30 -0.1078E-31
     -2.004 -0.1597E-26 -0.8439E-28 -0.1315E-27 -0.6945E-29
     -1.921 -0.6228E-24 -0.3866E-25 -0.5131E-25 -0.3184E-26
     -1.839 -0.1726E-21 -0.1259E-22 -0.1424E-22 -0.1038E-23
     -1.757 -0.3399E-19 -0.2916E-20 -0.2808E-20 -0.2406E-21
     -1.675 -0.4564E-17 -0.4794E-18 -0.3778E-18 -0.3963E-19
     -1.593 -0.4561E-15 -0.5424E-16 -0.3786E-16 -0.4496E-17
     -1.510 -0.3187E-13 -0.4464E-14 -0.2657E-14 -0.3713E-15
     -1.428 -0.1574E-11 -0.2599E-12 -0.1320E-12 -0.2172E-13
     -1.346 -0.5474E-10 -0.1067E-10 -0.4630E-11 -0.8986E-12
     -1.264 -0.1337E-08 -0.3082E-09 -0.1145E-09 -0.2623E-10
     -1.182 -0.2278E-07 -0.6233E-08 -0.1986E-08 -0.5384E-09
     -1.100 -0.2688E-06 -0.8764E-07 -0.2408E-07 -0.7740E-08
     -1.017 -0.2167E-05 -0.8477E-06 -0.2021E-06 -0.7740E-07
     -0.935 -0.1165E-04 -0.5542E-05 -0.1159E-05 -0.5328E-06
     -0.853 -0.3995E-04 -0.2370E-04 -0.4442E-05 -0.2480E-05
     -0.771 -0.7829E-04 -0.6188E-04 -0.1088E-04 -0.7565E-05
     -0.689 -0.5283E-04 -0.7988E-04 -0.1522E-04 -0.1413E-04
     -0.607  0.1180E-03  0.1762E-04 -0.5522E-05 -0.1268E-04
     -0.524  0.4634E-03  0.2692E-03  0.3256E-04  0.9443E-05
     -0.442  0.1407E-02  0.8297E-03  0.1482E-03  0.7762E-04
     -0.360  0.3823E-02  0.2478E-02  0.4624E-03  0.2813E-03
     -0.278  0.7143E-02  0.5606E-02  0.1049E-02  0.7419E-03
     -0.196  0.9199E-02  0.8457E-02  0.1805E-02  0.1437E-02
     -0.114  0.1028E-01  0.9695E-02  0.2650E-02  0.2233E-02
     -0.031  0.1256E-01  0.1132E-01  0.3682E-02  0.3164E-02
      0.051  0.1441E-01  0.1393E-01  0.4866E-02  0.4309E-02
      0.133  0.1279E-01  0.1406E-01  0.5917E-02  0.5465E-02
      0.215  0.9384E-02  0.1079E-01  0.6688E-02  0.6351E-02
      0.297  0.8914E-02  0.8313E-02  0.7420E-02  0.7034E-02
      0.379  0.1371E-01  0.1066E-01  0.8547E-02  0.7911E-02
      0.462  0.2023E-01  0.1685E-01  0.1021E-01  0.9295E-02
      0.544  0.2315E-01  0.2156E-01  0.1211E-01  0.1107E-01
      0.626  0.2390E-01  0.2293E-01  0.1408E-01  0.1295E-01
      0.708  0.2561E-01  0.2467E-01  0.1618E-01  0.1498E-01
      0.790  0.2386E-01  0.2594E-01  0.1814E-01  0.1711E-01
      0.873  0.1538E-01  0.2080E-01  0.1940E-01  0.1882E-01
      0.955  0.7624E-02  0.1105E-01  0.2003E-01  0.1973E-01
      1.037  0.9236E-02  0.6773E-02  0.2079E-01  0.2028E-01
      1.119  0.1917E-01  0.1243E-01  0.2237E-01  0.2130E-01
      1.201  0.3160E-01  0.2294E-01  0.2496E-01  0.2319E-01
      1.283  0.4272E-01  0.3380E-01  0.2847E-01  0.2597E-01
      1.366  0.4739E-01  0.4354E-01  0.3237E-01  0.2954E-01
      1.448  0.4026E-01  0.4614E-01  0.3568E-01  0.3334E-01
      1.530  0.2562E-01  0.3645E-01  0.3778E-01  0.3633E-01
      1.612  0.1498E-01  0.2151E-01  0.3901E-01  0.3810E-01
      1.694  0.1329E-01  0.1260E-01  0.4010E-01  0.3913E-01
      1.776  0.1755E-01  0.1198E-01  0.4155E-01  0.4012E-01
      1.859  0.2593E-01  0.1652E-01  0.4368E-01  0.4147E-01
      1.941  0.3567E-01  0.2541E-01  0.4661E-01  0.4356E-01
      2.023  0.3877E-01  0.3546E-01  0.4979E-01  0.4648E-01
      2.105  0.3506E-01  0.3862E-01  0.5267E-01  0.4965E-01
      2.187  0.3869E-01  0.3432E-01  0.5585E-01  0.5247E-01
      2.269  0.5584E-01  0.3432E-01  0.6044E-01  0.5529E-01
      2.352  0.7109E-01  0.4567E-01  0.6628E-01  0.5904E-01
      2.434  0.6751E-01  0.6006E-01  0.7183E-01  0.6398E-01
      2.516  0.4639E-01  0.6522E-01  0.7564E-01  0.6934E-01
      2.598  0.2405E-01  0.5542E-01  0.7762E-01  0.7389E-01
      2.680  0.1802E-01  0.3395E-01  0.7910E-01  0.7668E-01
      2.762  0.3414E-01  0.1413E-01  0.8190E-01  0.7784E-01
      2.845  0.6187E-01  0.1009E-01  0.8699E-01  0.7867E-01
      2.927  0.8019E-01  0.2527E-01  0.9358E-01  0.8075E-01
      3.009  0.7562E-01  0.5166E-01  0.9979E-01  0.8499E-01
      3.091  0.6014E-01  0.7237E-01  0.1047E+00  0.9094E-01
      3.173  0.5957E-01  0.7171E-01  0.1096E+00  0.9683E-01
      3.255  0.8325E-01  0.5409E-01  0.1165E+00  0.1013E+00
      3.338  0.1212E+00  0.4155E-01  0.1264E+00  0.1047E+00
      3.420  0.1650E+00  0.4734E-01  0.1400E+00  0.1086E+00
      3.502  0.2084E+00  0.6362E-01  0.1571E+00  0.1138E+00
      3.584  0.2373E+00  0.7397E-01  0.1766E+00  0.1199E+00
      3.666  0.2435E+00  0.7366E-01  0.1966E+00  0.1259E+00
      3.749  0.2418E+00  0.7635E-01  0.2165E+00  0.1322E+00
      3.831  0.2504E+00  0.9313E-01  0.2371E+00  0.1399E+00
      3.913  0.2686E+00  0.1112E+00  0.2591E+00  0.1490E+00
      3.995  0.2898E+00  0.1115E+00  0.2830E+00  0.1582E+00
      4.077  0.3169E+00  0.9996E-01  0.3090E+00  0.1664E+00
      4.159  0.3538E+00  0.1009E+00  0.3381E+00  0.1747E+00
      4.242  0.3949E+00  0.1261E+00  0.3705E+00  0.1850E+00
      4.324  0.4268E+00  0.1676E+00  0.4056E+00  0.1988E+00
      4.406  0.4398E+00  0.2126E+00  0.4417E+00  0.2163E+00
      4.488  0.4387E+00  0.2469E+00  0.4778E+00  0.2366E+00
      4.570  0.4358E+00  0.2587E+00  0.5136E+00  0.2578E+00
      4.652  0.4345E+00  0.2527E+00  0.5493E+00  0.2786E+00
      4.735  0.4323E+00  0.2425E+00  0.5848E+00  0.2985E+00
      4.817  0.4301E+00  0.2315E+00  0.6202E+00  0.3175E+00
      4.899  0.4260E+00  0.2240E+00  0.6552E+00  0.3359E+00
      4.981  0.4145E+00  0.2396E+00  0.6892E+00  0.3556E+00
      5.063  0.4001E+00  0.2922E+00  0.7221E+00  0.3796E+00
      5.145  0.3978E+00  0.3596E+00  0.7548E+00  0.4092E+00
      5.228  0.4168E+00  0.4008E+00  0.7890E+00  0.4421E+00
      5.310  0.4558E+00  0.4072E+00  0.8265E+00  0.4756E+00
      5.392  0.5031E+00  0.4082E+00  0.8678E+00  0.5091E+00
      5.474  0.5392E+00  0.4217E+00  0.9121E+00  0.5438E+00
      5.556  0.5515E+00  0.4289E+00  0.9575E+00  0.5790E+00
      5.638  0.5560E+00  0.4096E+00  0.1003E+01  0.6127E+00
      5.721  0.5833E+00  0.3812E+00  0.1051E+01  0.6440E+00
      5.803  0.6399E+00  0.3703E+00  0.1104E+01  0.6745E+00
      5.885  0.7067E+00  0.3739E+00  0.1162E+01  0.7052E+00
      5.967  0.7667E+00  0.3829E+00  0.1225E+01  0.7366E+00
      6.049  0.8031E+00  0.4021E+00  0.1291E+01  0.7697E+00
      6.131  0.7941E+00  0.4305E+00  0.1356E+01  0.8051E+00
      6.214  0.7347E+00  0.4592E+00  0.1416E+01  0.8428E+00
      6.296  0.6491E+00  0.4872E+00  0.1470E+01  0.8828E+00
      6.378  0.5743E+00  0.5107E+00  0.1517E+01  0.9248E+00
      6.460  0.5337E+00  0.5215E+00  0.1561E+01  0.9676E+00
      6.542  0.5200E+00  0.5285E+00  0.1603E+01  0.1011E+01
      6.625  0.5176E+00  0.5515E+00  0.1646E+01  0.1056E+01
      6.707  0.5397E+00  0.5883E+00  0.1690E+01  0.1105E+01
      6.789  0.6004E+00  0.6158E+00  0.1740E+01  0.1155E+01
      6.871  0.6625E+00  0.6243E+00  0.1794E+01  0.1207E+01
      6.953  0.6682E+00  0.6275E+00  0.1849E+01  0.1258E+01
      7.035  0.6211E+00  0.6373E+00  0.1900E+01  0.1311E+01
      7.118  0.5840E+00  0.6432E+00  0.1948E+01  0.1363E+01
      7.200  0.5962E+00  0.6265E+00  0.1997E+01  0.1415E+01
      7.282  0.6264E+00  0.5866E+00  0.2048E+01  0.1463E+01
      7.364  0.6272E+00  0.5451E+00  0.2100E+01  0.1508E+01
      7.446  0.6242E+00  0.5235E+00  0.2151E+01  0.1551E+01
      7.528  0.7000E+00  0.5207E+00  0.2209E+01  0.1594E+01
      7.611  0.8637E+00  0.5204E+00  0.2280E+01  0.1636E+01
      7.693  0.9890E+00  0.5153E+00  0.2361E+01  0.1679E+01
      7.775  0.9347E+00  0.5100E+00  0.2438E+01  0.1721E+01
      7.857  0.6973E+00  0.5042E+00  0.2495E+01  0.1762E+01
      7.939  0.4044E+00  0.4919E+00  0.2528E+01  0.1803E+01
      8.021  0.1869E+00  0.4756E+00  0.2544E+01  0.1842E+01
      8.104  0.9047E-01  0.4676E+00  0.2551E+01  0.1880E+01
      8.186  0.8682E-01  0.4715E+00  0.2558E+01  0.1919E+01
      8.268  0.1184E+00  0.4759E+00  0.2568E+01  0.1958E+01
      8.350  0.1300E+00  0.4697E+00  0.2579E+01  0.1997E+01
      8.432  0.1032E+00  0.4564E+00  0.2587E+01  0.2034E+01
      8.514  0.6492E-01  0.4451E+00  0.2593E+01  0.2071E+01
      8.597  0.4635E-01  0.4362E+00  0.2596E+01  0.2106E+01
      8.679  0.4925E-01  0.4225E+00  0.2600E+01  0.2141E+01
      8.761  0.5784E-01  0.4033E+00  0.2605E+01  0.2174E+01
      8.843  0.6118E-01  0.3835E+00  0.2610E+01  0.2206E+01
      8.925  0.5981E-01  0.3662E+00  0.2615E+01  0.2236E+01
      9.007  0.5644E-01  0.3528E+00  0.2620E+01  0.2265E+01
      9.090  0.5260E-01  0.3462E+00  0.2624E+01  0.2293E+01
      9.172  0.5859E-01  0.3477E+00  0.2629E+01  0.2322E+01
      9.254  0.8465E-01  0.3559E+00  0.2636E+01  0.2351E+01
      9.336  0.1178E+00  0.3674E+00  0.2646E+01  0.2381E+01
      9.418  0.1301E+00  0.3763E+00  0.2656E+01  0.2412E+01
      9.501  0.1105E+00  0.3764E+00  0.2665E+01  0.2443E+01
      9.583  0.7629E-01  0.3640E+00  0.2672E+01  0.2473E+01
      9.665  0.5340E-01  0.3376E+00  0.2676E+01  0.2501E+01
      9.747  0.5153E-01  0.3004E+00  0.2680E+01  0.2526E+01
      9.829  0.5843E-01  0.2634E+00  0.2685E+01  0.2547E+01
      9.911  0.5680E-01  0.2353E+00  0.2690E+01  0.2566E+01
      9.994  0.4368E-01  0.2123E+00  0.2693E+01  0.2584E+01
     10.076  0.2986E-01  0.1853E+00  0.2696E+01  0.2599E+01
     10.158  0.2730E-01  0.1533E+00  0.2698E+01  0.2612E+01
     10.240  0.4092E-01  0.1254E+00  0.2701E+01  0.2622E+01
     10.322  0.6387E-01  0.1099E+00  0.2707E+01  0.2631E+01
     10.404  0.8363E-01  0.1072E+00  0.2713E+01  0.2640E+01
     10.487  0.9370E-01  0.1102E+00  0.2721E+01  0.2649E+01
     10.569  0.9087E-01  0.1110E+00  0.2729E+01  0.2658E+01
     10.651  0.7384E-01  0.1068E+00  0.2735E+01  0.2667E+01
     10.733  0.5298E-01  0.9847E-01  0.2739E+01  0.2675E+01
     10.815  0.4516E-01  0.8929E-01  0.2743E+01  0.2682E+01
     10.897  0.5483E-01  0.8476E-01  0.2747E+01  0.2689E+01
     10.980  0.7043E-01  0.8422E-01  0.2753E+01  0.2696E+01
     11.062  0.7897E-01  0.8034E-01  0.2760E+01  0.2703E+01
     11.144  0.7725E-01  0.7316E-01  0.2766E+01  0.2709E+01
     11.226  0.6851E-01  0.7251E-01  0.2771E+01  0.2715E+01
     11.308  0.5829E-01  0.8201E-01  0.2776E+01  0.2721E+01
     11.390  0.5158E-01  0.9165E-01  0.2781E+01  0.2729E+01
     11.473  0.4591E-01  0.8892E-01  0.2784E+01  0.2736E+01
     11.555  0.3839E-01  0.7290E-01  0.2787E+01  0.2742E+01
     11.637  0.3705E-01  0.5599E-01  0.2790E+01  0.2747E+01
     11.719  0.4730E-01  0.5142E-01  0.2794E+01  0.2751E+01
     11.801  0.5738E-01  0.6015E-01  0.2799E+01  0.2756E+01
     11.883  0.5583E-01  0.7250E-01  0.2804E+01  0.2762E+01
     11.966  0.5200E-01  0.7861E-01  0.2808E+01  0.2769E+01
     12.048  0.5834E-01  0.7394E-01  0.2813E+01  0.2775E+01
     12.130  0.6761E-01  0.6237E-01  0.2818E+01  0.2780E+01
     12.212  0.6970E-01  0.5493E-01  0.2824E+01  0.2784E+01
     12.294  0.6681E-01  0.5951E-01  0.2830E+01  0.2789E+01
     12.377  0.6037E-01  0.7116E-01  0.2834E+01  0.2795E+01
     12.459  0.5037E-01  0.7486E-01  0.2839E+01  0.2801E+01
     12.541  0.4132E-01  0.6428E-01  0.2842E+01  0.2806E+01
     12.623  0.3219E-01  0.5441E-01  0.2845E+01  0.2811E+01
     12.705  0.2030E-01  0.6135E-01  0.2846E+01  0.2816E+01
     12.787  0.1386E-01  0.7673E-01  0.2847E+01  0.2822E+01
     12.870  0.1961E-01  0.7950E-01  0.2849E+01  0.2829E+01
     12.952  0.2925E-01  0.6556E-01  0.2851E+01  0.2834E+01
     13.034  0.3430E-01  0.4902E-01  0.2854E+01  0.2838E+01
     13.116  0.3989E-01  0.3998E-01  0.2858E+01  0.2841E+01
     13.198  0.5001E-01  0.3318E-01  0.2862E+01  0.2844E+01
     13.280  0.5516E-01  0.2140E-01  0.2866E+01  0.2846E+01
     13.363  0.4834E-01  0.1101E-01  0.2870E+01  0.2847E+01
     13.445  0.3754E-01  0.1365E-01  0.2873E+01  0.2848E+01
     13.527  0.3143E-01  0.2816E-01  0.2876E+01  0.2850E+01
     13.609  0.2917E-01  0.4414E-01  0.2878E+01  0.2854E+01
     13.691  0.2846E-01  0.5658E-01  0.2881E+01  0.2859E+01
     13.773  0.2690E-01  0.6241E-01  0.2883E+01  0.2864E+01
     13.856  0.2154E-01  0.5568E-01  0.2885E+01  0.2868E+01
     13.938  0.1834E-01  0.4035E-01  0.2886E+01  0.2872E+01
     14.020  0.2800E-01  0.3030E-01  0.2888E+01  0.2874E+01
     14.102  0.4990E-01  0.3058E-01  0.2892E+01  0.2877E+01
     14.184  0.7075E-01  0.3388E-01  0.2898E+01  0.2879E+01
     14.266  0.7883E-01  0.3302E-01  0.2905E+01  0.2882E+01
     14.349  0.7698E-01  0.2733E-01  0.2911E+01  0.2884E+01
     14.431  0.7699E-01  0.2256E-01  0.2917E+01  0.2886E+01
     14.513  0.8070E-01  0.2645E-01  0.2924E+01  0.2888E+01
     14.595  0.7648E-01  0.4008E-01  0.2930E+01  0.2892E+01
     14.677  0.6010E-01  0.5452E-01  0.2935E+01  0.2896E+01
     14.760  0.4679E-01  0.5943E-01  0.2939E+01  0.2901E+01
     14.842  0.5177E-01  0.5441E-01  0.2943E+01  0.2905E+01
     14.924  0.7005E-01  0.4796E-01  0.2949E+01  0.2909E+01
     15.006  0.8272E-01  0.4872E-01  0.2956E+01  0.2913E+01
     15.088  0.7807E-01  0.5969E-01  0.2962E+01  0.2918E+01
     15.170  0.6452E-01  0.7418E-01  0.2968E+01  0.2924E+01
     15.253  0.5673E-01  0.8045E-01  0.2972E+01  0.2931E+01
     15.335  0.5368E-01  0.7676E-01  0.2977E+01  0.2937E+01
     15.417  0.4676E-01  0.7280E-01  0.2981E+01  0.2943E+01
     15.499  0.3999E-01  0.7432E-01  0.2984E+01  0.2949E+01
     15.581  0.4506E-01  0.7793E-01  0.2988E+01  0.2956E+01
     15.663  0.6324E-01  0.7810E-01  0.2993E+01  0.2962E+01
     15.746  0.8219E-01  0.7247E-01  0.3000E+01  0.2968E+01
     15.828  0.8907E-01  0.6298E-01  0.3007E+01  0.2973E+01
     15.910  0.8423E-01  0.5379E-01  0.3014E+01  0.2978E+01
     15.992  0.7678E-01  0.4856E-01  0.3020E+01  0.2982E+01
     16.074  0.7066E-01  0.5042E-01  0.3026E+01  0.2986E+01
     16.156  0.6456E-01  0.6179E-01  0.3031E+01  0.2991E+01
     16.239  0.5856E-01  0.8046E-01  0.3036E+01  0.2998E+01
     16.321  0.5511E-01  0.9563E-01  0.3041E+01  0.3005E+01
     16.403  0.5717E-01  0.9579E-01  0.3045E+01  0.3013E+01
     16.485  0.6494E-01  0.8326E-01  0.3051E+01  0.3020E+01
     16.567  0.7324E-01  0.7149E-01  0.3057E+01  0.3026E+01
     16.649  0.7565E-01  0.6697E-01  0.3063E+01  0.3032E+01
     16.732  0.7140E-01  0.6454E-01  0.3069E+01  0.3037E+01
     16.814  0.6413E-01  0.6028E-01  0.3074E+01  0.3042E+01
     16.896  0.5702E-01  0.5954E-01  0.3079E+01  0.3047E+01
     16.978  0.5154E-01  0.6687E-01  0.3083E+01  0.3052E+01
     17.060  0.4850E-01  0.7370E-01  0.3087E+01  0.3058E+01
     17.142  0.5069E-01  0.6953E-01  0.3091E+01  0.3064E+01
     17.225  0.5942E-01  0.6015E-01  0.3096E+01  0.3069E+01
     17.307  0.6758E-01  0.5775E-01  0.3101E+01  0.3074E+01
     17.389  0.6505E-01  0.6196E-01  0.3107E+01  0.3079E+01
     17.471  0.5182E-01  0.6433E-01  0.3111E+01  0.3084E+01
     17.553  0.3969E-01  0.6240E-01  0.3114E+01  0.3089E+01
     17.636  0.4091E-01  0.6089E-01  0.3118E+01  0.3094E+01
     17.718  0.5776E-01  0.6312E-01  0.3122E+01  0.3099E+01
     17.800  0.8050E-01  0.6487E-01  0.3129E+01  0.3105E+01
     17.882  0.9123E-01  0.5723E-01  0.3137E+01  0.3109E+01
     17.964  0.7761E-01  0.4007E-01  0.3143E+01  0.3113E+01
     18.046  0.5059E-01  0.2900E-01  0.3147E+01  0.3115E+01
     18.129  0.3515E-01  0.3845E-01  0.3150E+01  0.3118E+01
     18.211  0.3704E-01  0.6242E-01  0.3153E+01  0.3123E+01
     18.293  0.3912E-01  0.8102E-01  0.3156E+01  0.3130E+01
     18.375  0.3236E-01  0.8210E-01  0.3159E+01  0.3137E+01
     18.457  0.2786E-01  0.7083E-01  0.3161E+01  0.3143E+01
     18.539  0.3501E-01  0.5917E-01  0.3164E+01  0.3147E+01
     18.622  0.4471E-01  0.5122E-01  0.3168E+01  0.3152E+01
     18.704  0.4314E-01  0.4353E-01  0.3171E+01  0.3155E+01
     18.786  0.3209E-01  0.3588E-01  0.3174E+01  0.3158E+01
     18.868  0.2331E-01  0.3401E-01  0.3176E+01  0.3161E+01
     18.950  0.1938E-01  0.3978E-01  0.3177E+01  0.3164E+01
     19.032  0.1467E-01  0.4576E-01  0.3179E+01  0.3168E+01
     19.115  0.8915E-02  0.4476E-01  0.3179E+01  0.3172E+01
     19.197  0.6134E-02  0.3771E-01  0.3180E+01  0.3175E+01
     19.279  0.5600E-02  0.2812E-01  0.3180E+01  0.3177E+01
     19.361  0.3996E-02  0.1794E-01  0.3181E+01  0.3179E+01
     19.443  0.1376E-02  0.9907E-02  0.3181E+01  0.3179E+01
     19.525 -0.1685E-03  0.6087E-02  0.3181E+01  0.3180E+01
     19.608  0.3103E-03  0.4951E-02  0.3181E+01  0.3180E+01
     19.690  0.2348E-02  0.3622E-02  0.3181E+01  0.3181E+01
     19.772  0.4276E-02  0.1522E-02  0.3181E+01  0.3181E+01
     19.854  0.4226E-02  0.8162E-04  0.3182E+01  0.3181E+01
     19.936  0.2347E-02  0.3675E-03  0.3182E+01  0.3181E+01
     20.018  0.5245E-03  0.2132E-02  0.3182E+01  0.3181E+01
     20.101 -0.1891E-03  0.3940E-02  0.3182E+01  0.3181E+01
     20.183 -0.1899E-03  0.4122E-02  0.3182E+01  0.3182E+01
     20.265 -0.7103E-04  0.2565E-02  0.3182E+01  0.3182E+01
     20.347 -0.1577E-04  0.7845E-03  0.3182E+01  0.3182E+01
     20.429 -0.2289E-05 -0.8420E-04  0.3182E+01  0.3182E+01
     20.512 -0.2254E-06 -0.1909E-03  0.3182E+01  0.3182E+01
     20.594 -0.1533E-07 -0.8811E-04  0.3182E+01  0.3182E+01
     20.676 -0.7285E-09 -0.2311E-04  0.3182E+01  0.3182E+01
     20.758 -0.2431E-10 -0.3928E-05  0.3182E+01  0.3182E+01
     20.840 -0.5724E-12 -0.4523E-06  0.3182E+01  0.3182E+01
     20.922 -0.9534E-14 -0.3602E-07  0.3182E+01  0.3182E+01
     21.005 -0.1130E-15 -0.2005E-08  0.3182E+01  0.3182E+01
     21.087 -0.7582E-18 -0.7853E-10  0.3182E+01  0.3182E+01
     21.169  0.0000E+00 -0.2172E-11  0.3182E+01  0.3182E+01
     21.251  0.0000E+00 -0.4254E-13  0.3182E+01  0.3182E+01
     21.333  0.0000E+00 -0.5914E-15  0.3182E+01  0.3182E+01
     21.415  0.0000E+00 -0.6066E-17  0.3182E+01  0.3182E+01
     21.498  0.0000E+00  0.0000E+00  0.3182E+01  0.3182E+01
     21.580  0.0000E+00  0.0000E+00  0.3182E+01  0.3182E+01
     21.662  0.0000E+00  0.0000E+00  0.3182E+01  0.3182E+01
     21.744  0.0000E+00  0.0000E+00  0.3182E+01  0.3182E+01
     21.826  0.0000E+00  0.0000E+00  0.3182E+01  0.3182E+01
     21.908  0.0000E+00  0.0000E+00  0.3182E+01  0.3182E+01
     21.991  0.0000E+00  0.0000E+00  0.3182E+01  0.3182E+01
     22.073  0.0000E+00  0.0000E+00  0.3182E+01  0.3182E+01
     22.155  0.0000E+00  0.0000E+00  0.3182E+01  0.3182E+01
     22.15494920     -2.49653222  301      8.40424496      1.00000000
     -2.497  0.0000E+00  0.0000E+00  0.0000E+00  0.0000E+00  0.0000E+00  0.0000E+00
     -2.414  0.0000E+00  0.0000E+00  0.0000E+00  0.0000E+00  0.0000E+00  0.0000E+00
     -2.332  0.0000E+00  0.0000E+00  0.0000E+00  0.0000E+00  0.0000E+00  0.0000E+00
     -2.250  0.0000E+00  0.0000E+00  0.0000E+00  0.0000E+00  0.0000E+00  0.0000E+00
     -2.168 -0.5499E-32  0.0000E+00 -0.2924E-36  0.0000E+00 -0.1781E-36  0.0000E+00
     -2.086 -0.4233E-29 -0.2058E-30 -0.2251E-33 -0.3666E-35 -0.1371E-33 -0.6842E-35
     -2.004 -0.2321E-26 -0.1324E-27 -0.1234E-30 -0.2358E-32 -0.7517E-31 -0.4401E-32
     -1.921 -0.9049E-24 -0.6066E-25 -0.4811E-28 -0.1080E-29 -0.2931E-28 -0.2016E-29
     -1.839 -0.2508E-21 -0.1976E-22 -0.1334E-25 -0.3520E-27 -0.8124E-26 -0.6568E-27
     -1.757 -0.4939E-19 -0.4574E-20 -0.2627E-23 -0.8150E-25 -0.1600E-23 -0.1521E-24
     -1.675 -0.6631E-17 -0.7521E-18 -0.3528E-21 -0.1341E-22 -0.2148E-21 -0.2500E-22
     -1.593 -0.6627E-15 -0.8509E-16 -0.3529E-19 -0.1520E-20 -0.2147E-19 -0.2829E-20
     -1.510 -0.4631E-13 -0.7004E-14 -0.2473E-17 -0.1257E-18 -0.1500E-17 -0.2328E-18
     -1.428 -0.2286E-11 -0.4077E-12 -0.1230E-15 -0.7421E-17 -0.7409E-16 -0.1356E-16
     -1.346 -0.7953E-10 -0.1674E-10 -0.4372E-14 -0.3158E-15 -0.2579E-14 -0.5570E-15
     -1.264 -0.1942E-08 -0.4836E-09 -0.1131E-12 -0.1003E-13 -0.6313E-13 -0.1611E-13
     -1.182 -0.3310E-07 -0.9779E-08 -0.2234E-11 -0.2547E-12 -0.1083E-11 -0.3268E-12
     -1.100 -0.3906E-06 -0.1375E-06 -0.3690E-10 -0.5684E-11 -0.1303E-10 -0.4638E-11
     -1.017 -0.3148E-05 -0.1330E-05 -0.5534E-09 -0.1151E-09 -0.1109E-09 -0.4612E-10
     -0.935 -0.1692E-04 -0.8694E-05 -0.7357E-08 -0.1967E-08 -0.6968E-09 -0.3266E-09
     -0.853 -0.5797E-04 -0.3718E-04 -0.7791E-07 -0.2566E-07 -0.3590E-08 -0.1753E-08
     -0.771 -0.1132E-03 -0.9709E-04 -0.5979E-06 -0.2390E-06 -0.1713E-07 -0.8119E-08
     -0.689 -0.7388E-04 -0.1253E-03 -0.3113E-05 -0.1522E-05 -0.7264E-07 -0.3539E-07
     -0.607  0.1809E-03  0.2779E-04 -0.1019E-04 -0.6300E-05 -0.2239E-06 -0.1284E-06
     -0.524  0.6896E-03  0.4236E-03 -0.1710E-04 -0.1521E-04 -0.3727E-06 -0.3013E-06
     -0.442  0.2042E-02  0.1306E-02  0.3999E-05 -0.1243E-04  0.5247E-07 -0.2517E-06
     -0.360  0.5478E-02  0.3895E-02  0.8556E-04  0.3930E-04  0.1635E-05  0.7139E-06
     -0.278  0.1019E-01  0.8793E-02  0.2015E-03  0.1476E-03  0.3823E-05  0.2658E-05
     -0.196  0.1307E-01  0.1322E-01  0.3080E-03  0.2601E-03  0.6768E-05  0.4900E-05
     -0.114  0.1446E-01  0.1506E-01  0.4802E-03  0.3914E-03  0.1431E-04  0.9349E-05
     -0.031  0.1748E-01  0.1759E-01  0.7760E-03  0.6495E-03  0.2775E-04  0.1969E-04
      0.051  0.2001E-01  0.2202E-01  0.9918E-03  0.9438E-03  0.3886E-04  0.3230E-04
      0.133  0.1777E-01  0.2269E-01  0.9271E-03  0.9967E-03  0.4023E-04  0.3727E-04
      0.215  0.1298E-01  0.1734E-01  0.7548E-03  0.8229E-03  0.4015E-04  0.3364E-04
      0.297  0.1213E-01  0.1271E-01  0.9058E-03  0.8121E-03  0.6615E-04  0.3827E-04
      0.379  0.1834E-01  0.1602E-01  0.1631E-02  0.1321E-02  0.1397E-03  0.7791E-04
      0.462  0.2663E-01  0.2477E-01  0.2534E-02  0.2229E-02  0.2315E-03  0.1547E-03
      0.544  0.2974E-01  0.2949E-01  0.3055E-02  0.2953E-02  0.3042E-03  0.2329E-03
      0.626  0.2979E-01  0.2928E-01  0.3480E-02  0.3375E-02  0.3918E-03  0.3069E-03
      0.708  0.3169E-01  0.3194E-01  0.4048E-02  0.3990E-02  0.4943E-03  0.4061E-03
      0.790  0.3036E-01  0.3520E-01  0.3828E-02  0.4454E-02  0.4825E-03  0.4681E-03
      0.873  0.2070E-01  0.2857E-01  0.2392E-02  0.3681E-02  0.3092E-03  0.3777E-03
      0.955  0.1067E-01  0.1478E-01  0.1228E-02  0.2045E-02  0.1790E-03  0.1995E-03
      1.037  0.1121E-01  0.8872E-02  0.1888E-02  0.1485E-02  0.3200E-03  0.1647E-03
      1.119  0.2220E-01  0.1684E-01  0.4108E-02  0.2925E-02  0.7440E-03  0.3831E-03
      1.201  0.3677E-01  0.3008E-01  0.6820E-02  0.5374E-02  0.1373E-02  0.7882E-03
      1.283  0.4977E-01  0.4116E-01  0.9378E-02  0.7974E-02  0.2095E-02  0.1356E-02
      1.366  0.5515E-01  0.5007E-01  0.1065E-01  0.1048E-01  0.2528E-02  0.1991E-02
      1.448  0.4708E-01  0.5235E-01  0.9257E-02  0.1141E-01  0.2275E-02  0.2268E-02
      1.530  0.3012E-01  0.4154E-01  0.6054E-02  0.9297E-02  0.1605E-02  0.1898E-02
      1.612  0.1726E-01  0.2438E-01  0.3701E-02  0.5759E-02  0.1227E-02  0.1278E-02
      1.694  0.1469E-01  0.1424E-01  0.3358E-02  0.3626E-02  0.1401E-02  0.9832E-03
      1.776  0.1895E-01  0.1412E-01  0.4410E-02  0.3377E-02  0.2005E-02  0.1124E-02
      1.859  0.2731E-01  0.1992E-01  0.6709E-02  0.4386E-02  0.3089E-02  0.1659E-02
      1.941  0.3703E-01  0.3007E-01  0.9672E-02  0.7019E-02  0.4258E-02  0.2696E-02
      2.023  0.4009E-01  0.3990E-01  0.1097E-01  0.1049E-01  0.4505E-02  0.3851E-02
      2.105  0.3565E-01  0.4021E-01  0.1037E-01  0.1201E-01  0.4254E-02  0.4220E-02
      2.187  0.3785E-01  0.3323E-01  0.1181E-01  0.1127E-01  0.5761E-02  0.3945E-02
      2.269  0.5412E-01  0.3446E-01  0.1700E-01  0.1205E-01  0.9594E-02  0.4592E-02
      2.352  0.6944E-01  0.4996E-01  0.2152E-01  0.1618E-01  0.1286E-01  0.6888E-02
      2.434  0.6574E-01  0.6671E-01  0.2058E-01  0.2057E-01  0.1248E-01  0.9550E-02
      2.516  0.4409E-01  0.6981E-01  0.1447E-01  0.2176E-01  0.8677E-02  0.1081E-01
      2.598  0.2121E-01  0.5593E-01  0.7622E-02  0.1857E-01  0.4975E-02  0.9548E-02
      2.680  0.1333E-01  0.3204E-01  0.5252E-02  0.1174E-01  0.5457E-02  0.5989E-02
      2.762  0.2484E-01  0.1171E-01  0.9657E-02  0.5110E-02  0.1145E-01  0.2672E-02
      2.845  0.4633E-01  0.7263E-02  0.1803E-01  0.3564E-02  0.2021E-01  0.2865E-02
      2.927  0.6043E-01  0.2155E-01  0.2372E-01  0.8789E-02  0.2640E-01  0.7889E-02
      3.009  0.5645E-01  0.4648E-01  0.2217E-01  0.1831E-01  0.2641E-01  0.1618E-01
      3.091  0.4345E-01  0.6514E-01  0.1715E-01  0.2601E-01  0.2345E-01  0.2320E-01
      3.173  0.3958E-01  0.6362E-01  0.1650E-01  0.2592E-01  0.2571E-01  0.2421E-01
      3.255  0.4920E-01  0.4727E-01  0.2162E-01  0.1975E-01  0.3827E-01  0.1999E-01
      3.338  0.6280E-01  0.3490E-01  0.2744E-01  0.1556E-01  0.5995E-01  0.1706E-01
      3.420  0.7368E-01  0.3714E-01  0.3127E-01  0.1786E-01  0.8809E-01  0.2056E-01
      3.502  0.8070E-01  0.4889E-01  0.3390E-01  0.2387E-01  0.1195E+00  0.2887E-01
      3.584  0.8115E-01  0.5790E-01  0.3436E-01  0.2781E-01  0.1464E+00  0.3549E-01
      3.666  0.7489E-01  0.5827E-01  0.3127E-01  0.2750E-01  0.1625E+00  0.3814E-01
      3.749  0.7008E-01  0.5813E-01  0.2763E-01  0.2760E-01  0.1763E+00  0.4509E-01
      3.831  0.7303E-01  0.6679E-01  0.2763E-01  0.3228E-01  0.2032E+00  0.6370E-01
      3.913  0.7853E-01  0.7613E-01  0.3066E-01  0.3649E-01  0.2433E+00  0.8413E-01
      3.995  0.7973E-01  0.7140E-01  0.3318E-01  0.3340E-01  0.2833E+00  0.9026E-01
      4.077  0.7841E-01  0.5648E-01  0.3408E-01  0.2606E-01  0.3161E+00  0.8782E-01
      4.159  0.7804E-01  0.4891E-01  0.3491E-01  0.2260E-01  0.3463E+00  0.1048E+00
      4.242  0.7559E-01  0.5587E-01  0.3668E-01  0.2467E-01  0.3828E+00  0.1601E+00
      4.324  0.6694E-01  0.7086E-01  0.3812E-01  0.2907E-01  0.4317E+00  0.2414E+00
      4.406  0.5411E-01  0.8515E-01  0.3773E-01  0.3531E-01  0.4952E+00  0.3148E+00
      4.488  0.4190E-01  0.9151E-01  0.3666E-01  0.4349E-01  0.5729E+00  0.3500E+00
      4.570  0.3226E-01  0.8576E-01  0.3746E-01  0.4968E-01  0.6582E+00  0.3457E+00
      4.652  0.2489E-01  0.7167E-01  0.4083E-01  0.4991E-01  0.7368E+00  0.3287E+00
      4.735  0.1932E-01  0.5736E-01  0.4580E-01  0.4518E-01  0.7957E+00  0.3193E+00
      4.817  0.1499E-01  0.4691E-01  0.5099E-01  0.3944E-01  0.8356E+00  0.3162E+00
      4.899  0.1146E-01  0.4048E-01  0.5444E-01  0.3575E-01  0.8593E+00  0.3270E+00
      4.981  0.8610E-02  0.3752E-01  0.5486E-01  0.3536E-01  0.8558E+00  0.3871E+00
      5.063  0.6550E-02  0.3663E-01  0.5372E-01  0.3866E-01  0.8222E+00  0.5198E+00
      5.145  0.5504E-02  0.3546E-01  0.5362E-01  0.4432E-01  0.7830E+00  0.6789E+00
      5.228  0.5603E-02  0.3166E-01  0.5570E-01  0.4912E-01  0.7694E+00  0.7766E+00
      5.310  0.6660E-02  0.2483E-01  0.6003E-01  0.5190E-01  0.7997E+00  0.7883E+00
      5.392  0.8053E-02  0.1752E-01  0.6566E-01  0.5506E-01  0.8679E+00  0.7697E+00
      5.474  0.8875E-02  0.1237E-01  0.6940E-01  0.5945E-01  0.9330E+00  0.7612E+00
      5.556  0.8773E-02  0.9237E-02  0.6872E-01  0.6146E-01  0.9486E+00  0.7424E+00
      5.638  0.8841E-02  0.6797E-02  0.6606E-01  0.5827E-01  0.9289E+00  0.6941E+00
      5.721  0.1057E-01  0.4946E-02  0.6681E-01  0.5285E-01  0.9410E+00  0.6521E+00
      5.803  0.1371E-01  0.3986E-02  0.7329E-01  0.4966E-01  0.1023E+01  0.6527E+00
      5.885  0.1639E-01  0.3516E-02  0.8230E-01  0.4928E-01  0.1159E+01  0.6761E+00
      5.967  0.1729E-01  0.3141E-02  0.8688E-01  0.5099E-01  0.1316E+01  0.6984E+00
      6.049  0.1625E-01  0.3020E-02  0.8117E-01  0.5524E-01  0.1452E+01  0.7316E+00
      6.131  0.1397E-01  0.3478E-02  0.6665E-01  0.6076E-01  0.1515E+01  0.7834E+00
      6.214  0.1162E-01  0.4664E-02  0.5132E-01  0.6489E-01  0.1477E+01  0.8468E+00
      6.296  0.9976E-02  0.6398E-02  0.4184E-01  0.6790E-01  0.1368E+01  0.9205E+00
      6.378  0.8966E-02  0.8170E-02  0.4032E-01  0.7205E-01  0.1243E+01  0.9928E+00
      6.460  0.8234E-02  0.9618E-02  0.4504E-01  0.7691E-01  0.1138E+01  0.1052E+01
      6.542  0.7515E-02  0.1089E-01  0.4895E-01  0.8020E-01  0.1053E+01  0.1125E+01
      6.625  0.6552E-02  0.1229E-01  0.4425E-01  0.8127E-01  0.9873E+00  0.1230E+01
      6.707  0.5477E-02  0.1385E-01  0.3356E-01  0.8019E-01  0.9793E+00  0.1316E+01
      6.789  0.4992E-02  0.1503E-01  0.2734E-01  0.7609E-01  0.1069E+01  0.1335E+01
      6.871  0.5482E-02  0.1508E-01  0.2851E-01  0.6898E-01  0.1219E+01  0.1332E+01
      6.953  0.6344E-02  0.1400E-01  0.3040E-01  0.6133E-01  0.1317E+01  0.1374E+01
      7.035  0.6749E-02  0.1267E-01  0.2900E-01  0.5611E-01  0.1302E+01  0.1445E+01
      7.118  0.6628E-02  0.1172E-01  0.2651E-01  0.5387E-01  0.1247E+01  0.1460E+01
      7.200  0.6379E-02  0.1089E-01  0.2404E-01  0.5290E-01  0.1256E+01  0.1371E+01
      7.282  0.6312E-02  0.9796E-02  0.2049E-01  0.5203E-01  0.1313E+01  0.1219E+01
      7.364  0.6690E-02  0.8554E-02  0.1685E-01  0.5197E-01  0.1330E+01  0.1084E+01
      7.446  0.7446E-02  0.7444E-02  0.1504E-01  0.5275E-01  0.1353E+01  0.1018E+01
      7.528  0.8009E-02  0.6609E-02  0.1474E-01  0.5133E-01  0.1561E+01  0.1023E+01
      7.611  0.7877E-02  0.6183E-02  0.1422E-01  0.4497E-01  0.1986E+01  0.1087E+01
      7.693  0.6898E-02  0.6177E-02  0.1236E-01  0.3567E-01  0.2339E+01  0.1203E+01
      7.775  0.5381E-02  0.6286E-02  0.9556E-02  0.2794E-01  0.2244E+01  0.1333E+01
      7.857  0.4317E-02  0.6108E-02  0.7798E-02  0.2379E-01  0.1648E+01  0.1402E+01
      7.939  0.4686E-02  0.5608E-02  0.9085E-02  0.2278E-01  0.8903E+00  0.1364E+01
      8.021  0.6345E-02  0.5178E-02  0.1324E-01  0.2414E-01  0.3483E+00  0.1244E+01
      8.104  0.8821E-02  0.5114E-02  0.1804E-01  0.2596E-01  0.1343E+00  0.1118E+01
      8.186  0.1276E-01  0.5273E-02  0.2187E-01  0.2535E-01  0.1379E+00  0.1040E+01
      8.268  0.1758E-01  0.5357E-02  0.2459E-01  0.2196E-01  0.2047E+00  0.1002E+01
      8.350  0.1937E-01  0.5236E-02  0.2490E-01  0.1845E-01  0.2248E+00  0.9814E+00
      8.432  0.1574E-01  0.4978E-02  0.2096E-01  0.1692E-01  0.1738E+00  0.9918E+00
      8.514  0.1035E-01  0.4847E-02  0.1496E-01  0.1719E-01  0.1056E+00  0.1036E+01
      8.597  0.8325E-02  0.5203E-02  0.1215E-01  0.1824E-01  0.7115E-01  0.1059E+01
      8.679  0.1019E-01  0.6202E-02  0.1538E-01  0.1944E-01  0.6899E-01  0.1001E+01
      8.761  0.1244E-01  0.7635E-02  0.2248E-01  0.2044E-01  0.7433E-01  0.8836E+00