       N       E                     dE             d eps       ncg     rms          rms(c)
DAV:   1     0.414587728972E+04    0.41459E+04   -0.18174E+05 23940   0.206E+03
DAV:   2     0.265038390512E+03   -0.38808E+04   -0.36508E+04 23940   0.437E+02
DAV:   3    -0.307161004804E+03   -0.57220E+03   -0.46381E+03 23940   0.201E+02
DAV:   4    -0.344159585905E+03   -0.36999E+02   -0.35488E+02 25371   0.604E+01
DAV:   5    -0.344707678172E+03   -0.54809E+00   -0.54729E+00 28305   0.719E+00    0.746E+01
RMM:   6    -0.400036838949E+03   -0.55329E+02   -0.55950E+02 23940   0.767E+01    0.124E+02
RMM:   7    -0.364923370837E+03    0.35113E+02   -0.16230E+02 23940   0.391E+01    0.112E+02
RMM:   8    -0.319340989313E+03    0.45582E+02   -0.61077E+01 23940   0.244E+01    0.737E+01
RMM:   9    -0.320884206904E+03   -0.15432E+01   -0.39284E+01 23940   0.189E+01    0.716E+01
RMM:  10    -0.317421873809E+03    0.34623E+01   -0.23741E+01 23940   0.153E+01    0.636E+01
RMM:  11    -0.299635815712E+03    0.17786E+02   -0.12264E+01 23940   0.110E+01    0.372E+01
RMM:  12    -0.295912961850E+03    0.37229E+01   -0.71132E+00 23940   0.801E+00    0.262E+01
RMM:  13    -0.296739921197E+03   -0.82696E+00   -0.22864E+00 23940   0.447E+00    0.282E+01
RMM:  14    -0.295559461231E+03    0.11805E+01   -0.16908E+00 23940   0.407E+00    0.189E+01
RMM:  15    -0.295243808548E+03    0.31565E+00   -0.76828E-01 23940   0.260E+00    0.140E+01
RMM:  16    -0.295755067968E+03   -0.51126E+00   -0.40563E-01 23940   0.181E+00    0.155E+01
RMM:  17    -0.295555322215E+03    0.19975E+00   -0.34361E-01 23940   0.171E+00    0.102E+01
RMM:  18    -0.295933524563E+03   -0.37820E+00   -0.31700E-01 23940   0.159E+00    0.113E+01
RMM:  19    -0.296123182611E+03   -0.18966E+00   -0.36249E-01 23940   0.172E+00    0.938E+00
RMM:  20    -0.296229423834E+03   -0.10624E+00   -0.27010E-01 23940   0.149E+00    0.869E+00
RMM:  21    -0.296439995519E+03   -0.21057E+00   -0.23976E-01 23940   0.137E+00    0.890E+00
RMM:  22    -0.296421923000E+03    0.18073E-01   -0.21577E-01 23940   0.136E+00    0.663E+00
RMM:  23    -0.296593119495E+03   -0.17120E+00   -0.15363E-01 23940   0.112E+00    0.727E+00
RMM:  24    -0.296549093487E+03    0.44026E-01   -0.14559E-01 23940   0.114E+00    0.443E+00
RMM:  25    -0.296698040830E+03   -0.14895E+00   -0.15124E-01 23940   0.109E+00    0.582E+00
RMM:  26    -0.296626721915E+03    0.71319E-01   -0.11164E-01 23940   0.982E-01    0.278E+00
RMM:  27    -0.296674618866E+03   -0.47897E-01   -0.87804E-02 23940   0.845E-01    0.383E+00
RMM:  28    -0.296626582970E+03    0.48036E-01   -0.51380E-02 23940   0.683E-01    0.143E+00
RMM:  29    -0.296643234997E+03   -0.16652E-01   -0.23523E-02 23940   0.451E-01    0.215E+00
RMM:  30    -0.296628590729E+03    0.14644E-01   -0.14927E-02 23940   0.369E-01    0.958E-01
RMM:  31    -0.296627157073E+03    0.14337E-02   -0.40607E-03 23940   0.188E-01    0.658E-01
RMM:  32    -0.296627440237E+03   -0.28316E-03   -0.19493E-03 23940   0.131E-01    0.598E-01
RMM:  33    -0.296626370194E+03    0.10700E-02   -0.99581E-04 23940   0.957E-02    0.298E-01
RMM:  34    -0.296626645238E+03   -0.27504E-03   -0.48297E-04 23940   0.634E-02    0.326E-01
RMM:  35    -0.296626331539E+03    0.31370E-03   -0.32953E-04 23940   0.542E-02    0.104E-01
RMM:  36    -0.296626441052E+03   -0.10951E-03   -0.16080E-04 23940   0.367E-02    0.178E-01
RMM:  37    -0.296626333379E+03    0.10767E-03   -0.92450E-05 23365   0.294E-02    0.613E-02
RMM:  38    -0.296626348009E+03   -0.14630E-04   -0.34689E-05 18491   0.178E-02    0.813E-02
RMM:  39    -0.296626326647E+03    0.21362E-04   -0.17495E-05 13806   0.144E-02    0.373E-02
RMM:  40    -0.296626324888E+03    0.17588E-05   -0.61316E-06 12518   0.784E-03
   1 F= -.29662632E+03 E0= -.29661669E+03  d E =-.296626E+03  mag=    54.6044
       N       E                     dE             d eps       ncg     rms          rms(c)
DAV:   1    -0.296121543788E+03    0.50478E+00   -0.18915E+02 24093   0.236E+01    0.107E+01
RMM:   2    -0.302609458176E+03   -0.64879E+01   -0.10979E+01 23940   0.111E+01    0.380E+01
RMM:   3    -0.297619194700E+03    0.49903E+01   -0.36286E+00 23940   0.587E+00    0.110E+01
RMM:   4    -0.297910296321E+03   -0.29110E+00   -0.99636E-01 23940   0.293E+00    0.126E+01
RMM:   5    -0.297390753057E+03    0.51954E+00   -0.40440E-01 23940   0.198E+00    0.451E+00
RMM:   6    -0.297328479081E+03    0.62274E-01   -0.69434E-02 23940   0.778E-01    0.193E+00
RMM:   7    -0.297337481215E+03   -0.90021E-02   -0.32893E-02 23940   0.527E-01    0.255E+00
RMM:   8    -0.297312289406E+03    0.25192E-01   -0.26230E-02 23940   0.487E-01    0.102E+00
RMM:   9    -0.297324320690E+03   -0.12031E-01   -0.20602E-02 23940   0.406E-01    0.213E+00
RMM:  10    -0.297307303184E+03    0.17018E-01   -0.14347E-02 23940   0.351E-01    0.726E-01
RMM:  11    -0.297307075965E+03    0.22722E-03   -0.48827E-03 23940   0.197E-01    0.667E-01
RMM:  12    -0.297305888416E+03    0.11875E-02   -0.17327E-03 23940   0.124E-01    0.344E-01
RMM:  13    -0.297305475468E+03    0.41295E-03   -0.49792E-04 23940   0.658E-02    0.144E-01
RMM:  14    -0.297305578317E+03   -0.10285E-03   -0.18690E-04 23940   0.391E-02    0.212E-01
RMM:  15    -0.297305452366E+03    0.12595E-03   -0.11136E-04 23830   0.319E-02    0.807E-02
RMM:  16    -0.297305441554E+03    0.10812E-04   -0.33759E-05 18383   0.175E-02    0.595E-02
RMM:  17    -0.297305449538E+03   -0.79832E-05   -0.23909E-05 14420   0.149E-02
   2 F= -.29730545E+03 E0= -.29729907E+03  d E =-.679125E+00  mag=    55.3369
       N       E                     dE             d eps       ncg     rms          rms(c)
DAV:   1    -0.296881112685E+03    0.42433E+00   -0.88521E+01 24120   0.160E+01    0.706E+00
RMM:   2    -0.299155351273E+03   -0.22742E+01   -0.37353E+00 23940   0.653E+00    0.218E+01
RMM:   3    -0.297581560612E+03    0.15738E+01   -0.13662E+00 23940   0.357E+00    0.747E+00
RMM:   4    -0.297724878316E+03   -0.14332E+00   -0.40491E-01 23940   0.187E+00    0.877E+00
RMM:   5    -0.297464125710E+03    0.26075E+00   -0.18591E-01 23940   0.134E+00    0.264E+00
RMM:   6    -0.297444112869E+03    0.20013E-01   -0.27080E-02 23940   0.482E-01    0.127E+00
RMM:   7    -0.297444949011E+03   -0.83614E-03   -0.12505E-02 23940   0.329E-01    0.151E+00
RMM:   8    -0.297435797947E+03    0.91511E-02   -0.10173E-02 23940   0.303E-01    0.601E-01
RMM:   9    -0.297440473625E+03   -0.46757E-02   -0.83904E-03 23940   0.256E-01    0.133E+00
RMM:  10    -0.297433887260E+03    0.65864E-02   -0.55064E-03 23940   0.217E-01    0.456E-01
RMM:  11    -0.297433621047E+03    0.26621E-03   -0.13864E-03 23940   0.104E-01    0.358E-01
RMM:  12    -0.297433542757E+03    0.78290E-04   -0.51799E-04 23940   0.671E-02    0.321E-01
RMM:  13    -0.297433191873E+03    0.35088E-03   -0.23946E-04 23940   0.464E-02    0.772E-02
RMM:  14    -0.297433216334E+03   -0.24460E-04   -0.78675E-05 22996   0.257E-02    0.102E-01
RMM:  15    -0.297433182918E+03    0.33415E-04   -0.36271E-05 18457   0.190E-02    0.430E-02
RMM:  16    -0.297433181907E+03    0.10110E-05   -0.14003E-05 13285   0.118E-02
   3 F= -.29743318E+03 E0= -.29742930E+03  d E =-.806857E+00  mag=    55.6557
       N       E                     dE             d eps       ncg     rms          rms(c)
DAV:   1    -0.297426980969E+03    0.62019E-02   -0.23478E+01 24480   0.836E+00    0.228E+00
RMM:   2    -0.297617237007E+03   -0.19026E+00   -0.39623E-01 23940   0.225E+00    0.575E+00
RMM:   3    -0.297524917939E+03    0.92319E-01   -0.11931E-01 23940   0.103E+00    0.279E+00
RMM:   4    -0.297529268916E+03   -0.43510E-02   -0.37453E-02 23940   0.578E-01    0.257E+00
RMM:   5    -0.297505341210E+03    0.23928E-01   -0.14544E-02 23940   0.373E-01    0.669E-01
RMM:   6    -0.297504344313E+03    0.99690E-03   -0.26070E-03 23940   0.148E-01    0.490E-01
RMM:   7    -0.297503481789E+03    0.86252E-03   -0.17796E-03 23940   0.119E-01    0.471E-01
RMM:   8    -0.297502731254E+03    0.75054E-03   -0.17859E-03 23940   0.122E-01    0.303E-01
RMM:   9    -0.297503048057E+03   -0.31680E-03   -0.10998E-03 23940   0.918E-02    0.422E-01
RMM:  10    -0.297502353572E+03    0.69448E-03   -0.51399E-04 23940   0.669E-02    0.859E-02
RMM:  11    -0.297502373012E+03   -0.19440E-04   -0.10590E-04 23693   0.294E-02    0.109E-01
RMM:  12    -0.297502328445E+03    0.44567E-04   -0.33839E-05 17774   0.182E-02    0.370E-02
RMM:  13    -0.297502324670E+03    0.37744E-05   -0.79252E-06 12875   0.900E-03
   4 F= -.29750232E+03 E0= -.29749896E+03  d E =-.691428E-01  mag=    55.7166
       N       E                     dE             d eps       ncg     rms          rms(c)
DAV:   1    -0.297465864066E+03    0.36464E-01   -0.17285E+01 24228   0.717E+00    0.195E+00
RMM:   2    -0.297603307275E+03   -0.13744E+00   -0.28455E-01 23940   0.191E+00    0.487E+00
RMM:   3    -0.297538005337E+03    0.65302E-01   -0.86625E-02 23940   0.879E-01    0.241E+00
RMM:   4    -0.297540657522E+03   -0.26522E-02   -0.26902E-02 23940   0.491E-01    0.217E+00
RMM:   5    -0.297523369764E+03    0.17288E-01   -0.10300E-02 23940   0.314E-01    0.561E-01
RMM:   6    -0.297522651964E+03    0.71780E-03   -0.18490E-03 23940   0.125E-01    0.409E-01
RMM:   7    -0.297522040507E+03    0.61146E-03   -0.13477E-03 23940   0.103E-01    0.404E-01
RMM:   8    -0.297521475100E+03    0.56541E-03   -0.12890E-03 23940   0.103E-01    0.252E-01
RMM:   9    -0.297521759329E+03   -0.28423E-03   -0.75156E-04 23940   0.766E-02    0.367E-01
RMM:  10    -0.297521235982E+03    0.52335E-03   -0.35257E-04 23940   0.560E-02    0.867E-02
RMM:  11    -0.297521238454E+03   -0.24723E-05   -0.69764E-05 22396   0.237E-02
   5 F= -.29752124E+03 E0= -.29751821E+03  d E =-.880565E-01  mag=    55.7670
       N       E                     dE             d eps       ncg     rms          rms(c)
DAV:   1    -0.297521509264E+03   -0.27328E-03   -0.44864E+00 24606   0.365E+00    0.810E-01
RMM:   2    -0.297536093936E+03   -0.14585E-01   -0.56550E-02 23940   0.852E-01    0.114E+00
RMM:   3    -0.297538779756E+03   -0.26858E-02   -0.17894E-02 23940   0.392E-01    0.131E+00
RMM:   4    -0.297534767875E+03    0.40119E-02   -0.53840E-03 23940   0.223E-01    0.748E-01
RMM:   5    -0.297532700381E+03    0.20675E-02   -0.12874E-03 23940   0.109E-01    0.182E-01
RMM:   6    -0.297532720235E+03   -0.19854E-04   -0.29181E-04 23940   0.499E-02    0.235E-01
RMM:   7    -0.297532545676E+03    0.17456E-03   -0.30472E-04 23940   0.470E-02    0.215E-01
RMM:   8    -0.297532372463E+03    0.17321E-03   -0.27189E-04 23940   0.470E-02    0.989E-02
RMM:   9    -0.297532436652E+03   -0.64189E-04   -0.14614E-04 23935   0.340E-02    0.156E-01
RMM:  10    -0.297532339130E+03    0.97522E-04   -0.71654E-05 22514   0.255E-02    0.369E-02
RMM:  11    -0.297532337071E+03    0.20588E-05   -0.83994E-06 12994   0.879E-03
   6 F= -.29753234E+03 E0= -.29752940E+03  d E =-.110986E-01  mag=    55.7611
       N       E                     dE             d eps       ncg     rms          rms(c)
DAV:   1    -0.297524061515E+03    0.82776E-02   -0.48255E+00 24309   0.379E+00    0.839E-01
RMM:   2    -0.297539134503E+03   -0.15073E-01   -0.60520E-02 23940   0.882E-01    0.110E+00
RMM:   3    -0.297542312027E+03   -0.31775E-02   -0.18321E-02 23940   0.398E-01    0.128E+00
RMM:   4    -0.297537792916E+03    0.45191E-02   -0.51520E-03 23940   0.220E-01    0.676E-01
RMM:   5    -0.297536072151E+03    0.17208E-02   -0.11085E-03 23940   0.101E-01    0.175E-01
RMM:   6    -0.297536147016E+03   -0.74864E-04   -0.35076E-04 23940   0.547E-02    0.269E-01
RMM:   7    -0.297535870759E+03    0.27626E-03   -0.33077E-04 23940   0.489E-02    0.198E-01
RMM:   8    -0.297535756198E+03    0.11456E-03   -0.27228E-04 23940   0.470E-02    0.123E-01
RMM:   9    -0.297535796661E+03   -0.40463E-04   -0.14513E-04 23929   0.341E-02    0.153E-01
RMM:  10    -0.297535703302E+03    0.93359E-04   -0.69335E-05 22389   0.251E-02    0.370E-02
RMM:  11    -0.297535701744E+03    0.15582E-05   -0.86513E-06 12991   0.894E-03
   7 F= -.29753570E+03 E0= -.29753287E+03  d E =-.144633E-01  mag=    55.7550
       N       E                     dE             d eps       ncg     rms          rms(c)
DAV:   1    -0.297533077284E+03    0.26260E-02   -0.31632E+00 24408   0.307E+00    0.670E-01
RMM:   2    -0.297541940203E+03   -0.88629E-02   -0.35881E-02 23940   0.670E-01    0.821E-01
RMM:   3    -0.297545944153E+03   -0.40040E-02   -0.11310E-02 23940   0.311E-01    0.120E+00
RMM:   4    -0.297541943872E+03    0.40003E-02   -0.34456E-03 23940   0.180E-01    0.579E-01
RMM:   5    -0.297540702884E+03    0.12410E-02   -0.81774E-04 23940   0.852E-02    0.122E-01
RMM:   6    -0.297540736223E+03   -0.33338E-04   -0.21513E-04 23940   0.426E-02    0.201E-01
RMM:   7    -0.297540528823E+03    0.20740E-03   -0.27357E-04 23940   0.433E-02    0.136E-01
RMM:   8    -0.297540493923E+03    0.34900E-04   -0.16653E-04 23940   0.363E-02    0.103E-01
RMM:   9    -0.297540499858E+03   -0.59349E-05   -0.72221E-05 22584   0.244E-02
   8 F= -.29754050E+03 E0= -.29753768E+03  d E =-.479811E-02  mag=    55.7607
       N       E                     dE             d eps       ncg     rms          rms(c)
DAV:   1    -0.297535061265E+03    0.54327E-02   -0.28961E+00 24300   0.294E+00    0.643E-01
RMM:   2    -0.297543303858E+03   -0.82426E-02   -0.33003E-02 23940   0.642E-01    0.814E-01
RMM:   3    -0.297547020927E+03   -0.37171E-02   -0.10504E-02 23940   0.299E-01    0.119E+00
RMM:   4    -0.297543384676E+03    0.36363E-02   -0.32528E-03 23940   0.175E-01    0.596E-01
RMM:   5    -0.297542065382E+03    0.13193E-02   -0.87775E-04 23940   0.882E-02    0.117E-01
RMM:   6    -0.297542084494E+03   -0.19112E-04   -0.20437E-04 23940   0.419E-02    0.183E-01
RMM:   7    -0.297541907699E+03    0.17680E-03   -0.23935E-04 23940   0.405E-02    0.132E-01
RMM:   8    -0.297541884560E+03    0.23139E-04   -0.13449E-04 23937   0.327E-02    0.113E-01
RMM:   9    -0.297541901851E+03   -0.17292E-04   -0.75860E-05 22885   0.249E-02    0.127E-01
RMM:  10    -0.297541843028E+03    0.58824E-04   -0.39996E-05 19481   0.198E-02    0.262E-02
RMM:  11    -0.297541842176E+03    0.85160E-06   -0.55417E-06 12636   0.712E-03
   9 F= -.29754184E+03 E0= -.29753904E+03  d E =-.614043E-02  mag=    55.7656
       N       E                     dE             d eps       ncg     rms          rms(c)
DAV:   1    -0.297541357736E+03    0.48529E-03   -0.90578E-01 24525   0.164E+00    0.329E-01
RMM:   2    -0.297545116508E+03   -0.37588E-02   -0.11248E-02 23940   0.381E-01    0.751E-01
RMM:   3    -0.297543786218E+03    0.13303E-02   -0.27498E-03 23940   0.155E-01    0.433E-01
RMM:   4    -0.297543750060E+03    0.36158E-04   -0.78829E-04 23940   0.838E-02    0.358E-01
RMM:   5    -0.297543260368E+03    0.48969E-03   -0.28882E-04 23940   0.524E-02    0.979E-02
RMM:   6    -0.297543239244E+03    0.21124E-04   -0.59964E-05 22173   0.226E-02    0.816E-02
RMM:   7    -0.297543217531E+03    0.21713E-04   -0.77279E-05 23940   0.232E-02    0.968E-02
RMM:   8    -0.297543180067E+03    0.37464E-04   -0.56572E-05 21768   0.214E-02    0.405E-02
RMM:   9    -0.297543196263E+03   -0.16196E-04   -0.24632E-05 15110   0.151E-02    0.757E-02
RMM:  10    -0.297543176195E+03    0.20068E-04   -0.14469E-05 13191   0.134E-02    0.216E-02
RMM:  11    -0.297543174799E+03    0.13963E-05   -0.22865E-06 12287   0.453E-03
  10 F= -.29754317E+03 E0= -.29754040E+03  d E =-.133262E-02  mag=    55.7728
       N       E                     dE             d eps       ncg     rms          rms(c)
DAV:   1    -0.297542800529E+03    0.37567E-03   -0.27797E-01 24606   0.910E-01    0.183E-01
RMM:   2    -0.297544012693E+03   -0.12122E-02   -0.34780E-03 23940   0.212E-01    0.433E-01
RMM:   3    -0.297543536932E+03    0.47576E-03   -0.86193E-04 23940   0.867E-02    0.236E-01
RMM:   4    -0.297543544572E+03   -0.76400E-05   -0.24984E-04 23938   0.472E-02    0.204E-01
RMM:   5    -0.297543385645E+03    0.15893E-03   -0.91769E-05 23398   0.296E-02    0.555E-02
RMM:   6    -0.297543378220E+03    0.74252E-05   -0.17385E-05 14125   0.128E-02
  11 F= -.29754338E+03 E0= -.29754062E+03  d E =-.153604E-02  mag=    55.7763
       N       E                     dE             d eps       ncg     rms          rms(c)
DAV:   1    -0.297542878867E+03    0.50678E-03   -0.30887E-01 24327   0.959E-01    0.230E-01
RMM:   2    -0.297544402708E+03   -0.15238E-02   -0.42103E-03 23940   0.229E-01    0.444E-01
RMM:   3    -0.297543996526E+03    0.40618E-03   -0.13656E-03 23940   0.110E-01    0.315E-01
RMM:   4    -0.297543980710E+03    0.15815E-04   -0.42841E-04 23940   0.624E-02    0.281E-01
RMM:   5    -0.297543694111E+03    0.28660E-03   -0.16802E-04 23918   0.400E-02    0.724E-02
RMM:   6    -0.297543677961E+03    0.16150E-04   -0.23986E-05 15799   0.150E-02    0.457E-02
RMM:   7    -0.297543680416E+03   -0.24551E-05   -0.29428E-05 16244   0.157E-02
  12 F= -.29754368E+03 E0= -.29754089E+03  d E =-.302196E-03  mag=    55.7755
