SQS-NiFe                                
           1
     7.090000   -7.090000    0.000000
     0.000000    7.090000   -7.090000
     3.545000    3.545000    3.545000
   Ni   Fe
  36  12
Direct configuration=     1
   0.00154238  0.00121457  0.99586899
   0.25105345  0.00046715  0.99573489
   0.50013181  0.00048765  0.99871214
   0.74848309  0.99967751  0.00243388
   0.00154208  0.25306893  0.99830529
   0.25231784  0.25369724  0.99760147
   0.08588714  0.16656564  0.33566154
   0.50030740  0.25210574  0.99684923
   0.33285535  0.16763867  0.33509667
   0.75212962  0.25401501  0.99770808
   0.58426838  0.16688251  0.33598700
   0.83289386  0.16792445  0.33561846
   0.66602764  0.08589627  0.66499652
   0.91797967  0.08601607  0.66759481
   0.99959156  0.49907843  0.00167863
   0.08633203  0.41708884  0.33320041
   0.16814418  0.33193052  0.66571016
   0.74796188  0.49878107  0.99964948
   0.58215052  0.41750346  0.33354045
   0.00024847  0.75072196  0.00074836
   0.24837557  0.74564896  0.99764921
   0.08138035  0.66330979  0.33797789
   0.49898702  0.74857436  0.00324113
   0.33282726  0.66408007  0.33457597
   0.74647023  0.74489720  0.99540808
   0.58218724  0.66505045  0.33476501
   0.41491271  0.57995795  0.66711520
   0.83254622  0.66381832  0.33589925
   0.91423981  0.58164461  0.67025311
   0.08393215  0.91748505  0.33572681
   0.33674533  0.91826817  0.33439401
   0.16889972  0.83409437  0.66658090
   0.41654742  0.83414295  0.66366038
   0.83126879  0.91619555  0.33072641
   0.66648523  0.83342278  0.66447894
   0.91636158  0.83423022  0.66570951
   0.17518093  0.08530499  0.66657291
   0.41611310  0.09293001  0.66782906
   0.25398673  0.50198471  0.99453520
   0.49178823  0.49703397  0.99380660
   0.33604224  0.41590436  0.33071015
   0.42074317  0.33372011  0.66641002
   0.83189367  0.41320633  0.34959528
   0.66421362  0.33685100  0.65974737
   0.92023006  0.34275755  0.66101145
   0.16161655  0.57388166  0.67307224
   0.66029680  0.57416808  0.67107127
   0.58387990  0.91667475  0.33478018
Direct configuration=     2
   0.00107285  0.00104489  0.99753930
   0.25081676  0.00001854  0.99846959
   0.49990877  0.00044331  0.99855769
   0.74910920  0.00000125  0.00065067
   0.00057997  0.25183165  0.99818706
   0.25017921  0.25092549  0.99809052
   0.08457558  0.16597918  0.33443694
   0.50080811  0.25125416  0.99884314
   0.33356565  0.16712665  0.33239856
   0.75164805  0.25319702  0.99799672
   0.58302932  0.16681055  0.33392102
   0.83433707  0.16772441  0.33443475
   0.66614043  0.08577253  0.66626724
   0.91803115  0.08569083  0.66649312
   0.99972234  0.49969368  0.00324523
   0.08551663  0.41611064  0.33268698
   0.16798284  0.33168205  0.66511819
   0.74834890  0.49904507  0.00114725
   0.58271535  0.41726349  0.33088648
   0.00024088  0.75082934  0.00098244
   0.24851538  0.74678245  0.99914224
   0.08263603  0.66465721  0.33779330
   0.49978234  0.74990521  0.00126406
   0.33253257  0.66502302  0.33470730
   0.74729348  0.74604817  0.99741707
   0.58297297  0.66527996  0.33369805
   0.41543054  0.58164001  0.66381876
   0.83255603  0.66476967  0.33579438
   0.91577238  0.58462767  0.67006727
   0.08355202  0.91662709  0.33471248
   0.33567153  0.91759651  0.33415434
   0.16819710  0.83348813  0.66623947
   0.41659721  0.83388740  0.66560552
   0.83211911  0.91643711  0.33199324
   0.66639011  0.83330582  0.66601471
   0.91623873  0.83380377  0.66584977
   0.16847360  0.08344065  0.66551467
   0.41803334  0.08672475  0.66655097
   0.25029223  0.50063827  0.99859412
   0.49835675  0.49974307  0.99874862
   0.33415733  0.41664312  0.33304197
   0.41693337  0.33335988  0.66571325
   0.83258079  0.41559068  0.33912347
   0.66555786  0.33378749  0.66693360
   0.91734802  0.33494644  0.66724123
   0.16569674  0.58067462  0.66809368
   0.66450214  0.58164614  0.66715970
   0.58348125  0.91648097  0.33465987
Direct configuration=     3
   0.00075031  0.00092832  0.99868673
   0.25065416 -0.00028964  0.00034821
   0.49975555  0.00041284  0.99845158
   0.74953930  0.00022364 -0.00057431
  -0.00008097  0.25098170  0.99810585
   0.24871006  0.24902142  0.99842647
   0.08367461  0.16557630  0.33359569
   0.50115208  0.25066915  0.00021287
   0.33405359  0.16677492  0.33054508
   0.75131724  0.25263510  0.99819501
   0.58217814  0.16676112  0.33250178
   0.83532848  0.16758699  0.33362159
   0.66621792  0.08568753  0.66714017
   0.91806651  0.08546741  0.66573632
   0.99981219  0.50011632  0.00432142
   0.08495648  0.41543866  0.33233427
   0.16787201  0.33151137  0.66471153
   0.74861477  0.49922642  0.00217614
   0.58310337  0.41709864  0.32906332
   0.00023567  0.75090310  0.00114325
   0.24861142  0.74756111  0.00016788
   0.08349862  0.66558282  0.33766650
   0.50032869  0.75081944 -0.00009410
   0.33233013  0.66567079  0.33479751
   0.74785901  0.74683883  0.99879716
   0.58351273  0.66543762  0.33296509
   0.41578627  0.58279551  0.66155424
   0.83256277  0.66542321  0.33572233
   0.91682519  0.58667690  0.66993960
   0.08329089  0.91603771  0.33401568
   0.33493388  0.91713512  0.33398970
   0.16771443  0.83307166  0.66600493
   0.41663141  0.83371185  0.66694175
   0.83270325  0.91660306  0.33286349
   0.66632477  0.83322548  0.66706972
   0.91615433  0.83351082  0.66594612
   0.16386596  0.08215993  0.66478771
   0.41935246  0.08246201  0.66567297
   0.24775428  0.49971332  0.00138242
   0.50286903  0.50160410  0.00214357
   0.33286247  0.41715062  0.33464383
   0.41431620  0.33311242  0.66523459
   0.83305281  0.41722863  0.33192980
   0.66648129  0.33168300  0.67187021
   0.91536818  0.32958055  0.67152081
   0.16849964  0.58534108  0.66467362
   0.66739103  0.58678325  0.66447263
   0.58320739  0.91634785  0.33457723
Direct configuration=     4
   0.00020102  0.00041767  0.99961393
   0.25033973 -0.00040374 -0.00039942
   0.49970425  0.00008134  0.99911412
   0.74975133  0.00009226 -0.00086407
  -0.00065181  0.24998633  0.99864592
   0.24893519  0.24907260  0.99879811
   0.08337763  0.16527083  0.33296907
   0.50045393  0.24987959 -0.00082281
   0.33380932  0.16665096  0.33165690
   0.75107181  0.25166314  0.00013250
   0.58249424  0.16713454  0.33311330
   0.83531554  0.16749120  0.33370195
   0.66641628  0.08468013  0.66647999
   0.91742481  0.08412525  0.66507455
   0.00039149  0.50059612  0.00229109
   0.08327392  0.41500531  0.33446445
   0.16715590  0.33263752  0.66538787
   0.74953047  0.50014738  0.00037465
   0.58303081  0.41623229  0.33229039
   0.00029541  0.75107795  0.00096059
   0.24865855  0.74817192  0.00025951
   0.08365196  0.66627227  0.33690476
   0.50001004  0.75046000 -0.00098345
   0.33282098  0.66665128  0.33374339
   0.74925197  0.74852607  0.99983991
   0.58356747  0.66611773  0.33227736
   0.41611361  0.58304070  0.66263475
   0.83314652  0.66622573  0.33525055
   0.91668606  0.58526670  0.66879976
   0.08313838  0.91577396  0.33374357
   0.33459968  0.91682575  0.33402376
   0.16757981  0.83417829  0.66657018
   0.41701051  0.83334377  0.66780861
   0.83268102  0.91676240  0.33390511
   0.66641318  0.83377311  0.66746182
   0.91652642  0.83380448  0.66671725
   0.16238552  0.08106637  0.66405459
   0.41785070  0.08026338  0.66486702
   0.24775665  0.49921594  0.00083332
   0.50391923  0.50208549  0.00190314
   0.33217068  0.41712261  0.33407350
   0.41529762  0.33251115  0.66622200
   0.83343558  0.41775201  0.33126371
   0.66710244  0.33299401  0.67266610
   0.91546432  0.32863836  0.67231984
   0.16887246  0.58676087  0.66281742
   0.66820792  0.58806970  0.66239503
   0.58335947  0.91648727  0.33464440
Direct configuration=     5
  -0.00027040 -0.00002059  0.00040969
   0.25006987 -0.00050167 -0.00104105
   0.49966024 -0.00020316  0.99968273
   0.74993329 -0.00002050 -0.00111275
  -0.00114171  0.24913208  0.99910942
   0.24912839  0.24911653  0.99911706
   0.08312275  0.16500867  0.33243128
   0.49985475  0.24920197 -0.00171165
   0.33359968  0.16654457  0.33261110
   0.75086118  0.25082897  0.00179530
   0.58276552  0.16745503  0.33363812
   0.83530444  0.16740900  0.33377091
   0.66658652  0.08381556  0.66591341
   0.91687408  0.08297338  0.66450660
   0.00088867  0.50100789  0.00054861
   0.08182991  0.41463340  0.33629262
   0.16654131  0.33360401  0.66596832
   0.75031635  0.50093777 -0.00117144
   0.58296854  0.41548876  0.33505993
   0.00034668  0.75122800  0.00080383
   0.24869900  0.74869612  0.00033815
   0.08378356  0.66686396  0.33625101
   0.49973658  0.75015152 -0.00174671
   0.33324225  0.66749276  0.33283871
   0.75044744  0.74997410  0.00073483
   0.58361445  0.66670142  0.33168714
   0.41639454  0.58325113  0.66356206
   0.83364750  0.66691448  0.33484565
   0.91656666  0.58405643  0.66782151
   0.08300750  0.91554761  0.33351004
   0.33431286  0.91656024  0.33405299
   0.16746428  0.83512804  0.66705530
   0.41733586  0.83302789  0.66855258
   0.83266194  0.91689915  0.33479906
   0.66648905  0.83424310  0.66779833
   0.91684575  0.83405651  0.66737905
   0.16111497  0.08012784  0.66342541
   0.41656186  0.07837647  0.66417533
   0.24775869  0.49878907  0.00036208
   0.50482053  0.50249863  0.00169680
   0.33157696  0.41709858  0.33358402
   0.41613990  0.33199512  0.66706942
   0.83376408  0.41820119  0.33069206
   0.66763551  0.33411915  0.67334914
   0.91554683  0.32782975  0.67300559
   0.16919242  0.58797938  0.66122438
   0.66890899  0.58917378  0.66061199
   0.58348999  0.91660692  0.33470205
Direct configuration=     6
  -0.00001565  0.00011682  0.00068500
   0.24994684 -0.00017217 -0.00129129
   0.49977248 -0.00027974  0.00007931
   0.74966882 -0.00025501 -0.00056504
  -0.00115190  0.24886272  0.99970463
   0.24939534  0.24931309  0.99877679
   0.08326315  0.16530767  0.33282432
   0.49988199  0.24900200 -0.00130621
   0.33329892  0.16651179  0.33329939
   0.75061767  0.25055796  0.00221116
   0.58284002  0.16750954  0.33487970
   0.83487359  0.16712123  0.33431223
   0.66640911  0.08402751  0.66608786
   0.91688340  0.08264161  0.66461564
   0.00138253  0.50089005 -0.00073344
   0.08143672  0.41519891  0.33636833
   0.16659783  0.33375049  0.66648201
   0.75045766  0.50134423 -0.00148376
   0.58311204  0.41565285  0.33525344
   0.00044937  0.75107280  0.00003965
   0.24867253  0.74869453 -0.00038017
   0.08369231  0.66713684  0.33535010
   0.49967400  0.74976996 -0.00178610
   0.33326432  0.66738591  0.33201563
   0.75075258  0.75044345  0.00067125
   0.58327529  0.66668473  0.33119317
   0.41649035  0.58273530  0.66369943
   0.83376844  0.66702239  0.33425831
   0.91678796  0.58362918  0.66650010
   0.08304526  0.91575127  0.33333656
   0.33443388  0.91671617  0.33400824
   0.16700117  0.83507662  0.66697873
   0.41726876  0.83273420  0.66848570
   0.83244392  0.91694485  0.33543841
   0.66648498  0.83404077  0.66790201
   0.91676313  0.83351142  0.66780981
   0.16147650  0.08105040  0.66352233
   0.41660897  0.07850241  0.66421071
   0.24780484  0.49880798 -0.00011912
   0.50537384  0.50258372  0.00151983
   0.33154811  0.41712379  0.33397715
   0.41597606  0.33157372  0.66754658
   0.83376208  0.41824420  0.33112472
   0.66763394  0.33348092  0.67357801
   0.91520181  0.32780086  0.67317871
   0.16913333  0.58813710  0.66079977
   0.66897436  0.58949508  0.66043254
   0.58356735  0.91674788  0.33450790
Direct configuration=     7
   0.00024857  0.00025933  0.00097054
   0.24981924  0.00016958 -0.00155083
   0.49988889 -0.00035917  0.00049061
   0.74939452 -0.00049823  0.00000302
  -0.00116247  0.24858336  0.00032195
   0.24967221  0.24951696  0.99842387
   0.08340876  0.16561779  0.33323196
   0.49991023  0.24879460 -0.00088571
   0.33298699  0.16647779  0.33401325
   0.75036512  0.25027689  0.00264248
   0.58291730  0.16756607  0.33616743
   0.83442673  0.16682276  0.33487367
   0.66622512  0.08424734  0.66626879
   0.91689305  0.08229751  0.66472874
   0.00189474  0.50076783 -0.00206314
   0.08102893  0.41578543  0.33644686
   0.16665645  0.33390240  0.66701480
   0.75060422  0.50176579 -0.00180768
   0.58326088  0.41582303  0.33545413
   0.00055588  0.75091183 -0.00075293
   0.24864507  0.74869287 -0.00112518
   0.08359767  0.66741986  0.33441571
   0.49960910  0.74937422 -0.00182695
   0.33328721  0.66727508  0.33116196
   0.75106905  0.75093023  0.00060530
   0.58292353  0.66666742  0.33068085
   0.41658972  0.58220030  0.66384189
   0.83389387  0.66713432  0.33364914
   0.91701748  0.58318604  0.66512958
   0.08308442  0.91596251  0.33315663
   0.33455941  0.91687789  0.33396184
   0.16652086  0.83502330  0.66689932
   0.41719917  0.83242961  0.66841634
   0.83221779  0.91699225  0.33610153
   0.66648076  0.83383091  0.66800955
   0.91667745  0.83294607  0.66825657
   0.16185147  0.08200725  0.66362285
   0.41665782  0.07863304  0.66424740
   0.24785271  0.49882760 -0.00061820
   0.50594771  0.50267198  0.00133628
   0.33151818  0.41714993  0.33438488
   0.41580612  0.33113666  0.66804146
   0.83376000  0.41828882  0.33157347
   0.66763231  0.33281897  0.67381537
   0.91484397  0.32777090  0.67335826
   0.16907205  0.58830067  0.66035939
   0.66904216  0.58982832  0.66024643
   0.58364759  0.91689408  0.33430653
Direct configuration=     8
   0.00045004  0.00041918  0.00121637
   0.24991516  0.00035041 -0.00157346
   0.49972351 -0.00053539  0.00068050
   0.74928987 -0.00059287  0.00034753
  -0.00126211  0.24844006  0.00075977
   0.24997715  0.24990437  0.99893752
   0.08337634  0.16614904  0.33363430
   0.50019970  0.24877372  0.00023136
   0.33296047  0.16659897  0.33408759
   0.75042948  0.25039383  0.00330471
   0.58270424  0.16757819  0.33675708
   0.83431098  0.16677897  0.33560941
   0.66598352  0.08386723  0.66719304
   0.91681869  0.08229970  0.66545207
   0.00179972  0.50038690 -0.00268984
   0.08096249  0.41613671  0.33617210
   0.16636923  0.33395314  0.66701042
   0.75094939  0.50179197 -0.00218631
   0.58337621  0.41606414  0.33537504
   0.00069257  0.75075366 -0.00138416
   0.24882683  0.74889057 -0.00186372
   0.08373975  0.66780485  0.33318710
   0.49959116  0.74914906 -0.00211771
   0.33309371  0.66712167  0.33082188
   0.75123115  0.75116655  0.00055995
   0.58274945  0.66654951  0.33051322
   0.41659293  0.58189865  0.66345216
   0.83383908  0.66729051  0.33307004
   0.91694198  0.58303379  0.66407666
   0.08301132  0.91625278  0.33312603
   0.33453712  0.91695654  0.33384026
   0.16648965  0.83514986  0.66626418
   0.41712481  0.83225828  0.66796167
   0.83224191  0.91694479  0.33653964
   0.66630162  0.83371623  0.66805290
   0.91684609  0.83278841  0.66817030
   0.16192975  0.08229848  0.66386198
   0.41638814  0.07837883  0.66489839
   0.24803821  0.49884175 -0.00071544
   0.50616855  0.50254511  0.00147099
   0.33145108  0.41707901  0.33460895
   0.41613745  0.33127561  0.66824302
   0.83360940  0.41826749  0.33102381
   0.66748566  0.33271396  0.67438354
   0.91476688  0.32738241  0.67363644
   0.16928645  0.58844825  0.65952794
   0.66913603  0.58950887  0.65997461
   0.58341717  0.91677625  0.33449616
Direct configuration=     9
   0.00064285  0.00057215  0.00145163
   0.25000695  0.00052347 -0.00159511
   0.49956525 -0.00070402  0.00086223
   0.74918973 -0.00068344  0.00067722
  -0.00135747  0.24830292  0.00117876
   0.25026899  0.25027512  0.99942908
   0.08334532  0.16665744  0.33401934
   0.50047673  0.24875374  0.00130040
   0.33293509  0.16671494  0.33415873
   0.75049107  0.25050573  0.00393847
   0.58250034  0.16758978  0.33732137
   0.83420021  0.16673706  0.33631352
   0.66575230  0.08350347  0.66807754
   0.91674753  0.08230179  0.66614430
   0.00170878  0.50002234 -0.00328958
   0.08089892  0.41647287  0.33590915
   0.16609436  0.33400169  0.66700623
   0.75127972  0.50181704 -0.00254866
   0.58348658  0.41629489  0.33529936
   0.00082337  0.75060228 -0.00198825
   0.24900077  0.74907976 -0.00257050
   0.08387571  0.66817329  0.33201132
   0.49957400  0.74893359 -0.00239596
   0.33290853  0.66697487  0.33049643
   0.75138627  0.75139270  0.00051656
   0.58258286  0.66643667  0.33035280
   0.41659601  0.58160996  0.66307918
   0.83378664  0.66743998  0.33251583
   0.91686972  0.58288809  0.66306902
   0.08294137  0.91653058  0.33309674
   0.33451579  0.91703180  0.33372390
   0.16645979  0.83527098  0.66565636
   0.41705365  0.83209432  0.66752655
   0.83226500  0.91689937  0.33695891
   0.66613018  0.83360647  0.66809439
   0.91700748  0.83263754  0.66808774
   0.16200466  0.08257718  0.66409084
   0.41613006  0.07813555  0.66552139
   0.24821574  0.49885529 -0.00080850
   0.50637990  0.50242371  0.00159991
   0.33138687  0.41701115  0.33482338
   0.41645454  0.33140858  0.66843592
   0.83346528  0.41824708  0.33049779
   0.66734533  0.33261346  0.67492727
   0.91469311  0.32701063  0.67390266
   0.16949163  0.58858948  0.65873225
   0.66922587  0.58920315  0.65971448
   0.58319665  0.91666348  0.33467763
Direct configuration=    10
   0.00059966  0.00054651  0.00159778
   0.24999702  0.00037834 -0.00137103
   0.49952070 -0.00081959  0.00099391
   0.74927768 -0.00065782  0.00106569
  -0.00137649  0.24836323  0.00123811
   0.25024355  0.25032158  0.99978912
   0.08309258  0.16653850  0.33417089
   0.50057758  0.24886068  0.00143570
   0.33296442  0.16679302  0.33434653
   0.75051795  0.25026502  0.00415910
   0.58238479  0.16742325  0.33766766
   0.83416080  0.16675699  0.33671379
   0.66565209  0.08326099  0.66852214
   0.91655478  0.08208272  0.66661580
   0.00178382  0.50026115 -0.00342914
   0.08089902  0.41626834  0.33567899
   0.16609058  0.33404215  0.66702443
   0.75153401  0.50189032 -0.00273516
   0.58351272  0.41621554  0.33535791
   0.00093781  0.75081454 -0.00219262
   0.24902111  0.74894678 -0.00291568
   0.08384504  0.66817530  0.33171981
   0.49959640  0.74903079 -0.00264136
   0.33292549  0.66713182  0.33033129
   0.75132453  0.75113353  0.00026243
   0.58279486  0.66657039  0.33052649
   0.41661706  0.58182623  0.66293677
   0.83382506  0.66756502  0.33228482
   0.91694578  0.58298521  0.66288693
   0.08291332  0.91675583  0.33294854
   0.33434104  0.91702940  0.33363691
   0.16667446  0.83527399  0.66512209
   0.41703001  0.83210905  0.66728693
   0.83237289  0.91703745  0.33694713
   0.66617391  0.83343984  0.66802982
   0.91701834  0.83300165  0.66778364
   0.16176111  0.08225535  0.66422740
   0.41606973  0.07805244  0.66583519
   0.24826094  0.49894803 -0.00085937
   0.50643869  0.50249213  0.00157453
   0.33129309  0.41700030  0.33479271
   0.41653450  0.33145234  0.66852731
   0.83350029  0.41832318  0.33038784
   0.66728633  0.33254314  0.67498255
   0.91459415  0.32693563  0.67374134
   0.16935029  0.58854211  0.65850402
   0.66944298  0.58926109  0.65962823
   0.58312357  0.91657655  0.33486207
Direct configuration=    11
   0.00057572  0.00053230  0.00167877
   0.24999151  0.00029791 -0.00124687
   0.49949601 -0.00088363  0.00106689
   0.74932642 -0.00064363  0.00128095
  -0.00138703  0.24839665  0.00127100
   0.25022945  0.25034732  0.99998862
   0.08295253  0.16647259  0.33425487
   0.50063346  0.24891994  0.00151068
   0.33298067  0.16683628  0.33445060
   0.75053284  0.25013163  0.00428136
   0.58232076  0.16733097  0.33785955
   0.83413897  0.16676803  0.33693559
   0.66559656  0.08312662  0.66876851
   0.91644797  0.08196133  0.66687706
   0.00182541  0.50039348 -0.00350647
   0.08089907  0.41615501  0.33555145
   0.16608849  0.33406456  0.66703451
   0.75167491  0.50193093 -0.00283850
   0.58352720  0.41617157  0.33539036
   0.00100122  0.75093215 -0.00230586
   0.24903238  0.74887309 -0.00310694
   0.08382804  0.66817641  0.33155827
   0.49960882  0.74908464 -0.00277734
   0.33293489  0.66721879  0.33023978
   0.75129032  0.75098992  0.00012161
   0.58291233  0.66664449  0.33062273
   0.41662872  0.58194608  0.66285787
   0.83384635  0.66763431  0.33215681
   0.91698792  0.58303902  0.66278603
   0.08289777  0.91688065  0.33286641
   0.33424421  0.91702807  0.33358871
   0.16679341  0.83527565  0.66482604
   0.41701691  0.83211721  0.66715415
   0.83243267  0.91711396  0.33694060
   0.66619814  0.83334751  0.66799405
   0.91702436  0.83320341  0.66761513
   0.16162615  0.08207701  0.66430307
   0.41603629  0.07800640  0.66600908
   0.24828599  0.49899942 -0.00088755
   0.50647127  0.50253004  0.00156046
   0.33124113  0.41699429  0.33477572
   0.41657881  0.33147659  0.66857795
   0.83351969  0.41836535  0.33032692
   0.66725363  0.33250416  0.67501318
   0.91453931  0.32689407  0.67365195
   0.16927197  0.58851586  0.65837755
   0.66956329  0.58929319  0.65958044
   0.58308308  0.91652838  0.33496427
Direct configuration=    12
   0.00052915  0.00053012  0.00172073
   0.25001339  0.00028713 -0.00123979
   0.49948714 -0.00092013  0.00126392
   0.74930184 -0.00080687  0.00154605
  -0.00135956  0.24850661  0.00118895
   0.25012555  0.25021635  0.99995220
   0.08288236  0.16633207  0.33449007
   0.50064226  0.24891256  0.00149595
   0.33293879  0.16685755  0.33471695
   0.75052539  0.25006154  0.00434867
   0.58230650  0.16720136  0.33803282
   0.83403173  0.16672361  0.33716192
   0.66558135  0.08305528  0.66890668
   0.91639691  0.08203148  0.66706692
   0.00183375  0.50047506 -0.00360928
   0.08092228  0.41609737  0.33542622
   0.16611831  0.33395208  0.66715701
   0.75170250  0.50186896 -0.00285973
   0.58357301  0.41617229  0.33537684
   0.00109063  0.75115249 -0.00259299
   0.24902597  0.74885696 -0.00325337
   0.08375785  0.66810354  0.33145583
   0.49972492  0.74917262 -0.00273808
   0.33297404  0.66727679  0.33004326
   0.75128304  0.75093635 -0.00000376
   0.58298092  0.66668194  0.33046276
   0.41661008  0.58200171  0.66281339
   0.83395904  0.66770620  0.33208286
   0.91708260  0.58323878  0.66273597
   0.08291687  0.91685802  0.33279753
   0.33420554  0.91705372  0.33347287
   0.16670855  0.83524215  0.66470704
   0.41703531  0.83214858  0.66709882
   0.83233101  0.91715006  0.33676761
   0.66623909  0.83336959  0.66807273
   0.91705920  0.83319481  0.66745548
   0.16168539  0.08211531  0.66450213
   0.41607483  0.07807067  0.66611242
   0.24829879  0.49904588 -0.00103425
   0.50648054  0.50259484  0.00153479
   0.33134146  0.41714328  0.33483437
   0.41638363  0.33144341  0.66869827
   0.83354808  0.41838968  0.33038754
   0.66732406  0.33240595  0.67502351
   0.91446436  0.32695492  0.67367832
   0.16914153  0.58833391  0.65819269
   0.66961592  0.58928852  0.65951236
   0.58310412  0.91651489  0.33503679
