       N       E                     dE             d eps       ncg     rms          rms(c)
DAV:   1    -0.364915275155E+03   -0.36492E+03   -0.68495E-02  9420   0.254E+00    0.142E+00
RMM:   2    -0.365342382973E+03   -0.42711E+00   -0.21334E-01  9205   0.121E+00    0.177E+01
RMM:   3    -0.364670168981E+03    0.67221E+00   -0.68130E-02  9337   0.651E-01    0.455E+00
RMM:   4    -0.364672302102E+03   -0.21331E-02   -0.84965E-02  9193   0.702E-01    0.467E+00
RMM:   5    -0.364641553628E+03    0.30748E-01   -0.32439E-02  9141   0.446E-01    0.307E+00
RMM:   6    -0.364617901255E+03    0.23652E-01   -0.20874E-02  9137   0.369E-01    0.182E+00
RMM:   7    -0.364614828940E+03    0.30723E-02   -0.64889E-03  9208   0.199E-01    0.137E+00
RMM:   8    -0.364604831423E+03    0.99975E-02   -0.39510E-03  9281   0.152E-01    0.900E-01
RMM:   9    -0.364602733864E+03    0.20976E-02   -0.32442E-03  9203   0.142E-01    0.873E-01
RMM:  10    -0.364599910208E+03    0.28237E-02   -0.19174E-03  9185   0.107E-01    0.746E-01
RMM:  11    -0.364597360305E+03    0.25499E-02   -0.13318E-03  9216   0.917E-02    0.473E-01
RMM:  12    -0.364597178236E+03    0.18207E-03   -0.11367E-03  9067   0.806E-02    0.713E-01
RMM:  13    -0.364596187166E+03    0.99107E-03   -0.87591E-04  8875   0.735E-02    0.585E-01
RMM:  14    -0.364595630080E+03    0.55709E-03   -0.63421E-04  8973   0.635E-02    0.330E-01
RMM:  15    -0.364598530270E+03   -0.29002E-02   -0.67264E-04  9017   0.611E-02    0.444E-01
RMM:  16    -0.364601249272E+03   -0.27190E-02   -0.44688E-04  9048   0.523E-02    0.301E-01
RMM:  17    -0.364602440751E+03   -0.11915E-02   -0.17229E-04  8978   0.317E-02    0.274E-01
RMM:  18    -0.364608270859E+03   -0.58301E-02   -0.23890E-04  9051   0.348E-02    0.303E-01
RMM:  19    -0.364610880561E+03   -0.26097E-02   -0.18481E-04  9130   0.334E-02    0.189E-01
RMM:  20    -0.364613564760E+03   -0.26842E-02   -0.14902E-04  9169   0.279E-02    0.255E-01
RMM:  21    -0.364618573540E+03   -0.50088E-02   -0.20931E-04  9121   0.305E-02    0.193E-01
RMM:  22    -0.364620261598E+03   -0.16881E-02   -0.10416E-04  9203   0.241E-02    0.106E-01
RMM:  23    -0.364622745939E+03   -0.24843E-02   -0.85618E-05  9107   0.192E-02    0.190E-01
RMM:  24    -0.364624443011E+03   -0.16971E-02   -0.64847E-05  9161   0.183E-02    0.851E-02
RMM:  25    -0.364625904947E+03   -0.14619E-02   -0.56215E-05  9130   0.165E-02    0.111E-01
RMM:  26    -0.364627625277E+03   -0.17203E-02   -0.57364E-05  9020   0.149E-02    0.479E-02
RMM:  27    -0.364627850601E+03   -0.22532E-03   -0.13270E-05  9133   0.838E-03    0.470E-02
RMM:  28    -0.364628138984E+03   -0.28838E-03   -0.10936E-05  8867   0.685E-03    0.451E-02
RMM:  29    -0.364628189928E+03   -0.50944E-04   -0.51277E-06  8026   0.551E-03    0.194E-02
RMM:  30    -0.364628236643E+03   -0.46715E-04   -0.29691E-06  6479   0.393E-03    0.259E-02
RMM:  31    -0.364628277798E+03   -0.41155E-04   -0.28214E-06  6212   0.391E-03    0.134E-02
RMM:  32    -0.364628296797E+03   -0.19000E-04   -0.91988E-07  5749   0.231E-03    0.134E-02
RMM:  33    -0.364628346626E+03   -0.49829E-04   -0.10459E-06  5459   0.215E-03    0.139E-02
RMM:  34    -0.364628378469E+03   -0.31843E-04   -0.71640E-07  5237   0.201E-03    0.531E-03
RMM:  35    -0.364628406459E+03   -0.27990E-04   -0.35295E-07  5423   0.125E-03    0.862E-03
RMM:  36    -0.364628488621E+03   -0.82161E-04   -0.77090E-07  5304   0.134E-03    0.104E-02
RMM:  37    -0.364628518991E+03   -0.30371E-04   -0.23202E-07  5186   0.907E-04    0.103E-02
RMM:  38    -0.364628587823E+03   -0.68832E-04   -0.52767E-07  5407   0.977E-04    0.807E-03
RMM:  39    -0.364628633348E+03   -0.45525E-04   -0.35672E-07  5226   0.966E-04    0.360E-03
RMM:  40    -0.364628698042E+03   -0.64694E-04   -0.66451E-07  5472   0.964E-04    0.524E-03
RMM:  41    -0.364628734976E+03   -0.36934E-04   -0.39193E-07  5493   0.944E-04    0.285E-03
RMM:  42    -0.364628759913E+03   -0.24937E-04   -0.20945E-07  5427   0.682E-04    0.385E-03
RMM:  43    -0.364628794749E+03   -0.34837E-04   -0.39126E-07  5470   0.722E-04    0.301E-03
RMM:  44    -0.364628805363E+03   -0.10613E-04   -0.92109E-08  4421   0.458E-04    0.315E-03
RMM:  45    -0.364628818015E+03   -0.12652E-04   -0.12436E-07  4315   0.460E-04    0.218E-03
RMM:  46    -0.364628821499E+03   -0.34837E-05   -0.24234E-08  2762   0.322E-04    0.204E-03
RMM:  47    -0.364628826949E+03   -0.54503E-05   -0.67246E-08  2928   0.349E-04    0.158E-03
RMM:  48    -0.364628827406E+03   -0.45673E-06   -0.57834E-09  2055   0.284E-04
   1 F= -.38268842E+03 E0= -.38268842E+03  d E =0.000000E+00  mag=    41.1633
