 vasp.5.4.4.18Apr17-6-g9f103f2a35 (build Dec 15 2018 21:27:11) complex          
  
 executed on             LinuxIFC date 2022.03.01  01:23:57
 running on   72 total cores
 distrk:  each k-point on   72 cores,    1 groups
 distr:  one band on NCORES_PER_BAND=  24 cores,    3 groups


--------------------------------------------------------------------------------------------------------


 INCAR:
 POTCAR:    PAW_PBE Ni 02Aug2007                  
 POTCAR:    PAW_PBE O 08Apr2002                   

 ----------------------------------------------------------------------------- 
|                                                                             |
|           W    W    AA    RRRRR   N    N  II  N    N   GGGG   !!!           |
|           W    W   A  A   R    R  NN   N  II  NN   N  G    G  !!!           |
|           W    W  A    A  R    R  N N  N  II  N N  N  G       !!!           |
|           W WW W  AAAAAA  RRRRR   N  N N  II  N  N N  G  GGG   !            |
|           WW  WW  A    A  R   R   N   NN  II  N   NN  G    G                |
|           W    W  A    A  R    R  N    N  II  N    N   GGGG   !!!           |
|                                                                             |
|      For optimal performance we recommend to set                            |
|        NCORE= 4 - approx SQRT( number of cores)                             |
|      NCORE specifies how many cores store one orbital (NPAR=cpu/NCORE).     |
|      This setting can  greatly improve the performance of VASP for DFT.     |
|      The default,   NCORE=1            might be grossly inefficient         |
|      on modern multi-core architectures or massively parallel machines.     |
|      Do your own testing !!!!                                               |
|      Unfortunately you need to use the default for GW and RPA calculations. |
|      (for HF NCORE is supported but not extensively tested yet)             |
|                                                                             |
 ----------------------------------------------------------------------------- 

 POTCAR:    PAW_PBE Ni 02Aug2007                  
   VRHFIN =Ni:                                                                  
   LEXCH  = PE                                                                  
   EATOM  =  1077.6739 eV,   79.2068 Ry                                         
                                                                                
   TITEL  = PAW_PBE Ni 02Aug2007                                                
   LULTRA =        F    use ultrasoft PP ?                                      
   IUNSCR =        1    unscreen: 0-lin 1-nonlin 2-no                           
   RPACOR =    2.000    partial core radius                                     
   POMASS =   58.690; ZVAL   =   10.000    mass and valenz                      
   RCORE  =    2.300    outmost cutoff radius                                   
   RWIGS  =    2.430; RWIGS  =    1.286    wigner-seitz radius (au A)           
   ENMAX  =  269.532; ENMIN  =  202.149 eV                                      
   RCLOC  =    1.201    cutoff for local pot                                    
   LCOR   =        T    correct aug charges                                     
   LPAW   =        T    paw PP                                                  
   EAUG   =  544.565                                                            
   DEXC   =    0.000                                                            
   RMAX   =    2.357    core radius for proj-oper                               
   RAUG   =    1.300    factor for augmentation sphere                          
   RDEP   =    2.390    radius for radial grids                                 
   RDEPT  =    1.838    core radius for aug-charge                              
                                                                                
   Atomic configuration                                                         
    9 entries                                                                   
     n  l   j            E        occ.                                          
     1  0  0.50     -8206.4253   2.0000                                         
     2  0  0.50      -976.1748   2.0000                                         
     2  1  1.50      -839.0571   6.0000                                         
     3  0  0.50      -105.9991   2.0000                                         
     3  1  1.50       -66.4603   6.0000                                         
     3  2  2.50        -4.6458   9.0000                                         
     4  0  0.50        -4.4926   1.0000                                         
     4  1  1.50        -4.0817   0.0000                                         
     4  3  2.50        -1.3606   0.0000                                         
   Description                                                                  
     l       E           TYP  RCUT    TYP  RCUT                                 
     2     -4.6457903     23  2.300                                             
     2     -6.0063729     23  2.300                                             
     0     -4.4925590     23  2.300                                             
     0      5.0102601     23  2.300                                             
     1     -2.7211652     23  2.300                                             
     1     16.5183231     23  2.300                                             
  local pseudopotential read in
  partial core-charges read in
  partial kinetic energy density read in
  atomic valenz-charges read in
  non local Contribution for L=           2  read in
    real space projection operators read in
  non local Contribution for L=           2  read in
    real space projection operators read in
  non local Contribution for L=           0  read in
    real space projection operators read in
  non local Contribution for L=           0  read in
    real space projection operators read in
  non local Contribution for L=           1  read in
    real space projection operators read in
  non local Contribution for L=           1  read in
    real space projection operators read in
    PAW grid and wavefunctions read in
 
   number of l-projection  operators is LMAX  =           6
   number of lm-projection operators is LMMAX =          18
 
 POTCAR:    PAW_PBE O 08Apr2002                   
   VRHFIN =O: s2p4                                                              
   LEXCH  = PE                                                                  
   EATOM  =   432.3788 eV,   31.7789 Ry                                         
                                                                                
   TITEL  = PAW_PBE O 08Apr2002                                                 
   LULTRA =        F    use ultrasoft PP ?                                      
   IUNSCR =        1    unscreen: 0-lin 1-nonlin 2-no                           
   RPACOR =    1.200    partial core radius                                     
   POMASS =   16.000; ZVAL   =    6.000    mass and valenz                      
   RCORE  =    1.520    outmost cutoff radius                                   
   RWIGS  =    1.550; RWIGS  =    0.820    wigner-seitz radius (au A)           
   ENMAX  =  400.000; ENMIN  =  300.000 eV                                      
   ICORE  =        2    local potential                                         
   LCOR   =        T    correct aug charges                                     
   LPAW   =        T    paw PP                                                  
   EAUG   =  605.392                                                            
   DEXC   =    0.000                                                            
   RMAX   =    1.553    core radius for proj-oper                               
   RAUG   =    1.300    factor for augmentation sphere                          
   RDEP   =    1.550    radius for radial grids                                 
   RDEPT  =    1.329    core radius for aug-charge                              
                                                                                
   Atomic configuration                                                         
    4 entries                                                                   
     n  l   j            E        occ.                                          
     1  0  0.50      -514.6923   2.0000                                         
     2  0  0.50       -23.9615   2.0000                                         
     2  1  0.50        -9.0305   4.0000                                         
     3  2  1.50        -9.5241   0.0000                                         
   Description                                                                  
     l       E           TYP  RCUT    TYP  RCUT                                 
     0    -23.9615318     23  1.200                                             
     0     -9.5240782     23  1.200                                             
     1     -9.0304911     23  1.520                                             
     1      8.1634956     23  1.520                                             
     2     -9.5240782      7  1.500                                             
  local pseudopotential read in
  partial core-charges read in
  partial kinetic energy density read in
  kinetic energy density of atom read in
  atomic valenz-charges read in
  non local Contribution for L=           0  read in
    real space projection operators read in
  non local Contribution for L=           0  read in
    real space projection operators read in
  non local Contribution for L=           1  read in
    real space projection operators read in
  non local Contribution for L=           1  read in
    real space projection operators read in
    PAW grid and wavefunctions read in
 
   number of l-projection  operators is LMAX  =           4
   number of lm-projection operators is LMMAX =           8
 
 Optimization of the real space projectors (new method)

 maximal supplied QI-value         = 16.25
 optimisation between [QCUT,QGAM] = [ 11.54, 23.24] = [ 37.28,151.24] Ry 
 Optimized for a Real-space Cutoff    1.45 Angstroem

   l    n(q)    QCUT    max X(q) W(low)/X(q) W(high)/X(q)  e(spline) 
   2      9    11.539    60.317    0.19E-03    0.47E-04    0.16E-06
   2      9    11.539    55.921    0.19E-03    0.48E-04    0.16E-06
   0     10    11.539    51.690    0.80E-04    0.50E-04    0.24E-06
   0     10    11.539    30.015    0.73E-04    0.45E-04    0.22E-06
   1     10    11.539    18.849    0.87E-04    0.16E-03    0.71E-07
   1     10    11.539    14.624    0.73E-04    0.13E-03    0.64E-07
 Optimization of the real space projectors (new method)

 maximal supplied QI-value         = 24.76
 optimisation between [QCUT,QGAM] = [ 11.64, 23.27] = [ 37.91,151.63] Ry 
 Optimized for a Real-space Cutoff    1.14 Angstroem

   l    n(q)    QCUT    max X(q) W(low)/X(q) W(high)/X(q)  e(spline) 
   0      8    11.635    20.381    0.10E-03    0.33E-03    0.24E-06
   0      8    11.635    15.268    0.11E-03    0.35E-03    0.26E-06
   1      7    11.635     5.964    0.24E-03    0.31E-03    0.30E-06
   1      7    11.635     5.382    0.22E-03    0.25E-03    0.26E-06
  PAW_PBE Ni 02Aug2007                  :
 energy of atom  1       EATOM=-1077.6739
 kinetic energy error for atom=    0.0030 (will be added to EATOM!!)
  PAW_PBE O 08Apr2002                   :
 energy of atom  2       EATOM= -432.3788
 kinetic energy error for atom=    0.0208 (will be added to EATOM!!)
 
 
 POSCAR: POSCAR                                  
  positions in direct lattice
  velocities in cartesian coordinates
 exchange correlation table for  LEXCH =        8
   RHO(1)=    0.500       N(1)  =     2000
   RHO(2)=  100.500       N(2)  =     4000

 VTST: version 3.2, (02/03/18)

 CHAIN: initializing optimizer
 
 OPT: Using VASP Dynamics algorithm
 CHAIN: Read ICHAIN            0
 
 POSCAR: POSCAR                                  
  positions in direct lattice
  velocities in cartesian coordinates
 


--------------------------------------------------------------------------------------------------------


 ion  position               nearest neighbor table
   1  0.113  0.226  0.095-  15 2.49  19 2.49   3 2.49   5 2.49  13 2.49  17 2.49  21 2.49  49 2.49
                            61 2.49
   2  0.109  0.227  0.382-  65 1.82  14 2.40  18 2.43  20 2.45  62 2.48  22 2.51  24 2.51   4 2.51
                             6 2.53  50 2.56
   3  0.196  0.142  0.191-   4 2.44   8 2.45  24 2.45   5 2.49  49 2.49   1 2.49   7 2.49  15 2.49
                            19 2.49  23 2.49  51 2.49  63 2.49
   4  0.030  0.059  0.285-  62 2.43   3 2.44  15 2.44  63 2.44   8 2.49  24 2.49  52 2.50  20 2.50
                            64 2.50  16 2.50  50 2.51   2 2.51
   5  0.363  0.226  0.095-   3 2.49  23 2.49   7 2.49   9 2.49   1 2.49  21 2.49  25 2.49  49 2.49
                            53 2.49
   6  0.360  0.225  0.390-  69 1.82  65 1.85  10 2.52  50 2.53   2 2.53  22 2.53  26 2.53  54 2.53
                            28 2.60  24 2.61   8 2.62
   7  0.446  0.142  0.191-  12 2.45   8 2.46   9 2.49  53 2.49   5 2.49   3 2.49  11 2.49  27 2.49
                            51 2.49  23 2.49  55 2.49  28 2.50
   8  0.280  0.060  0.286-  54 2.41   3 2.45   7 2.46  51 2.46  24 2.47  28 2.48   4 2.49  12 2.50
                            52 2.50  56 2.50  50 2.51   6 2.62
   9  0.613  0.226  0.095-   7 2.49  27 2.49  11 2.49  13 2.49   5 2.49  25 2.49  29 2.49  53 2.49
                            57 2.49
  10  0.614  0.225  0.389-  69 1.82  68 1.85   6 2.52  26 2.52  54 2.53  30 2.53  58 2.53  14 2.53
                            28 2.59  32 2.61  12 2.61
  11  0.696  0.142  0.191-  16 2.44  12 2.45  32 2.45  13 2.49  57 2.49   9 2.49  15 2.49   7 2.49
                            27 2.49  55 2.49  31 2.49  59 2.49
  12  0.530  0.060  0.286-  54 2.42  11 2.45   7 2.45  55 2.46  32 2.47  28 2.49  16 2.49   8 2.50
                            60 2.50  56 2.50  58 2.51  10 2.61
  13  0.863  0.226  0.095-  11 2.49  31 2.49  15 2.49   9 2.49   1 2.49  29 2.49  17 2.49  57 2.49
                            61 2.49
  14  0.868  0.227  0.382-  68 1.82   2 2.40  18 2.43  20 2.45  62 2.48  30 2.50  32 2.51  16 2.51
                            10 2.53  58 2.56
  15  0.946  0.142  0.191-   4 2.44  16 2.44  20 2.47   1 2.49  61 2.49  13 2.49   3 2.49  11 2.49
                            31 2.49  59 2.49  19 2.49  63 2.49
  16  0.779  0.059  0.285-  62 2.42  11 2.44  15 2.44  59 2.44  32 2.49  12 2.49  60 2.50  20 2.50
                             4 2.50  64 2.50  58 2.51  14 2.51
  17  0.113  0.476  0.095-  31 2.49  35 2.49  19 2.49  21 2.49  29 2.49  13 2.49  33 2.49   1 2.49
                            37 2.49
  18  0.111  0.473  0.383-  67 1.84   2 2.43  14 2.43  20 2.47  22 2.48  30 2.48  36 2.53  40 2.53
                            34 2.54  38 2.54
  19  0.196  0.392  0.191-  40 2.44  24 2.46  20 2.47  21 2.49   1 2.49  17 2.49  31 2.49  23 2.49
                            15 2.49  35 2.49  39 2.49   3 2.49
  20  0.030  0.310  0.286-   2 2.45  14 2.45  31 2.47  18 2.47  19 2.47  15 2.47  36 2.49  40 2.49
                            16 2.50   4 2.50  24 2.50  32 2.50
  21  0.363  0.476  0.095-  19 2.49  39 2.49  23 2.49  25 2.49  17 2.49   5 2.49  37 2.49   1 2.49
                            41 2.49
  22  0.361  0.477  0.377-  40 2.41  44 2.42  24 2.42  18 2.48  38 2.48   2 2.51  42 2.51   6 2.53
                            26 2.53
  23  0.446  0.392  0.191-  24 2.46  44 2.46  25 2.49   5 2.49  21 2.49  27 2.49  19 2.49   3 2.49
                            39 2.49  43 2.49   7 2.49  28 2.49
  24  0.280  0.308  0.286-  22 2.42   3 2.45  23 2.46  19 2.46   8 2.47  28 2.48   4 2.49  20 2.50
                            44 2.50  40 2.50   2 2.51   6 2.61
  25  0.613  0.476  0.095-  23 2.49  43 2.49  27 2.49  29 2.49  21 2.49   9 2.49  41 2.49   5 2.49
                            45 2.49
  26  0.614  0.478  0.390-  69 1.82  66 1.85  10 2.52  46 2.53  42 2.53  22 2.53   6 2.53  30 2.53
                            28 2.60  44 2.61  48 2.62
  27  0.696  0.392  0.191-  32 2.45  48 2.46  29 2.49   9 2.49  25 2.49  23 2.49  31 2.49   7 2.49
                            43 2.49  47 2.49  11 2.49  28 2.50
  28  0.529  0.309  0.288-  44 2.48  24 2.48   8 2.48  48 2.48  12 2.49  32 2.49  23 2.49  27 2.50
                             7 2.50  10 2.59   6 2.60  26 2.60
  29  0.863  0.476  0.095-  27 2.49  47 2.49  31 2.49  25 2.49  17 2.49  13 2.49  33 2.49  45 2.49
                             9 2.49
  30  0.865  0.477  0.377-  36 2.41  48 2.41  32 2.42  34 2.48  18 2.48  14 2.50  46 2.51  10 2.53
                            26 2.53
  31  0.946  0.392  0.191-  36 2.44  32 2.46  20 2.47  17 2.49  13 2.49  29 2.49  27 2.49  19 2.49
                            15 2.49  35 2.49  11 2.49  47 2.49
  32  0.778  0.308  0.286-  30 2.42  11 2.45  27 2.45  31 2.46  12 2.47  28 2.49  16 2.49  48 2.50
                            20 2.50  36 2.50  14 2.51  10 2.61
  33  0.113  0.726  0.095-  47 2.49  51 2.49  35 2.49  37 2.49  45 2.49  29 2.49  49 2.49  17 2.49
                            53 2.49
  34  0.111  0.728  0.383-  67 1.84  46 2.43  50 2.43  52 2.47  54 2.47  30 2.48  56 2.53  36 2.53
                            18 2.54  38 2.54
  35  0.196  0.642  0.191-  40 2.44  36 2.44  56 2.44  37 2.49  17 2.49  33 2.49  47 2.49  39 2.49
                            31 2.49  51 2.49  55 2.49  19 2.49
  36  0.029  0.559  0.285-  30 2.41  47 2.44  35 2.44  31 2.44  20 2.49  52 2.49  40 2.49  56 2.49
                            32 2.50  48 2.50  18 2.53  34 2.53
  37  0.363  0.726  0.095-  35 2.49  55 2.49  39 2.49  41 2.49  33 2.49  21 2.49  53 2.49  17 2.49
                            57 2.49
  38  0.366  0.728  0.383-  67 1.84  42 2.43  58 2.43  60 2.47  22 2.48  54 2.48  56 2.53  40 2.53
                            34 2.54  18 2.54
  39  0.446  0.642  0.191-  40 2.44  44 2.46  60 2.47  41 2.49  21 2.49  37 2.49  35 2.49  43 2.49
                            23 2.49  55 2.49  59 2.49  19 2.49
  40  0.279  0.559  0.285-  22 2.41  35 2.44  39 2.44  19 2.44  20 2.49  60 2.49  36 2.49  56 2.49
                            44 2.50  24 2.50  18 2.53  38 2.53
  41  0.613  0.726  0.095-  39 2.49  59 2.49  43 2.49  45 2.49  37 2.49  25 2.49  57 2.49  21 2.49
                            61 2.49
  42  0.611  0.730  0.382-  66 1.82  58 2.40  38 2.43  60 2.45  62 2.48  22 2.51  44 2.51  64 2.51
                            26 2.53  46 2.56
  43  0.696  0.642  0.191-  64 2.44  48 2.45  44 2.45  45 2.49  25 2.49  41 2.49  39 2.49  47 2.49
                            27 2.49  59 2.49  63 2.49  23 2.49
  44  0.530  0.559  0.286-  22 2.42  43 2.45  23 2.46  39 2.46  48 2.47  28 2.48  64 2.49  60 2.50
                            24 2.50  40 2.50  42 2.51  26 2.61
  45  0.863  0.726  0.095-  43 2.49  63 2.49  47 2.49  41 2.49  33 2.49  29 2.49  49 2.49  61 2.49
                            25 2.49
  46  0.868  0.730  0.382-  66 1.82  50 2.40  34 2.43  52 2.45  62 2.48  30 2.51  48 2.51  64 2.51
                            26 2.53  42 2.56
  47  0.946  0.642  0.191-  36 2.44  48 2.46  52 2.47  33 2.49  29 2.49  45 2.49  43 2.49  35 2.49
                            31 2.49  51 2.49  27 2.49  63 2.49
  48  0.778  0.559  0.286-  30 2.41  43 2.45  27 2.46  47 2.46  44 2.47  28 2.48  64 2.49  32 2.50
                            52 2.50  36 2.50  46 2.51  26 2.62
  49  0.113  0.976  0.095-  63 2.49   3 2.49  51 2.49  61 2.49  53 2.49   1 2.49   5 2.49  33 2.49
                            45 2.49
  50  0.109  0.971  0.382-  65 1.82  46 2.40  34 2.43  52 2.45  62 2.48  54 2.51   8 2.51   4 2.51
                             6 2.53   2 2.56
  51  0.196  0.892  0.191-  56 2.44   8 2.46  52 2.47  53 2.49  33 2.49  49 2.49  55 2.49  63 2.49
                            35 2.49  47 2.49   3 2.49   7 2.49
  52  0.030  0.809  0.286-  46 2.45  50 2.45  34 2.47  51 2.47  47 2.47  63 2.47  56 2.49  36 2.49
                             4 2.50  64 2.50   8 2.50  48 2.50
  53  0.363  0.976  0.095-  51 2.49   7 2.49  55 2.49  49 2.49  57 2.49   5 2.49   9 2.49  33 2.49
                            37 2.49
  54  0.361  0.973  0.377-  56 2.41   8 2.41  12 2.42  34 2.47  38 2.48  58 2.50  50 2.51  10 2.53
                             6 2.53
  55  0.446  0.892  0.191-  56 2.44  12 2.46  60 2.47  57 2.49  37 2.49  53 2.49  59 2.49  51 2.49
                            11 2.49  39 2.49   7 2.49  35 2.49
  56  0.279  0.809  0.285-  54 2.41  51 2.44  55 2.44  35 2.44  60 2.49  52 2.49  36 2.49  40 2.49
                            12 2.50   8 2.50  38 2.53  34 2.53
  57  0.613  0.976  0.095-  55 2.49  11 2.49  59 2.49  53 2.49  61 2.49   9 2.49  13 2.49  37 2.49
                            41 2.49
  58  0.611  0.971  0.382-  68 1.82  42 2.40  38 2.43  60 2.45  62 2.48  54 2.50  12 2.51  16 2.51
                            10 2.53  14 2.56
  59  0.696  0.892  0.191-  64 2.44  16 2.44  60 2.47  61 2.49  41 2.49  57 2.49  63 2.49  55 2.49
                            15 2.49  43 2.49  11 2.49  39 2.49
  60  0.529  0.809  0.286-  42 2.45  58 2.45  55 2.47  38 2.47  39 2.47  59 2.47  56 2.49  40 2.49
                            16 2.50  64 2.50  44 2.50  12 2.50
  61  0.863  0.976  0.095-  59 2.49  15 2.49  63 2.49  49 2.49  57 2.49  13 2.49   1 2.49  41 2.49
                            45 2.49
  62  0.863  0.976  0.377-  16 2.42   4 2.43  64 2.43  42 2.48   2 2.48  46 2.48  58 2.48  14 2.48
                            50 2.48
  63  0.946  0.892  0.191-  64 2.44   4 2.44  52 2.47  49 2.49  45 2.49  61 2.49  51 2.49  59 2.49
                             3 2.49  47 2.49  15 2.49  43 2.49
  64  0.779  0.809  0.285-  62 2.43  43 2.44  59 2.44  63 2.44  48 2.49  44 2.49  52 2.50  60 2.50
                             4 2.50  16 2.50  46 2.51  42 2.51
  65  0.179  0.134  0.436-   2 1.82  50 1.82   6 1.85
  66  0.705  0.660  0.436-  42 1.82  46 1.82  26 1.85
  67  0.196  0.643  0.435-  18 1.84  34 1.84  38 1.84
  68  0.704  0.135  0.436-  14 1.82  58 1.82  10 1.85
  69  0.529  0.309  0.441-  26 1.82   6 1.82  10 1.82
 

IMPORTANT INFORMATION: All symmetrisations will be switched off!
NOSYMM: (Re-)initialisation of all symmetry stuff for point group C_1.

 
 

Automatic generation of k-mesh.
 generate k-points for:    3    3    1
Space group operators:
 irot       det(A)        alpha          n_x          n_y          n_z        tau_x        tau_y        tau_z
    1     1.000000     0.000000     1.000000     0.000000     0.000000     0.000000     0.000000     0.000000
 
 Subroutine IBZKPT returns following result:
 ===========================================
 
 Found      5 irreducible k-points:
 
 Following reciprocal coordinates:
            Coordinates               Weight
  0.000000  0.000000  0.000000      1.000000
  0.333333  0.000000  0.000000      2.000000
  0.000000  0.333333  0.000000      2.000000
  0.333333  0.333333  0.000000      2.000000
 -0.333333  0.333333  0.000000      2.000000
 
 Following cartesian coordinates:
            Coordinates               Weight
  0.000000  0.000000  0.000000      1.000000
  0.033442  0.019308  0.000000      2.000000
  0.000000  0.038616  0.000000      2.000000
  0.033442  0.057924  0.000000      2.000000
 -0.033442  0.019308  0.000000      2.000000
 
 TETIRR: Found     24 inequivalent tetrahedra from       54


--------------------------------------------------------------------------------------------------------




 Dimension of arrays:
   k-points           NKPTS =      5   k-points in BZ     NKDIM =      5   number of bands    NBANDS=    438
   number of dos      NEDOS =    301   number of ions     NIONS =     69
   non local maximal  LDIM  =      6   non local SUM 2l+1 LMDIM =     18
   total plane-waves  NPLWV = ******
   max r-space proj   IRMAX =   7188   max aug-charges    IRDMAX=  18478
   dimension x,y,z NGX =    80 NGY =   80 NGZ =  160
   dimension x,y,z NGXF=   160 NGYF=  160 NGZF=  320
   support grid    NGXF=   160 NGYF=  160 NGZF=  320
   ions per type =              64   5
   NGX,Y,Z   is equivalent  to a cutoff of  13.34, 13.34, 12.60 a.u.
   NGXF,Y,Z  is equivalent  to a cutoff of  26.69, 26.69, 25.21 a.u.

 SYSTEM =  SQS-NiFe                                
 POSCAR =  POSCAR                                  

 Startparameter for this run:
   NWRITE =      2    write-flag & timer
   PREC   = accura    normal or accurate (medium, high low for compatibility)
   ISTART =      1    job   : 0-new  1-cont  2-samecut
   ICHARG =      1    charge: 1-file 2-atom 10-const
   ISPIN  =      2    spin polarized calculation?
   LNONCOLLINEAR =      F non collinear calculations
   LSORBIT =      F    spin-orbit coupling
   INIWAV =      1    electr: 0-lowe 1-rand  2-diag
   LASPH  =      F    aspherical Exc in radial PAW
   METAGGA=      F    non-selfconsistent MetaGGA calc.

 Electronic Relaxation 1
   ENCUT  =  520.0 eV  38.22 Ry    6.18 a.u.  18.53 18.53 39.24*2*pi/ulx,y,z
   ENINI  =  520.0     initial cutoff
   ENAUG  =  605.4 eV  augmentation charge cutoff
   NELM   =    200;   NELMIN=  2; NELMDL=  0     # of ELM steps 
   EDIFF  = 0.1E-05   stopping-criterion for ELM
   LREAL  =      T    real-space projection
   NLSPLINE    = F    spline interpolate recip. space projectors
   LCOMPAT=      F    compatible to vasp.4.4
   GGA_COMPAT  = T    GGA compatible to vasp.4.4-vasp.4.6
   LMAXPAW     = -100 max onsite density
   LMAXMIX     =    2 max onsite mixed and CHGCAR
   VOSKOWN=      0    Vosko Wilk Nusair interpolation
   ROPT   =   -0.00025  -0.00025
 Ionic relaxation
   EDIFFG = -.2E-01   stopping-criterion for IOM
   NSW    =      0    number of steps for IOM
   NBLOCK =      1;   KBLOCK =      1    inner block; outer block 
   IBRION =     -1    ionic relax: 0-MD 1-quasi-New 2-CG
   NFREE  =      0    steps in history (QN), initial steepest desc. (CG)
   ISIF   =      2    stress and relaxation
   IWAVPR =     10    prediction:  0-non 1-charg 2-wave 3-comb
   ISYM   =      0    0-nonsym 1-usesym 2-fastsym
   LCORR  =      T    Harris-Foulkes like correction to forces

   POTIM  = 0.5000    time-step for ionic-motion
   TEIN   =    0.0    initial temperature
   TEBEG  =    0.0;   TEEND  =   0.0 temperature during run
   SMASS  =  -3.00    Nose mass-parameter (am)
   estimated Nose-frequenzy (Omega)   =  0.10E-29 period in steps =****** mass=  -0.227E-26a.u.
   SCALEE = 1.0000    scale energy and forces
   NPACO  =    256;   APACO  = 16.0  distance and # of slots for P.C.
   PSTRESS=    0.0 pullay stress

  Mass of Ions in am
   POMASS =  58.69 16.00
  Ionic Valenz
   ZVAL   =  10.00  6.00
  Atomic Wigner-Seitz radii
   RWIGS  =  -1.00 -1.00
  virtual crystal weights 
   VCA    =   1.00  1.00
   NELECT =     670.0000    total number of electrons
   NUPDOWN=      -1.0000    fix difference up-down

 DOS related values:
   EMIN   =  10.00;   EMAX   =-10.00  energy-range for DOS
   EFERMI =   0.00
   ISMEAR =    -5;   SIGMA  =   0.20  broadening in eV -4-tet -1-fermi 0-gaus

 Electronic relaxation 2 (details)
   IALGO  =     68    algorithm
   LDIAG  =      T    sub-space diagonalisation (order eigenvalues)
   LSUBROT=      F    optimize rotation matrix (better conditioning)
   TURBO    =      0    0=normal 1=particle mesh
   IRESTART =      0    0=no restart 2=restart with 2 vectors
   NREBOOT  =      0    no. of reboots
   NMIN     =      0    reboot dimension
   EREF     =   0.00    reference energy to select bands
   IMIX   =      4    mixing-type and parameters
     AMIX     =   0.40;   BMIX     =  1.00
     AMIX_MAG =   1.60;   BMIX_MAG =  1.00
     AMIN     =   0.10
     WC   =   100.;   INIMIX=   1;  MIXPRE=   1;  MAXMIX= -45

 Intra band minimization:
   WEIMIN = 0.0000     energy-eigenvalue tresh-hold
   EBREAK =  0.57E-09  absolut break condition
   DEPER  =   0.30     relativ break condition  

   TIME   =   0.40     timestep for ELM

  volume/ion in A,a.u.               =      26.31       177.58
  Fermi-wavevector in a.u.,A,eV,Ry     =   1.174219  2.218952 18.759571  1.378790
  Thomas-Fermi vector in A             =   2.310619
 
 Write flags
   LWAVE        =      T    write WAVECAR
   LDOWNSAMPLE  =      F    k-point downsampling of WAVECAR
   LCHARG       =      T    write CHGCAR
   LVTOT        =      F    write LOCPOT, total local potential
   LVHAR        =      F    write LOCPOT, Hartree potential only
   LELF         =      F    write electronic localiz. function (ELF)
   LORBIT       =     11    0 simple, 1 ext, 2 COOP (PROOUT), +10 PAW based schemes


 Dipole corrections
   LMONO  =      F    monopole corrections only (constant potential shift)
   LDIPOL =      T    correct potential (dipole corrections)
   IDIPOL =      3    1-x, 2-y, 3-z, 4-all directions 
   EPSILON=  1.0000000 bulk dielectric constant

 Exchange correlation treatment:
   GGA     =    --    GGA type
   LEXCH   =     8    internal setting for exchange type
   VOSKOWN=      0    Vosko Wilk Nusair interpolation
   LHFCALC =     F    Hartree Fock is set to
   LHFONE  =     F    Hartree Fock one center treatment
   AEXX    =    0.0000 exact exchange contribution

 Linear response parameters
   LEPSILON=     F    determine dielectric tensor
   LRPA    =     F    only Hartree local field effects (RPA)
   LNABLA  =     F    use nabla operator in PAW spheres
   LVEL    =     F    velocity operator in full k-point grid
   LINTERFAST=   F  fast interpolation
   KINTER  =     0    interpolate to denser k-point grid
   CSHIFT  =0.1000    complex shift for real part using Kramers Kronig
   OMEGAMAX=  -1.0    maximum frequency
   DEG_THRESHOLD= 0.2000000E-02 threshold for treating states as degnerate
   RTIME   =   -0.100 relaxation time in fs
  (WPLASMAI=    0.000 imaginary part of plasma frequency in eV, 0.658/RTIME)
   DFIELD  = 0.0000000 0.0000000 0.0000000 field for delta impulse in time
 
 Orbital magnetization related:
   ORBITALMAG=     F  switch on orbital magnetization
   LCHIMAG   =     F  perturbation theory with respect to B field
   DQ        =  0.001000  dq finite difference perturbation B field
   LLRAUG    =     F  two centre corrections for induced B field



--------------------------------------------------------------------------------------------------------


 Static calculation
 charge density and potential will be updated during run
 spin polarized calculation
 RMM-DIIS sequential band-by-band and
  variant of blocked Davidson during initial phase
 perform sub-space diagonalisation
    before iterative eigenvector-optimisation
 modified Broyden-mixing scheme, WC =      100.0
 initial mixing is a Kerker type mixing with AMIX =  0.4000 and BMIX =      1.0000
 Hartree-type preconditioning will be used
 using additional bands          103
 real space projection scheme for non local part
 use partial core corrections
 calculate Harris-corrections to forces 
   (improved forces if not selfconsistent)
 use gradient corrections 
 use of overlap-Matrix (Vanderbilt PP)
 Fermi weights with tetrahedron method with Bloechl corrections


--------------------------------------------------------------------------------------------------------


  energy-cutoff  :      520.00
  volume of cell :     1815.73
      direct lattice vectors                 reciprocal lattice vectors
     9.967380000  0.000000000  0.000000000     0.100327268  0.057923975  0.000000000
    -4.983690000  8.632004290  0.000000000     0.000000000  0.115847950  0.000000000
     0.000000000  0.000000000 21.103750000     0.000000000  0.000000000  0.047384943

  length of vectors
     9.967380000  9.967380001 21.103750000     0.115847950  0.115847950  0.047384943


 
 old parameters found on file WAVECAR:
  energy-cutoff  :      520.00
  volume of cell :     1815.73
      direct lattice vectors                 reciprocal lattice vectors
     9.967380000  0.000000000  0.000000000     0.100327268  0.057923975  0.000000000
    -4.983690000  8.632004290  0.000000000     0.000000000  0.115847950  0.000000000
     0.000000000  0.000000000 21.103750000     0.000000000  0.000000000  0.047384943

  length of vectors

 
 k-points in units of 2pi/SCALE and weight: read from INCAR                         
   0.00000000  0.00000000  0.00000000       0.111
   0.03344242  0.01930799  0.00000000       0.222
   0.00000000  0.03861598  0.00000000       0.222
   0.03344242  0.05792397  0.00000000       0.222
  -0.03344242  0.01930799  0.00000000       0.222
 
 k-points in reciprocal lattice and weights: read from INCAR                         
   0.00000000  0.00000000  0.00000000       0.111
   0.33333333  0.00000000  0.00000000       0.222
   0.00000000  0.33333333  0.00000000       0.222
   0.33333333  0.33333333  0.00000000       0.222
  -0.33333333  0.33333333  0.00000000       0.222
 
 position of ions in fractional coordinates (direct lattice) 
   0.11283300  0.22566700  0.09477000
   0.10876954  0.22728573  0.38182296
   0.19616700  0.14233300  0.19117800
   0.02976055  0.05927004  0.28454154
   0.36283300  0.22566700  0.09477000
   0.36032792  0.22480540  0.38977708
   0.44616700  0.14233300  0.19117800
   0.27967082  0.06040663  0.28558066
   0.61283300  0.22566700  0.09477000
   0.61354347  0.22502201  0.38946268
   0.69616700  0.14233300  0.19117800
   0.53038924  0.06040391  0.28554271
   0.86283300  0.22566700  0.09477000
   0.86776452  0.22740689  0.38179204
   0.94616700  0.14233300  0.19117800
   0.77922929  0.05930131  0.28453734
   0.11283300  0.47566700  0.09477000
   0.11101503  0.47254114  0.38250616
   0.19616700  0.39233300  0.19117800
   0.02966137  0.30964358  0.28634677
   0.36283300  0.47566700  0.09477000
   0.36135228  0.47721846  0.37679931
   0.44616700  0.39233300  0.19117800
   0.27964336  0.30809851  0.28560563
   0.61283300  0.47566700  0.09477000
   0.61380017  0.47830033  0.38975789
   0.69616700  0.39233300  0.19117800
   0.52936300  0.30917726  0.28777677
   0.86283300  0.47566700  0.09477000
   0.86534834  0.47727266  0.37675757
   0.94616700  0.39233300  0.19117800
   0.77813399  0.30814030  0.28554302
   0.11283300  0.72566700  0.09477000
   0.11103934  0.72754484  0.38251022
   0.19616700  0.64233300  0.19117800
   0.02944297  0.55910480  0.28456789
   0.36283300  0.72566700  0.09477000
   0.36604115  0.72756334  0.38250090
   0.44616700  0.64233300  0.19117800
   0.27943129  0.55910082  0.28457002
   0.61283300  0.72566700  0.09477000
   0.61129119  0.72980568  0.38182192
   0.69616700  0.64233300  0.19117800
   0.53042806  0.55888691  0.28560305
   0.86283300  0.72566700  0.09477000
   0.86791864  0.72968830  0.38179155
   0.94616700  0.64233300  0.19117800
   0.77813798  0.55886920  0.28557665
   0.11283300  0.97566700  0.09477000
   0.10891222  0.97068668  0.38180409
   0.19616700  0.89233300  0.19117800
   0.02971661  0.80883575  0.28634353
   0.36283300  0.97566700  0.09477000
   0.36130152  0.97323136  0.37676493
   0.44616700  0.89233300  0.19117800
   0.27943342  0.80909827  0.28456924
   0.61283300  0.97566700  0.09477000
   0.61116215  0.97081309  0.38179397
   0.69616700  0.89233300  0.19117800
   0.52888953  0.80887458  0.28634410
   0.86283300  0.97566700  0.09477000
   0.86262515  0.97593092  0.37700540
   0.94616700  0.89233300  0.19117800
   0.77925981  0.80876854  0.28453888
   0.17908154  0.13413383  0.43612285
   0.70450813  0.65954518  0.43611954
   0.19604270  0.64253823  0.43502719
   0.70404167  0.13455162  0.43598822
   0.52934333  0.30933411  0.44131133
 
 position of ions in cartesian coordinates  (Angst):
  -0.00000498  1.94795851  2.00000239
  -0.04857430  1.96193140  8.05789621
   1.24592748  1.22861907  4.03457272
   0.00125117  0.51161924  6.00489360
   2.49184002  1.94795851  2.00000239
   2.47116484  1.94052120  8.22575808
   3.73777248  1.22861907  4.03457272
   2.48653740  0.52143026  6.02682283
   4.98368502  1.94795851  2.00000239
   4.99398103  1.94239092  8.21912309
   6.22961748  1.22861907  4.03457272
   4.98555673  0.52140680  6.02602194
   7.47553002  1.94795851  2.00000239
   7.51601325  1.96297721  8.05724382
   8.72146248  1.22861907  4.03457272
   7.47133505  0.51188915  6.00480483
  -1.24592748  4.10595958  2.00000239
  -1.24846960  4.07897717  8.07231428
   0.00000498  3.38662014  4.03457272
  -1.24752144  2.67284473  6.04299066
   1.24591752  4.10595958  2.00000239
   1.22342659  4.11935183  7.95187839
   2.49184998  3.38662014  4.03457272
   1.25184411  2.65950769  6.02734978
   3.73776252  4.10595958  2.00000239
   3.73427901  4.12869049  8.22535307
   4.98369498  3.38662014  4.03457272
   3.73551854  2.66881946  6.07316895
   6.22960752  4.10595958  2.00000239
   6.24667675  4.11981965  7.95099747
   7.47553998  3.38662014  4.03457272
   6.22028145  2.65986842  6.02602841
  -2.49184998  6.26396066  2.00000239
  -2.51908669  6.28017018  8.07240015
  -1.24591752  5.54462121  4.03457272
  -2.49293575  4.82619507  6.00544968
  -0.00000498  6.26396066  2.00000239
   0.02252113  6.28032989  8.07220344
   1.24592748  5.54462121  4.03457272
  -0.00118729  4.82616064  6.00549451
   2.49184002  6.26396066  2.00000239
   2.45584628  6.29968575  8.05787432
   3.73777248  5.54462121  4.03457272
   2.50165894  4.82431420  6.02729532
   4.98368502  6.26396066  2.00000239
   5.01433462  6.29867250  8.05723338
   6.22961748  5.54462121  4.03457272
   4.97076616  4.82416130  6.02673815
  -3.73777248  8.42196173  2.00000239
  -3.75203200  8.37897163  8.05749815
  -2.49184002  7.70262228  4.03457272
  -3.73478990  6.98187363  6.04292228
  -1.24592748  8.42196173  2.00000239
  -1.24905381  8.40093724  7.95115290
   0.00000498  7.70262228  4.03457272
  -1.24707584  6.98413975  6.00547801
   1.24591752  8.42196173  2.00000239
   1.25345386  8.38006278  8.05728441
   2.49184998  7.70262228  4.03457272
   1.24046278  6.98220884  6.04293438
   3.73776252  8.42196173  2.00000239
   3.73437552  8.42423987  7.95622765
   4.98369498  7.70262228  4.03457272
   3.73652695  6.98129349  6.00483735
   1.11649236  1.15784379  9.20382766
   3.73513150  5.69319679  9.20375781
  -1.24817927  5.54639276  9.18070509
   6.34688730  1.16145016  9.20098634
   3.73454076  2.67017338  9.31332408
 


--------------------------------------------------------------------------------------------------------


 k-point  1 :   0.0000 0.0000 0.0000  plane waves:   48949
 k-point  2 :   0.3333 0.0000 0.0000  plane waves:   48884
 k-point  3 :   0.0000 0.3333 0.0000  plane waves:   48884
 k-point  4 :   0.3333 0.3333 0.0000  plane waves:   48804
 k-point  5 :  -0.3333 0.3333 0.0000  plane waves:   48884

 maximum and minimum number of plane-waves per node :      2058     2018

 maximum number of plane-waves:     48949
 maximum index in each direction: 
   IXMAX=   18   IYMAX=   18   IZMAX=   39
   IXMIN=  -18   IYMIN=  -18   IZMIN=  -39


 real space projection operators:
  total allocation   :      63297.98 KBytes
  max/ min on nodes  :       3213.55       2329.03


 parallel 3D FFT for wavefunctions:
    minimum data exchange during FFTs selected (reduces bandwidth)
 parallel 3D FFT for charge:
    minimum data exchange during FFTs selected (reduces bandwidth)


 total amount of memory used by VASP MPI-rank0   114634. kBytes
=======================================================================

   base      :      30000. kBytes
   nonlr-proj:      12348. kBytes
   fftplans  :       6402. kBytes
   grid      :      16455. kBytes
   one-center:         93. kBytes
   wavefun   :      49336. kBytes
 
     INWAV:  cpu time   11.4381: real time   11.9008
 Broyden mixing: mesh for mixing (old mesh)
   NGX = 37   NGY = 37   NGZ = 79
  (NGX  =160   NGY  =160   NGZ  =320)
  gives a total of 108151 points

 initial charge density was supplied:
 number of electron     670.0000048 magnetization      40.5567224
 keeping initial charge density in first step


--------------------------------------------------------------------------------------------------------


 Maximum index for non-local projection operator          709
 Maximum index for augmentation-charges         1178 (set IRDMAX)


--------------------------------------------------------------------------------------------------------


 First call to EWALD:  gamma=   0.145
 Maximum number of real-space cells 4x 4x 2
 Maximum number of reciprocal cells 2x 2x 4

    FEWALD:  cpu time    0.0034: real time    0.0034


--------------------------------------- Iteration      1(   1)  ---------------------------------------


    POTLOK:  cpu time    0.4188: real time    0.4261
    SETDIJ:  cpu time    0.0237: real time    0.0237
     EDDAV:  cpu time   46.0564: real time   46.1111
 BZINTS: Fermi energy:  0.439224;670.000000 electrons
         Band energy:***********;  BLOECHL correction: -0.042011
       DOS:  cpu time    0.0587: real time    0.0587
    CHARGE:  cpu time    1.1242: real time    1.1250
    MIXING:  cpu time    0.0065: real time    0.0065
    --------------------------------------------
      LOOP:  cpu time   47.6883: real time   47.7512

 eigenvalue-minimisations  :  9420
 total energy-change (2. order) :-0.3649153E+03  (-0.6849538E-02)
 number of electron     670.0000048 magnetization      40.5971382
 augmentation part      397.9016842 magnetization      38.0257762

 DIPCOR: dipole corrections for dipol
 direction  3 min pos   250,
 dipolmoment           0.000000      0.000000      0.398387 electrons x Angstroem
 Tr[quadrupol]    -11010.891994

 energy correction for charged system         0.000000 eV
 dipol+quadrupol energy correction           -0.007909 eV
 added-field ion interaction         17.312890 eV  (added to PSCEN)


 Broyden mixing:
  rms(total) = 0.14207E+00    rms(broyden)= 0.14191E+00
  rms(prec ) = 0.15225E+00
  weight for this iteration     100.00

 Free energy of the ion-electron system (eV)
  ---------------------------------------------------
  alpha Z        PSCENC =      1264.42424503
  Ewald energy   TEWEN  =    248327.65593530
  -Hartree energ DENC   =   -317393.10219980
  -exchange      EXHF   =         0.00000000
  -V(xc)+E(xc)   XCENC  =      2098.22269362
  PAW double counting   =     74952.33526265   -79350.00248583
  entropy T*S    EENTRO =         0.00000000
  eigenvalues    EBANDS =     -1397.17750050
  atomic energy  EATOM  =     71132.72877437
  Solvation  Ediel_sol  =         0.00000000
  ---------------------------------------------------
  free energy    TOTEN  =      -364.91527516 eV

  energy without entropy =     -364.91527516  energy(sigma->0) =     -364.91527516


--------------------------------------------------------------------------------------------------------




--------------------------------------- Iteration      1(   2)  ---------------------------------------


    POTLOK:  cpu time    0.4201: real time    0.4308
    SETDIJ:  cpu time    0.0232: real time    0.0232
    EDDIAG:  cpu time    6.2809: real time    6.2820
  RMM-DIIS:  cpu time   22.8250: real time   22.8364
    ORTHCH:  cpu time    1.7773: real time    1.7774
 BZINTS: Fermi energy:  0.474825;670.000000 electrons
         Band energy:***********;  BLOECHL correction: -0.018996
       DOS:  cpu time    0.0549: real time    0.0549
    CHARGE:  cpu time    1.1118: real time    1.1118
    MIXING:  cpu time    0.0067: real time    0.0067
    --------------------------------------------
      LOOP:  cpu time   32.4998: real time   32.5232

 eigenvalue-minimisations  :  9205
 total energy-change (2. order) :-0.4271078E+00  (-0.2133354E-01)
 number of electron     670.0000042 magnetization      40.6036510
 augmentation part      398.1122351 magnetization      37.7490994

 DIPCOR: dipole corrections for dipol
 direction  3 min pos   242,
 dipolmoment           0.000000      0.000000      0.306911 electrons x Angstroem
 Tr[quadrupol]    -11010.247304

 energy correction for charged system         0.000000 eV
 dipol+quadrupol energy correction           -0.004694 eV
 added-field ion interaction          2.525288 eV  (added to PSCEN)


 Broyden mixing:
  rms(total) = 0.17728E+01    rms(broyden)= 0.17728E+01
  rms(prec ) = 0.22665E+01
  weight for this iteration     100.00

 eigenvalues of (default mixing * dielectric matrix)
  average eigenvalue GAMMA=   0.0305
  0.0305

 Free energy of the ion-electron system (eV)
  ---------------------------------------------------
  alpha Z        PSCENC =      1249.63985884
  Ewald energy   TEWEN  =    248327.65593530
  -Hartree energ DENC   =   -317382.04065370
  -exchange      EXHF   =         0.00000000
  -V(xc)+E(xc)   XCENC  =      2098.19532838
  PAW double counting   =     74948.97164560   -79346.31347474
  entropy T*S    EENTRO =         0.00000000
  eigenvalues    EBANDS =     -1394.17979703
  atomic energy  EATOM  =     71132.72877437
  Solvation  Ediel_sol  =         0.00000000
  ---------------------------------------------------
  free energy    TOTEN  =      -365.34238297 eV

  energy without entropy =     -365.34238297  energy(sigma->0) =     -365.34238297


--------------------------------------------------------------------------------------------------------




--------------------------------------- Iteration      1(   3)  ---------------------------------------


    POTLOK:  cpu time    0.4187: real time    0.4293
    SETDIJ:  cpu time    0.0233: real time    0.0233
    EDDIAG:  cpu time    6.2897: real time    6.2913
  RMM-DIIS:  cpu time   23.0690: real time   23.0802
    ORTHCH:  cpu time    1.7716: real time    1.7717
 BZINTS: Fermi energy:  0.448942;670.000000 electrons
         Band energy:***********;  BLOECHL correction: -0.035934
       DOS:  cpu time    0.0589: real time    0.0589
    CHARGE:  cpu time    1.1133: real time    1.1134
    MIXING:  cpu time    0.0068: real time    0.0067
    --------------------------------------------
      LOOP:  cpu time   32.7512: real time   32.7747

 eigenvalue-minimisations  :  9337
 total energy-change (2. order) : 0.6722140E+00  (-0.6813037E-02)
 number of electron     670.0000047 magnetization      40.6134181
 augmentation part      398.0843007 magnetization      38.1039402

 DIPCOR: dipole corrections for dipol
 direction  3 min pos   242,
 dipolmoment           0.000000      0.000000      0.424324 electrons x Angstroem
 Tr[quadrupol]    -11010.393554

 energy correction for charged system         0.000000 eV
 dipol+quadrupol energy correction           -0.008972 eV
 added-field ion interaction          3.491378 eV  (added to PSCEN)


 Broyden mixing:
  rms(total) = 0.45509E+00    rms(broyden)= 0.45498E+00
  rms(prec ) = 0.52887E+00
  weight for this iteration     100.00

 eigenvalues of (default mixing * dielectric matrix)
  average eigenvalue GAMMA=   0.1195
  0.2051  0.0340

 Free energy of the ion-electron system (eV)
  ---------------------------------------------------
  alpha Z        PSCENC =      1250.60166965
  Ewald energy   TEWEN  =    248327.65593530
  -Hartree energ DENC   =   -317386.66184233
  -exchange      EXHF   =         0.00000000
  -V(xc)+E(xc)   XCENC  =      2098.21084612
  PAW double counting   =     74949.98826206   -79347.27278035
  entropy T*S    EENTRO =         0.00000000
  eigenvalues    EBANDS =     -1389.92103379
  atomic energy  EATOM  =     71132.72877437
  Solvation  Ediel_sol  =         0.00000000
  ---------------------------------------------------
  free energy    TOTEN  =      -364.67016898 eV

  energy without entropy =     -364.67016898  energy(sigma->0) =     -364.67016898


--------------------------------------------------------------------------------------------------------




--------------------------------------- Iteration      1(   4)  ---------------------------------------


    POTLOK:  cpu time    0.4214: real time    0.4335
    SETDIJ:  cpu time    0.0233: real time    0.0233
    EDDIAG:  cpu time    6.2822: real time    6.2839
  RMM-DIIS:  cpu time   22.7358: real time   22.7476
    ORTHCH:  cpu time    1.7811: real time    1.7813
 BZINTS: Fermi energy:  0.473106;670.000000 electrons
         Band energy:***********;  BLOECHL correction: -0.038622
       DOS:  cpu time    0.0559: real time    0.0558
    CHARGE:  cpu time    1.1143: real time    1.1144
    MIXING:  cpu time    0.0070: real time    0.0069
    --------------------------------------------
      LOOP:  cpu time   32.4210: real time   32.4467

 eigenvalue-minimisations  :  9193
 total energy-change (2. order) :-0.2133121E-02  (-0.8496513E-02)
 number of electron     670.0000047 magnetization      40.6412512
 augmentation part      398.0661318 magnetization      38.0968799

 DIPCOR: dipole corrections for dipol
 direction  3 min pos   239,
 dipolmoment           0.000000      0.000000      0.380724 electrons x Angstroem
 Tr[quadrupol]    -11010.315389

 energy correction for charged system         0.000000 eV
 dipol+quadrupol energy correction           -0.007223 eV
 added-field ion interaction         -1.897118 eV  (added to PSCEN)


 Broyden mixing:
  rms(total) = 0.46710E+00    rms(broyden)= 0.46705E+00
  rms(prec ) = 0.57632E+00
  weight for this iteration     100.00

 eigenvalues of (default mixing * dielectric matrix)
  average eigenvalue GAMMA=   0.2327
  0.5800  0.0875  0.0307

 Free energy of the ion-electron system (eV)
  ---------------------------------------------------
  alpha Z        PSCENC =      1245.21492338
  Ewald energy   TEWEN  =    248327.65593530
  -Hartree energ DENC   =   -317389.85671169
  -exchange      EXHF   =         0.00000000
  -V(xc)+E(xc)   XCENC  =      2098.22076450
  PAW double counting   =     74950.97711687   -79348.57067973
  entropy T*S    EENTRO =         0.00000000
  eigenvalues    EBANDS =     -1381.04242510
  atomic energy  EATOM  =     71132.72877437
  Solvation  Ediel_sol  =         0.00000000
  ---------------------------------------------------
  free energy    TOTEN  =      -364.67230210 eV

  energy without entropy =     -364.67230210  energy(sigma->0) =     -364.67230210


--------------------------------------------------------------------------------------------------------




--------------------------------------- Iteration      1(   5)  ---------------------------------------


    POTLOK:  cpu time    0.4322: real time    0.4331
    SETDIJ:  cpu time    0.0231: real time    0.0231
    EDDIAG:  cpu time    6.2848: real time    6.2867
  RMM-DIIS:  cpu time   22.6538: real time   22.6641
    ORTHCH:  cpu time    1.7755: real time    1.7756
 BZINTS: Fermi energy:  0.463155;670.000000 electrons
         Band energy:***********;  BLOECHL correction: -0.042658
       DOS:  cpu time    0.0576: real time    0.0583
    CHARGE:  cpu time    1.1129: real time    1.1129
    MIXING:  cpu time    0.0069: real time    0.0069
    --------------------------------------------
      LOOP:  cpu time   32.3468: real time   32.3608

 eigenvalue-minimisations  :  9141
 total energy-change (2. order) : 0.3074847E-01  (-0.3243853E-02)
 number of electron     670.0000047 magnetization      40.6603261
 augmentation part      398.0064807 magnetization      38.1681819

 DIPCOR: dipole corrections for dipol
 direction  3 min pos   241,
 dipolmoment           0.000000      0.000000      0.396530 electrons x Angstroem
 Tr[quadrupol]    -11010.374468

 energy correction for charged system         0.000000 eV
 dipol+quadrupol energy correction           -0.007835 eV
 added-field ion interaction          1.516497 eV  (added to PSCEN)


 Broyden mixing:
  rms(total) = 0.30669E+00    rms(broyden)= 0.30667E+00
  rms(prec ) = 0.34867E+00
  weight for this iteration     100.00

 eigenvalues of (default mixing * dielectric matrix)
  average eigenvalue GAMMA=   0.2490
  0.7449  0.0308  0.1284  0.0916

 Free energy of the ion-electron system (eV)
  ---------------------------------------------------
  alpha Z        PSCENC =      1248.62792599
  Ewald energy   TEWEN  =    248327.65593530
  -Hartree energ DENC   =   -317389.76481363
  -exchange      EXHF   =         0.00000000
  -V(xc)+E(xc)   XCENC  =      2098.29660857
  PAW double counting   =     74952.21433223   -79350.37527577
  entropy T*S    EENTRO =         0.00000000
  eigenvalues    EBANDS =     -1384.02504069
  atomic energy  EATOM  =     71132.72877437
  Solvation  Ediel_sol  =         0.00000000
  ---------------------------------------------------
  free energy    TOTEN  =      -364.64155363 eV

  energy without entropy =     -364.64155363  energy(sigma->0) =     -364.64155363


--------------------------------------------------------------------------------------------------------




--------------------------------------- Iteration      1(   6)  ---------------------------------------


    POTLOK:  cpu time    0.4194: real time    0.4318
    SETDIJ:  cpu time    0.0231: real time    0.0232
    EDDIAG:  cpu time    6.2888: real time    6.2897
  RMM-DIIS:  cpu time   22.6092: real time   22.6207
    ORTHCH:  cpu time    1.7774: real time    1.7775
 BZINTS: Fermi energy:  0.473726;670.000000 electrons
         Band energy:***********;  BLOECHL correction: -0.039777
       DOS:  cpu time    0.0524: real time    0.0524
    CHARGE:  cpu time    1.1129: real time    1.1130
    MIXING:  cpu time    0.0072: real time    0.0072
    --------------------------------------------
      LOOP:  cpu time   32.2904: real time   32.3155

 eigenvalue-minimisations  :  9137
 total energy-change (2. order) : 0.2365237E-01  (-0.2087447E-02)
 number of electron     670.0000047 magnetization      40.6728390
 augmentation part      397.9544887 magnetization      38.1828003

 DIPCOR: dipole corrections for dipol
 direction  3 min pos   239,
 dipolmoment           0.000000      0.000000      0.391195 electrons x Angstroem
 Tr[quadrupol]    -11010.315489

 energy correction for charged system         0.000000 eV
 dipol+quadrupol energy correction           -0.007626 eV
 added-field ion interaction         -1.949297 eV  (added to PSCEN)


 Broyden mixing:
  rms(total) = 0.18151E+00    rms(broyden)= 0.18149E+00
  rms(prec ) = 0.21379E+00
  weight for this iteration     100.00

 eigenvalues of (default mixing * dielectric matrix)
  average eigenvalue GAMMA=   0.2395
  0.7037  0.2861  0.0308  0.1036  0.0734

 Free energy of the ion-electron system (eV)
  ---------------------------------------------------
  alpha Z        PSCENC =      1245.16234124
  Ewald energy   TEWEN  =    248327.65593530
  -Hartree energ DENC   =   -317391.58138521
  -exchange      EXHF   =         0.00000000
  -V(xc)+E(xc)   XCENC  =      2098.31663277
  PAW double counting   =     74952.51592985   -79350.96717626
  entropy T*S    EENTRO =         0.00000000
  eigenvalues    EBANDS =     -1378.44895331
  atomic energy  EATOM  =     71132.72877437
  Solvation  Ediel_sol  =         0.00000000
  ---------------------------------------------------
  free energy    TOTEN  =      -364.61790125 eV

  energy without entropy =     -364.61790125  energy(sigma->0) =     -364.61790125


--------------------------------------------------------------------------------------------------------




--------------------------------------- Iteration      1(   7)  ---------------------------------------


    POTLOK:  cpu time    0.4228: real time    0.4342
    SETDIJ:  cpu time    0.0231: real time    0.0231
    EDDIAG:  cpu time    6.2707: real time    6.2725
  RMM-DIIS:  cpu time   22.7904: real time   22.8019
    ORTHCH:  cpu time    1.7755: real time    1.7756
 BZINTS: Fermi energy:  0.470787;670.000000 electrons
         Band energy:***********;  BLOECHL correction: -0.039704
       DOS:  cpu time    0.0549: real time    0.0549
    CHARGE:  cpu time    1.1148: real time    1.1149
    MIXING:  cpu time    0.0074: real time    0.0074
    --------------------------------------------
      LOOP:  cpu time   32.4596: real time   32.4846

 eigenvalue-minimisations  :  9208
 total energy-change (2. order) : 0.3072315E-02  (-0.6488916E-03)
 number of electron     670.0000048 magnetization      40.7055113
 augmentation part      397.9655916 magnetization      38.2160466

 DIPCOR: dipole corrections for dipol
 direction  3 min pos   240,
 dipolmoment           0.000000      0.000000      0.391391 electrons x Angstroem
 Tr[quadrupol]    -11010.382702

 energy correction for charged system         0.000000 eV
 dipol+quadrupol energy correction           -0.007633 eV
 added-field ion interaction         -0.226714 eV  (added to PSCEN)


 Broyden mixing:
  rms(total) = 0.13723E+00    rms(broyden)= 0.13722E+00
  rms(prec ) = 0.16667E+00
  weight for this iteration     100.00

 eigenvalues of (default mixing * dielectric matrix)
  average eigenvalue GAMMA=   0.3026
  0.7469  0.7469  0.0308  0.1205  0.0915  0.0790

 Free energy of the ion-electron system (eV)
  ---------------------------------------------------
  alpha Z        PSCENC =      1246.88491628
  Ewald energy   TEWEN  =    248327.65593530
  -Hartree energ DENC   =   -317391.82026084
  -exchange      EXHF   =         0.00000000
  -V(xc)+E(xc)   XCENC  =      2098.30717390
  PAW double counting   =     74951.92542237   -79350.27290307
  entropy T*S    EENTRO =         0.00000000
  eigenvalues    EBANDS =     -1380.02388724
  atomic energy  EATOM  =     71132.72877437
  Solvation  Ediel_sol  =         0.00000000
  ---------------------------------------------------
  free energy    TOTEN  =      -364.61482894 eV

  energy without entropy =     -364.61482894  energy(sigma->0) =     -364.61482894


--------------------------------------------------------------------------------------------------------




--------------------------------------- Iteration      1(   8)  ---------------------------------------


    POTLOK:  cpu time    0.4241: real time    0.4368
    SETDIJ:  cpu time    0.0231: real time    0.0231
    EDDIAG:  cpu time    6.2830: real time    6.2849
  RMM-DIIS:  cpu time   22.8762: real time   22.8856
    ORTHCH:  cpu time    1.7727: real time    1.7733
 BZINTS: Fermi energy:  0.461463;670.000000 electrons
         Band energy:***********;  BLOECHL correction: -0.041138
       DOS:  cpu time    0.0590: real time    0.0590
    CHARGE:  cpu time    1.1144: real time    1.1145
    MIXING:  cpu time    0.0074: real time    0.0074
    --------------------------------------------
      LOOP:  cpu time   32.5600: real time   32.5846

 eigenvalue-minimisations  :  9281
 total energy-change (2. order) : 0.9997517E-02  (-0.3951044E-03)
 number of electron     670.0000048 magnetization      40.7237429
 augmentation part      398.0174130 magnetization      38.2598430

 DIPCOR: dipole corrections for dipol
 direction  3 min pos   241,
 dipolmoment           0.000000      0.000000      0.404183 electrons x Angstroem
 Tr[quadrupol]    -11010.390563

 energy correction for charged system         0.000000 eV
 dipol+quadrupol energy correction           -0.008141 eV
 added-field ion interaction          1.545765 eV  (added to PSCEN)


 Broyden mixing:
  rms(total) = 0.89975E-01    rms(broyden)= 0.89960E-01
  rms(prec ) = 0.10209E+00
  weight for this iteration     100.00

 eigenvalues of (default mixing * dielectric matrix)
  average eigenvalue GAMMA=   0.3126
  0.8372  0.8372  0.2032  0.0308  0.1179  0.0885  0.0734

 Free energy of the ion-electron system (eV)
  ---------------------------------------------------
  alpha Z        PSCENC =      1248.65688835
  Ewald energy   TEWEN  =    248327.65593530
  -Hartree energ DENC   =   -317389.56920800
  -exchange      EXHF   =         0.00000000
  -V(xc)+E(xc)   XCENC  =      2098.30865611
  PAW double counting   =     74950.76112254   -79348.89273781
  entropy T*S    EENTRO =         0.00000000
  eigenvalues    EBANDS =     -1384.25426227
  atomic energy  EATOM  =     71132.72877437
  Solvation  Ediel_sol  =         0.00000000
  ---------------------------------------------------
  free energy    TOTEN  =      -364.60483142 eV

  energy without entropy =     -364.60483142  energy(sigma->0) =     -364.60483142


--------------------------------------------------------------------------------------------------------




--------------------------------------- Iteration      1(   9)  ---------------------------------------


    POTLOK:  cpu time    0.4230: real time    0.4356
    SETDIJ:  cpu time    0.0231: real time    0.0231
    EDDIAG:  cpu time    6.2773: real time    6.2789
  RMM-DIIS:  cpu time   22.7132: real time   22.7247
    ORTHCH:  cpu time    1.7767: real time    1.7768
 BZINTS: Fermi energy:  0.465756;670.000000 electrons
         Band energy:***********;  BLOECHL correction: -0.041641
       DOS:  cpu time    0.0550: real time    0.0550
    CHARGE:  cpu time    1.1136: real time    1.1144
    MIXING:  cpu time    0.0077: real time    0.0077
    --------------------------------------------
      LOOP:  cpu time   32.3895: real time   32.4162

 eigenvalue-minimisations  :  9203
 total energy-change (2. order) : 0.2097559E-02  (-0.3244234E-03)
 number of electron     670.0000048 magnetization      40.7557491
 augmentation part      398.0181203 magnetization      38.2985479

 DIPCOR: dipole corrections for dipol
 direction  3 min pos   239,
 dipolmoment           0.000000      0.000000      0.404757 electrons x Angstroem
 Tr[quadrupol]    -11010.288940

 energy correction for charged system         0.000000 eV
 dipol+quadrupol energy correction           -0.008164 eV
 added-field ion interaction         -2.016873 eV  (added to PSCEN)


 Broyden mixing:
  rms(total) = 0.87344E-01    rms(broyden)= 0.87334E-01
  rms(prec ) = 0.10072E+00
  weight for this iteration     100.00

 eigenvalues of (default mixing * dielectric matrix)
  average eigenvalue GAMMA=   0.3404
  0.9182  0.9182  0.4732  0.0308  0.1253  0.0989  0.0849  0.0735

 Free energy of the ion-electron system (eV)
  ---------------------------------------------------
  alpha Z        PSCENC =      1245.09422723
  Ewald energy   TEWEN  =    248327.65593530
  -Hartree energ DENC   =   -317389.62002326
  -exchange      EXHF   =         0.00000000
  -V(xc)+E(xc)   XCENC  =      2098.31287597
  PAW double counting   =     74950.81790859   -79348.97342849
  entropy T*S    EENTRO =         0.00000000
  eigenvalues    EBANDS =     -1380.61900357
  atomic energy  EATOM  =     71132.72877437
  Solvation  Ediel_sol  =         0.00000000
  ---------------------------------------------------
  free energy    TOTEN  =      -364.60273386 eV

  energy without entropy =     -364.60273386  energy(sigma->0) =     -364.60273386


--------------------------------------------------------------------------------------------------------




--------------------------------------- Iteration      1(  10)  ---------------------------------------


    POTLOK:  cpu time    0.4196: real time    0.4303
    SETDIJ:  cpu time    0.0232: real time    0.0232
    EDDIAG:  cpu time    6.2597: real time    6.2606
  RMM-DIIS:  cpu time   22.6210: real time   22.6324
    ORTHCH:  cpu time    1.7740: real time    1.7742
 BZINTS: Fermi energy:  0.466582;670.000000 electrons
         Band energy:***********;  BLOECHL correction: -0.041093
       DOS:  cpu time    0.0574: real time    0.0574
    CHARGE:  cpu time    1.1139: real time    1.1140
    MIXING:  cpu time    0.0077: real time    0.0077
    --------------------------------------------
      LOOP:  cpu time   32.2766: real time   32.2998

 eigenvalue-minimisations  :  9185
 total energy-change (2. order) : 0.2823656E-02  (-0.1917382E-03)
 number of electron     670.0000048 magnetization      40.7753246
 augmentation part      397.9974772 magnetization      38.3054419

 DIPCOR: dipole corrections for dipol
 direction  3 min pos   240,
 dipolmoment           0.000000      0.000000      0.399085 electrons x Angstroem
 Tr[quadrupol]    -11010.356037

 energy correction for charged system         0.000000 eV
 dipol+quadrupol energy correction           -0.007937 eV
 added-field ion interaction         -0.231171 eV  (added to PSCEN)


 Broyden mixing:
  rms(total) = 0.74595E-01    rms(broyden)= 0.74588E-01
  rms(prec ) = 0.81493E-01
  weight for this iteration     100.00

 eigenvalues of (default mixing * dielectric matrix)
  average eigenvalue GAMMA=   0.3368
  0.9755  0.9755  0.5475  0.0308  0.1341  0.0754  0.1019  0.1019  0.0882

 Free energy of the ion-electron system (eV)
  ---------------------------------------------------
  alpha Z        PSCENC =      1246.88015618
  Ewald energy   TEWEN  =    248327.65593530
  -Hartree energ DENC   =   -317390.32620329
  -exchange      EXHF   =         0.00000000
  -V(xc)+E(xc)   XCENC  =      2098.32305478
  PAW double counting   =     74951.43546784   -79349.78610360
  entropy T*S    EENTRO =         0.00000000
  eigenvalues    EBANDS =     -1381.51099178
  atomic energy  EATOM  =     71132.72877437
  Solvation  Ediel_sol  =         0.00000000
  ---------------------------------------------------
  free energy    TOTEN  =      -364.59991021 eV

  energy without entropy =     -364.59991021  energy(sigma->0) =     -364.59991021


--------------------------------------------------------------------------------------------------------




--------------------------------------- Iteration      1(  11)  ---------------------------------------


    POTLOK:  cpu time    0.4239: real time    0.4358
    SETDIJ:  cpu time    0.0232: real time    0.0232
    EDDIAG:  cpu time    6.2705: real time    6.2770
  RMM-DIIS:  cpu time   22.7401: real time   22.7470
    ORTHCH:  cpu time    1.7849: real time    1.7851
 BZINTS: Fermi energy:  0.469298;670.000000 electrons
         Band energy:***********;  BLOECHL correction: -0.041172
       DOS:  cpu time    0.0573: real time    0.0574
    CHARGE:  cpu time    1.1138: real time    1.1139
    MIXING:  cpu time    0.0081: real time    0.0081
    --------------------------------------------
      LOOP:  cpu time   32.4218: real time   32.4475

 eigenvalue-minimisations  :  9216
 total energy-change (2. order) : 0.2549902E-02  (-0.1331802E-03)
 number of electron     670.0000048 magnetization      40.8002289
 augmentation part      397.9908793 magnetization      38.3278869

 DIPCOR: dipole corrections for dipol
 direction  3 min pos   239,
 dipolmoment           0.000000      0.000000      0.398555 electrons x Angstroem
 Tr[quadrupol]    -11010.298186

 energy correction for charged system         0.000000 eV
 dipol+quadrupol energy correction           -0.007915 eV
 added-field ion interaction         -1.985968 eV  (added to PSCEN)


 Broyden mixing:
  rms(total) = 0.47271E-01    rms(broyden)= 0.47264E-01
  rms(prec ) = 0.51840E-01
  weight for this iteration     100.00

 eigenvalues of (default mixing * dielectric matrix)
  average eigenvalue GAMMA=   0.3493
  1.0317  1.0317  0.5986  0.3151  0.0308  0.1294  0.1127  0.0899  0.0806  0.0727

 Free energy of the ion-electron system (eV)
  ---------------------------------------------------
  alpha Z        PSCENC =      1245.12538049
  Ewald energy   TEWEN  =    248327.65593530
  -Hartree energ DENC   =   -317390.20184913
  -exchange      EXHF   =         0.00000000
  -V(xc)+E(xc)   XCENC  =      2098.33064742
  PAW double counting   =     74951.65682081   -79350.09399972
  entropy T*S    EENTRO =         0.00000000
  eigenvalues    EBANDS =     -1379.79906985
  atomic energy  EATOM  =     71132.72877437
  Solvation  Ediel_sol  =         0.00000000
  ---------------------------------------------------
  free energy    TOTEN  =      -364.59736031 eV

  energy without entropy =     -364.59736031  energy(sigma->0) =     -364.59736031


--------------------------------------------------------------------------------------------------------




--------------------------------------- Iteration      1(  12)  ---------------------------------------


    POTLOK:  cpu time    0.4212: real time    0.4341
    SETDIJ:  cpu time    0.0232: real time    0.0232
    EDDIAG:  cpu time    6.2783: real time    6.2857
  RMM-DIIS:  cpu time   22.4842: real time   22.4921
    ORTHCH:  cpu time    1.7712: real time    1.7714
 BZINTS: Fermi energy:  0.471911;670.000000 electrons
         Band energy:***********;  BLOECHL correction: -0.041142
       DOS:  cpu time    0.0582: real time    0.0582
    CHARGE:  cpu time    1.1154: real time    1.1155
    MIXING:  cpu time    0.0082: real time    0.0082
    --------------------------------------------
      LOOP:  cpu time   32.1598: real time   32.1883

 eigenvalue-minimisations  :  9067
 total energy-change (2. order) : 0.1820700E-03  (-0.1136656E-03)
 number of electron     670.0000048 magnetization      40.8438764
 augmentation part      397.9919308 magnetization      38.3718893

 DIPCOR: dipole corrections for dipol
 direction  3 min pos   238,
 dipolmoment           0.000000      0.000000      0.398505 electrons x Angstroem
 Tr[quadrupol]    -11010.250036

 energy correction for charged system         0.000000 eV
 dipol+quadrupol energy correction           -0.007913 eV
 added-field ion interaction         -3.740606 eV  (added to PSCEN)


 Broyden mixing:
  rms(total) = 0.71267E-01    rms(broyden)= 0.71261E-01
  rms(prec ) = 0.78262E-01
  weight for this iteration     100.00

 eigenvalues of (default mixing * dielectric matrix)
  average eigenvalue GAMMA=   0.3736
  1.2696  0.8570  0.8570  0.5123  0.0308  0.1377  0.1162  0.0939  0.0862  0.0744
  0.0744

 Free energy of the ion-electron system (eV)
  ---------------------------------------------------
  alpha Z        PSCENC =      1243.37074495
  Ewald energy   TEWEN  =    248327.65593530
  -Hartree energ DENC   =   -317390.34182446
  -exchange      EXHF   =         0.00000000
  -V(xc)+E(xc)   XCENC  =      2098.33142519
  PAW double counting   =     74951.70184369   -79350.17005365
  entropy T*S    EENTRO =         0.00000000
  eigenvalues    EBANDS =     -1377.87402362
  atomic energy  EATOM  =     71132.72877437
  Solvation  Ediel_sol  =         0.00000000
  ---------------------------------------------------
  free energy    TOTEN  =      -364.59717824 eV

  energy without entropy =     -364.59717824  energy(sigma->0) =     -364.59717824


--------------------------------------------------------------------------------------------------------




--------------------------------------- Iteration      1(  13)  ---------------------------------------


    POTLOK:  cpu time    0.4173: real time    0.4361
    SETDIJ:  cpu time    0.0234: real time    0.0234
    EDDIAG:  cpu time    6.2863: real time    6.2882
  RMM-DIIS:  cpu time   21.9170: real time   21.9234
    ORTHCH:  cpu time    1.7632: real time    1.7681
 BZINTS: Fermi energy:  0.482392;670.000000 electrons
         Band energy:***********;  BLOECHL correction: -0.041190
       DOS:  cpu time    0.0563: real time    0.0564
    CHARGE:  cpu time    1.1164: real time    1.1165
    MIXING:  cpu time    0.0085: real time    0.0085
    --------------------------------------------
      LOOP:  cpu time   31.5884: real time   31.6205

 eigenvalue-minimisations  :  8875
 total energy-change (2. order) : 0.9910700E-03  (-0.8759067E-04)
 number of electron     670.0000048 magnetization      40.8640463
 augmentation part      397.9988502 magnetization      38.3866713

 DIPCOR: dipole corrections for dipol
 direction  3 min pos   234,
 dipolmoment           0.000000      0.000000      0.399210 electrons x Angstroem
 Tr[quadrupol]    -11010.039574

 energy correction for charged system         0.000000 eV
 dipol+quadrupol energy correction           -0.007942 eV
 added-field ion interaction        -10.779188 eV  (added to PSCEN)


 Broyden mixing:
  rms(total) = 0.58539E-01    rms(broyden)= 0.58531E-01
  rms(prec ) = 0.64441E-01
  weight for this iteration     100.00

 eigenvalues of (default mixing * dielectric matrix)
  average eigenvalue GAMMA=   0.3762
  1.5225  0.8435  0.8435  0.5504  0.1626  0.0308  0.1239  0.1101  0.0950  0.0848
  0.0769  0.0707

 Free energy of the ion-electron system (eV)
  ---------------------------------------------------
  alpha Z        PSCENC =      1236.33213435
  Ewald energy   TEWEN  =    248327.65593530
  -Hartree energ DENC   =   -317390.23103559
  -exchange      EXHF   =         0.00000000
  -V(xc)+E(xc)   XCENC  =      2098.32972144
  PAW double counting   =     74951.60385456   -79350.07940969
  entropy T*S    EENTRO =         0.00000000
  eigenvalues    EBANDS =     -1370.93616189
  atomic energy  EATOM  =     71132.72877437
  Solvation  Ediel_sol  =         0.00000000
  ---------------------------------------------------
  free energy    TOTEN  =      -364.59618717 eV

  energy without entropy =     -364.59618717  energy(sigma->0) =     -364.59618717


--------------------------------------------------------------------------------------------------------




--------------------------------------- Iteration      1(  14)  ---------------------------------------


    POTLOK:  cpu time    0.4213: real time    0.4328
    SETDIJ:  cpu time    0.0232: real time    0.0232
    EDDIAG:  cpu time    6.2808: real time    6.2827
  RMM-DIIS:  cpu time   22.2193: real time   22.2317
    ORTHCH:  cpu time    1.7614: real time    1.7624
 BZINTS: Fermi energy:  0.487415;670.000000 electrons
         Band energy:***********;  BLOECHL correction: -0.041395
       DOS:  cpu time    0.0575: real time    0.0575
    CHARGE:  cpu time    1.1155: real time    1.1156
    MIXING:  cpu time    0.0086: real time    0.0086
    --------------------------------------------
      LOOP:  cpu time   31.8876: real time   31.9144

 eigenvalue-minimisations  :  8973
 total energy-change (2. order) : 0.5570855E-03  (-0.6342072E-04)
 number of electron     670.0000048 magnetization      40.8966524
 augmentation part      398.0009333 magnetization      38.4139873

 DIPCOR: dipole corrections for dipol
 direction  3 min pos   232,
 dipolmoment           0.000000      0.000000      0.399705 electrons x Angstroem
 Tr[quadrupol]    -11009.929676

 energy correction for charged system         0.000000 eV
 dipol+quadrupol energy correction           -0.007961 eV
 added-field ion interaction        -14.312891 eV  (added to PSCEN)


 Broyden mixing:
  rms(total) = 0.32973E-01    rms(broyden)= 0.32969E-01
  rms(prec ) = 0.36215E-01
  weight for this iteration     100.00

 eigenvalues of (default mixing * dielectric matrix)
  average eigenvalue GAMMA=   0.4136
  1.6994  0.9334  0.9334  0.6850  0.4165  0.0308  0.1405  0.1194  0.1023  0.0896
  0.0820  0.0739  0.0703

 Free energy of the ion-electron system (eV)
  ---------------------------------------------------
  alpha Z        PSCENC =      1232.79841153
  Ewald energy   TEWEN  =    248327.65593530
  -Hartree energ DENC   =   -317389.97660579
  -exchange      EXHF   =         0.00000000
  -V(xc)+E(xc)   XCENC  =      2098.32950257
  PAW double counting   =     74951.56124635   -79350.04183930
  entropy T*S    EENTRO =         0.00000000
  eigenvalues    EBANDS =     -1367.65105511
  atomic energy  EATOM  =     71132.72877437
  Solvation  Ediel_sol  =         0.00000000
  ---------------------------------------------------
  free energy    TOTEN  =      -364.59563008 eV

  energy without entropy =     -364.59563008  energy(sigma->0) =     -364.59563008


--------------------------------------------------------------------------------------------------------




--------------------------------------- Iteration      1(  15)  ---------------------------------------


    POTLOK:  cpu time    0.4314: real time    0.4320
    SETDIJ:  cpu time    0.0232: real time    0.0233
    EDDIAG:  cpu time    6.2821: real time    6.2837
  RMM-DIIS:  cpu time   22.3883: real time   22.4016
    ORTHCH:  cpu time    1.7661: real time    1.7667
 BZINTS: Fermi energy:  0.490671;670.000000 electrons
         Band energy:***********;  BLOECHL correction: -0.041238
       DOS:  cpu time    0.0574: real time    0.0575
    CHARGE:  cpu time    1.1149: real time    1.1150
    MIXING:  cpu time    0.0089: real time    0.0089
    --------------------------------------------
      LOOP:  cpu time   32.0724: real time   32.0886

 eigenvalue-minimisations  :  9017
 total energy-change (2. order) :-0.2900190E-02  (-0.6726422E-04)
 number of electron     670.0000048 magnetization      40.9290595
 augmentation part      397.9980172 magnetization      38.4381101

 DIPCOR: dipole corrections for dipol
 direction  3 min pos   231,
 dipolmoment           0.000000      0.000000      0.398557 electrons x Angstroem
 Tr[quadrupol]    -11009.884867

 energy correction for charged system         0.000000 eV
 dipol+quadrupol energy correction           -0.007916 eV
 added-field ion interaction        -16.026878 eV  (added to PSCEN)


 Broyden mixing:
  rms(total) = 0.44439E-01    rms(broyden)= 0.44435E-01
  rms(prec ) = 0.49011E-01
  weight for this iteration     100.00

 eigenvalues of (default mixing * dielectric matrix)
  average eigenvalue GAMMA=   0.4339
  1.9908  1.0210  1.0210  0.7480  0.4666  0.0308  0.1473  0.1270  0.1086  0.1018
  0.0882  0.0805  0.0740  0.0694

 Free energy of the ion-electron system (eV)
  ---------------------------------------------------
  alpha Z        PSCENC =      1231.08447090
  Ewald energy   TEWEN  =    248327.65593530
  -Hartree energ DENC   =   -317390.21537020
  -exchange      EXHF   =         0.00000000
  -V(xc)+E(xc)   XCENC  =      2098.32533967
  PAW double counting   =     74951.66334595   -79350.18225906
  entropy T*S    EENTRO =         0.00000000
  eigenvalues    EBANDS =     -1365.65876721
  atomic energy  EATOM  =     71132.72877437
  Solvation  Ediel_sol  =         0.00000000
  ---------------------------------------------------
  free energy    TOTEN  =      -364.59853027 eV

  energy without entropy =     -364.59853027  energy(sigma->0) =     -364.59853027


--------------------------------------------------------------------------------------------------------




--------------------------------------- Iteration      1(  16)  ---------------------------------------


    POTLOK:  cpu time    0.4221: real time    0.4337
    SETDIJ:  cpu time    0.0231: real time    0.0231
    EDDIAG:  cpu time    6.2726: real time    6.2747
  RMM-DIIS:  cpu time   22.5181: real time   22.5332
    ORTHCH:  cpu time    1.7674: real time    1.7676
 BZINTS: Fermi energy:  0.488448;670.000000 electrons
         Band energy:***********;  BLOECHL correction: -0.041266
       DOS:  cpu time    0.0563: real time    0.0563
    CHARGE:  cpu time    1.1152: real time    1.1153
    MIXING:  cpu time    0.0091: real time    0.0091
    --------------------------------------------
      LOOP:  cpu time   32.1839: real time   32.2131

 eigenvalue-minimisations  :  9048
 total energy-change (2. order) :-0.2719002E-02  (-0.4468824E-04)
 number of electron     670.0000048 magnetization      40.9386367
 augmentation part      397.9966085 magnetization      38.4384434

 DIPCOR: dipole corrections for dipol
 direction  3 min pos   232,
 dipolmoment           0.000000      0.000000      0.397994 electrons x Angstroem
 Tr[quadrupol]    -11009.939067

 energy correction for charged system         0.000000 eV
 dipol+quadrupol energy correction           -0.007893 eV
 added-field ion interaction        -14.251639 eV  (added to PSCEN)


 Broyden mixing:
  rms(total) = 0.30105E-01    rms(broyden)= 0.30102E-01
  rms(prec ) = 0.35966E-01
  weight for this iteration     100.00

 eigenvalues of (default mixing * dielectric matrix)
  average eigenvalue GAMMA=   0.4185
  2.0335  1.0134  1.0134  0.7367  0.4738  0.1943  0.0308  0.1405  0.1169  0.1158
  0.0948  0.0882  0.0813  0.0744  0.0698

 Free energy of the ion-electron system (eV)
  ---------------------------------------------------
  alpha Z        PSCENC =      1232.85973155
  Ewald energy   TEWEN  =    248327.65593530
  -Hartree energ DENC   =   -317390.28366793
  -exchange      EXHF   =         0.00000000
  -V(xc)+E(xc)   XCENC  =      2098.32168890
[...]
   0.121E+01 0.307E+01 0.120E+04   -.112E+01 -.311E+01 -.121E+04   -.820E-01 0.231E-01 -.156E+00   0.172E-03 0.186E-03 -.678E-02
   0.991E+01 0.357E+01 -.829E+03   -.101E+02 -.360E+01 0.829E+03   0.226E+00 0.429E-01 0.290E+00   0.238E-04 -.221E-03 -.619E-02
   0.386E+00 -.224E+00 0.320E+04   -.320E+00 0.186E+00 -.320E+04   -.577E-01 0.330E-01 -.131E+01   0.166E-03 -.142E-03 -.226E-02
   0.916E+02 -.529E+02 -.288E+04   -.933E+02 0.539E+02 0.288E+04   0.172E+01 -.993E+00 0.506E+00   -.832E-04 0.241E-03 -.135E-02
   -.168E-01 0.323E-02 0.121E+04   0.147E-01 -.172E-02 -.121E+04   0.427E-03 0.692E-04 -.374E+00   0.350E-04 -.523E-04 -.683E-02
   -.499E+01 -.293E+01 -.815E+03   0.494E+01 0.290E+01 0.814E+03   0.432E-01 0.249E-01 0.413E+00   0.323E-03 0.296E-03 -.616E-02
   -.396E+00 -.197E+00 0.320E+04   0.329E+00 0.158E+00 -.320E+04   0.589E-01 0.337E-01 -.131E+01   -.421E-03 -.256E-03 -.208E-02
   -.916E+02 -.530E+02 -.288E+04   0.933E+02 0.539E+02 0.288E+04   -.172E+01 -.993E+00 0.506E+00   0.118E-03 0.171E-03 -.148E-02
   -.342E+01 -.362E+00 0.120E+04   0.342E+01 0.465E+00 -.121E+04   0.213E-01 -.810E-01 -.156E+00   -.336E-03 -.308E-03 -.661E-02
   0.490E+01 -.281E+01 -.815E+03   -.485E+01 0.278E+01 0.814E+03   -.442E-01 0.259E-01 0.413E+00   0.447E-04 0.258E-03 -.623E-02
   0.102E+00 0.987E+00 0.320E+04   -.148E+00 -.963E+00 -.320E+04   0.355E-01 -.125E-01 -.143E+01   -.148E-03 -.107E-03 -.226E-02
   0.113E+03 -.558E+02 -.285E+04   -.115E+03 0.566E+02 0.285E+04   0.193E+01 -.858E+00 0.476E+00   -.391E-04 -.220E-03 -.121E-02
   0.127E+00 0.644E+01 0.121E+04   -.130E+00 -.645E+01 -.121E+04   0.577E-03 -.176E-01 -.252E+00   -.259E-03 -.199E-03 -.671E-02
   -.827E+01 0.701E+01 -.831E+03   0.839E+01 -.717E+01 0.831E+03   -.149E+00 0.171E+00 0.294E+00   -.273E-03 0.165E-04 -.571E-02
   -.931E-01 0.959E+00 0.320E+04   0.139E+00 -.935E+00 -.320E+04   -.366E-01 -.131E-01 -.143E+01   0.403E-03 -.969E-05 -.243E-02
   -.113E+03 -.557E+02 -.285E+04   0.115E+03 0.565E+02 0.285E+04   -.193E+01 -.851E+00 0.477E+00   0.113E-04 -.110E-03 -.103E-02
   0.343E+01 -.488E+00 0.120E+04   -.343E+01 0.593E+00 -.121E+04   -.237E-01 -.831E-01 -.157E+00   0.559E-03 -.105E-03 -.702E-02
   0.842E+01 0.691E+01 -.830E+03   -.854E+01 -.707E+01 0.830E+03   0.149E+00 0.168E+00 0.297E+00   -.102E-03 0.645E-04 -.564E-02
   -.878E+00 -.404E+00 0.320E+04   0.880E+00 0.351E+00 -.320E+04   -.721E-02 0.382E-01 -.143E+01   0.235E-03 -.271E-03 -.235E-02
   -.819E+01 0.126E+03 -.285E+04   0.842E+01 -.128E+03 0.285E+04   -.228E+00 0.210E+01 0.478E+00   0.230E-03 -.522E-03 -.109E-02
   0.213E+01 -.275E+01 0.120E+04   -.222E+01 0.270E+01 -.121E+04   0.607E-01 0.625E-01 -.157E+00   0.398E-03 -.321E-03 -.695E-02
   -.373E+01 0.213E+01 -.837E+03   0.371E+01 -.212E+01 0.839E+03   0.131E-01 -.750E-02 -.120E+01   0.423E-03 -.287E-03 -.552E-02
   0.240E-01 -.113E+01 0.320E+04   -.232E-01 0.118E+01 -.320E+04   -.338E-03 -.394E-01 -.131E+01   -.185E-03 -.324E-03 -.220E-02
   -.236E-01 0.286E+02 -.285E+04   0.195E-01 -.291E+02 0.285E+04   0.441E-02 0.555E+00 0.323E+01   0.867E-04 -.307E-03 -.162E-02
   -.204E+01 -.259E+01 0.120E+04   0.213E+01 0.254E+01 -.121E+04   -.611E-01 0.602E-01 -.156E+00   -.205E-03 -.115E-03 -.653E-02
   0.523E-01 0.577E+01 -.815E+03   -.528E-01 -.571E+01 0.814E+03   0.435E-03 -.494E-01 0.413E+00   0.163E-03 -.249E-03 -.590E-02
   0.872E+00 -.369E+00 0.320E+04   -.874E+00 0.315E+00 -.320E+04   0.758E-02 0.389E-01 -.143E+01   -.951E-04 -.496E-04 -.211E-02
   0.762E+01 0.126E+03 -.285E+04   -.783E+01 -.128E+03 0.285E+04   0.216E+00 0.209E+01 0.474E+00   -.162E-03 -.347E-03 -.136E-02
   0.536E+01 0.317E+01 0.121E+04   -.550E+01 -.324E+01 -.121E+04   0.784E-01 0.458E-01 -.209E+00   -.308E-03 0.466E-04 -.677E-02
   0.361E+01 0.226E+01 -.837E+03   -.359E+01 -.225E+01 0.839E+03   -.120E-01 -.629E-02 -.120E+01   -.355E-03 -.192E-03 -.570E-02
   -.178E-01 0.677E-02 0.320E+04   0.174E-01 -.665E-02 -.320E+04   0.174E-03 -.506E-03 -.119E+01   0.459E-04 -.650E-05 -.241E-02
   0.263E+00 -.215E+00 -.288E+04   -.271E+00 0.222E+00 0.287E+04   0.924E-02 -.628E-02 0.343E+01   -.154E-03 -.496E-03 -.122E-02
   -.538E+01 0.309E+01 0.121E+04   0.551E+01 -.316E+01 -.121E+04   -.785E-01 0.453E-01 -.208E+00   0.114E-03 0.237E-05 -.701E-02
   0.638E-01 0.798E+01 -.809E+03   -.632E-01 -.793E+01 0.808E+03   -.521E-03 -.403E-01 0.469E+00   -.233E-03 -.388E-03 -.555E-02
   0.492E+02 0.285E+02 -.230E+04   -.508E+02 -.294E+02 0.233E+04   0.164E+01 0.955E+00 -.293E+02   0.182E-03 -.172E-03 0.112E-02
   -.958E-01 -.568E+02 -.230E+04   0.104E+00 0.587E+02 0.233E+04   -.965E-02 -.189E+01 -.293E+02   0.176E-04 0.295E-04 0.746E-03
   -.137E-01 -.789E-02 -.231E+04   0.172E-01 0.783E-02 0.233E+04   -.353E-02 0.801E-03 -.283E+02   -.500E-04 0.348E-03 0.883E-03
   -.487E+02 0.281E+02 -.230E+04   0.502E+02 -.290E+02 0.233E+04   -.155E+01 0.892E+00 -.292E+02   -.383E-06 -.237E-03 0.103E-02
   -.462E+00 0.187E+00 -.231E+04   0.533E+00 -.219E+00 0.234E+04   -.671E-01 0.314E-01 -.309E+02   -.112E-03 0.193E-03 0.984E-03
 -----------------------------------------------------------------------------------------------
   -.669E-02 0.141E-01 0.155E+03   -.391E-12 0.643E-12 -.318E-11   0.503E-02 -.757E-02 -.155E+03   0.345E-04 0.145E-03 -.255E+00
 
 
 POSITION                                       TOTAL-FORCE (eV/Angst)
 -----------------------------------------------------------------------------------
     -0.00000      1.94796      2.00000        -0.015383      0.002379      0.277200
     -0.04857      1.96193      8.05790         0.021205     -0.016224     -0.011512
      1.24593      1.22862      4.03457         0.023027      0.016835     -0.216380
      0.00125      0.51162      6.00489         0.000147      0.000341     -0.037278
      2.49184      1.94796      2.00000         0.015807      0.008641      0.271926
      2.47116      1.94052      8.22576        -0.014291     -0.009255      0.027700
      3.73777      1.22862      4.03457        -0.003892      0.049122     -0.119377
      2.48654      0.52143      6.02682         0.008438     -0.021550     -0.027155
      4.98369      1.94796      2.00000        -0.015988      0.008718      0.271730
      4.99398      1.94239      8.21912         0.021288     -0.011803      0.043501
      6.22962      1.22862      4.03457        -0.027775      0.016237     -0.219866
      4.98556      0.52141      6.02602        -0.006441     -0.021584     -0.025821
      7.47553      1.94796      2.00000         0.015460      0.002417      0.277435
      7.51601      1.96298      8.05724        -0.015989     -0.016846     -0.010904
      8.72146      1.22862      4.03457        -0.001802      0.068946     -0.285796
      7.47134      0.51189      6.00480         0.001476     -0.000719     -0.037031
     -1.24593      4.10596      2.00000        -0.000137      0.008393      0.279652
     -1.24847      4.07898      8.07231        -0.000538      0.041105      0.009155
      0.00000      3.38662      4.03457        -0.009800     -0.025771     -0.253978
     -1.24752      2.67284      6.04299        -0.000163     -0.005881     -0.026032
      1.24592      4.10596      2.00000         0.008414     -0.005475      0.183762
      1.22343      4.11935      7.95188         0.009987     -0.005848      0.045086
      2.49185      3.38662      4.03457         0.036455     -0.020910     -0.116255
      1.25184      2.65951      6.02735        -0.013334      0.017281     -0.027743
      3.73776      4.10596      2.00000        -0.000022     -0.018829      0.271799
      3.73428      4.12869      8.22535         0.001057      0.017297      0.028828
      4.98369      3.38662      4.03457        -0.044287     -0.020968     -0.119343
      3.73552      2.66882      6.07317         0.001829     -0.000937     -0.023601
      6.22961      4.10596      2.00000        -0.007935     -0.005607      0.183767
      6.24668      4.11982      7.95100        -0.010442     -0.006470      0.047049
      7.47554      3.38662      4.03457         0.006943     -0.024976     -0.256536
      6.22028      2.65987      6.02603         0.015347      0.016583     -0.025710
     -2.49185      6.26396      2.00000         0.007792     -0.005098      0.280162
     -2.51909      6.28017      8.07240         0.035784     -0.020854      0.009139
     -1.24592      5.54462      4.03457        -0.001645      0.001416     -0.287916
     -2.49294      4.82620      6.00545        -0.000893     -0.000521     -0.044311
     -0.00000      6.26396      2.00000        -0.007771     -0.004923      0.279624
      0.02252      6.28033      8.07220        -0.035276     -0.019937      0.009488
      1.24593      5.54462      4.03457         0.017504      0.021870     -0.254204
     -0.00119      4.82616      6.00549         0.000683     -0.000377     -0.044219
      2.49184      6.26396      2.00000        -0.010249      0.011257      0.277215
      2.45585      6.29969      8.05787         0.024733     -0.009981     -0.011384
      3.73777      5.54462      4.03457        -0.002918     -0.027898     -0.216581
      2.50166      4.82431      6.02730        -0.021606      0.002801     -0.027813
      4.98369      6.26396      2.00000         0.010008      0.011160      0.277579
      5.01433      6.29867      8.05723        -0.022742     -0.008519     -0.010791
      6.22962      5.54462      4.03457        -0.021201      0.021739     -0.255174
      4.97077      4.82416      6.02674         0.023055      0.003353     -0.026951
     -3.73777      8.42196      2.00000        -0.005181     -0.015099      0.277603
     -3.75203      8.37897      8.05750        -0.004363      0.023621     -0.011321
     -2.49184      7.70262      4.03457        -0.028998      0.008287     -0.255137
     -3.73479      6.98187      6.04292        -0.005328      0.002989     -0.025355
     -1.24593      8.42196      2.00000         0.000361      0.008744      0.183773
     -1.24905      8.40094      7.95115         0.000434      0.012328      0.046722
      0.00000      7.70262      4.03457         0.025316      0.006966     -0.256654
     -1.24708      6.98414      6.00548         0.000065      0.000954     -0.044367
      1.24592      8.42196      2.00000         0.005145     -0.015449      0.277435
      1.25345      8.38006      8.05728         0.007106      0.022617     -0.010313
      2.49185      7.70262      4.03457        -0.060377     -0.032406     -0.286018
      1.24046      6.98221      6.04293         0.005163      0.003199     -0.025915
      3.73776      8.42196      2.00000        -0.000135     -0.000489      0.187448
      3.73438      8.42424      7.95623         0.000665     -0.000224      0.058904
      4.98369      7.70262      4.03457         0.056742     -0.032386     -0.285725
      3.73653      6.98129      6.00484        -0.000075     -0.000348     -0.037282
      1.11649      1.15784      9.20383         0.009793      0.007374     -0.026941
      3.73513      5.69320      9.20376        -0.001012     -0.011846     -0.026667
     -1.24818      5.54639      9.18071         0.000016      0.000991     -0.030321
      6.34689      1.16145      9.20099        -0.002820      0.000828     -0.024915
      3.73454      2.67017      9.31332         0.003567     -0.000782     -0.017088
 -----------------------------------------------------------------------------------
    total drift:                               -0.001624      0.006693      0.038284


--------------------------------------------------------------------------------------------------------



  FREE ENERGIE OF THE ION-ELECTRON SYSTEM (eV)
  ---------------------------------------------------
  free  energy   TOTEN  =      -382.68842228 eV

  energy  without entropy=     -382.68842228  energy(sigma->0) =     -382.68842228
 


--------------------------------------------------------------------------------------------------------


    POTLOK:  cpu time    0.4479: real time    0.4480


--------------------------------------------------------------------------------------------------------


 stress matrix after NEB project (eV)
    -30.98859     -0.05285      0.14808
     -0.05285    -31.07635     -0.11090
      0.14808     -0.11090     -9.30095
  FORCES: max atom, RMS     0.058908    0.026488
  FORCE total and by dimension    0.220024    0.058904
  Stress total and by dimension   44.862165   31.076353
 writing wavefunctions
     LOOP+:  cpu time 1491.7561: real time 1524.6751
    4ORBIT:  cpu time    0.0000: real time    0.0000
 


 total charge     
 
# of ion       s       p       d       tot
------------------------------------------
    1        0.486   0.377   8.304   9.167
    2        0.502   0.523   8.331   9.356
    3        0.499   0.504   8.313   9.315
    4        0.499   0.508   8.319   9.326
    5        0.486   0.377   8.304   9.167
    6        0.476   0.586   8.340   9.402
    7        0.494   0.499   8.307   9.300
    8        0.498   0.498   8.317   9.313
    9        0.486   0.377   8.304   9.167
   10        0.477   0.587   8.340   9.404
   11        0.499   0.504   8.313   9.316
   12        0.498   0.498   8.317   9.313
   13        0.486   0.377   8.304   9.167
   14        0.502   0.523   8.331   9.356
   15        0.498   0.504   8.309   9.311
   16        0.499   0.508   8.319   9.326
   17        0.487   0.378   8.300   9.165
   18        0.496   0.509   8.321   9.326
   19        0.497   0.501   8.309   9.307
   20        0.505   0.509   8.329   9.343
   21        0.488   0.377   8.297   9.163
   22        0.474   0.375   8.360   9.209
   23        0.494   0.499   8.307   9.300
   24        0.498   0.498   8.317   9.312
   25        0.486   0.377   8.304   9.167
   26        0.476   0.586   8.340   9.402
   27        0.494   0.499   8.307   9.300
   28        0.484   0.474   8.316   9.273
   29        0.488   0.377   8.297   9.162
   30        0.474   0.375   8.360   9.209
   31        0.497   0.501   8.309   9.308
   32        0.498   0.498   8.317   9.313
   33        0.487   0.378   8.300   9.165
   34        0.496   0.509   8.321   9.326
   35        0.500   0.505   8.315   9.321
   36        0.498   0.506   8.321   9.325
   37        0.487   0.378   8.300   9.165
   38        0.496   0.509   8.321   9.326
   39        0.497   0.501   8.309   9.307
   40        0.498   0.506   8.321   9.325
   41        0.486   0.377   8.304   9.167
   42        0.502   0.523   8.331   9.356
   43        0.499   0.504   8.313   9.315
   44        0.498   0.498   8.317   9.312
   45        0.486   0.377   8.304   9.167
   46        0.502   0.523   8.331   9.356
   47        0.497   0.501   8.309   9.307
   48        0.498   0.498   8.317   9.313
   49        0.486   0.377   8.304   9.167
   50        0.502   0.523   8.331   9.356
   51        0.497   0.501   8.309   9.307
   52        0.505   0.509   8.329   9.343
   53        0.488   0.377   8.297   9.162
   54        0.474   0.375   8.360   9.209
   55        0.497   0.501   8.309   9.308
   56        0.498   0.506   8.321   9.325
   57        0.486   0.377   8.304   9.167
   58        0.502   0.523   8.331   9.356
   59        0.498   0.504   8.309   9.311
   60        0.505   0.509   8.329   9.343
   61        0.490   0.376   8.297   9.164
   62        0.474   0.377   8.363   9.215
   63        0.498   0.504   8.309   9.311
   64        0.499   0.508   8.319   9.326
   65        1.585   3.336   0.000   4.921
   66        1.585   3.336   0.000   4.921
   67        1.583   3.335   0.000   4.918
   68        1.585   3.336   0.000   4.921
   69        1.588   3.331   0.000   4.919
--------------------------------------------------
tot         39.474  46.702 532.314 618.490
 


 magnetization (x)
 
# of ion       s       p       d       tot
------------------------------------------
    1       -0.008  -0.025   0.715   0.682
    2       -0.003  -0.012   0.475   0.460
    3       -0.006  -0.024   0.771   0.742
    4       -0.006  -0.023   0.742   0.713
    5       -0.007  -0.025   0.722   0.691
    6       -0.003  -0.008   0.158   0.147
    7       -0.005  -0.024   0.762   0.733
    8       -0.004  -0.023   0.728   0.701
    9       -0.007  -0.025   0.722   0.690
   10       -0.003  -0.009   0.154   0.142
   11       -0.006  -0.024   0.771   0.742
   12       -0.004  -0.023   0.728   0.700
   13       -0.008  -0.025   0.715   0.682
   14       -0.003  -0.012   0.475   0.460
   15       -0.005  -0.024   0.754   0.725
   16       -0.006  -0.023   0.742   0.713
   17       -0.005  -0.023   0.734   0.706
   18       -0.002  -0.012   0.579   0.565
   19       -0.005  -0.024   0.750   0.721
   20       -0.005  -0.020   0.592   0.567
   21       -0.002  -0.024   0.758   0.732
   22       -0.009  -0.011   0.772   0.752
   23       -0.005  -0.024   0.762   0.733
   24       -0.004  -0.023   0.729   0.701
   25       -0.007  -0.025   0.722   0.691
   26       -0.003  -0.009   0.157   0.146
   27       -0.005  -0.024   0.762   0.733
   28       -0.006  -0.019   0.714   0.690
   29       -0.002  -0.024   0.759   0.732
   30       -0.009  -0.011   0.772   0.751
   31       -0.005  -0.024   0.750   0.721
   32       -0.004  -0.023   0.728   0.700
   33       -0.005  -0.023   0.734   0.706
   34       -0.002  -0.012   0.578   0.564
   35       -0.005  -0.024   0.763   0.735
   36       -0.006  -0.023   0.728   0.699
   37       -0.005  -0.023   0.734   0.706
   38       -0.002  -0.012   0.579   0.565
   39       -0.005  -0.024   0.750   0.721
   40       -0.006  -0.023   0.728   0.699
   41       -0.008  -0.025   0.715   0.683
   42       -0.003  -0.012   0.475   0.460
   43       -0.006  -0.024   0.771   0.742
   44       -0.004  -0.023   0.729   0.701
   45       -0.008  -0.025   0.716   0.683
   46       -0.003  -0.013   0.475   0.460
   47       -0.005  -0.024   0.750   0.721
   48       -0.004  -0.023   0.728   0.701
   49       -0.008  -0.025   0.716   0.683
   50       -0.003  -0.012   0.476   0.460
   51       -0.005  -0.024   0.750   0.721
   52       -0.005  -0.020   0.592   0.567
   53       -0.002  -0.024   0.759   0.733
   54       -0.009  -0.011   0.772   0.751
   55       -0.005  -0.024   0.750   0.721
   56       -0.006  -0.023   0.728   0.699
   57       -0.008  -0.025   0.715   0.683
   58       -0.003  -0.012   0.475   0.460
   59       -0.005  -0.024   0.754   0.725
   60       -0.005  -0.020   0.592   0.567
   61        0.000  -0.025   0.757   0.732
   62       -0.008  -0.015   0.761   0.739
   63       -0.005  -0.024   0.755   0.726
   64       -0.006  -0.023   0.742   0.713
   65        0.001   0.067   0.000   0.068
   66        0.001   0.067   0.000   0.068
   67        0.002   0.117   0.000   0.119
   68        0.001   0.066   0.000   0.067
   69        0.001  -0.005   0.000  -0.004
--------------------------------------------------
tot         -0.319  -1.000  43.224  41.905
 
 BZINTS: Fermi energy:  0.495042;670.000000 electrons
         Band energy:***********;  BLOECHL correction: -0.041468

 total amount of memory used by VASP MPI-rank0   114634. kBytes
=======================================================================

   base      :      30000. kBytes
   nonlr-proj:      12348. kBytes
   fftplans  :       6402. kBytes
   grid      :      16455. kBytes
   one-center:         93. kBytes
   wavefun   :      49336. kBytes
 
  
  
 General timing and accounting informations for this job:
 ========================================================
  
                  Total CPU time used (sec):     1658.975
                            User time (sec):     1477.508
                          System time (sec):      181.467
                         Elapsed time (sec):     1696.227
  
                   Maximum memory used (kb):      348116.
                   Average memory used (kb):           0.
  
                          Minor page faults:     25972770
                          Major page faults:            0
                 Voluntary context switches:         5143
