       N       E                     dE             d eps       ncg     rms          rms(c)
DAV:   1     0.272751135840E+04    0.27275E+04   -0.12273E+05 11619   0.209E+03
DAV:   2     0.149501729331E+03   -0.25780E+04   -0.24364E+04 11592   0.440E+02
DAV:   3    -0.210748383384E+03   -0.36025E+03   -0.29547E+03 11592   0.199E+02
DAV:   4    -0.230544895274E+03   -0.19797E+02   -0.19092E+02 12375   0.551E+01
DAV:   5    -0.230808679140E+03   -0.26378E+00   -0.26329E+00 13041   0.621E+00    0.580E+01
RMM:   6    -0.214278141170E+03    0.16531E+02   -0.30539E+02 11981   0.737E+01    0.563E+01
RMM:   7    -0.255755757812E+03   -0.41478E+02   -0.86496E+01 12368   0.352E+01    0.117E+02
RMM:   8    -0.211618916473E+03    0.44137E+02   -0.31405E+01 12259   0.221E+01    0.504E+01
RMM:   9    -0.199618947748E+03    0.12000E+02   -0.13792E+01 11848   0.139E+01    0.219E+01
RMM:  10    -0.206480183309E+03   -0.68612E+01   -0.10694E+01 12101   0.119E+01    0.477E+01
RMM:  11    -0.200446779214E+03    0.60334E+01   -0.82856E+00 11966   0.108E+01    0.216E+01
RMM:  12    -0.198500241323E+03    0.19465E+01   -0.21358E+00 12032   0.545E+00    0.102E+01
RMM:  13    -0.198485188140E+03    0.15053E-01   -0.69046E-01 12046   0.298E+00    0.959E+00
RMM:  14    -0.198300746759E+03    0.18444E+00   -0.25932E-01 12023   0.191E+00    0.657E+00
RMM:  15    -0.198265146637E+03    0.35600E-01   -0.10520E-01 12064   0.117E+00    0.518E+00
RMM:  16    -0.198257703626E+03    0.74430E-02   -0.11011E-01 12239   0.114E+00    0.390E+00
RMM:  17    -0.198271641362E+03   -0.13938E-01   -0.94057E-02 12219   0.108E+00    0.341E+00
RMM:  18    -0.198277833543E+03   -0.61922E-02   -0.68582E-02 12031   0.934E-01    0.254E+00
RMM:  19    -0.198265199695E+03    0.12634E-01   -0.48898E-02 11967   0.809E-01    0.183E+00
RMM:  20    -0.198270411274E+03   -0.52116E-02   -0.19859E-02 12087   0.526E-01    0.184E+00
RMM:  21    -0.198258397545E+03    0.12014E-01   -0.11153E-02 11950   0.403E-01    0.523E-01
RMM:  22    -0.198259336130E+03   -0.93859E-03   -0.39526E-03 12114   0.225E-01    0.855E-01
RMM:  23    -0.198256717410E+03    0.26187E-02   -0.23221E-03 11998   0.179E-01    0.236E-01
RMM:  24    -0.198256766229E+03   -0.48819E-04   -0.52223E-04 12053   0.820E-02    0.250E-01
RMM:  25    -0.198256656241E+03    0.10999E-03   -0.24914E-04 12147   0.588E-02    0.151E-01
RMM:  26    -0.198256608143E+03    0.48098E-04   -0.12184E-04 12093   0.409E-02    0.929E-02
RMM:  27    -0.198256707210E+03   -0.99067E-04   -0.61947E-05 12151   0.281E-02    0.918E-02
RMM:  28    -0.198256675998E+03    0.31212E-04   -0.36571E-05 12019   0.227E-02    0.321E-02
RMM:  29    -0.198256704220E+03   -0.28223E-04   -0.10348E-05 12045   0.118E-02    0.463E-02
RMM:  30    -0.198256693026E+03    0.11195E-04   -0.73521E-06 11291   0.103E-02    0.188E-02
RMM:  31    -0.198256692899E+03    0.12617E-06   -0.37967E-06  9639   0.711E-03
   1 F= -.19825669E+03 E0= -.19825669E+03  d E =0.000000E+00  mag=    35.4664
