 vasp.5.4.4.18Apr17-6-g9f103f2a35 (build Sep 06 2021 19:49:22) complex          
  
 executed on             LinuxIFC date 2021.12.27  23:24:43
 running on   48 total cores
 distrk:  each k-point on   48 cores,    1 groups
 distr:  one band on NCORES_PER_BAND=  16 cores,    3 groups


--------------------------------------------------------------------------------------------------------


 INCAR:
 POTCAR:    PAW_PBE Ni 02Aug2007                  
 POTCAR:    PAW_PBE Fe 06Sep2000                  

 ----------------------------------------------------------------------------- 
|                                                                             |
|           W    W    AA    RRRRR   N    N  II  N    N   GGGG   !!!           |
|           W    W   A  A   R    R  NN   N  II  NN   N  G    G  !!!           |
|           W    W  A    A  R    R  N N  N  II  N N  N  G       !!!           |
|           W WW W  AAAAAA  RRRRR   N  N N  II  N  N N  G  GGG   !            |
|           WW  WW  A    A  R   R   N   NN  II  N   NN  G    G                |
|           W    W  A    A  R    R  N    N  II  N    N   GGGG   !!!           |
|                                                                             |
|      For optimal performance we recommend to set                            |
|        NCORE= 4 - approx SQRT( number of cores)                             |
|      NCORE specifies how many cores store one orbital (NPAR=cpu/NCORE).     |
|      This setting can  greatly improve the performance of VASP for DFT.     |
|      The default,   NCORE=1            might be grossly inefficient         |
|      on modern multi-core architectures or massively parallel machines.     |
|      Do your own testing !!!!                                               |
|      Unfortunately you need to use the default for GW and RPA calculations. |
|      (for HF NCORE is supported but not extensively tested yet)             |
|                                                                             |
 ----------------------------------------------------------------------------- 

 POTCAR:    PAW_PBE Ni 02Aug2007                  
   VRHFIN =Ni:                                                                  
   LEXCH  = PE                                                                  
   EATOM  =  1077.6739 eV,   79.2068 Ry                                         
                                                                                
   TITEL  = PAW_PBE Ni 02Aug2007                                                
   LULTRA =        F    use ultrasoft PP ?                                      
   IUNSCR =        1    unscreen: 0-lin 1-nonlin 2-no                           
   RPACOR =    2.000    partial core radius                                     
   POMASS =   58.690; ZVAL   =   10.000    mass and valenz                      
   RCORE  =    2.300    outmost cutoff radius                                   
   RWIGS  =    2.430; RWIGS  =    1.286    wigner-seitz radius (au A)           
   ENMAX  =  269.532; ENMIN  =  202.149 eV                                      
   RCLOC  =    1.201    cutoff for local pot                                    
   LCOR   =        T    correct aug charges                                     
   LPAW   =        T    paw PP                                                  
   EAUG   =  544.565                                                            
   DEXC   =    0.000                                                            
   RMAX   =    2.357    core radius for proj-oper                               
   RAUG   =    1.300    factor for augmentation sphere                          
   RDEP   =    2.390    radius for radial grids                                 
   RDEPT  =    1.838    core radius for aug-charge                              
                                                                                
   Atomic configuration                                                         
    9 entries                                                                   
     n  l   j            E        occ.                                          
     1  0  0.50     -8206.4253   2.0000                                         
     2  0  0.50      -976.1748   2.0000                                         
     2  1  1.50      -839.0571   6.0000                                         
     3  0  0.50      -105.9991   2.0000                                         
     3  1  1.50       -66.4603   6.0000                                         
     3  2  2.50        -4.6458   9.0000                                         
     4  0  0.50        -4.4926   1.0000                                         
     4  1  1.50        -4.0817   0.0000                                         
     4  3  2.50        -1.3606   0.0000                                         
   Description                                                                  
     l       E           TYP  RCUT    TYP  RCUT                                 
     2     -4.6457903     23  2.300                                             
     2     -6.0063729     23  2.300                                             
     0     -4.4925590     23  2.300                                             
     0      5.0102601     23  2.300                                             
     1     -2.7211652     23  2.300                                             
     1     16.5183231     23  2.300                                             
  local pseudopotential read in
  partial core-charges read in
  partial kinetic energy density read in
  atomic valenz-charges read in
  non local Contribution for L=           2  read in
    real space projection operators read in
  non local Contribution for L=           2  read in
    real space projection operators read in
  non local Contribution for L=           0  read in
    real space projection operators read in
  non local Contribution for L=           0  read in
    real space projection operators read in
  non local Contribution for L=           1  read in
    real space projection operators read in
  non local Contribution for L=           1  read in
    real space projection operators read in
    PAW grid and wavefunctions read in
 
   number of l-projection  operators is LMAX  =           6
   number of lm-projection operators is LMMAX =          18
 
 POTCAR:    PAW_PBE Fe 06Sep2000                  
   VRHFIN =Fe:  d7 s1                                                           
   LEXCH  = PE                                                                  
   EATOM  =   594.3153 eV,   43.6809 Ry                                         
                                                                                
   TITEL  = PAW_PBE Fe 06Sep2000                                                
   LULTRA =        F    use ultrasoft PP ?                                      
   IUNSCR =        1    unscreen: 0-lin 1-nonlin 2-no                           
   RPACOR =    2.000    partial core radius                                     
   POMASS =   55.847; ZVAL   =    8.000    mass and valenz                      
   RCORE  =    2.300    outmost cutoff radius                                   
   RWIGS  =    2.460; RWIGS  =    1.302    wigner-seitz radius (au A)           
   ENMAX  =  267.882; ENMIN  =  200.911 eV                                      
   RCLOC  =    1.701    cutoff for local pot                                    
   LCOR   =        T    correct aug charges                                     
   LPAW   =        T    paw PP                                                  
   EAUG   =  511.368                                                            
   DEXC   =    0.000                                                            
   RMAX   =    2.356    core radius for proj-oper                               
   RAUG   =    1.300    factor for augmentation sphere                          
   RDEP   =    2.442    radius for radial grids                                 
   RDEPT  =    1.890    core radius for aug-charge                              
                                                                                
   Atomic configuration                                                         
    9 entries                                                                   
     n  l   j            E        occ.                                          
     1  0  0.50     -6993.8440   2.0000                                         
     2  0  0.50      -814.6047   2.0000                                         
     2  1  1.50      -693.3689   6.0000                                         
     3  0  0.50       -89.4732   2.0000                                         
     3  1  1.50       -55.6373   6.0000                                         
     3  2  2.50        -3.8151   7.0000                                         
     4  0  0.50        -4.2551   1.0000                                         
     4  1  1.50        -3.4015   0.0000                                         
     4  3  2.50        -1.3606   0.0000                                         
   Description                                                                  
     l       E           TYP  RCUT    TYP  RCUT                                 
     2     -3.8151135     23  2.300                                             
     2     -5.1756961     23  2.300                                             
     0     -4.2550963     23  2.300                                             
     0      7.2035603     23  2.300                                             
     1     -2.7211652     23  2.300                                             
     1     18.4316424     23  2.300                                             
  local pseudopotential read in
  partial core-charges read in
  partial kinetic energy density read in
  atomic valenz-charges read in
  non local Contribution for L=           2  read in
    real space projection operators read in
  non local Contribution for L=           2  read in
    real space projection operators read in
  non local Contribution for L=           0  read in
    real space projection operators read in
  non local Contribution for L=           0  read in
    real space projection operators read in
  non local Contribution for L=           1  read in
    real space projection operators read in
  non local Contribution for L=           1  read in
    real space projection operators read in
    PAW grid and wavefunctions read in
 
   number of l-projection  operators is LMAX  =           6
   number of lm-projection operators is LMMAX =          18
 
 Optimization of the real space projectors (new method)

 maximal supplied QI-value         = 16.25
 optimisation between [QCUT,QGAM] = [ 11.54, 23.24] = [ 37.28,151.24] Ry 
 Optimized for a Real-space Cutoff    1.45 Angstroem

   l    n(q)    QCUT    max X(q) W(low)/X(q) W(high)/X(q)  e(spline) 
   2      9    11.539    60.317    0.19E-03    0.47E-04    0.16E-06
   2      9    11.539    55.921    0.19E-03    0.48E-04    0.16E-06
   0     10    11.539    51.690    0.80E-04    0.50E-04    0.24E-06
   0     10    11.539    30.015    0.73E-04    0.45E-04    0.22E-06
   1     10    11.539    18.849    0.87E-04    0.16E-03    0.71E-07
   1     10    11.539    14.624    0.73E-04    0.13E-03    0.64E-07
 Optimization of the real space projectors (new method)

 maximal supplied QI-value         = 16.25
 optimisation between [QCUT,QGAM] = [ 11.54, 23.24] = [ 37.28,151.24] Ry 
 Optimized for a Real-space Cutoff    1.53 Angstroem

   l    n(q)    QCUT    max X(q) W(low)/X(q) W(high)/X(q)  e(spline) 
   2     10    11.539    80.901    0.11E-03    0.14E-03    0.21E-06
   2     10    11.539    75.754    0.11E-03    0.14E-03    0.22E-06
   0     11    11.539    58.752    0.52E-04    0.18E-04    0.33E-06
   0     11    11.539    30.679    0.44E-04    0.16E-04    0.30E-06
   1     10    11.539    17.977    0.53E-04    0.29E-04    0.13E-06
   1     10    11.539    13.559    0.44E-04    0.25E-04    0.11E-06
  PAW_PBE Ni 02Aug2007                  :
 energy of atom  1       EATOM=-1077.6739
 kinetic energy error for atom=    0.0030 (will be added to EATOM!!)
  PAW_PBE Fe 06Sep2000                  :
 energy of atom  2       EATOM= -594.3153
 kinetic energy error for atom=    0.0026 (will be added to EATOM!!)
 
 
 POSCAR: POSCAR                                  
  positions in direct lattice
  velocities in cartesian coordinates
 exchange correlation table for  LEXCH =        8
   RHO(1)=    0.500       N(1)  =     2000
   RHO(2)=  100.500       N(2)  =     4000
 


--------------------------------------------------------------------------------------------------------


 ion  position               nearest neighbor table
   1  0.999  0.001  0.500-  18 2.49   5 2.50  19 2.50  14 2.50   2 2.50   7 2.50  25 2.50   6 2.50
                            23 2.50  10 2.51   3 2.51  12 2.52
   2  0.002  0.249  0.751-  32 2.48  28 2.50  27 2.50   1 2.50  20 2.51   7 2.51  10 2.51  11 2.51
                            19 2.52   4 2.52  25 2.53  26 2.54
   3  0.998  0.251  0.249-  28 2.48   4 2.49  18 2.49  32 2.50  22 2.50  11 2.51   6 2.51  19 2.51
                             1 2.51  13 2.51   7 2.51  26 2.52
   4  0.999  0.498  0.499-  27 2.45  19 2.49   3 2.49  12 2.49  20 2.50  23 2.50   7 2.50  14 2.51
                            13 2.51   2 2.52  22 2.52   5 2.54
   5  0.998  0.753  0.750-  26 2.47  27 2.48  10 2.49  23 2.49   1 2.50  20 2.50  14 2.50  25 2.51
                            11 2.51  24 2.51  21 2.53   4 2.54
   6  0.249  0.002  0.250-  28 2.49   7 2.49  26 2.49  31 2.50  29 2.50   1 2.50   3 2.51  15 2.51
                            14 2.51  21 2.51  12 2.52   8 2.53
   7  0.250  0.250  0.499-  29 2.46   6 2.49   9 2.49  27 2.49  13 2.50  25 2.50   4 2.50   1 2.50
                             2 2.51   3 2.51   8 2.53  16 2.53
   8  0.502  0.998  0.501-  29 2.45  31 2.45  25 2.47  10 2.49  23 2.50  17 2.51  18 2.51  19 2.51
                             9 2.51  14 2.51   6 2.53   7 2.53
   9  0.498  0.252  0.748-  30 2.48   7 2.49  16 2.49  25 2.50  19 2.50  15 2.51   8 2.51  20 2.52
                            10 2.52  32 2.52  28 2.54  27 2.54
  10  0.749  0.000  0.751-  32 2.48   5 2.49   8 2.49  15 2.50  19 2.50  17 2.51   1 2.51  24 2.51
                             2 2.51  23 2.52  26 2.52   9 2.52
  11  0.001  0.502  1.000-  28 2.49  12 2.49  21 2.50  20 2.50   3 2.51  13 2.51  32 2.51   5 2.51
                            24 2.51   2 2.51  22 2.51  27 2.52
  12  1.000  0.748  0.251-  26 2.47  14 2.49   4 2.49  11 2.49  23 2.49  18 2.51  13 2.51  22 2.51
                            21 2.51   1 2.52   6 2.52  24 2.52
  13  0.252  0.499  0.250-  28 2.48  21 2.50   7 2.50  11 2.51  12 2.51  16 2.51   4 2.51   3 2.51
                            14 2.52  29 2.52  31 2.53  30 2.53
  14  0.248  0.751  0.500-  27 2.44  25 2.46  12 2.49  31 2.50   1 2.50   5 2.50   4 2.51   6 2.51
                             8 2.51  13 2.52  16 2.52  17 2.53
  15  0.500  0.003  0.000-  10 2.50  32 2.50  28 2.51   6 2.51   9 2.51  25 2.51  24 2.52  21 2.52
                            31 2.52  18 2.52  29 2.53  17 2.53
  16  0.502  0.502  0.501-  29 2.48  17 2.49  23 2.49   9 2.49  27 2.50  22 2.50  31 2.50  19 2.50
                            20 2.51  13 2.51  14 2.52   7 2.53
  17  0.501  0.748  0.751-  30 2.47  24 2.48  25 2.49  16 2.49  20 2.51   8 2.51  21 2.51  10 2.51
                            27 2.51  23 2.51  14 2.53  15 2.53
  18  0.752  0.000  0.250-  26 2.48   1 2.49   3 2.49  29 2.49  31 2.50  12 2.51  23 2.51   8 2.51
                            24 2.51  19 2.51  15 2.52  32 2.52
  19  0.750  0.250  0.501-  29 2.45   4 2.49  20 2.49   1 2.50   9 2.50  16 2.50  10 2.50   3 2.51
                             8 2.51  18 2.51   2 2.52  22 2.52
  20  0.753  0.500  0.750-  30 2.49  32 2.49  19 2.49   4 2.50  11 2.50   5 2.50  23 2.50  17 2.51
                             2 2.51  16 2.51  24 2.51   9 2.52
  21  0.252  0.749  0.001-  26 2.49  11 2.50  13 2.50  30 2.50  17 2.51  31 2.51  12 2.51   6 2.51
                            15 2.52  25 2.53  27 2.53   5 2.53
  22  0.748  0.499  0.248-  24 2.49  16 2.50   3 2.50  30 2.50  29 2.50  12 2.51  32 2.51  11 2.51
                            23 2.52  19 2.52   4 2.52  31 2.53
  23  0.751  0.749  0.500-   5 2.49  16 2.49  12 2.49  31 2.49   8 2.50   4 2.50  20 2.50   1 2.50
                            18 2.51  17 2.51  10 2.52  22 2.52
  24  0.747  0.749  0.000-  30 2.48  17 2.48  26 2.49  22 2.49  20 2.51  11 2.51  18 2.51   5 2.51
                            10 2.51  31 2.52  15 2.52  12 2.52
  25  0.254  0.997  0.745-  14 2.46   8 2.47  17 2.49   7 2.50   9 2.50   1 2.50   5 2.51  15 2.51
                             2 2.53  21 2.53  26 2.57  28 2.57
  26  0.999  0.993  0.003-  12 2.47   5 2.47  18 2.48  24 2.49   6 2.49  21 2.49  10 2.52  32 2.52
                             3 2.52  28 2.54   2 2.54  25 2.57
  27  0.245  0.505  0.741-  14 2.44   4 2.45   5 2.48   7 2.49  16 2.50   2 2.50  17 2.51  11 2.52
                            21 2.53   9 2.54  30 2.56  28 2.58
  28  0.247  0.251  0.003-  13 2.48   3 2.48   6 2.49  11 2.49   2 2.50  15 2.51  30 2.52   9 2.54
                            26 2.54  29 2.56  25 2.57  27 2.58
  29  0.501  0.247  0.261-   8 2.45  19 2.45   7 2.46  16 2.48  18 2.49   6 2.50  22 2.50  13 2.52
                            15 2.53  28 2.56  32 2.59  30 2.60
  30  0.502  0.500  0.995-  17 2.47  24 2.48   9 2.48  20 2.49  22 2.50  21 2.50  32 2.52  28 2.52
                            13 2.53  27 2.56  31 2.58  29 2.60
  31  0.500  0.755  0.254-   8 2.45  23 2.49   6 2.50  18 2.50  14 2.50  16 2.50  21 2.51  24 2.52
                            15 2.52  13 2.53  22 2.53  30 2.58
  32  0.753  0.249  0.996-   2 2.48  10 2.48  20 2.49   3 2.50  15 2.50  11 2.51  22 2.51  30 2.52
                            26 2.52  18 2.52   9 2.52  29 2.59
 

IMPORTANT INFORMATION: All symmetrisations will be switched off!
NOSYMM: (Re-)initialisation of all symmetry stuff for point group C_1.

 
 

Automatic generation of k-mesh.
 generate k-points for:    3    3    3
Space group operators:
 irot       det(A)        alpha          n_x          n_y          n_z        tau_x        tau_y        tau_z
    1     1.000000     0.000001     1.000000     0.000000     0.000000     0.000000     0.000000     0.000000
 
 Subroutine IBZKPT returns following result:
 ===========================================
 
 Found     14 irreducible k-points:
 
 Following reciprocal coordinates:
            Coordinates               Weight
  0.000000  0.000000  0.000000      1.000000
  0.333333  0.000000  0.000000      2.000000
  0.000000  0.333333  0.000000      2.000000
  0.333333  0.333333  0.000000      2.000000
 -0.333333  0.333333  0.000000      2.000000
  0.000000  0.000000  0.333333      2.000000
  0.333333  0.000000  0.333333      2.000000
 -0.333333  0.000000  0.333333      2.000000
  0.000000  0.333333  0.333333      2.000000
  0.333333  0.333333  0.333333      2.000000
 -0.333333  0.333333  0.333333      2.000000
  0.000000 -0.333333  0.333333      2.000000
  0.333333 -0.333333  0.333333      2.000000
 -0.333333 -0.333333  0.333333      2.000000
 
 Following cartesian coordinates:
            Coordinates               Weight
  0.000000  0.000000  0.000000      1.000000
  0.166667  0.000000  0.000000      2.000000
  0.000000  0.166667  0.000000      2.000000
  0.166667  0.166667  0.000000      2.000000
 -0.166667  0.166667  0.000000      2.000000
  0.000000  0.000000  0.166667      2.000000
  0.166667  0.000000  0.166667      2.000000
 -0.166667  0.000000  0.166667      2.000000
  0.000000  0.166667  0.166667      2.000000
  0.166667  0.166667  0.166667      2.000000
 -0.166667  0.166667  0.166667      2.000000
  0.000000 -0.166667  0.166667      2.000000
  0.166667 -0.166667  0.166667      2.000000
 -0.166667 -0.166667  0.166667      2.000000
 
 TETIRR: Found     78 inequivalent tetrahedra from      162


--------------------------------------------------------------------------------------------------------




 Dimension of arrays:
   k-points           NKPTS =     14   k-points in BZ     NKDIM =     14   number of bands    NBANDS=    207
   number of dos      NEDOS =    301   number of ions     NIONS =     32
   non local maximal  LDIM  =      6   non local SUM 2l+1 LMDIM =     18
   total plane-waves  NPLWV = 157464
   max r-space proj   IRMAX =   6728   max aug-charges    IRDMAX=  15936
   dimension x,y,z NGX =    54 NGY =   54 NGZ =   54
   dimension x,y,z NGXF=   108 NGYF=  108 NGZF=  108
   support grid    NGXF=   108 NGYF=  108 NGZF=  108
   ions per type =              24   8
   NGX,Y,Z   is equivalent  to a cutoff of  12.66, 12.66, 12.66 a.u.
   NGXF,Y,Z  is equivalent  to a cutoff of  25.32, 25.32, 25.32 a.u.

 SYSTEM =  SQS-NiFe                                
 POSCAR =  POSCAR                                  

 Startparameter for this run:
   NWRITE =      2    write-flag & timer
   PREC   = accura    normal or accurate (medium, high low for compatibility)
   ISTART =      0    job   : 0-new  1-cont  2-samecut
   ICHARG =      2    charge: 1-file 2-atom 10-const
   ISPIN  =      2    spin polarized calculation?
   LNONCOLLINEAR =      F non collinear calculations
   LSORBIT =      F    spin-orbit coupling
   INIWAV =      1    electr: 0-lowe 1-rand  2-diag
   LASPH  =      F    aspherical Exc in radial PAW
   METAGGA=      F    non-selfconsistent MetaGGA calc.

 Electronic Relaxation 1
   ENCUT  =  520.0 eV  38.22 Ry    6.18 a.u.  13.18 13.18 13.18*2*pi/ulx,y,z
   ENINI  =  520.0     initial cutoff
   ENAUG  =  544.6 eV  augmentation charge cutoff
   NELM   =    200;   NELMIN=  2; NELMDL= -5     # of ELM steps 
   EDIFF  = 0.1E-05   stopping-criterion for ELM
   LREAL  =      T    real-space projection
   NLSPLINE    = F    spline interpolate recip. space projectors
   LCOMPAT=      F    compatible to vasp.4.4
   GGA_COMPAT  = T    GGA compatible to vasp.4.4-vasp.4.6
   LMAXPAW     = -100 max onsite density
   LMAXMIX     =    2 max onsite mixed and CHGCAR
   VOSKOWN=      0    Vosko Wilk Nusair interpolation
   ROPT   =   -0.00025  -0.00025
 Ionic relaxation
   EDIFFG = -.2E-01   stopping-criterion for IOM
   NSW    =      0    number of steps for IOM
   NBLOCK =      1;   KBLOCK =      1    inner block; outer block 
   IBRION =     -1    ionic relax: 0-MD 1-quasi-New 2-CG
   NFREE  =      0    steps in history (QN), initial steepest desc. (CG)
   ISIF   =      2    stress and relaxation
   IWAVPR =     10    prediction:  0-non 1-charg 2-wave 3-comb
   ISYM   =      0    0-nonsym 1-usesym 2-fastsym
   LCORR  =      T    Harris-Foulkes like correction to forces

   POTIM  = 0.5000    time-step for ionic-motion
   TEIN   =    0.0    initial temperature
   TEBEG  =    0.0;   TEEND  =   0.0 temperature during run
   SMASS  =  -3.00    Nose mass-parameter (am)
   estimated Nose-frequenzy (Omega)   =  0.10E-29 period in steps =****** mass=  -0.115E-26a.u.
   SCALEE = 1.0000    scale energy and forces
   NPACO  =    256;   APACO  = 16.0  distance and # of slots for P.C.
   PSTRESS=    0.0 pullay stress

  Mass of Ions in am
   POMASS =  58.69 55.85
  Ionic Valenz
   ZVAL   =  10.00  8.00
  Atomic Wigner-Seitz radii
   RWIGS  =  -1.00 -1.00
  virtual crystal weights 
   VCA    =   1.00  1.00
   NELECT =     304.0000    total number of electrons
   NUPDOWN=      -1.0000    fix difference up-down

 DOS related values:
   EMIN   =  10.00;   EMAX   =-10.00  energy-range for DOS
   EFERMI =   0.00
   ISMEAR =    -5;   SIGMA  =   0.20  broadening in eV -4-tet -1-fermi 0-gaus

 Electronic relaxation 2 (details)
   IALGO  =     68    algorithm
   LDIAG  =      T    sub-space diagonalisation (order eigenvalues)
   LSUBROT=      F    optimize rotation matrix (better conditioning)
   TURBO    =      0    0=normal 1=particle mesh
   IRESTART =      0    0=no restart 2=restart with 2 vectors
   NREBOOT  =      0    no. of reboots
   NMIN     =      0    reboot dimension
   EREF     =   0.00    reference energy to select bands
   IMIX   =      4    mixing-type and parameters
     AMIX     =   0.40;   BMIX     =  1.00
     AMIX_MAG =   1.60;   BMIX_MAG =  1.00
     AMIN     =   0.10
     WC   =   100.;   INIMIX=   1;  MIXPRE=   1;  MAXMIX= -45

 Intra band minimization:
   WEIMIN = 0.0000     energy-eigenvalue tresh-hold
   EBREAK =  0.12E-08  absolut break condition
   DEPER  =   0.30     relativ break condition  

   TIME   =   0.40     timestep for ELM

  volume/ion in A,a.u.               =      11.14        75.16
  Fermi-wavevector in a.u.,A,eV,Ry     =   1.552577  2.933945 32.796776  2.410495
  Thomas-Fermi vector in A             =   2.656932
 
 Write flags
   LWAVE        =      F    write WAVECAR
   LDOWNSAMPLE  =      F    k-point downsampling of WAVECAR
   LCHARG       =      T    write CHGCAR
   LVTOT        =      F    write LOCPOT, total local potential
   LVHAR        =      F    write LOCPOT, Hartree potential only
   LELF         =      F    write electronic localiz. function (ELF)
   LORBIT       =     11    0 simple, 1 ext, 2 COOP (PROOUT), +10 PAW based schemes


 Dipole corrections
   LMONO  =      F    monopole corrections only (constant potential shift)
   LDIPOL =      F    correct potential (dipole corrections)
   IDIPOL =      0    1-x, 2-y, 3-z, 4-all directions 
   EPSILON=  1.0000000 bulk dielectric constant

 Exchange correlation treatment:
   GGA     =    --    GGA type
   LEXCH   =     8    internal setting for exchange type
   VOSKOWN=      0    Vosko Wilk Nusair interpolation
   LHFCALC =     F    Hartree Fock is set to
   LHFONE  =     F    Hartree Fock one center treatment
   AEXX    =    0.0000 exact exchange contribution

 Linear response parameters
   LEPSILON=     F    determine dielectric tensor
   LRPA    =     F    only Hartree local field effects (RPA)
   LNABLA  =     F    use nabla operator in PAW spheres
   LVEL    =     F    velocity operator in full k-point grid
   LINTERFAST=   F  fast interpolation
   KINTER  =     0    interpolate to denser k-point grid
   CSHIFT  =0.1000    complex shift for real part using Kramers Kronig
   OMEGAMAX=  -1.0    maximum frequency
   DEG_THRESHOLD= 0.2000000E-02 threshold for treating states as degnerate
   RTIME   =   -0.100 relaxation time in fs
  (WPLASMAI=    0.000 imaginary part of plasma frequency in eV, 0.658/RTIME)
   DFIELD  = 0.0000000 0.0000000 0.0000000 field for delta impulse in time
 
 Orbital magnetization related:
   ORBITALMAG=     F  switch on orbital magnetization
   LCHIMAG   =     F  perturbation theory with respect to B field
   DQ        =  0.001000  dq finite difference perturbation B field
   LLRAUG    =     F  two centre corrections for induced B field



--------------------------------------------------------------------------------------------------------


 Static calculation
 charge density and potential will be updated during run
 spin polarized calculation
 RMM-DIIS sequential band-by-band and
  variant of blocked Davidson during initial phase
 perform sub-space diagonalisation
    before iterative eigenvector-optimisation
 modified Broyden-mixing scheme, WC =      100.0
 initial mixing is a Kerker type mixing with AMIX =  0.4000 and BMIX =      1.0000
 Hartree-type preconditioning will be used
 using additional bands           55
 real space projection scheme for non local part
 use partial core corrections
 calculate Harris-corrections to forces 
   (improved forces if not selfconsistent)
 use gradient corrections 
 use of overlap-Matrix (Vanderbilt PP)
 Fermi weights with tetrahedron method with Bloechl corrections


--------------------------------------------------------------------------------------------------------


  energy-cutoff  :      520.00
  volume of cell :      356.40
      direct lattice vectors                 reciprocal lattice vectors
     7.090000000  0.000000000  0.000000000     0.141043724  0.000000000  0.000000000
     0.000000000  7.090000000  0.000000000     0.000000000  0.141043724  0.000000000
     0.000000000  0.000000000  7.090000000     0.000000000  0.000000000  0.141043724

  length of vectors
     7.090000000  7.090000000  7.090000000     0.141043724  0.141043724  0.141043724


 
 k-points in units of 2pi/SCALE and weight: read from INCAR                         
   0.00000000  0.00000000  0.00000000       0.037
   0.16666667  0.00000000  0.00000000       0.074
   0.00000000  0.16666667  0.00000000       0.074
   0.16666667  0.16666667  0.00000000       0.074
  -0.16666667  0.16666667  0.00000000       0.074
   0.00000000  0.00000000  0.16666667       0.074
   0.16666667  0.00000000  0.16666667       0.074
  -0.16666667  0.00000000  0.16666667       0.074
   0.00000000  0.16666667  0.16666667       0.074
   0.16666667  0.16666667  0.16666667       0.074
  -0.16666667  0.16666667  0.16666667       0.074
   0.00000000 -0.16666667  0.16666667       0.074
   0.16666667 -0.16666667  0.16666667       0.074
  -0.16666667 -0.16666667  0.16666667       0.074
 
 k-points in reciprocal lattice and weights: read from INCAR                         
   0.00000000  0.00000000  0.00000000       0.037
   0.33333333  0.00000000  0.00000000       0.074
   0.00000000  0.33333333  0.00000000       0.074
   0.33333333  0.33333333  0.00000000       0.074
  -0.33333333  0.33333333  0.00000000       0.074
   0.00000000  0.00000000  0.33333333       0.074
   0.33333333  0.00000000  0.33333333       0.074
  -0.33333333  0.00000000  0.33333333       0.074
   0.00000000  0.33333333  0.33333333       0.074
   0.33333333  0.33333333  0.33333333       0.074
  -0.33333333  0.33333333  0.33333333       0.074
   0.00000000 -0.33333333  0.33333333       0.074
   0.33333333 -0.33333333  0.33333333       0.074
  -0.33333333 -0.33333333  0.33333333       0.074
 
 position of ions in fractional coordinates (direct lattice) 
   0.99925219  0.00106413  0.49999431
   0.00198447  0.24886339  0.75124757
   0.99822662  0.25098147  0.24876528
   0.99929299  0.49824742  0.49850243
   0.99811931  0.75281902  0.75015618
   0.24878031  0.00173323  0.25007095
   0.24972513  0.24978074  0.49890999
   0.50170740  0.99800383  0.50084593
   0.49778266  0.25182820  0.74815704
   0.74923602  0.00040043  0.75072485
   0.00104304  0.50175803  0.99976380
   0.99991518  0.74806721  0.25088621
   0.25151760  0.49918293  0.24965148
   0.24762285  0.75071310  0.50023564
   0.49956207  0.00316001  0.00033853
   0.50168298  0.50166246  0.50052541
   0.50142197  0.74800154  0.75086203
   0.75200714  0.00005735  0.25043651
   0.75007652  0.25049656  0.50119609
   0.75267027  0.49957310  0.74964241
   0.25164939  0.74897836  0.00123966
   0.74770914  0.49930984  0.24783189
   0.75145441  0.74928065  0.49998449
   0.74732403  0.74898803  0.00045107
   0.25375534  0.99678775  0.74470151
   0.99875073  0.99331359  0.00308179
   0.24485578  0.50453578  0.74147935
   0.24747241  0.25137350  0.00348506
   0.50138533  0.24685923  0.26095971
   0.50159648  0.49997484  0.99508594
   0.49954024  0.75483547  0.25435584
   0.75288002  0.24936883  0.99643104
 
 position of ions in cartesian coordinates  (Angst):
   7.08469800  0.00754469  3.54495964
   0.01406986  1.76444145  5.32634530
   7.07742672  1.77945862  1.76374586
   7.08498729  3.53257418  3.53438225
   7.07666589  5.33748684  5.31860729
   1.76385236  0.01228860  1.77300304
   1.77055119  1.77094544  3.53727185
   3.55710547  7.07584719  3.55099764
   3.52927907  1.78546191  5.30443341
   5.31208340  0.00283903  5.32263922
   0.00739512  3.55746445  7.08832535
   7.08939861  5.30379653  1.77878325
   1.78325977  3.53920697  1.77002896
   1.75564599  5.32255590  3.54667067
   3.54189511  0.02240450  0.00240019
   3.55693232  3.55678682  3.54872517
   3.55508180  5.30333089  5.32361179
   5.33173059  0.00040663  1.77559487
   5.31804252  1.77602058  3.55348025
   5.33643222  3.54197325  5.31496471
   1.78419419  5.31025655  0.00878922
   5.30125783  3.54010673  1.75712809
   5.32781178  5.31239978  3.54489006
   5.29852736  5.31032517  0.00319811
   1.79912535  7.06722513  5.27993368
   7.08114265  7.04259333  0.02184989
   1.73602745  3.57715868  5.25708857
   1.75457940  1.78223809  0.02470907
   3.55482200  1.75023195  1.85020434
   3.55631904  3.54482160  7.05515928
   3.54174028  5.35178349  1.80338294
   5.33791934  1.76802503  7.06469606
 


--------------------------------------------------------------------------------------------------------


 k-point  1 :   0.0000 0.0000 0.0000  plane waves:    9627
 k-point  2 :   0.3333 0.0000 0.0000  plane waves:    9606
 k-point  3 :   0.0000 0.3333 0.0000  plane waves:    9606
 k-point  4 :   0.3333 0.3333 0.0000  plane waves:    9582
 k-point  5 :  -0.3333 0.3333 0.0000  plane waves:    9582
 k-point  6 :   0.0000 0.0000 0.3333  plane waves:    9606
 k-point  7 :   0.3333 0.0000 0.3333  plane waves:    9582
 k-point  8 :  -0.3333 0.0000 0.3333  plane waves:    9582
 k-point  9 :   0.0000 0.3333 0.3333  plane waves:    9582
 k-point 10 :   0.3333 0.3333 0.3333  plane waves:    9594
 k-point 11 :  -0.3333 0.3333 0.3333  plane waves:    9594
 k-point 12 :   0.0000-0.3333 0.3333  plane waves:    9582
 k-point 13 :   0.3333-0.3333 0.3333  plane waves:    9594
 k-point 14 :  -0.3333-0.3333 0.3333  plane waves:    9594

 maximum and minimum number of plane-waves per node :       628      572

 maximum number of plane-waves:      9627
 maximum index in each direction: 
   IXMAX=   13   IYMAX=   13   IZMAX=   13
   IXMIN=  -13   IYMIN=  -13   IZMIN=  -13


 real space projection operators:
  total allocation   :      25578.14 KBytes
  max/ min on nodes  :       1972.55       1278.00


 parallel 3D FFT for wavefunctions:
    minimum data exchange during FFTs selected (reduces bandwidth)
 parallel 3D FFT for charge:
    minimum data exchange during FFTs selected (reduces bandwidth)


 total amount of memory used by VASP MPI-rank0    61177. kBytes
=======================================================================

   base      :      30000. kBytes
   nonlr-proj:       6007. kBytes
   fftplans  :       1483. kBytes
   grid      :       3780. kBytes
   one-center:         62. kBytes
   wavefun   :      19845. kBytes
 
     INWAV:  cpu time    0.0000: real time    0.0002
 Broyden mixing: mesh for mixing (old mesh)
   NGX = 27   NGY = 27   NGZ = 27
  (NGX  =108   NGY  =108   NGZ  =108)
  gives a total of  19683 points

 initial charge density was supplied:
 charge density of overlapping atoms calculated
 number of electron     304.0000000 magnetization      48.0000000
 keeping initial charge density in first step


--------------------------------------------------------------------------------------------------------


 Maximum index for non-local projection operator          731
 Maximum index for augmentation-charges         1045 (set IRDMAX)


--------------------------------------------------------------------------------------------------------


 First call to EWALD:  gamma=   0.250
 Maximum number of real-space cells 3x 3x 3
 Maximum number of reciprocal cells 3x 3x 3

    FEWALD:  cpu time    0.0020: real time    0.0019


--------------------------------------- Iteration      1(   1)  ---------------------------------------


    POTLOK:  cpu time    0.0540: real time    0.1103
    SETDIJ:  cpu time    0.0090: real time    0.0192
     EDDAV:  cpu time   10.3724: real time   21.0453
 BZINTS: Fermi energy: 25.796097;304.000000 electrons
         Band energy:5305.700999;  BLOECHL correction: -0.038139
       DOS:  cpu time    0.0780: real time    0.1566
    --------------------------------------------
      LOOP:  cpu time   10.5134: real time   21.3315

 eigenvalue-minimisations  : 11619
 total energy-change (2. order) : 0.2727511E+04  (-0.1227266E+05)
 number of electron     304.0000000 magnetization      48.0000000
 augmentation part      304.0000000 magnetization      48.0000000

 Free energy of the ion-electron system (eV)
  ---------------------------------------------------
  alpha Z        PSCENC =      1633.54701045
  Ewald energy   TEWEN  =    -26923.96990925
  -Hartree energ DENC   =     -7042.27776030
  -exchange      EXHF   =         0.00000000
  -V(xc)+E(xc)   XCENC  =       801.81659722
  PAW double counting   =     27538.07030130   -29203.97939146
  entropy T*S    EENTRO =         0.00000000
  eigenvalues    EBANDS =      5305.70099914
  atomic energy  EATOM  =     30618.60351129
  Solvation  Ediel_sol  =         0.00000000
  ---------------------------------------------------
  free energy    TOTEN  =      2727.51135840 eV

  energy without entropy =     2727.51135840  energy(sigma->0) =     2727.51135840


--------------------------------------------------------------------------------------------------------




--------------------------------------- Iteration      1(   2)  ---------------------------------------


     EDDAV:  cpu time   10.4774: real time   21.1717
 BZINTS: Fermi energy: 12.792395;304.000000 electrons
         Band energy:2727.691370;  BLOECHL correction: -0.036022
       DOS:  cpu time    0.0800: real time    0.1522
    --------------------------------------------
      LOOP:  cpu time   10.5574: real time   21.3240

 eigenvalue-minimisations  : 11592
 total energy-change (2. order) :-0.2578010E+04  (-0.2436404E+04)
 number of electron     304.0000000 magnetization      48.0000000
 augmentation part      304.0000000 magnetization      48.0000000

 Free energy of the ion-electron system (eV)
  ---------------------------------------------------
  alpha Z        PSCENC =      1633.54701045
  Ewald energy   TEWEN  =    -26923.96990925
  -Hartree energ DENC   =     -7042.27776030
  -exchange      EXHF   =         0.00000000
  -V(xc)+E(xc)   XCENC  =       801.81659722
  PAW double counting   =     27538.07030130   -29203.97939146
  entropy T*S    EENTRO =         0.00000000
  eigenvalues    EBANDS =      2727.69137007
  atomic energy  EATOM  =     30618.60351129
  Solvation  Ediel_sol  =         0.00000000
  ---------------------------------------------------
  free energy    TOTEN  =       149.50172933 eV

  energy without entropy =      149.50172933  energy(sigma->0) =      149.50172933


--------------------------------------------------------------------------------------------------------




--------------------------------------- Iteration      1(   3)  ---------------------------------------


     EDDAV:  cpu time   10.4254: real time   21.0179
 BZINTS: Fermi energy: 10.587909;304.000000 electrons
         Band energy:2367.441257;  BLOECHL correction: -0.194357
       DOS:  cpu time    0.0750: real time    0.1389
    --------------------------------------------
      LOOP:  cpu time   10.5004: real time   21.1568

 eigenvalue-minimisations  : 11592
 total energy-change (2. order) :-0.3602501E+03  (-0.2954749E+03)
 number of electron     304.0000000 magnetization      48.0000000
 augmentation part      304.0000000 magnetization      48.0000000

 Free energy of the ion-electron system (eV)
  ---------------------------------------------------
  alpha Z        PSCENC =      1633.54701045
  Ewald energy   TEWEN  =    -26923.96990925
  -Hartree energ DENC   =     -7042.27776030
  -exchange      EXHF   =         0.00000000
  -V(xc)+E(xc)   XCENC  =       801.81659722
  PAW double counting   =     27538.07030130   -29203.97939146
  entropy T*S    EENTRO =         0.00000000
  eigenvalues    EBANDS =      2367.44125736
  atomic energy  EATOM  =     30618.60351129
  Solvation  Ediel_sol  =         0.00000000
  ---------------------------------------------------
  free energy    TOTEN  =      -210.74838338 eV

  energy without entropy =     -210.74838338  energy(sigma->0) =     -210.74838338


--------------------------------------------------------------------------------------------------------




--------------------------------------- Iteration      1(   4)  ---------------------------------------


     EDDAV:  cpu time   10.9413: real time   22.1579
 BZINTS: Fermi energy: 10.513690;304.000000 electrons
         Band energy:2347.644745;  BLOECHL correction: -0.203153
       DOS:  cpu time    0.0770: real time    0.1395
    --------------------------------------------
      LOOP:  cpu time   11.0183: real time   22.2974

 eigenvalue-minimisations  : 12375
 total energy-change (2. order) :-0.1979651E+02  (-0.1909209E+02)
 number of electron     304.0000000 magnetization      48.0000000
 augmentation part      304.0000000 magnetization      48.0000000

 Free energy of the ion-electron system (eV)
  ---------------------------------------------------
  alpha Z        PSCENC =      1633.54701045
  Ewald energy   TEWEN  =    -26923.96990925
  -Hartree energ DENC   =     -7042.27776030
  -exchange      EXHF   =         0.00000000
  -V(xc)+E(xc)   XCENC  =       801.81659722
  PAW double counting   =     27538.07030130   -29203.97939146
  entropy T*S    EENTRO =         0.00000000
  eigenvalues    EBANDS =      2347.64474547
  atomic energy  EATOM  =     30618.60351129
  Solvation  Ediel_sol  =         0.00000000
  ---------------------------------------------------
  free energy    TOTEN  =      -230.54489527 eV

  energy without entropy =     -230.54489527  energy(sigma->0) =     -230.54489527


--------------------------------------------------------------------------------------------------------




--------------------------------------- Iteration      1(   5)  ---------------------------------------


     EDDAV:  cpu time   11.3913: real time   23.0149
 BZINTS: Fermi energy: 10.512724;304.000000 electrons
         Band energy:2347.380962;  BLOECHL correction: -0.203116
       DOS:  cpu time    0.0750: real time    0.1376
    CHARGE:  cpu time    0.2810: real time    0.5644
    MIXING:  cpu time    0.0020: real time    0.0034
    --------------------------------------------
      LOOP:  cpu time   11.7492: real time   23.7203

 eigenvalue-minimisations  : 13041
 total energy-change (2. order) :-0.2637839E+00  (-0.2632923E+00)
 number of electron     303.9999876 magnetization      41.9513388
 augmentation part      163.4586856 magnetization      33.2813920

 Broyden mixing:
  rms(total) = 0.57962E+01    rms(broyden)= 0.57960E+01
  rms(prec ) = 0.77045E+01
  weight for this iteration     100.00

 Free energy of the ion-electron system (eV)
  ---------------------------------------------------
  alpha Z        PSCENC =      1633.54701045
  Ewald energy   TEWEN  =    -26923.96990925
  -Hartree energ DENC   =     -7042.27776030
  -exchange      EXHF   =         0.00000000
  -V(xc)+E(xc)   XCENC  =       801.81659722
  PAW double counting   =     27538.07030130   -29203.97939146
  entropy T*S    EENTRO =         0.00000000
  eigenvalues    EBANDS =      2347.38096160
  atomic energy  EATOM  =     30618.60351129
  Solvation  Ediel_sol  =         0.00000000
  ---------------------------------------------------
  free energy    TOTEN  =      -230.80867914 eV

  energy without entropy =     -230.80867914  energy(sigma->0) =     -230.80867914


--------------------------------------------------------------------------------------------------------




--------------------------------------- Iteration      1(   6)  ---------------------------------------


    POTLOK:  cpu time    0.0480: real time    0.0995
    SETDIJ:  cpu time    0.0090: real time    0.0231
    EDDIAG:  cpu time    1.5488: real time    3.1074
  RMM-DIIS:  cpu time    7.1169: real time   14.2884
    ORTHCH:  cpu time    0.2160: real time    0.4448
 BZINTS: Fermi energy:  7.504401;304.000000 electrons
         Band energy:1550.001056;  BLOECHL correction: -0.077584
       DOS:  cpu time    0.0780: real time    0.1487
    CHARGE:  cpu time    0.2790: real time    0.5564
    MIXING:  cpu time    0.0020: real time    0.0039
    --------------------------------------------
      LOOP:  cpu time    9.2976: real time   18.6723

 eigenvalue-minimisations  : 11981
 total energy-change (2. order) : 0.1653054E+02  (-0.3053922E+02)
 number of electron     303.9999859 magnetization      38.8022973
 augmentation part      191.5171261 magnetization      33.0484165

 Broyden mixing:
  rms(total) = 0.56253E+01    rms(broyden)= 0.56252E+01
  rms(prec ) = 0.82589E+01
  weight for this iteration     100.00

 eigenvalues of (default mixing * dielectric matrix)
  average eigenvalue GAMMA=   0.4266
  0.4266

 Free energy of the ion-electron system (eV)
  ---------------------------------------------------
  alpha Z        PSCENC =      1633.54701045
  Ewald energy   TEWEN  =    -26923.96990925
  -Hartree energ DENC   =     -6318.04521495
  -exchange      EXHF   =         0.00000000
  -V(xc)+E(xc)   XCENC  =       766.23209630
  PAW double counting   =     29486.99278892   -31027.63948009
  entropy T*S    EENTRO =         0.00000000
  eigenvalues    EBANDS =      1550.00105616
  atomic energy  EATOM  =     30618.60351129
  Solvation  Ediel_sol  =         0.00000000
  ---------------------------------------------------
  free energy    TOTEN  =      -214.27814117 eV

  energy without entropy =     -214.27814117  energy(sigma->0) =     -214.27814117


--------------------------------------------------------------------------------------------------------




--------------------------------------- Iteration      1(   7)  ---------------------------------------


    POTLOK:  cpu time    0.0490: real time    0.1015
    SETDIJ:  cpu time    0.0080: real time    0.0181
    EDDIAG:  cpu time    1.5348: real time    3.0739
  RMM-DIIS:  cpu time    7.5399: real time   15.2603
    ORTHCH:  cpu time    0.2180: real time    0.4399
 BZINTS: Fermi energy:  8.726077;304.000000 electrons
         Band energy:1797.478504;  BLOECHL correction: -0.017093
       DOS:  cpu time    0.0770: real time    0.1525
    CHARGE:  cpu time    0.2770: real time    0.5547
    MIXING:  cpu time    0.0020: real time    0.0036
    --------------------------------------------
      LOOP:  cpu time    9.7055: real time   19.6045

 eigenvalue-minimisations  : 12368
 total energy-change (2. order) :-0.4147762E+02  (-0.8649644E+01)
 number of electron     303.9999887 magnetization      35.4801411
 augmentation part      179.2898889 magnetization      32.9956251

 Broyden mixing:
  rms(total) = 0.11702E+02    rms(broyden)= 0.11702E+02
  rms(prec ) = 0.20805E+02
  weight for this iteration     100.00

 eigenvalues of (default mixing * dielectric matrix)
  average eigenvalue GAMMA=   0.3617
  0.5810  0.1424

 Free energy of the ion-electron system (eV)
  ---------------------------------------------------
  alpha Z        PSCENC =      1633.54701045
  Ewald energy   TEWEN  =    -26923.96990925
  -Hartree energ DENC   =     -6525.74933267
  -exchange      EXHF   =         0.00000000
  -V(xc)+E(xc)   XCENC  =       777.80622867
  PAW double counting   =     30468.28886584   -32101.76063638
  entropy T*S    EENTRO =         0.00000000
  eigenvalues    EBANDS =      1797.47850423
  atomic energy  EATOM  =     30618.60351129
  Solvation  Ediel_sol  =         0.00000000
  ---------------------------------------------------
  free energy    TOTEN  =      -255.75575781 eV

  energy without entropy =     -255.75575781  energy(sigma->0) =     -255.75575781


--------------------------------------------------------------------------------------------------------




--------------------------------------- Iteration      1(   8)  ---------------------------------------


    POTLOK:  cpu time    0.0470: real time    0.0981
    SETDIJ:  cpu time    0.0090: real time    0.0178
    EDDIAG:  cpu time    1.5038: real time    3.0070
  RMM-DIIS:  cpu time    7.4889: real time   15.0829
    ORTHCH:  cpu time    0.2180: real time    0.4408
 BZINTS: Fermi energy:  8.630279;304.000000 electrons
         Band energy:1862.441935;  BLOECHL correction: -0.040807
       DOS:  cpu time    0.0740: real time    0.1480
    CHARGE:  cpu time    0.2860: real time    0.5715
    MIXING:  cpu time    0.0020: real time    0.0043
    --------------------------------------------
      LOOP:  cpu time    9.6285: real time   19.3704

 eigenvalue-minimisations  : 12259
 total energy-change (2. order) : 0.4413684E+02  (-0.3140456E+01)
 number of electron     303.9999875 magnetization      34.7136630
 augmentation part      179.4384996 magnetization      29.2885230

 Broyden mixing:
  rms(total) = 0.50442E+01    rms(broyden)= 0.50439E+01
  rms(prec ) = 0.82913E+01
  weight for this iteration     100.00

 eigenvalues of (default mixing * dielectric matrix)
  average eigenvalue GAMMA=   0.3528
  0.6285  0.3132  0.1169

 Free energy of the ion-electron system (eV)
  ---------------------------------------------------
  alpha Z        PSCENC =      1633.54701045
  Ewald energy   TEWEN  =    -26923.96990925
  -Hartree energ DENC   =     -6520.02346057
  -exchange      EXHF   =         0.00000000
  -V(xc)+E(xc)   XCENC  =       774.85031231
  PAW double counting   =     30941.19833040   -32598.26664561
  entropy T*S    EENTRO =         0.00000000
  eigenvalues    EBANDS =      1862.44193450
  atomic energy  EATOM  =     30618.60351129
  Solvation  Ediel_sol  =         0.00000000
  ---------------------------------------------------
  free energy    TOTEN  =      -211.61891647 eV

  energy without entropy =     -211.61891647  energy(sigma->0) =     -211.61891647


--------------------------------------------------------------------------------------------------------




--------------------------------------- Iteration      1(   9)  ---------------------------------------


    POTLOK:  cpu time    0.0490: real time    0.1031
    SETDIJ:  cpu time    0.0090: real time    0.0179
    EDDIAG:  cpu time    1.5458: real time    3.1096
  RMM-DIIS:  cpu time    7.1469: real time   14.3600
    ORTHCH:  cpu time    0.2260: real time    0.4534
 BZINTS: Fermi energy:  8.482285;304.000000 electrons
         Band energy:1862.939210;  BLOECHL correction: -0.064814
       DOS:  cpu time    0.0700: real time    0.1301
    CHARGE:  cpu time    0.2750: real time    0.5531
    MIXING:  cpu time    0.0020: real time    0.0032
    --------------------------------------------
      LOOP:  cpu time    9.3236: real time   18.7304

 eigenvalue-minimisations  : 11848
 total energy-change (2. order) : 0.1199997E+02  (-0.1379228E+01)
 number of electron     303.9999866 magnetization      32.6617019
 augmentation part      180.5614162 magnetization      26.9120896

 Broyden mixing:
  rms(total) = 0.21907E+01    rms(broyden)= 0.21905E+01
  rms(prec ) = 0.34555E+01
  weight for this iteration     100.00

 eigenvalues of (default mixing * dielectric matrix)
  average eigenvalue GAMMA=   0.4790
  1.1087  0.5538  0.1268  0.1268

 Free energy of the ion-electron system (eV)
  ---------------------------------------------------
  alpha Z        PSCENC =      1633.54701045
  Ewald energy   TEWEN  =    -26923.96990925
  -Hartree energ DENC   =     -6501.84209457
  -exchange      EXHF   =         0.00000000
  -V(xc)+E(xc)   XCENC  =       773.93522143
  PAW double counting   =     31153.02055024   -32815.85244713
  entropy T*S    EENTRO =         0.00000000
  eigenvalues    EBANDS =      1862.93920979
  atomic energy  EATOM  =     30618.60351129
  Solvation  Ediel_sol  =         0.00000000
  ---------------------------------------------------
  free energy    TOTEN  =      -199.61894775 eV

  energy without entropy =     -199.61894775  energy(sigma->0) =     -199.61894775


--------------------------------------------------------------------------------------------------------




--------------------------------------- Iteration      1(  10)  ---------------------------------------


    POTLOK:  cpu time    0.0500: real time    0.0993
    SETDIJ:  cpu time    0.0090: real time    0.0218
    EDDIAG:  cpu time    1.4948: real time    2.9888
  RMM-DIIS:  cpu time    7.3219: real time   14.7172
    ORTHCH:  cpu time    0.2200: real time    0.4481
 BZINTS: Fermi energy:  8.610825;304.000000 electrons
         Band energy:1850.623927;  BLOECHL correction: -0.025210
       DOS:  cpu time    0.0760: real time    0.1540
    CHARGE:  cpu time    0.2760: real time    0.5510
    MIXING:  cpu time    0.0020: real time    0.0039
    --------------------------------------------
      LOOP:  cpu time    9.4496: real time   18.9840

 eigenvalue-minimisations  : 12101
 total energy-change (2. order) :-0.6861236E+01  (-0.1069439E+01)
 number of electron     303.9999873 magnetization      31.5698541
 augmentation part      179.8344186 magnetization      26.9136634

 Broyden mixing:
  rms(total) = 0.47704E+01    rms(broyden)= 0.47703E+01
  rms(prec ) = 0.82823E+01
  weight for this iteration     100.00

 eigenvalues of (default mixing * dielectric matrix)
  average eigenvalue GAMMA=   0.4466
  1.2727  0.5570  0.1550  0.1242  0.1242

 Free energy of the ion-electron system (eV)
  ---------------------------------------------------
  alpha Z        PSCENC =      1633.54701045
  Ewald energy   TEWEN  =    -26923.96990925
  -Hartree energ DENC   =     -6474.33328444
  -exchange      EXHF   =         0.00000000
  -V(xc)+E(xc)   XCENC  =       773.38386683
  PAW double counting   =     31822.55110178   -33506.88640686
  entropy T*S    EENTRO =         0.00000000
  eigenvalues    EBANDS =      1850.62392690
  atomic energy  EATOM  =     30618.60351129
  Solvation  Ediel_sol  =         0.00000000
  ---------------------------------------------------
  free energy    TOTEN  =      -206.48018331 eV

  energy without entropy =     -206.48018331  energy(sigma->0) =     -206.48018331


--------------------------------------------------------------------------------------------------------




--------------------------------------- Iteration      1(  11)  ---------------------------------------


    POTLOK:  cpu time    0.0480: real time    0.1004
    SETDIJ:  cpu time    0.0090: real time    0.0196
    EDDIAG:  cpu time    1.5728: real time    3.1737
  RMM-DIIS:  cpu time    7.3869: real time   15.2189
    ORTHCH:  cpu time    0.2350: real time    0.4882
 BZINTS: Fermi energy:  8.443451;304.000000 electrons
         Band energy:1849.168765;  BLOECHL correction: -0.079369
       DOS:  cpu time    0.0770: real time    0.1492
    CHARGE:  cpu time    0.3230: real time    0.6552
    MIXING:  cpu time    0.0020: real time    0.0037
    --------------------------------------------
      LOOP:  cpu time    9.6535: real time   19.8088

 eigenvalue-minimisations  : 11966
 total energy-change (2. order) : 0.6033404E+01  (-0.8285626E+00)
 number of electron     303.9999869 magnetization      31.4392507
 augmentation part      180.6262430 magnetization      26.8483485

 Broyden mixing:
  rms(total) = 0.21586E+01    rms(broyden)= 0.21585E+01
  rms(prec ) = 0.34998E+01
  weight for this iteration     100.00

 eigenvalues of (default mixing * dielectric matrix)
  average eigenvalue GAMMA=   0.4235
  1.3689  0.5187  0.2773  0.1550  0.1105  0.1105

 Free energy of the ion-electron system (eV)
  ---------------------------------------------------
  alpha Z        PSCENC =      1633.54701045
  Ewald energy   TEWEN  =    -26923.96990925
  -Hartree energ DENC   =     -6454.87788372
  -exchange      EXHF   =         0.00000000
  -V(xc)+E(xc)   XCENC  =       773.17060232
  PAW double counting   =     32200.59310384   -33896.68197932
  entropy T*S    EENTRO =         0.00000000
  eigenvalues    EBANDS =      1849.16876518
  atomic energy  EATOM  =     30618.60351129
  Solvation  Ediel_sol  =         0.00000000
  ---------------------------------------------------
  free energy    TOTEN  =      -200.44677921 eV

  energy without entropy =     -200.44677921  energy(sigma->0) =     -200.44677921


--------------------------------------------------------------------------------------------------------




--------------------------------------- Iteration      1(  12)  ---------------------------------------


    POTLOK:  cpu time    0.0540: real time    0.1150
    SETDIJ:  cpu time    0.0090: real time    0.0184
    EDDIAG:  cpu time    1.6827: real time    3.4294
  RMM-DIIS:  cpu time    8.1978: real time   17.1053
    ORTHCH:  cpu time    0.2140: real time    0.4308
 BZINTS: Fermi energy:  8.381194;304.000000 electrons
         Band energy:1847.679941;  BLOECHL correction: -0.127722
       DOS:  cpu time    0.0770: real time    0.1506
    CHARGE:  cpu time    0.2840: real time    0.5682
    MIXING:  cpu time    0.0020: real time    0.0042
    --------------------------------------------
      LOOP:  cpu time   10.5204: real time   21.8220

 eigenvalue-minimisations  : 12032
 total energy-change (2. order) : 0.1946538E+01  (-0.2135777E+00)
 number of electron     303.9999867 magnetization      31.4792430
 augmentation part      181.0248391 magnetization      26.8922465

 Broyden mixing:
  rms(total) = 0.10161E+01    rms(broyden)= 0.10161E+01
  rms(prec ) = 0.16522E+01
  weight for this iteration     100.00

 eigenvalues of (default mixing * dielectric matrix)
  average eigenvalue GAMMA=   0.4394
  1.5065  0.5237  0.5237  0.1727  0.1159  0.1159  0.1176

 Free energy of the ion-electron system (eV)
  ---------------------------------------------------
  alpha Z        PSCENC =      1633.54701045
  Ewald energy   TEWEN  =    -26923.96990925
  -Hartree energ DENC   =     -6447.88061619
  -exchange      EXHF   =         0.00000000
  -V(xc)+E(xc)   XCENC  =       773.10558096
  PAW double counting   =     32324.52156055   -34024.10731971
  entropy T*S    EENTRO =         0.00000000
  eigenvalues    EBANDS =      1847.67994058
  atomic energy  EATOM  =     30618.60351129
  Solvation  Ediel_sol  =         0.00000000
  ---------------------------------------------------
  free energy    TOTEN  =      -198.50024132 eV

  energy without entropy =     -198.50024132  energy(sigma->0) =     -198.50024132


--------------------------------------------------------------------------------------------------------




--------------------------------------- Iteration      1(  13)  ---------------------------------------


    POTLOK:  cpu time    0.0480: real time    0.1001
    SETDIJ:  cpu time    0.0080: real time    0.0180
    EDDIAG:  cpu time    1.4948: real time    2.9867
  RMM-DIIS:  cpu time    7.2049: real time   14.4359
    ORTHCH:  cpu time    0.2290: real time    0.4591
 BZINTS: Fermi energy:  8.368133;304.000000 electrons
         Band energy:1845.556479;  BLOECHL correction: -0.174842
       DOS:  cpu time    0.0790: real time    0.1574
    CHARGE:  cpu time    0.2760: real time    0.5457
    MIXING:  cpu time    0.0020: real time    0.0040
    --------------------------------------------
      LOOP:  cpu time    9.3416: real time   18.7070

 eigenvalue-minimisations  : 12046
 total energy-change (2. order) : 0.1505318E-01  (-0.6904613E-01)
 number of electron     303.9999868 magnetization      31.6776369
 augmentation part      181.1211337 magnetization      27.1680940

 Broyden mixing:
  rms(total) = 0.95894E+00    rms(broyden)= 0.95893E+00
  rms(prec ) = 0.15899E+01
  weight for this iteration     100.00

 eigenvalues of (default mixing * dielectric matrix)
  average eigenvalue GAMMA=   0.4297
  1.5762  0.5740  0.5740  0.2293  0.1226  0.1226  0.1253  0.1137

 Free energy of the ion-electron system (eV)
  ---------------------------------------------------
  alpha Z        PSCENC =      1633.54701045
  Ewald energy   TEWEN  =    -26923.96990925
  -Hartree energ DENC   =     -6441.90766138
  -exchange      EXHF   =         0.00000000
  -V(xc)+E(xc)   XCENC  =       773.12043979
  PAW double counting   =     32461.92929877   -34165.36435679
  entropy T*S    EENTRO =         0.00000000
  eigenvalues    EBANDS =      1845.55647898
  atomic energy  EATOM  =     30618.60351129
  Solvation  Ediel_sol  =         0.00000000
  ---------------------------------------------------
  free energy    TOTEN  =      -198.48518814 eV

  energy without entropy =     -198.48518814  energy(sigma->0) =     -198.48518814


--------------------------------------------------------------------------------------------------------




--------------------------------------- Iteration      1(  14)  ---------------------------------------


    POTLOK:  cpu time    0.0470: real time    0.0979
    SETDIJ:  cpu time    0.0090: real time    0.0182
    EDDIAG:  cpu time    1.5568: real time    3.1097
  RMM-DIIS:  cpu time    7.1819: real time   14.4181
    ORTHCH:  cpu time    0.2150: real time    0.4290
 BZINTS: Fermi energy:  8.364804;304.000000 electrons
         Band energy:1844.776308;  BLOECHL correction: -0.189661
       DOS:  cpu time    0.0770: real time    0.1471
    CHARGE:  cpu time    0.2780: real time    0.5555
    MIXING:  cpu time    0.0020: real time    0.0041
    --------------------------------------------
      LOOP:  cpu time    9.3666: real time   18.7798

 eigenvalue-minimisations  : 12023
 total energy-change (2. order) : 0.1844414E+00  (-0.2593175E-01)
 number of electron     303.9999867 magnetization      31.9111957
 augmentation part      181.1254465 magnetization      27.4769336

 Broyden mixing:
  rms(total) = 0.65699E+00    rms(broyden)= 0.65698E+00
  rms(prec ) = 0.10896E+01
  weight for this iteration     100.00

 eigenvalues of (default mixing * dielectric matrix)
  average eigenvalue GAMMA=   0.4388
  1.5810  0.6466  0.6466  0.4301  0.1512  0.1512  0.1156  0.1156  0.1114

 Free energy of the ion-electron system (eV)
  ---------------------------------------------------
  alpha Z        PSCENC =      1633.54701045
  Ewald energy   TEWEN  =    -26923.96990925
  -Hartree energ DENC   =     -6436.36380862
  -exchange      EXHF   =         0.00000000
  -V(xc)+E(xc)   XCENC  =       773.32660621
  PAW double counting   =     32626.39463569   -34334.61510058
  entropy T*S    EENTRO =         0.00000000
  eigenvalues    EBANDS =      1844.77630806
  atomic energy  EATOM  =     30618.60351129
  Solvation  Ediel_sol  =         0.00000000
  ---------------------------------------------------
  free energy    TOTEN  =      -198.30074676 eV

  energy without entropy =     -198.30074676  energy(sigma->0) =     -198.30074676


--------------------------------------------------------------------------------------------------------




--------------------------------------- Iteration      1(  15)  ---------------------------------------


    POTLOK:  cpu time    0.0460: real time    0.0970
    SETDIJ:  cpu time    0.0090: real time    0.0182
    EDDIAG:  cpu time    1.5188: real time    3.0348
  RMM-DIIS:  cpu time    7.2199: real time   14.4617
    ORTHCH:  cpu time    0.2160: real time    0.4311
 BZINTS: Fermi energy:  8.367489;304.000000 electrons
         Band energy:1844.890979;  BLOECHL correction: -0.194645
       DOS:  cpu time    0.0770: real time    0.1493
    CHARGE:  cpu time    0.2790: real time    0.5569
    MIXING:  cpu time    0.0030: real time    0.0046
    --------------------------------------------
      LOOP:  cpu time    9.3686: real time   18.7537

 eigenvalue-minimisations  : 12064
 total energy-change (2. order) : 0.3560012E-01  (-0.1052031E-01)
 number of electron     303.9999867 magnetization      32.8177579
 augmentation part      181.0873717 magnetization      28.4221748

 Broyden mixing:
  rms(total) = 0.51785E+00    rms(broyden)= 0.51784E+00
  rms(prec ) = 0.83209E+00
  weight for this iteration     100.00

 eigenvalues of (default mixing * dielectric matrix)
  average eigenvalue GAMMA=   0.4980
  1.5451  1.0490  1.0490  0.5313  0.1782  0.1167  0.1167  0.1519  0.1348  0.1078

 Free energy of the ion-electron system (eV)
  ---------------------------------------------------
  alpha Z        PSCENC =      1633.54701045
  Ewald energy   TEWEN  =    -26923.96990925
  -Hartree energ DENC   =     -6434.97121027
  -exchange      EXHF   =         0.00000000
  -V(xc)+E(xc)   XCENC  =       773.46938774
  PAW double counting   =     32684.31886468   -34394.15378063
  entropy T*S    EENTRO =         0.00000000
  eigenvalues    EBANDS =      1844.89097935
  atomic energy  EATOM  =     30618.60351129
  Solvation  Ediel_sol  =         0.00000000
  ---------------------------------------------------
  free energy    TOTEN  =      -198.26514664 eV

  energy without entropy =     -198.26514664  energy(sigma->0) =     -198.26514664


--------------------------------------------------------------------------------------------------------




--------------------------------------- Iteration      1(  16)  ---------------------------------------


    POTLOK:  cpu time    0.0480: real time    0.0999
    SETDIJ:  cpu time    0.0120: real time    0.0248
    EDDIAG:  cpu time    1.8707: real time    3.7449
  RMM-DIIS:  cpu time    7.4289: real time   14.8811
    ORTHCH:  cpu time    0.2170: real time    0.4321
 BZINTS: Fermi energy:  8.375109;304.000000 electrons
         Band energy:1844.445082;  BLOECHL correction: -0.205104
       DOS:  cpu time    0.0780: real time    0.1577
    CHARGE:  cpu time    0.2800: real time    0.5532
    MIXING:  cpu time    0.0030: real time    0.0043
    --------------------------------------------
      LOOP:  cpu time    9.9375: real time   19.8980

 eigenvalue-minimisations  : 12239
 total energy-change (2. order) : 0.7443011E-02  (-0.1101066E-01)
 number of electron     303.9999868 magnetization      33.4319367
 augmentation part      181.0248371 magnetization      29.0938087

 Broyden mixing:
  rms(total) = 0.39034E+00    rms(broyden)= 0.39034E+00
  rms(prec ) = 0.58789E+00
  weight for this iteration     100.00

 eigenvalues of (default mixing * dielectric matrix)
  average eigenvalue GAMMA=   0.4997
  1.4606  1.2115  1.2115  0.5039  0.3324  0.1563  0.1563  0.1173  0.1173  0.1205
  0.1088

 Free energy of the ion-electron system (eV)
  ---------------------------------------------------
  alpha Z        PSCENC =      1633.54701045
  Ewald energy   TEWEN  =    -26923.96990925
  -Hartree energ DENC   =     -6431.23418052
  -exchange      EXHF   =         0.00000000
  -V(xc)+E(xc)   XCENC  =       773.94667992
  PAW double counting   =     32830.57003575   -34544.16593320
  entropy T*S    EENTRO =         0.00000000
  eigenvalues    EBANDS =      1844.44508193
  atomic energy  EATOM  =     30618.60351129
  Solvation  Ediel_sol  =         0.00000000
  ---------------------------------------------------
  free energy    TOTEN  =      -198.25770363 eV

  energy without entropy =     -198.25770363  energy(sigma->0) =     -198.25770363


--------------------------------------------------------------------------------------------------------




--------------------------------------- Iteration      1(  17)  ---------------------------------------


    POTLOK:  cpu time    0.0470: real time    0.1034
    SETDIJ:  cpu time    0.0090: real time    0.0183
    EDDIAG:  cpu time    1.5198: real time    3.0375
  RMM-DIIS:  cpu time    7.2829: real time   14.6165
    ORTHCH:  cpu time    0.2250: real time    0.4569
 BZINTS: Fermi energy:  8.381899;304.000000 electrons
         Band energy:1843.521891;  BLOECHL correction: -0.207842
       DOS:  cpu time    0.0710: real time    0.1312
    CHARGE:  cpu time    0.2770: real time    0.5517
    MIXING:  cpu time    0.0030: real time    0.0053
    --------------------------------------------
      LOOP:  cpu time    9.4346: real time   18.9207

 eigenvalue-minimisations  : 12219
 total energy-change (2. order) :-0.1393774E-01  (-0.9405678E-02)
 number of electron     303.9999867 magnetization      34.5496372
 augmentation part      181.0130395 magnetization      30.2514196

 Broyden mixing:
  rms(total) = 0.34141E+00    rms(broyden)= 0.34141E+00
  rms(prec ) = 0.50589E+00
  weight for this iteration     100.00

 eigenvalues of (default mixing * dielectric matrix)
  average eigenvalue GAMMA=   0.5307
  1.4490  1.4490  1.4346  0.5537  0.5537  0.1652  0.1652  0.1171  0.1171  0.1383
  0.1186  0.1072

 Free energy of the ion-electron system (eV)
  ---------------------------------------------------
  alpha Z        PSCENC =      1633.54701045
  Ewald energy   TEWEN  =    -26923.96990925
  -Hartree energ DENC   =     -6428.96024380
  -exchange      EXHF   =         0.00000000
  -V(xc)+E(xc)   XCENC  =       774.22897914
  PAW double counting   =     32901.53307126   -34616.77595160
  entropy T*S    EENTRO =         0.00000000
  eigenvalues    EBANDS =      1843.52189114
  atomic energy  EATOM  =     30618.60351129
  Solvation  Ediel_sol  =         0.00000000
  ---------------------------------------------------
  free energy    TOTEN  =      -198.27164136 eV

  energy without entropy =     -198.27164136  energy(sigma->0) =     -198.27164136


--------------------------------------------------------------------------------------------------------




--------------------------------------- Iteration      1(  18)  ---------------------------------------


    POTLOK:  cpu time    0.0480: real time    0.1003
    SETDIJ:  cpu time    0.0090: real time    0.0181
    EDDIAG:  cpu time    1.4928: real time    2.9837
  RMM-DIIS:  cpu time    7.2089: real time   14.4633
    ORTHCH:  cpu time    0.2320: real time    0.4632
 BZINTS: Fermi energy:  8.381387;304.000000 electrons
         Band energy:1840.009629;  BLOECHL correction: -0.208208
       DOS:  cpu time    0.0760: real time    0.1500
    CHARGE:  cpu time    0.2760: real time    0.5474
    MIXING:  cpu time    0.0030: real time    0.0051
    --------------------------------------------
      LOOP:  cpu time    9.3456: real time   18.7309

 eigenvalue-minimisations  : 12031
 total energy-change (2. order) :-0.6192180E-02  (-0.6858188E-02)
 number of electron     303.9999867 magnetization      34.8664843
 augmentation part      181.0962718 magnetization      30.5844103

 Broyden mixing:
  rms(total) = 0.25410E+00    rms(broyden)= 0.25409E+00
  rms(prec ) = 0.40057E+00
  weight for this iteration     100.00

 eigenvalues of (default mixing * dielectric matrix)
  average eigenvalue GAMMA=   0.5419
  1.5765  1.4824  1.4824  0.5970  0.5970  0.3926  0.1171  0.1171  0.1599  0.1599
  0.1380  0.1174  0.1076

 Free energy of the ion-electron system (eV)
  ---------------------------------------------------
  alpha Z        PSCENC =      1633.54701045
  Ewald energy   TEWEN  =    -26923.96990925
  -Hartree energ DENC   =     -6424.73452261
  -exchange      EXHF   =         0.00000000
  -V(xc)+E(xc)   XCENC  =       774.55530963
  PAW double counting   =     32972.69453841   -34688.98340043
  entropy T*S    EENTRO =         0.00000000
  eigenvalues    EBANDS =      1840.00962896
  atomic energy  EATOM  =     30618.60351129
  Solvation  Ediel_sol  =         0.00000000
  ---------------------------------------------------
  free energy    TOTEN  =      -198.27783354 eV

  energy without entropy =     -198.27783354  energy(sigma->0) =     -198.27783354


--------------------------------------------------------------------------------------------------------




--------------------------------------- Iteration      1(  19)  ---------------------------------------


    POTLOK:  cpu time    0.0470: real time    0.0995
    SETDIJ:  cpu time    0.0100: real time    0.0196
    EDDIAG:  cpu time    1.4958: real time    2.9886
  RMM-DIIS:  cpu time    7.1409: real time   14.3042
    ORTHCH:  cpu time    0.2200: real time    0.4384
 BZINTS: Fermi energy:  8.382381;304.000000 electrons
         Band energy:1839.200652;  BLOECHL correction: -0.207760
       DOS:  cpu time    0.0780: real time    0.1564
    CHARGE:  cpu time    0.2730: real time    0.5388
    MIXING:  cpu time    0.0030: real time    0.0057
    --------------------------------------------
      LOOP:  cpu time    9.2676: real time   18.5513

 eigenvalue-minimisations  : 11967
 total energy-change (2. order) : 0.1263385E-01  (-0.4889778E-02)
 number of electron     303.9999867 magnetization      35.2602515
 augmentation part      181.1055550 magnetization      30.9779501

 Broyden mixing:
  rms(total) = 0.18346E+00    rms(broyden)= 0.18345E+00
  rms(prec ) = 0.28660E+00
  weight for this iteration     100.00

 eigenvalues of (default mixing * dielectric matrix)
  average eigenvalue GAMMA=   0.5674
  1.8110  1.5699  1.5699  0.6934  0.6934  0.5489  0.1171  0.1171  0.1591  0.1591
  0.1503  0.1312  0.1076  0.1150

 Free energy of the ion-electron system (eV)
  ---------------------------------------------------
  alpha Z        PSCENC =      1633.54701045
  Ewald energy   TEWEN  =    -26923.96990925
  -Hartree energ DENC   =     -6423.33778841
  -exchange      EXHF   =         0.00000000
  -V(xc)+E(xc)   XCENC  =       774.61866121
  PAW double counting   =     33002.96255539   -34719.88989211
  entropy T*S    EENTRO =         0.00000000
  eigenvalues    EBANDS =      1839.20065173
  atomic energy  EATOM  =     30618.60351129
  Solvation  Ediel_sol  =         0.00000000
  ---------------------------------------------------
  free energy    TOTEN  =      -198.26519970 eV

  energy without entropy =     -198.26519970  energy(sigma->0) =     -198.26519970


--------------------------------------------------------------------------------------------------------




--------------------------------------- Iteration      1(  20)  ---------------------------------------


    POTLOK:  cpu time    0.0480: real time    0.1004
    SETDIJ:  cpu time    0.0090: real time    0.0180
    EDDIAG:  cpu time    1.5188: real time    3.0338
  RMM-DIIS:  cpu time    7.2479: real time   14.5171
    ORTHCH:  cpu time    0.2200: real time    0.4410
 BZINTS: Fermi energy:  8.380138;304.000000 electrons
         Band energy:1837.906252;  BLOECHL correction: -0.208093
       DOS:  cpu time    0.0800: real time    0.1571
    CHARGE:  cpu time    0.2760: real time    0.5456
    MIXING:  cpu time    0.0030: real time    0.0051
    --------------------------------------------
      LOOP:  cpu time    9.4026: real time   18.8182

 eigenvalue-minimisations  : 12087
 total energy-change (2. order) :-0.5211579E-02  (-0.1985888E-02)
 number of electron     303.9999867 magnetization      35.3715762
 augmentation part      181.1366053 magnetization      31.0533305

 Broyden mixing:
  rms(total) = 0.18413E+00    rms(broyden)= 0.18413E+00
  rms(prec ) = 0.30569E+00
  weight for this iteration     100.00

 eigenvalues of (default mixing * dielectric matrix)
  average eigenvalue GAMMA=   0.5457
  1.8620  1.5621  1.5621  0.6982  0.6982  0.5592  0.1813  0.1813  0.1171  0.1171
  0.1515  0.1465  0.1072  0.1239  0.1169

 Free energy of the ion-electron system (eV)
  ---------------------------------------------------
  alpha Z        PSCENC =      1633.54701045
  Ewald energy   TEWEN  =    -26923.96990925
  -Hartree energ DENC   =     -6420.90934634
  -exchange      EXHF   =         0.00000000
  -V(xc)+E(xc)   XCENC  =       774.57134025
  PAW double counting   =     33052.15713469   -34770.17640392
  entropy T*S    EENTRO =         0.00000000
  eigenvalues    EBANDS =      1837.90625156
  atomic energy  EATOM  =     30618.60351129
  Solvation  Ediel_sol  =         0.00000000
  ---------------------------------------------------
  free energy    TOTEN  =      -198.27041127 eV

  energy without entropy =     -198.27041127  energy(sigma->0) =     -198.27041127


--------------------------------------------------------------------------------------------------------




--------------------------------------- Iteration      1(  21)  ---------------------------------------


    POTLOK:  cpu time    0.0570: real time    0.1198
    SETDIJ:  cpu time    0.0100: real time    0.0191
    EDDIAG:  cpu time    1.4938: real time    3.0139
  RMM-DIIS:  cpu time    7.2059: real time   14.4321
    ORTHCH:  cpu time    0.2160: real time    0.4311
 BZINTS: Fermi energy:  8.379067;304.000000 electrons
         Band energy:1837.552153;  BLOECHL correction: -0.209291
       DOS:  cpu time    0.0660: real time    0.1321
    CHARGE:  cpu time    0.2860: real time    0.5654
    MIXING:  cpu time    0.0030: real time    0.0056
    --------------------------------------------
      LOOP:  cpu time    9.3376: real time   18.7190

 eigenvalue-minimisations  : 11950
 total energy-change (2. order) : 0.1201373E-01  (-0.1115258E-02)
 number of electron     303.9999867 magnetization      35.4294440
 augmentation part      181.1503957 magnetization      31.0941805

 Broyden mixing:
  rms(total) = 0.52273E-01    rms(broyden)= 0.52267E-01
  rms(prec ) = 0.79087E-01
  weight for this iteration     100.00

 eigenvalues of (default mixing * dielectric matrix)
  average eigenvalue GAMMA=   0.5741
  1.9098  1.6876  1.6876  0.7463  0.7463  0.6070  0.6070  0.1172  0.1172  0.1685
  0.1590  0.1514  0.1385  0.1074  0.1204  0.1145

 Free energy of the ion-electron system (eV)
  ---------------------------------------------------
  alpha Z        PSCENC =      1633.54701045
  Ewald energy   TEWEN  =    -26923.96990925
  -Hartree energ DENC   =     -6420.25557040
  -exchange      EXHF   =         0.00000000
  -V(xc)+E(xc)   XCENC  =       774.54818497
  PAW double counting   =     33065.33177224   -34783.61554984
  entropy T*S    EENTRO =         0.00000000
  eigenvalues    EBANDS =      1837.55215300
  atomic energy  EATOM  =     30618.60351129
  Solvation  Ediel_sol  =         0.00000000
  ---------------------------------------------------
  free energy    TOTEN  =      -198.25839754 eV

  energy without entropy =     -198.25839754  energy(sigma->0) =     -198.25839754


--------------------------------------------------------------------------------------------------------




--------------------------------------- Iteration      1(  22)  ---------------------------------------


    POTLOK:  cpu time    0.0470: real time    0.0985
    SETDIJ:  cpu time    0.0080: real time    0.0179
    EDDIAG:  cpu time    1.4878: real time    2.9714
  RMM-DIIS:  cpu time    7.2469: real time   14.5147
    ORTHCH:  cpu time    0.2260: real time    0.4528
 BZINTS: Fermi energy:  8.376973;304.000000 electrons
         Band energy:1837.302785;  BLOECHL correction: -0.207505
       DOS:  cpu time    0.0770: real time    0.1524
    CHARGE:  cpu time    0.2820: real time    0.5584
    MIXING:  cpu time    0.0030: real time    0.0061
    --------------------------------------------
      LOOP:  cpu time    9.3776: real time   18.7721

 eigenvalue-minimisations  : 12114
 total energy-change (2. order) :-0.9385852E-03  (-0.3952580E-03)
 number of electron     303.9999867 magnetization      35.4810379
 augmentation part      181.1634690 magnetization      31.1222044

 Broyden mixing:
  rms(total) = 0.85475E-01    rms(broyden)= 0.85474E-01
  rms(prec ) = 0.14158E+00
  weight for this iteration     100.00

 eigenvalues of (default mixing * dielectric matrix)
  average eigenvalue GAMMA=   0.5639
  1.9901  1.6920  1.6920  0.8299  0.8299  0.6072  0.6072  0.1172  0.1172  0.1737
  0.1574  0.1574  0.1421  0.1321  0.1072  0.1198  0.1141

 Free energy of the ion-electron system (eV)
  ---------------------------------------------------
  alpha Z        PSCENC =      1633.54701045
  Ewald energy   TEWEN  =    -26923.96990925
  -Hartree energ DENC   =     -6419.82222299
  -exchange      EXHF   =         0.00000000
  -V(xc)+E(xc)   XCENC  =       774.49733079
  PAW double counting   =     33073.28918086   -34791.70702223
  entropy T*S    EENTRO =         0.00000000
  eigenvalues    EBANDS =      1837.30278495
  atomic energy  EATOM  =     30618.60351129
  Solvation  Ediel_sol  =         0.00000000
  ---------------------------------------------------
  free energy    TOTEN  =      -198.25933613 eV

  energy without entropy =     -198.25933613  energy(sigma->0) =     -198.25933613


--------------------------------------------------------------------------------------------------------




[...]
 -0.006  -0.008  -0.065  -0.029   0.736   0.003   0.004   0.027  -0.001  -0.375  -0.011  -0.000   0.003  -0.015  -0.014  -0.000
 -0.531  -0.015  -0.008  -0.001   0.003   0.180  -0.001   0.004  -0.000  -0.001   0.002   0.000  -0.006  -0.000   0.001   0.000
 -0.014  -0.526   0.009  -0.004   0.004  -0.001   0.176  -0.004   0.002  -0.002  -0.001  -0.000  -0.004   0.000  -0.001   0.000
 -0.008   0.009  -0.325   0.004   0.027   0.004  -0.004   0.086   0.003  -0.006  -0.000   0.001   0.001  -0.001   0.009  -0.000
 -0.001  -0.004   0.004  -0.544  -0.001  -0.000   0.002   0.003   0.214   0.014   0.008  -0.002  -0.001   0.012   0.013   0.000
  0.003   0.004   0.027  -0.002  -0.375  -0.001  -0.002  -0.006   0.014   0.123   0.005  -0.001  -0.002   0.011   0.007   0.000
 -0.002   0.002  -0.000  -0.015  -0.011   0.002  -0.001  -0.000   0.008   0.005  -0.140   0.041  -0.000  -0.003  -0.004  -0.000
 -0.001   0.000  -0.002  -0.000  -0.000   0.000  -0.000   0.001  -0.002  -0.001   0.041  -0.008  -0.000  -0.001  -0.001   0.000
  0.005   0.002  -0.003   0.001   0.003  -0.006  -0.004   0.001  -0.001  -0.002  -0.000  -0.000  -0.022  -0.000  -0.000   0.003
  0.001  -0.001  -0.001  -0.022  -0.015  -0.000   0.000  -0.001   0.012   0.011  -0.003  -0.001  -0.000  -0.021   0.002   0.000
 -0.003   0.001  -0.013  -0.023  -0.014   0.001  -0.001   0.009   0.013   0.007  -0.004  -0.001  -0.000   0.002  -0.020   0.000
 -0.000  -0.000   0.000  -0.000  -0.000   0.000   0.000  -0.000   0.000   0.000  -0.000   0.000   0.003   0.000   0.000  -0.000
 -0.000  -0.000  -0.000   0.001   0.000   0.000  -0.000  -0.000  -0.001  -0.001  -0.000   0.000   0.000   0.003  -0.000  -0.000
  0.000   0.000   0.000   0.001   0.000  -0.000   0.000  -0.001  -0.001  -0.001  -0.000   0.000   0.000  -0.000   0.002  -0.000


------------------------ aborting loop because EDIFF is reached ----------------------------------------


 


 total charge     
 
# of ion       s       p       d       tot
------------------------------------------
    1        0.491   0.490   8.312   9.293
    2        0.507   0.507   8.320   9.334
    3        0.500   0.498   8.324   9.322
    4        0.495   0.487   8.325   9.307
    5        0.502   0.500   8.327   9.329
    6        0.503   0.504   8.329   9.337
    7        0.501   0.501   8.331   9.332
    8        0.506   0.504   8.333   9.344
    9        0.504   0.504   8.324   9.333
   10        0.496   0.491   8.319   9.305
   11        0.497   0.499   8.317   9.314
   12        0.493   0.487   8.320   9.299
   13        0.502   0.500   8.317   9.319
   14        0.504   0.505   8.326   9.334
   15        0.499   0.504   8.320   9.323
   16        0.499   0.503   8.324   9.325
   17        0.501   0.500   8.325   9.326
   18        0.505   0.506   8.328   9.339
   19        0.494   0.491   8.318   9.302
   20        0.497   0.493   8.325   9.315
   21        0.502   0.506   8.321   9.330
   22        0.503   0.501   8.318   9.322
   23        0.493   0.487   8.320   9.300
   24        0.500   0.500   8.320   9.319
   25        0.470   0.503   6.157   7.130
   26        0.476   0.509   6.170   7.155
   27        0.473   0.507   6.159   7.139
   28        0.473   0.507   6.184   7.164
   29        0.475   0.510   6.166   7.151
   30        0.476   0.511   6.182   7.169
   31        0.468   0.501   6.149   7.118
   32        0.472   0.505   6.174   7.151
--------------------------------------------------
tot         15.778  16.020 249.083 280.881
 


 magnetization (x)
 
# of ion       s       p       d       tot
------------------------------------------
    1       -0.011  -0.033   0.652   0.609
    2       -0.022  -0.042   0.672   0.608
    3       -0.016  -0.034   0.620   0.570
    4       -0.013  -0.027   0.595   0.555
    5       -0.017  -0.035   0.618   0.566
    6       -0.018  -0.039   0.625   0.569
    7       -0.015  -0.036   0.606   0.555
    8       -0.017  -0.034   0.617   0.566
    9       -0.020  -0.042   0.637   0.575
   10       -0.014  -0.032   0.637   0.590
   11       -0.012  -0.038   0.659   0.608
   12       -0.011  -0.030   0.620   0.579
   13       -0.018  -0.039   0.666   0.609
   14       -0.017  -0.037   0.653   0.600
   15       -0.018  -0.046   0.662   0.599
   16       -0.015  -0.039   0.645   0.592
   17       -0.015  -0.035   0.635   0.584
   18       -0.019  -0.039   0.630   0.572
   19       -0.011  -0.031   0.640   0.598
   20       -0.014  -0.031   0.601   0.556
   21       -0.018  -0.044   0.665   0.602
   22       -0.020  -0.039   0.668   0.609
   23       -0.013  -0.030   0.611   0.569
   24       -0.014  -0.036   0.663   0.613
   25        0.005  -0.017   2.747   2.735
   26        0.002  -0.018   2.723   2.707
   27        0.006  -0.016   2.746   2.736
   28       -0.002  -0.026   2.676   2.648
   29        0.004  -0.019   2.731   2.716
   30       -0.003  -0.026   2.682   2.653
   31        0.008  -0.013   2.773   2.767
   32        0.003  -0.018   2.707   2.692
--------------------------------------------------
tot         -0.355  -1.021  37.083  35.707
 
    CHARGE:  cpu time    0.2730: real time    0.5494
    FORLOC:  cpu time    0.0050: real time    0.0057
    FORNL :  cpu time    3.1935: real time    6.3965
    STRESS:  cpu time    9.5515: real time   19.1166
    FORCOR:  cpu time    0.0530: real time    0.1048
    FORHAR:  cpu time    0.0100: real time    0.0217
    MIXING:  cpu time    0.0050: real time    0.0091
    OFIELD:  cpu time    0.0000: real time    0.0002

  FORCE on cell =-STRESS in cart. coord.  units (eV):
  Direction    XX          YY          ZZ          XY          YZ          ZX
  --------------------------------------------------------------------------------------
  Alpha Z  1633.54701  1633.54701  1633.54701
  Ewald   -8968.40703 -8935.41774 -9020.25629     0.31539    -0.12547     2.40626
  Hartree  2146.53894  2178.64786  2094.02364     0.18569    -0.02924     2.26873
  E(xc)   -1640.44993 -1640.37856 -1640.43702     0.01278    -0.01537    -0.01945
  Local     229.58409   164.95641   334.23741    -0.90548     0.78986    -5.18211
  n-local  -391.17791  -390.87442  -390.73683    -0.19995    -0.27107    -0.51529
  augment  4538.04541  4537.73930  4537.81010     0.39962    -0.43015     0.73372
  Kinetic  2450.61718  2450.01920  2451.39179    -0.24333    -0.26883     0.22146
  Fock        0.00000     0.00000     0.00000     0.00000     0.00000     0.00000
  -------------------------------------------------------------------------------------
  Total      -1.70224    -1.76093    -0.42018    -0.43529    -0.35028    -0.08669
  in kB      -7.65232    -7.91616    -1.88891    -1.95680    -1.57465    -0.38971
  external pressure =       -5.82 kB  Pullay stress =        0.00 kB


 VOLUME and BASIS-vectors are now :
 -----------------------------------------------------------------------------
  energy-cutoff  :      520.00
  volume of cell :      356.40
      direct lattice vectors                 reciprocal lattice vectors
     7.090000000  0.000000000  0.000000000     0.141043724  0.000000000  0.000000000
     0.000000000  7.090000000  0.000000000     0.000000000  0.141043724  0.000000000
     0.000000000  0.000000000  7.090000000     0.000000000  0.000000000  0.141043724

  length of vectors
     7.090000000  7.090000000  7.090000000     0.141043724  0.141043724  0.141043724


 FORCES acting on ions
    electron-ion (+dipol)            ewald-force                    non-local-force                 convergence-correction
 -----------------------------------------------------------------------------------------------
   -.337E+02 -.153E+02 -.226E+02   0.337E+02 0.153E+02 0.226E+02   0.227E-01 0.935E-02 0.510E-02   0.181E-01 0.821E-02 0.254E-02
   -.633E+02 0.280E+02 -.961E+02   0.634E+02 -.281E+02 0.962E+02   -.127E+00 0.119E+00 -.372E-01   0.159E-01 0.195E-01 -.701E-02
   -.122E+02 0.207E+02 0.930E+02   0.122E+02 -.208E+02 -.929E+02   -.828E-02 0.834E-01 -.433E-01   0.303E-01 0.296E-03 0.693E-02
   -.311E+02 0.128E+02 -.176E+02   0.309E+02 -.128E+02 0.176E+02   0.110E+00 0.544E-02 0.243E-01   0.241E-01 -.829E-02 0.214E-01
   -.580E+02 -.222E+02 -.529E+02   0.580E+02 0.223E+02 0.530E+02   0.129E-01 -.123E-01 -.833E-02   0.481E-03 -.199E-01 -.755E-05
   -.351E+02 -.306E+02 0.773E+02   0.351E+02 0.306E+02 -.774E+02   0.589E-01 -.259E-01 0.763E-01   -.328E-01 0.112E-01 0.115E-01
   -.306E+02 -.547E+00 -.257E+02   0.306E+02 0.564E+00 0.257E+02   0.103E+00 -.921E-02 0.807E-02   -.330E-01 0.387E-02 0.142E-01
   0.345E+02 -.120E+02 0.166E+02   -.344E+02 0.120E+02 -.165E+02   -.788E-01 0.680E-02 -.117E+00   -.171E-01 0.593E-02 0.193E-01
   0.619E+02 -.201E+02 -.104E+03   -.620E+02 0.201E+02 0.104E+03   0.810E-01 -.284E-01 -.205E+00   -.170E-01 0.196E-01 0.745E-02
   -.673E+01 -.374E+02 -.724E+02   0.671E+01 0.374E+02 0.724E+02   -.836E-02 -.250E-01 0.655E-02   0.168E-01 -.354E-02 -.551E-04
   -.385E+02 0.558E+02 0.224E+02   0.385E+02 -.558E+02 -.224E+02   -.272E-01 -.543E-01 0.252E-01   0.126E-01 -.687E-03 -.218E-01
   -.147E+02 -.188E+02 0.495E+02   0.147E+02 0.187E+02 -.494E+02   -.931E-02 0.219E-01 -.167E+00   0.144E-01 -.107E-02 -.515E-03
   -.861E+02 0.317E+02 0.753E+02   0.862E+02 -.317E+02 -.754E+02   -.804E-01 0.251E-01 0.142E+00   -.324E-01 -.106E-01 -.755E-02
   -.369E+02 0.100E+01 -.142E+02   0.369E+02 -.997E+00 0.139E+02   0.425E-01 -.908E-02 0.233E+00   -.300E-01 -.382E-02 0.126E-01
   0.392E+02 -.616E+02 -.208E+02   -.393E+02 0.617E+02 0.208E+02   0.504E-01 -.632E-01 0.374E-01   -.691E-02 -.544E-03 -.186E-01
   0.376E+02 0.104E+02 0.250E+02   -.376E+02 -.104E+02 -.249E+02   -.499E-01 -.907E-02 -.105E+00   -.239E-01 -.565E-02 0.378E-01
   0.590E+02 0.175E+02 -.524E+02   -.589E+02 -.174E+02 0.524E+02   -.764E-01 -.328E-01 -.150E-01   -.696E-03 -.202E-01 0.145E-01
   0.378E+02 -.354E+02 0.761E+02   -.379E+02 0.354E+02 -.762E+02   0.331E-01 -.733E-01 0.601E-01   0.330E-01 -.448E-02 0.307E-03
   0.289E+02 0.773E+00 0.175E+02   -.288E+02 -.746E+00 -.175E+02   -.101E+00 -.193E-01 -.756E-01   0.328E-01 -.209E-02 0.278E-01
   0.332E+02 0.369E+02 -.709E+02   -.332E+02 -.369E+02 0.708E+02   0.835E-02 0.250E-02 0.120E+00   0.170E-01 0.392E-02 0.185E-01
   -.398E+02 -.110E+01 0.229E+02   0.399E+02 0.113E+01 -.229E+02   -.754E-01 0.262E-01 0.151E-01   -.167E-01 -.229E-01 -.128E-01
   0.824E+02 0.353E+02 0.734E+02   -.826E+02 -.354E+02 -.734E+02   0.694E-01 0.526E-01 0.696E-01   0.317E-01 0.435E-02 -.198E-01
   0.330E+02 0.664E+00 0.224E+02   -.330E+02 -.664E+00 -.225E+02   -.304E-01 -.468E-02 0.337E-01   0.308E-01 0.231E-02 0.267E-01
   0.381E+02 -.142E+01 -.260E+02   -.382E+02 0.143E+01 0.261E+02   0.728E-01 0.136E-01 -.202E-01   0.164E-01 -.164E-01 -.265E-01
   0.123E+02 -.355E+02 -.739E+02   -.124E+02 0.356E+02 0.742E+02   0.764E-01 -.124E+00 -.210E+00   -.137E-01 0.987E-02 -.816E-02
   -.356E+02 -.547E+02 0.269E+02   0.358E+02 0.549E+02 -.270E+02   -.209E+00 -.171E+00 0.107E+00   0.543E-02 0.268E-03 -.223E-02
   -.348E+02 0.360E+02 -.737E+02   0.348E+02 -.361E+02 0.739E+02   -.653E-01 0.883E-01 -.177E+00   -.134E-01 -.105E-01 0.655E-02
   -.389E+02 0.275E+01 0.301E+02   0.391E+02 -.274E+01 -.302E+02   -.180E+00 -.375E-02 0.842E-01   -.148E-01 0.177E-01 -.106E-01
   0.104E+02 -.246E+02 0.100E+03   -.104E+02 0.247E+02 -.101E+03   0.781E-02 -.944E-01 0.223E+00   -.243E-01 -.600E-04 -.359E-02
   0.385E+02 0.546E+02 -.310E+02   -.388E+02 -.550E+02 0.311E+02   0.241E+00 0.395E+00 -.612E-01   -.101E-01 0.617E-05 -.284E-01
   0.124E+02 0.258E+02 0.506E+02   -.124E+02 -.257E+02 -.507E+02   0.649E-02 -.506E-01 0.159E-01   -.113E-01 -.153E-03 -.101E-01
   0.368E+02 0.638E+00 -.247E+02   -.369E+02 -.648E+00 0.248E+02   0.116E+00 0.125E-02 -.509E-01   0.145E-01 0.133E-01 -.211E-01
 -----------------------------------------------------------------------------------------------
   -.279E-02 -.308E-01 -.240E-01   0.284E-13 0.727E-13 0.224E-12   -.148E-01 0.396E-01 -.636E-02   0.164E-01 -.106E-01 0.291E-01
 
 
 POSITION                                       TOTAL-FORCE (eV/Angst)
 -----------------------------------------------------------------------------------
      7.08470      0.00754      3.54496         0.005413      0.002647      0.006389
      0.01407      1.76444      5.32635         0.019165      0.014005      0.011714
      7.07743      1.77946      1.76375         0.009205     -0.004117     -0.034742
      7.08499      3.53257      3.53438        -0.002279      0.013488      0.007241
      7.07667      5.33749      5.31861         0.010009      0.015723      0.016691
      1.76385      0.01229      1.77300         0.015147     -0.012412     -0.024399
      1.77055      1.77095      3.53727         0.028372      0.012398      0.023723
      3.55711      7.07585      3.55100        -0.004587      0.017302      0.001486
      3.52928      1.78546      5.30443        -0.028050     -0.017273      0.035043
      5.31208      0.00284      5.32264        -0.009672     -0.016672      0.001797
      0.00740      3.55746      7.08833         0.000221     -0.021947      0.007724
      7.08940      5.30380      1.77878         0.005007     -0.006673     -0.019395
      1.78326      3.53921      1.77003         0.017313     -0.000992      0.000629
      1.75565      5.32256      3.54667         0.024339     -0.010173     -0.005962
      3.54190      0.02240      0.00240        -0.013602      0.021380      0.002927
      3.55693      3.55679      3.54873        -0.033560     -0.018845     -0.021532
      3.55508      5.30333      5.32361        -0.019404      0.003186      0.001125
      5.33173      0.00041      1.77559        -0.025599      0.000734     -0.017887
      5.31804      1.77602      3.55348        -0.000488      0.005781     -0.012292
      5.33643      3.54197      5.31496        -0.007142      0.007658      0.037285
      1.78419      5.31026      0.00879         0.005825      0.032992      0.015539
      5.30126      3.54011      1.75713        -0.018470     -0.003454     -0.018602
      5.32781      5.31240      3.54489         0.005258     -0.001987      0.006016
      5.29853      5.31033      0.00320         0.020455      0.011885     -0.018861
      1.79913      7.06723      5.27993         0.014501     -0.001358      0.015971
      7.08114      7.04259      0.02185         0.001396      0.012688      0.004085
      1.73603      3.57716      5.25709         0.011149     -0.018220      0.027011
      1.75458      1.78224      0.02471         0.031059      0.022772      0.018153
      3.55482      1.75023      1.85020        -0.008056      0.003094     -0.046837
      3.55632      3.54482      7.05516        -0.035677     -0.053653     -0.006487
      3.54174      5.35178      1.80338        -0.010766     -0.014491     -0.016107
      5.33792      1.76803      7.06470        -0.006481      0.004535      0.002556
 -----------------------------------------------------------------------------------
    total drift:                               -0.001110     -0.001760     -0.001252


--------------------------------------------------------------------------------------------------------



  FREE ENERGIE OF THE ION-ELECTRON SYSTEM (eV)
  ---------------------------------------------------
  free  energy   TOTEN  =      -198.25669290 eV

  energy  without entropy=     -198.25669290  energy(sigma->0) =     -198.25669290
 


--------------------------------------------------------------------------------------------------------


    POTLOK:  cpu time    0.0560: real time    0.1171


--------------------------------------------------------------------------------------------------------


     LOOP+:  cpu time  314.9081: real time  633.3919
    4ORBIT:  cpu time    0.0000: real time    0.0000
 


 total charge     
 
# of ion       s       p       d       tot
------------------------------------------
    1        0.491   0.490   8.312   9.293
    2        0.507   0.507   8.320   9.334
    3        0.500   0.498   8.324   9.322
    4        0.495   0.487   8.325   9.307
    5        0.502   0.500   8.327   9.329
    6        0.503   0.504   8.329   9.337
    7        0.501   0.501   8.331   9.332
    8        0.506   0.504   8.333   9.344
    9        0.504   0.504   8.324   9.333
   10        0.496   0.491   8.319   9.305
   11        0.497   0.499   8.317   9.314
   12        0.493   0.487   8.320   9.299
   13        0.502   0.500   8.317   9.319
   14        0.504   0.505   8.326   9.334
   15        0.499   0.504   8.320   9.323
   16        0.499   0.503   8.324   9.325
   17        0.501   0.500   8.325   9.326
   18        0.505   0.506   8.328   9.339
   19        0.494   0.491   8.318   9.302
   20        0.497   0.493   8.325   9.315
   21        0.502   0.506   8.321   9.330
   22        0.503   0.501   8.318   9.322
   23        0.493   0.487   8.320   9.300
   24        0.500   0.500   8.320   9.319
   25        0.470   0.503   6.157   7.130
   26        0.476   0.509   6.170   7.155
   27        0.473   0.507   6.159   7.139
   28        0.473   0.507   6.184   7.164
   29        0.475   0.510   6.166   7.151
   30        0.476   0.511   6.182   7.169
   31        0.468   0.501   6.149   7.118
   32        0.472   0.505   6.174   7.151
--------------------------------------------------
tot         15.778  16.020 249.083 280.881
 


 magnetization (x)
 
# of ion       s       p       d       tot
------------------------------------------
    1       -0.011  -0.033   0.652   0.609
    2       -0.022  -0.042   0.672   0.608
    3       -0.016  -0.034   0.620   0.570
    4       -0.013  -0.027   0.595   0.555
    5       -0.017  -0.035   0.618   0.566
    6       -0.018  -0.039   0.625   0.569
    7       -0.015  -0.036   0.606   0.555
    8       -0.017  -0.034   0.617   0.566
    9       -0.020  -0.042   0.637   0.575
   10       -0.014  -0.032   0.637   0.590
   11       -0.012  -0.038   0.659   0.608
   12       -0.011  -0.030   0.620   0.579
   13       -0.018  -0.039   0.666   0.609
   14       -0.017  -0.037   0.653   0.600
   15       -0.018  -0.046   0.662   0.599
   16       -0.015  -0.039   0.645   0.592
   17       -0.015  -0.035   0.635   0.584
   18       -0.019  -0.039   0.630   0.572
   19       -0.011  -0.031   0.640   0.598
   20       -0.014  -0.031   0.601   0.556
   21       -0.018  -0.044   0.665   0.602
   22       -0.020  -0.039   0.668   0.609
   23       -0.013  -0.030   0.611   0.569
   24       -0.014  -0.036   0.663   0.613
   25        0.005  -0.017   2.747   2.735
   26        0.002  -0.018   2.723   2.707
   27        0.006  -0.016   2.746   2.736
   28       -0.002  -0.026   2.676   2.648
   29        0.004  -0.019   2.731   2.716
   30       -0.003  -0.026   2.682   2.653
   31        0.008  -0.013   2.773   2.767
   32        0.003  -0.018   2.707   2.692
--------------------------------------------------
tot         -0.355  -1.021  37.083  35.707
 
 BZINTS: Fermi energy:  8.376797;304.000000 electrons
         Band energy:1837.373261;  BLOECHL correction: -0.207358

 total amount of memory used by VASP MPI-rank0    61177. kBytes
=======================================================================

   base      :      30000. kBytes
   nonlr-proj:       6007. kBytes
   fftplans  :       1483. kBytes
   grid      :       3780. kBytes
   one-center:         62. kBytes
   wavefun   :      19845. kBytes
 
  
  
 General timing and accounting informations for this job:
 ========================================================
  
                  Total CPU time used (sec):      331.028
                            User time (sec):      290.596
                          System time (sec):       40.432
                         Elapsed time (sec):      665.943
  
                   Maximum memory used (kb):      117096.
                   Average memory used (kb):           0.
  
                          Minor page faults:        19090
                          Major page faults:            0
                 Voluntary context switches:          929
