       N       E                     dE             d eps       ncg     rms          rms(c)
DAV:   1     0.443452480641E+04    0.44345E+04   -0.24334E+05 32880   0.147E+03
DAV:   2    -0.185060966649E+01   -0.44364E+04   -0.41470E+04 32880   0.339E+02
DAV:   3    -0.407095389031E+03   -0.40524E+03   -0.34743E+03 34146   0.143E+02
DAV:   4    -0.423653585676E+03   -0.16558E+02   -0.16200E+02 34899   0.314E+01
DAV:   5    -0.423959859789E+03   -0.30627E+00   -0.30600E+00 37491   0.353E+00
RMM:   6    -0.423970181843E+03   -0.10322E-01   -0.10318E-01 34199   0.608E-01
RMM:   7    -0.423973306930E+03   -0.31251E-02   -0.31142E-02 50193   0.235E-01
RMM:   8    -0.423973375891E+03   -0.68961E-04   -0.71654E-04 48194   0.283E-02
RMM:   9    -0.423973402293E+03   -0.26402E-04   -0.26183E-04 32980   0.891E-03
RMM:  10    -0.423973404369E+03   -0.20765E-05   -0.14838E-05 22617   0.373E-03
RMM:  11    -0.423973405187E+03   -0.81799E-06   -0.78935E-06 21290   0.221E-03
   1 F= -.42397341E+03 E0= -.42397341E+03  d E =0.000000E+00  mag=   113.8140
