 vasp.5.4.4.18Apr17-6-g9f103f2a35 (build Sep 06 2021 19:49:22) complex          
  
 executed on             LinuxIFC date 2022.01.03  17:40:26
 running on   72 total cores
 distrk:  each k-point on   72 cores,    1 groups
 distr:  one band on NCORES_PER_BAND=  24 cores,    3 groups


--------------------------------------------------------------------------------------------------------


 INCAR:
 POTCAR:    PAW_PBE Ni 02Aug2007                  
 POTCAR:    PAW_PBE Fe 06Sep2000                  

 ----------------------------------------------------------------------------- 
|                                                                             |
|           W    W    AA    RRRRR   N    N  II  N    N   GGGG   !!!           |
|           W    W   A  A   R    R  NN   N  II  NN   N  G    G  !!!           |
|           W    W  A    A  R    R  N N  N  II  N N  N  G       !!!           |
|           W WW W  AAAAAA  RRRRR   N  N N  II  N  N N  G  GGG   !            |
|           WW  WW  A    A  R   R   N   NN  II  N   NN  G    G                |
|           W    W  A    A  R    R  N    N  II  N    N   GGGG   !!!           |
|                                                                             |
|      For optimal performance we recommend to set                            |
|        NCORE= 4 - approx SQRT( number of cores)                             |
|      NCORE specifies how many cores store one orbital (NPAR=cpu/NCORE).     |
|      This setting can  greatly improve the performance of VASP for DFT.     |
|      The default,   NCORE=1            might be grossly inefficient         |
|      on modern multi-core architectures or massively parallel machines.     |
|      Do your own testing !!!!                                               |
|      Unfortunately you need to use the default for GW and RPA calculations. |
|      (for HF NCORE is supported but not extensively tested yet)             |
|                                                                             |
 ----------------------------------------------------------------------------- 

 POTCAR:    PAW_PBE Ni 02Aug2007                  
   VRHFIN =Ni:                                                                  
   LEXCH  = PE                                                                  
   EATOM  =  1077.6739 eV,   79.2068 Ry                                         
                                                                                
   TITEL  = PAW_PBE Ni 02Aug2007                                                
   LULTRA =        F    use ultrasoft PP ?                                      
   IUNSCR =        1    unscreen: 0-lin 1-nonlin 2-no                           
   RPACOR =    2.000    partial core radius                                     
   POMASS =   58.690; ZVAL   =   10.000    mass and valenz                      
   RCORE  =    2.300    outmost cutoff radius                                   
   RWIGS  =    2.430; RWIGS  =    1.286    wigner-seitz radius (au A)           
   ENMAX  =  269.532; ENMIN  =  202.149 eV                                      
   RCLOC  =    1.201    cutoff for local pot                                    
   LCOR   =        T    correct aug charges                                     
   LPAW   =        T    paw PP                                                  
   EAUG   =  544.565                                                            
   DEXC   =    0.000                                                            
   RMAX   =    2.357    core radius for proj-oper                               
   RAUG   =    1.300    factor for augmentation sphere                          
   RDEP   =    2.390    radius for radial grids                                 
   RDEPT  =    1.838    core radius for aug-charge                              
                                                                                
   Atomic configuration                                                         
    9 entries                                                                   
     n  l   j            E        occ.                                          
     1  0  0.50     -8206.4253   2.0000                                         
     2  0  0.50      -976.1748   2.0000                                         
     2  1  1.50      -839.0571   6.0000                                         
     3  0  0.50      -105.9991   2.0000                                         
     3  1  1.50       -66.4603   6.0000                                         
     3  2  2.50        -4.6458   9.0000                                         
     4  0  0.50        -4.4926   1.0000                                         
     4  1  1.50        -4.0817   0.0000                                         
     4  3  2.50        -1.3606   0.0000                                         
   Description                                                                  
     l       E           TYP  RCUT    TYP  RCUT                                 
     2     -4.6457903     23  2.300                                             
     2     -6.0063729     23  2.300                                             
     0     -4.4925590     23  2.300                                             
     0      5.0102601     23  2.300                                             
     1     -2.7211652     23  2.300                                             
     1     16.5183231     23  2.300                                             
  local pseudopotential read in
  partial core-charges read in
  partial kinetic energy density read in
  atomic valenz-charges read in
  non local Contribution for L=           2  read in
    real space projection operators read in
  non local Contribution for L=           2  read in
    real space projection operators read in
  non local Contribution for L=           0  read in
    real space projection operators read in
  non local Contribution for L=           0  read in
    real space projection operators read in
  non local Contribution for L=           1  read in
    real space projection operators read in
  non local Contribution for L=           1  read in
    real space projection operators read in
    PAW grid and wavefunctions read in
 
   number of l-projection  operators is LMAX  =           6
   number of lm-projection operators is LMMAX =          18
 
 POTCAR:    PAW_PBE Fe 06Sep2000                  
   VRHFIN =Fe:  d7 s1                                                           
   LEXCH  = PE                                                                  
   EATOM  =   594.3153 eV,   43.6809 Ry                                         
                                                                                
   TITEL  = PAW_PBE Fe 06Sep2000                                                
   LULTRA =        F    use ultrasoft PP ?                                      
   IUNSCR =        1    unscreen: 0-lin 1-nonlin 2-no                           
   RPACOR =    2.000    partial core radius                                     
   POMASS =   55.847; ZVAL   =    8.000    mass and valenz                      
   RCORE  =    2.300    outmost cutoff radius                                   
   RWIGS  =    2.460; RWIGS  =    1.302    wigner-seitz radius (au A)           
   ENMAX  =  267.882; ENMIN  =  200.911 eV                                      
   RCLOC  =    1.701    cutoff for local pot                                    
   LCOR   =        T    correct aug charges                                     
   LPAW   =        T    paw PP                                                  
   EAUG   =  511.368                                                            
   DEXC   =    0.000                                                            
   RMAX   =    2.356    core radius for proj-oper                               
   RAUG   =    1.300    factor for augmentation sphere                          
   RDEP   =    2.442    radius for radial grids                                 
   RDEPT  =    1.890    core radius for aug-charge                              
                                                                                
   Atomic configuration                                                         
    9 entries                                                                   
     n  l   j            E        occ.                                          
     1  0  0.50     -6993.8440   2.0000                                         
     2  0  0.50      -814.6047   2.0000                                         
     2  1  1.50      -693.3689   6.0000                                         
     3  0  0.50       -89.4732   2.0000                                         
     3  1  1.50       -55.6373   6.0000                                         
     3  2  2.50        -3.8151   7.0000                                         
     4  0  0.50        -4.2551   1.0000                                         
     4  1  1.50        -3.4015   0.0000                                         
     4  3  2.50        -1.3606   0.0000                                         
   Description                                                                  
     l       E           TYP  RCUT    TYP  RCUT                                 
     2     -3.8151135     23  2.300                                             
     2     -5.1756961     23  2.300                                             
     0     -4.2550963     23  2.300                                             
     0      7.2035603     23  2.300                                             
     1     -2.7211652     23  2.300                                             
     1     18.4316424     23  2.300                                             
  local pseudopotential read in
  partial core-charges read in
  partial kinetic energy density read in
  atomic valenz-charges read in
  non local Contribution for L=           2  read in
    real space projection operators read in
  non local Contribution for L=           2  read in
    real space projection operators read in
  non local Contribution for L=           0  read in
    real space projection operators read in
  non local Contribution for L=           0  read in
    real space projection operators read in
  non local Contribution for L=           1  read in
    real space projection operators read in
  non local Contribution for L=           1  read in
    real space projection operators read in
    PAW grid and wavefunctions read in
 
   number of l-projection  operators is LMAX  =           6
   number of lm-projection operators is LMMAX =          18
 
 Optimization of the real space projectors (new method)

 maximal supplied QI-value         = 16.25
 optimisation between [QCUT,QGAM] = [ 11.54, 23.24] = [ 37.28,151.24] Ry 
 Optimized for a Real-space Cutoff    1.45 Angstroem

   l    n(q)    QCUT    max X(q) W(low)/X(q) W(high)/X(q)  e(spline) 
   2      9    11.539    60.317    0.19E-03    0.47E-04    0.16E-06
   2      9    11.539    55.921    0.19E-03    0.48E-04    0.16E-06
   0     10    11.539    51.690    0.80E-04    0.50E-04    0.24E-06
   0     10    11.539    30.015    0.73E-04    0.45E-04    0.22E-06
   1     10    11.539    18.849    0.87E-04    0.16E-03    0.71E-07
   1     10    11.539    14.624    0.73E-04    0.13E-03    0.64E-07
 Optimization of the real space projectors (new method)

 maximal supplied QI-value         = 16.25
 optimisation between [QCUT,QGAM] = [ 11.54, 23.24] = [ 37.28,151.24] Ry 
 Optimized for a Real-space Cutoff    1.53 Angstroem

   l    n(q)    QCUT    max X(q) W(low)/X(q) W(high)/X(q)  e(spline) 
   2     10    11.539    80.901    0.11E-03    0.14E-03    0.21E-06
   2     10    11.539    75.754    0.11E-03    0.14E-03    0.22E-06
   0     11    11.539    58.752    0.52E-04    0.18E-04    0.33E-06
   0     11    11.539    30.679    0.44E-04    0.16E-04    0.30E-06
   1     10    11.539    17.977    0.53E-04    0.29E-04    0.13E-06
   1     10    11.539    13.559    0.44E-04    0.25E-04    0.11E-06
  PAW_PBE Ni 02Aug2007                  :
 energy of atom  1       EATOM=-1077.6739
 kinetic energy error for atom=    0.0030 (will be added to EATOM!!)
  PAW_PBE Fe 06Sep2000                  :
 energy of atom  2       EATOM= -594.3153
 kinetic energy error for atom=    0.0026 (will be added to EATOM!!)
 
 
 POSCAR: POSCAR                                  
  positions in direct lattice
  velocities in cartesian coordinates
 exchange correlation table for  LEXCH =        8
   RHO(1)=    0.500       N(1)  =     2000
   RHO(2)=  100.500       N(2)  =     4000
 


--------------------------------------------------------------------------------------------------------


 ion  position               nearest neighbor table
   1  0.000  0.002  0.289-  32 2.48  29 2.50  24 2.51  34 2.52  37 2.52  57 2.52   5 2.52   2 2.52
                             4 2.52  63 2.53  21 2.54  30 2.54
   2  0.248  0.999  0.290-  46 2.46   7 2.46  57 2.47  34 2.48  33 2.50  27 2.51  21 2.52   1 2.52
                             3 2.53   5 2.53  59 2.53   9 2.54
   3  0.501  0.004  0.291-  59 2.47  33 2.48   8 2.50  30 2.51  28 2.52  12 2.52   9 2.53   2 2.53
                            46 2.54  47 2.54  36 2.56  61 2.59
   4  1.000  0.251  0.290-  32 2.47  38 2.49  20 2.49  13 2.50  11 2.50  37 2.52   1 2.52   8 2.52
                            44 2.53  30 2.53   5 2.54  40 2.56
   5  0.251  0.250  0.289-  32 2.48   7 2.49  44 2.49  34 2.49  33 2.50   1 2.52  38 2.52  17 2.53
                             2 2.53  43 2.54  41 2.54   4 2.54
   6  0.334  0.165  0.096-  42 2.50  15 2.51   9 2.51  58 2.52  34 2.52  17 2.52  35 2.54  56 2.54
                            31 2.54
   7  0.335  0.165  0.383-  33 2.42   2 2.46   5 2.49  59 2.50  43 2.51  57 2.52  36 2.53  16 2.54
                            32 2.55
   8  0.750  0.251  0.291-  19 2.44  36 2.48  11 2.48   3 2.50  45 2.51  30 2.51  14 2.52  13 2.52
                             4 2.52  12 2.53  33 2.54  20 2.55
   9  0.418  0.084  0.193-  58 2.49  34 2.49   6 2.51  17 2.51  12 2.52  33 2.52  28 2.53   3 2.53
                            27 2.53  35 2.53   2 2.54  45 2.56
  10  0.832  0.166  0.098-  37 2.48  39 2.48  35 2.49  12 2.50  60 2.51  18 2.52  20 2.52  31 2.54
                            62 2.55
  11  0.832  0.164  0.385-  30 2.44   8 2.48  36 2.50   4 2.50  61 2.51  40 2.51  32 2.53  19 2.54
                            63 2.55
  12  0.668  0.085  0.194-  60 2.49  10 2.50  37 2.51  45 2.51   9 2.52   3 2.52  30 2.53  20 2.53
                             8 2.53  28 2.54  35 2.54  64 2.54
  13  0.001  0.499  0.291-  19 2.46  23 2.47  50 2.48  38 2.48   4 2.50  20 2.51  40 2.51   8 2.52
                            46 2.54  21 2.54  14 2.54  26 2.55
  14  0.750  0.500  0.290-  54 2.47  19 2.48  45 2.48  16 2.48  41 2.50  26 2.50  55 2.50  24 2.52
                            21 2.52   8 2.52  13 2.54  33 2.56
  15  0.583  0.413  0.097-  42 2.47  35 2.49  53 2.49  17 2.49  18 2.50   6 2.51  45 2.54  55 2.55
                            51 2.56
  16  0.585  0.418  0.384-  36 2.48  41 2.48  14 2.48  54 2.49  33 2.50  43 2.50  19 2.52   7 2.54
                            52 2.55
  17  0.420  0.333  0.193-  42 2.48  15 2.49   9 2.51  34 2.52  55 2.52   6 2.52  33 2.53   5 2.53
                            44 2.53  41 2.54  25 2.54  45 2.54
  18  0.831  0.415  0.098-  39 2.45  53 2.47  35 2.47  45 2.47  15 2.50  20 2.51  10 2.52  26 2.52
                            22 2.53
  19  0.834  0.416  0.383-   8 2.44  36 2.44  13 2.46  40 2.47  54 2.47  14 2.48  16 2.52  11 2.54
                            23 2.54
  20  0.919  0.335  0.194-  39 2.47  45 2.49   4 2.49  13 2.51  37 2.51  18 2.51  50 2.51  10 2.52
                            12 2.53  26 2.54  44 2.54   8 2.55
  21  0.999  0.750  0.290-  57 2.47  54 2.48  46 2.48  24 2.49  29 2.49  23 2.49  26 2.51  14 2.52
                             2 2.52  27 2.54   1 2.54  13 2.54
  22  0.082  0.666  0.097-  39 2.49  53 2.50  56 2.51  27 2.52  26 2.52  50 2.53  18 2.53  58 2.54
                            48 2.54
  23  0.086  0.667  0.384-  46 2.43  13 2.47  40 2.49  21 2.49  49 2.51  54 2.51  57 2.52  19 2.54
                            59 2.56
  24  0.753  0.751  0.291-  21 2.49  54 2.50  64 2.51  63 2.51   1 2.51  14 2.52  29 2.52  41 2.53
                            55 2.53  52 2.55  30 2.55  47 2.57
  25  0.417  0.584  0.195-  44 2.49  48 2.49  41 2.50  55 2.52  28 2.52  47 2.53  64 2.53  17 2.54
                            42 2.55  51 2.55  50 2.57  38 2.58
  26  0.916  0.585  0.194-  45 2.48  29 2.48  53 2.50  14 2.50  55 2.50  21 2.51  50 2.51  22 2.52
                            18 2.52  27 2.53  20 2.54  13 2.55
  27  0.167  0.835  0.193-  29 2.48  34 2.49  58 2.49  50 2.50   2 2.51  46 2.51  22 2.52   9 2.53
                            26 2.53  21 2.54  28 2.54  56 2.54
  28  0.417  0.833  0.195-  47 2.50  60 2.51   3 2.52  46 2.52  50 2.52  58 2.52  25 2.52   9 2.53
                            48 2.53  12 2.54  27 2.54  64 2.54
  29  0.920  0.833  0.194-  27 2.48  26 2.48  21 2.49   1 2.50  24 2.52  55 2.53  34 2.54  62 2.54
                            64 2.54  56 2.55  53 2.57  37 2.57
  30  0.749  0.002  0.292-  11 2.44   8 2.51   3 2.51  47 2.53  12 2.53   4 2.53  64 2.53   1 2.54
                            63 2.55  24 2.55  61 2.57  37 2.58
  31  0.085  0.169  0.094-  42 2.53  10 2.54  39 2.54   6 2.54  62 2.55  56 2.56  37 2.56  44 2.59
                            34 2.61
  32  0.084  0.169  0.383-   4 2.47   5 2.48   1 2.48  43 2.50  11 2.53  63 2.53  40 2.53   7 2.55
                            57 2.56
  33  0.496  0.247  0.290-   7 2.42   3 2.48   5 2.50  16 2.50   2 2.50   9 2.52  17 2.53  36 2.53
                            41 2.54   8 2.54  45 2.56  14 2.56
  34  0.171  0.083  0.194-   2 2.48  27 2.49   9 2.49   5 2.49  17 2.52   1 2.52   6 2.52  29 2.54
                            44 2.57  56 2.58  37 2.58  31 2.61
  35  0.588  0.169  0.096-  18 2.47  10 2.49  15 2.49  60 2.51   9 2.53  12 2.54   6 2.54  45 2.55
                            58 2.56
  36  0.591  0.176  0.388-  19 2.44  16 2.48   8 2.48  11 2.50  33 2.53   7 2.53  59 2.56   3 2.56
                            61 2.56
  37  0.917  0.086  0.193-  10 2.48  20 2.51  12 2.51   1 2.52   4 2.52  64 2.53  62 2.54  44 2.55
                            31 2.56  29 2.57  30 2.58  34 2.58
  38  0.246  0.497  0.293-  13 2.48   4 2.49  43 2.52  40 2.52   5 2.52  49 2.53  44 2.53  50 2.55
                            47 2.56  41 2.58  25 2.58  46 2.60
  39  0.074  0.415  0.097-  18 2.45  20 2.47  10 2.48  22 2.49  31 2.54  48 2.55  44 2.56  50 2.58
                            42 2.67
  40  0.077  0.416  0.389-  19 2.47  23 2.49  13 2.51  11 2.51  38 2.52  32 2.53  49 2.54   4 2.56
                            43 2.62
  41  0.503  0.501  0.290-  16 2.48  14 2.50  25 2.50  55 2.50  24 2.53  17 2.54  33 2.54   5 2.54
                            47 2.54  43 2.55  38 2.58  52 2.59
  42  0.339  0.415  0.097-  15 2.47  17 2.48   6 2.50  51 2.52  31 2.53  48 2.54  44 2.54  25 2.55
                            39 2.67
  43  0.335  0.413  0.387-  32 2.50  16 2.50   7 2.51  38 2.52   5 2.54  49 2.54  41 2.55  52 2.59
                            40 2.62
  44  0.171  0.337  0.194-  25 2.49   5 2.49   4 2.53  17 2.53  38 2.53  20 2.54  42 2.54  50 2.55
                            37 2.55  39 2.56  34 2.57  31 2.59
  45  0.673  0.336  0.195-  18 2.47  26 2.48  14 2.48  20 2.49   8 2.51  12 2.51  55 2.53  15 2.54
                            17 2.54  35 2.55   9 2.56  33 2.56
  46  0.247  0.755  0.291-  23 2.43   2 2.46  21 2.48  59 2.49  50 2.51  27 2.51  28 2.52  13 2.54
                             3 2.54  47 2.57  38 2.60  49 2.62
  47  0.499  0.751  0.291-  28 2.50  30 2.53  25 2.53  64 2.53  41 2.54   3 2.54  52 2.55  38 2.56
                            49 2.56  46 2.57  24 2.57  61 2.58
  48  0.332  0.663  0.099-  25 2.49  50 2.52  28 2.53  51 2.54  42 2.54  22 2.54  58 2.55  39 2.55
                            60 2.56
  49  0.333  0.664  0.390-  23 2.51  38 2.53  52 2.54  40 2.54  43 2.54  61 2.54  59 2.56  47 2.56
                            46 2.62
  50  0.165  0.586  0.196-  13 2.48  27 2.50  46 2.51  26 2.51  20 2.51  28 2.52  48 2.52  22 2.53
                            44 2.55  38 2.55  25 2.57  39 2.58
  51  0.586  0.668  0.097-  62 2.50  55 2.52  42 2.52  53 2.52  48 2.54  64 2.54  60 2.55  25 2.55
                            15 2.56
  52  0.588  0.672  0.389-  63 2.49  61 2.52  49 2.54  47 2.55  24 2.55  54 2.55  16 2.55  43 2.59
                            41 2.59
  53  0.831  0.659  0.097-  18 2.47  15 2.49  26 2.50  22 2.50  55 2.52  51 2.52  56 2.56  62 2.57
                            29 2.57
  54  0.834  0.661  0.385-  19 2.47  14 2.47  21 2.48  16 2.49  24 2.50  23 2.51  63 2.55  57 2.55
                            52 2.55
  55  0.668  0.584  0.194-  26 2.50  41 2.50  14 2.50  64 2.51  53 2.52  17 2.52  51 2.52  25 2.52
                            29 2.53  24 2.53  45 2.53  15 2.55
  56  0.082  0.914  0.095-  62 2.51  22 2.51  58 2.53  27 2.54   6 2.54  29 2.55  53 2.56  31 2.56
                            34 2.58
  57  0.085  0.916  0.384-   2 2.47  21 2.47  63 2.49  23 2.52   1 2.52   7 2.52  59 2.55  54 2.55
                            32 2.56
  58  0.334  0.916  0.098-   9 2.49  27 2.49  60 2.49   6 2.52  28 2.52  56 2.53  22 2.54  48 2.55
                            35 2.56
  59  0.340  0.920  0.386-  61 2.46   3 2.47  46 2.49   7 2.50   2 2.53  57 2.55  36 2.56  49 2.56
                            23 2.56
  60  0.582  0.919  0.099-  12 2.49  58 2.49  35 2.51  28 2.51  10 2.51  64 2.54  51 2.55  48 2.56
                            62 2.57
  61  0.582  0.918  0.391-  59 2.46  11 2.51  52 2.52  49 2.54  36 2.56  30 2.57  47 2.58   3 2.59
                            63 2.61
  62  0.834  0.914  0.097-  51 2.50  56 2.51  37 2.54  29 2.54  10 2.55  64 2.55  31 2.55  60 2.57
                            53 2.57
  63  0.838  0.915  0.387-  57 2.49  52 2.49  24 2.51  32 2.53   1 2.53  54 2.55  11 2.55  30 2.55
                            61 2.61
  64  0.668  0.834  0.195-  24 2.51  55 2.51  47 2.53  37 2.53  25 2.53  30 2.53  60 2.54  28 2.54
                            12 2.54  51 2.54  29 2.54  62 2.55
 

IMPORTANT INFORMATION: All symmetrisations will be switched off!
NOSYMM: (Re-)initialisation of all symmetry stuff for point group C_1.

 
 

Automatic generation of k-mesh.
 generate k-points for:    4    4    2
Space group operators:
 irot       det(A)        alpha          n_x          n_y          n_z        tau_x        tau_y        tau_z
    1     1.000000     0.000001     1.000000     0.000000     0.000000     0.000000     0.000000     0.000000
 
 Subroutine IBZKPT returns following result:
 ===========================================
 
 Found     20 irreducible k-points:
 
 Following reciprocal coordinates:
            Coordinates               Weight
  0.000000  0.000000  0.000000      1.000000
  0.250000  0.000000  0.000000      2.000000
  0.500000  0.000000  0.000000      1.000000
  0.000000  0.250000  0.000000      2.000000
  0.250000  0.250000  0.000000      2.000000
  0.500000  0.250000  0.000000      2.000000
 -0.250000  0.250000  0.000000      2.000000
  0.000000  0.500000  0.000000      1.000000
  0.250000  0.500000  0.000000      2.000000
  0.500000  0.500000  0.000000      1.000000
  0.000000  0.000000  0.500000      1.000000
  0.250000  0.000000  0.500000      2.000000
  0.500000  0.000000  0.500000      1.000000
  0.000000  0.250000  0.500000      2.000000
  0.250000  0.250000  0.500000      2.000000
  0.500000  0.250000  0.500000      2.000000
 -0.250000  0.250000  0.500000      2.000000
  0.000000  0.500000  0.500000      1.000000
  0.250000  0.500000  0.500000      2.000000
  0.500000  0.500000  0.500000      1.000000
 
 Following cartesian coordinates:
            Coordinates               Weight
  0.000000  0.000000  0.000000      1.000000
  0.024752  0.014290  0.000000      2.000000
  0.049503  0.028581  0.000000      1.000000
  0.000000  0.028581  0.000000      2.000000
  0.024752  0.042871  0.000000      2.000000
  0.049503  0.057162  0.000000      2.000000
 -0.024752  0.014290  0.000000      2.000000
  0.000000  0.057162  0.000000      1.000000
  0.024752  0.071452  0.000000      2.000000
  0.049503  0.085742  0.000000      1.000000
  0.000000  0.000000  0.023472      1.000000
  0.024752  0.014290  0.023472      2.000000
  0.049503  0.028581  0.023472      1.000000
  0.000000  0.028581  0.023472      2.000000
  0.024752  0.042871  0.023472      2.000000
  0.049503  0.057162  0.023472      2.000000
 -0.024752  0.014290  0.023472      2.000000
  0.000000  0.057162  0.023472      1.000000
  0.024752  0.071452  0.023472      2.000000
  0.049503  0.085742  0.023472      1.000000
 
 TETIRR: Found     96 inequivalent tetrahedra from      192


--------------------------------------------------------------------------------------------------------




 Dimension of arrays:
   k-points           NKPTS =     20   k-points in BZ     NKDIM =     20   number of bands    NBANDS=    411
   number of dos      NEDOS =    301   number of ions     NIONS =     64
   non local maximal  LDIM  =      6   non local SUM 2l+1 LMDIM =     18
   total plane-waves  NPLWV = ******
   max r-space proj   IRMAX =   8274   max aug-charges    IRDMAX=  19579
   dimension x,y,z NGX =    80 NGY =   80 NGZ =  160
   dimension x,y,z NGXF=   160 NGYF=  160 NGZF=  320
   support grid    NGXF=   160 NGYF=  160 NGZF=  320
   ions per type =              29  35
   NGX,Y,Z   is equivalent  to a cutoff of  13.17, 13.17, 12.49 a.u.
   NGXF,Y,Z  is equivalent  to a cutoff of  26.34, 26.34, 24.97 a.u.

 SYSTEM =  SQS-NiFe                                
 POSCAR =  POSCAR                                  

 Startparameter for this run:
   NWRITE =      2    write-flag & timer
   PREC   = accura    normal or accurate (medium, high low for compatibility)
   ISTART =      0    job   : 0-new  1-cont  2-samecut
   ICHARG =     11    charge: 1-file 2-atom 10-const
   ISPIN  =      2    spin polarized calculation?
   LNONCOLLINEAR =      F non collinear calculations
   LSORBIT =      F    spin-orbit coupling
   INIWAV =      1    electr: 0-lowe 1-rand  2-diag
   LASPH  =      F    aspherical Exc in radial PAW
   METAGGA=      F    non-selfconsistent MetaGGA calc.

 Electronic Relaxation 1
   ENCUT  =  520.0 eV  38.22 Ry    6.18 a.u.  18.78 18.78 39.61*2*pi/ulx,y,z
   ENINI  =  520.0     initial cutoff
   ENAUG  =  544.6 eV  augmentation charge cutoff
   NELM   =    200;   NELMIN=  2; NELMDL= -5     # of ELM steps 
   EDIFF  = 0.1E-05   stopping-criterion for ELM
   LREAL  =      T    real-space projection
   NLSPLINE    = F    spline interpolate recip. space projectors
   LCOMPAT=      F    compatible to vasp.4.4
   GGA_COMPAT  = T    GGA compatible to vasp.4.4-vasp.4.6
   LMAXPAW     = -100 max onsite density
   LMAXMIX     =    2 max onsite mixed and CHGCAR
   VOSKOWN=      0    Vosko Wilk Nusair interpolation
   ROPT   =   -0.00025  -0.00025
 Ionic relaxation
   EDIFFG = -.2E-01   stopping-criterion for IOM
   NSW    =      0    number of steps for IOM
   NBLOCK =      1;   KBLOCK =      1    inner block; outer block 
   IBRION =     -1    ionic relax: 0-MD 1-quasi-New 2-CG
   NFREE  =      0    steps in history (QN), initial steepest desc. (CG)
   ISIF   =      2    stress and relaxation
   IWAVPR =     10    prediction:  0-non 1-charg 2-wave 3-comb
   ISYM   =      0    0-nonsym 1-usesym 2-fastsym
   LCORR  =      T    Harris-Foulkes like correction to forces

   POTIM  = 0.5000    time-step for ionic-motion
   TEIN   =    0.0    initial temperature
   TEBEG  =    0.0;   TEEND  =   0.0 temperature during run
   SMASS  =  -3.00    Nose mass-parameter (am)
   estimated Nose-frequenzy (Omega)   =  0.10E-29 period in steps =****** mass=  -0.233E-26a.u.
   SCALEE = 1.0000    scale energy and forces
   NPACO  =    256;   APACO  = 16.0  distance and # of slots for P.C.
   PSTRESS=    0.0 pullay stress

  Mass of Ions in am
   POMASS =  58.69 55.85
  Ionic Valenz
   ZVAL   =  10.00  8.00
  Atomic Wigner-Seitz radii
   RWIGS  =  -1.00 -1.00
  virtual crystal weights 
   VCA    =   1.00  1.00
   NELECT =     570.0000    total number of electrons
   NUPDOWN=      -1.0000    fix difference up-down

 DOS related values:
   EMIN   =  10.00;   EMAX   =-10.00  energy-range for DOS
   EFERMI =   0.00
   ISMEAR =    -5;   SIGMA  =   0.20  broadening in eV -4-tet -1-fermi 0-gaus

 Electronic relaxation 2 (details)
   IALGO  =     68    algorithm
   LDIAG  =      T    sub-space diagonalisation (order eigenvalues)
   LSUBROT=      F    optimize rotation matrix (better conditioning)
   TURBO    =      0    0=normal 1=particle mesh
   IRESTART =      0    0=no restart 2=restart with 2 vectors
   NREBOOT  =      0    no. of reboots
   NMIN     =      0    reboot dimension
   EREF     =   0.00    reference energy to select bands
   IMIX   =      4    mixing-type and parameters
     AMIX     =   0.40;   BMIX     =  1.00
     AMIX_MAG =   1.60;   BMIX_MAG =  1.00
     AMIN     =   0.10
     WC   =   100.;   INIMIX=   1;  MIXPRE=   1;  MAXMIX= -45

 Intra band minimization:
   WEIMIN = 0.0000     energy-eigenvalue tresh-hold
   EBREAK =  0.61E-09  absolut break condition
   DEPER  =   0.30     relativ break condition  

   TIME   =   0.40     timestep for ELM

  volume/ion in A,a.u.               =      29.41       198.44
  Fermi-wavevector in a.u.,A,eV,Ry     =   1.099415  2.077594 16.445550  1.208714
  Thomas-Fermi vector in A             =   2.235809
 
 Write flags
   LWAVE        =      F    write WAVECAR
   LDOWNSAMPLE  =      F    k-point downsampling of WAVECAR
   LCHARG       =      F    write CHGCAR
   LVTOT        =      F    write LOCPOT, total local potential
   LVHAR        =      F    write LOCPOT, Hartree potential only
   LELF         =      F    write electronic localiz. function (ELF)
   LORBIT       =     11    0 simple, 1 ext, 2 COOP (PROOUT), +10 PAW based schemes


 Dipole corrections
   LMONO  =      F    monopole corrections only (constant potential shift)
   LDIPOL =      T    correct potential (dipole corrections)
   IDIPOL =      3    1-x, 2-y, 3-z, 4-all directions 
   EPSILON=  1.0000000 bulk dielectric constant

 Exchange correlation treatment:
   GGA     =    --    GGA type
   LEXCH   =     8    internal setting for exchange type
   VOSKOWN=      0    Vosko Wilk Nusair interpolation
   LHFCALC =     F    Hartree Fock is set to
   LHFONE  =     F    Hartree Fock one center treatment
   AEXX    =    0.0000 exact exchange contribution

 Linear response parameters
   LEPSILON=     F    determine dielectric tensor
   LRPA    =     F    only Hartree local field effects (RPA)
   LNABLA  =     F    use nabla operator in PAW spheres
   LVEL    =     F    velocity operator in full k-point grid
   LINTERFAST=   F  fast interpolation
   KINTER  =     0    interpolate to denser k-point grid
   CSHIFT  =0.1000    complex shift for real part using Kramers Kronig
   OMEGAMAX=  -1.0    maximum frequency
   DEG_THRESHOLD= 0.2000000E-02 threshold for treating states as degnerate
   RTIME   =   -0.100 relaxation time in fs
  (WPLASMAI=    0.000 imaginary part of plasma frequency in eV, 0.658/RTIME)
   DFIELD  = 0.0000000 0.0000000 0.0000000 field for delta impulse in time
 
 Orbital magnetization related:
   ORBITALMAG=     F  switch on orbital magnetization
   LCHIMAG   =     F  perturbation theory with respect to B field
   DQ        =  0.001000  dq finite difference perturbation B field
   LLRAUG    =     F  two centre corrections for induced B field



--------------------------------------------------------------------------------------------------------


 Static calculation
 charge density and potential remain constant during run
 spin polarized calculation
 RMM-DIIS sequential band-by-band and
  variant of blocked Davidson during initial phase
 perform sub-space diagonalisation
    before iterative eigenvector-optimisation
 no mixing
 using additional bands          126
 real space projection scheme for non local part
 use partial core corrections
 calculate Harris-corrections to forces 
   (improved forces if not selfconsistent)
 use gradient corrections 
 WARNING: stress and forces are not correct
  (second derivative of E(xc) not defined)
 use of overlap-Matrix (Vanderbilt PP)
 Fermi weights with tetrahedron method with Bloechl corrections


--------------------------------------------------------------------------------------------------------


  energy-cutoff  :      520.00
  volume of cell :     1881.98
      direct lattice vectors                 reciprocal lattice vectors
    10.100310000  0.000000000  0.000000000     0.099006862  0.057161638  0.000000000
    -5.050155000  8.747125050  0.000000000     0.000000000  0.114323277  0.000000000
     0.000000000  0.000000000 21.301690600     0.000000000  0.000000000  0.046944631

  length of vectors
    10.100310000 10.100310003 21.301690600     0.114323277  0.114323277  0.046944631


 
 k-points in units of 2pi/SCALE and weight: read from INCAR                         
   0.00000000  0.00000000  0.00000000       0.031
   0.02475172  0.01429041  0.00000000       0.062
   0.04950343  0.02858082  0.00000000       0.031
   0.00000000  0.02858082  0.00000000       0.062
   0.02475172  0.04287123  0.00000000       0.062
   0.04950343  0.05716164  0.00000000       0.062
  -0.02475172  0.01429041  0.00000000       0.062
   0.00000000  0.05716164  0.00000000       0.031
   0.02475172  0.07145205  0.00000000       0.062
   0.04950343  0.08574246  0.00000000       0.031
   0.00000000  0.00000000  0.02347232       0.031
   0.02475172  0.01429041  0.02347232       0.062
   0.04950343  0.02858082  0.02347232       0.031
   0.00000000  0.02858082  0.02347232       0.062
   0.02475172  0.04287123  0.02347232       0.062
   0.04950343  0.05716164  0.02347232       0.062
  -0.02475172  0.01429041  0.02347232       0.062
   0.00000000  0.05716164  0.02347232       0.031
   0.02475172  0.07145205  0.02347232       0.062
   0.04950343  0.08574246  0.02347232       0.031
 
 k-points in reciprocal lattice and weights: read from INCAR                         
   0.00000000  0.00000000  0.00000000       0.031
   0.25000000  0.00000000  0.00000000       0.062
   0.50000000  0.00000000  0.00000000       0.031
   0.00000000  0.25000000  0.00000000       0.062
   0.25000000  0.25000000  0.00000000       0.062
   0.50000000  0.25000000  0.00000000       0.062
  -0.25000000  0.25000000  0.00000000       0.062
   0.00000000  0.50000000  0.00000000       0.031
   0.25000000  0.50000000  0.00000000       0.062
   0.50000000  0.50000000  0.00000000       0.031
   0.00000000  0.00000000  0.50000000       0.031
   0.25000000  0.00000000  0.50000000       0.062
   0.50000000  0.00000000  0.50000000       0.031
   0.00000000  0.25000000  0.50000000       0.062
   0.25000000  0.25000000  0.50000000       0.062
   0.50000000  0.25000000  0.50000000       0.062
  -0.25000000  0.25000000  0.50000000       0.062
   0.00000000  0.50000000  0.50000000       0.031
   0.25000000  0.50000000  0.50000000       0.062
   0.50000000  0.50000000  0.50000000       0.031
 
 position of ions in fractional coordinates (direct lattice) 
   0.00002491  0.00157192  0.28884509
   0.24840929  0.99880504  0.28958172
   0.50096960  0.00379305  0.29060861
   0.99964465  0.25121572  0.28963072
   0.25066981  0.25009060  0.28885923
   0.33446800  0.16514600  0.09636487
   0.33496497  0.16516236  0.38285997
   0.74950265  0.25068365  0.29148649
   0.41837500  0.08394000  0.19264317
   0.83203200  0.16588400  0.09821039
   0.83184725  0.16422197  0.38486195
   0.66797000  0.08472300  0.19421489
   0.00093027  0.49899301  0.29081887
   0.74963897  0.50026306  0.28953721
   0.58310200  0.41320400  0.09683844
   0.58475374  0.41773173  0.38444939
   0.41961000  0.33337100  0.19266495
   0.83119700  0.41475900  0.09842584
   0.83350004  0.41645883  0.38346807
   0.91855900  0.33501600  0.19420908
   0.99882332  0.74966461  0.29011353
   0.08195100  0.66570400  0.09747927
   0.08626868  0.66704355  0.38410853
   0.75320424  0.75118201  0.29069871
   0.41737300  0.58352400  0.19475466
   0.91550800  0.58461900  0.19395095
   0.16682900  0.83490800  0.19309090
   0.41715300  0.83338800  0.19531186
   0.91985100  0.83263700  0.19392075
   0.74863750  0.00154921  0.29185211
   0.08475800  0.16932700  0.09388926
   0.08422156  0.16901438  0.38296856
   0.49610340  0.24662106  0.29043757
   0.17139600  0.08339300  0.19388126
   0.58776100  0.16931300  0.09618717
   0.59060578  0.17565665  0.38772357
   0.91693100  0.08581500  0.19262604
   0.24594166  0.49737887  0.29312410
   0.07438400  0.41509600  0.09744675
   0.07711551  0.41599063  0.38888499
   0.50274732  0.50110644  0.28972324
   0.33917200  0.41514500  0.09699001
   0.33479402  0.41309223  0.38745645
   0.17081400  0.33724200  0.19402731
   0.67264700  0.33598100  0.19452441
   0.24713932  0.75497435  0.29090726
   0.49908954  0.75097396  0.29135772
   0.33208500  0.66262100  0.09936022
   0.33258682  0.66360704  0.39032888
   0.16470600  0.58627100  0.19584874
   0.58579400  0.66826100  0.09684048
   0.58772359  0.67194612  0.38902423
   0.83088100  0.65877500  0.09658990
   0.83449940  0.66106946  0.38478658
   0.66762500  0.58426200  0.19372156
   0.08235500  0.91427100  0.09464942
   0.08493504  0.91561237  0.38406719
   0.33394400  0.91584300  0.09825017
   0.33980517  0.92045248  0.38576392
   0.58231600  0.91865200  0.09902340
   0.58151263  0.91800194  0.39133109
   0.83419400  0.91449400  0.09650569
   0.83813477  0.91511588  0.38736462
   0.66841400  0.83351100  0.19511790
 
 position of ions in cartesian coordinates  (Angst):
  -0.00768687  0.01374976  6.15288867
  -2.53510940  8.73667257  6.16858017
   5.04079275  0.03317830  6.19045464
   8.82804254  2.19741534  6.16962390
   1.26884652  2.18757378  6.15318991
   2.54421759  1.44455271  2.05273465
   2.54915450  1.44469578  8.15556464
   6.30421783  2.19276123  6.20915510
   3.80180719  0.73423368  4.10362520
   7.56604122  1.45100809  2.09204734
   7.57256864  1.43647015  8.19821020
   6.31883979  0.74108268  4.13710550
  -2.51059600  4.36475426  6.19493353
   5.04518003  4.37586354  6.16763213
   3.80276671  3.61434706  2.06282249
   3.79658405  3.65395171  8.18942193
   2.55461586  2.91603783  4.10408915
   6.30075013  3.62794884  2.09663679
   6.31542714  3.64281745  8.16851809
   7.58584793  2.93042685  4.13698173
   6.30250272  6.55741006  6.17990857
  -2.53417788  5.82299613  2.07647325
  -2.49733293  5.83471338  8.18216104
   3.81401076  6.57068298  6.19237389
   1.26871004  5.10415740  4.14860351
   6.29449804  5.11373550  4.13148313
  -2.53139019  7.30304468  4.11316261
   0.00463604  7.28974905  4.16047281
   5.08583435  7.28317996  4.13083982
   7.55364713  0.01355112  6.21694340
   0.00095448  1.48112444  1.99999997
  -0.00288494  1.47838996  8.15787769
   3.76532350  2.15722527  6.18681128
   1.31000516  0.72944900  4.12999861
   5.08151141  1.48100198  2.04894934
   5.07820819  1.53649071  8.25916759
   8.82790830  0.75063454  4.10326031
  -0.02775342  4.35063521  6.24403892
  -1.34499768  3.63089662  2.07578052
  -1.32192659  3.63872209  8.28390770
   2.54723861  4.38324070  6.17159489
   1.32919575  3.63132523  2.06605118
   1.29534361  3.61336936  8.25347739
   0.02214998  2.94989795  4.13310973
   5.09718709  2.93886782  4.14369880
  -1.31655377  6.60385502  6.19681645
   1.24842420  6.56886314  6.20641195
   0.00782269  5.79602875  2.11654066
   0.00791161  5.80465377  8.31466506
  -1.29717776  5.12818575  4.17190926
   2.54187937  5.84536253  2.06286594
   2.54275837  5.87759671  8.28687369
   5.06523981  5.76238730  2.05752816
   5.09019942  5.78245726  8.19660465
   3.79260580  5.11061278  4.12659673
  -3.78539923  7.99724277  2.01619266
  -3.76611417  8.00897592  8.18128041
  -1.25221118  8.01099325  2.09289472
  -1.21629012  8.05131294  8.21742366
   1.24223713  8.03556392  2.10936583
   1.23740570  8.02987777  8.33601370
   3.80728155  7.99919338  2.05573435
   3.84394399  8.00463303  8.25152120
   2.54182886  7.29082495  4.15634114
 


--------------------------------------------------------------------------------------------------------


 k-point  1 :   0.0000 0.0000 0.0000  plane waves:   50713
 k-point  2 :   0.2500 0.0000 0.0000  plane waves:   50643
 k-point  3 :   0.5000 0.0000 0.0000  plane waves:   50686
 k-point  4 :   0.0000 0.2500 0.0000  plane waves:   50643
 k-point  5 :   0.2500 0.2500 0.0000  plane waves:   50669
 k-point  6 :   0.5000 0.2500 0.0000  plane waves:   50669
 k-point  7 :  -0.2500 0.2500 0.0000  plane waves:   50643
 k-point  8 :   0.0000 0.5000 0.0000  plane waves:   50686
 k-point  9 :   0.2500 0.5000 0.0000  plane waves:   50669
 k-point 10 :   0.5000 0.5000 0.0000  plane waves:   50686
 k-point 11 :   0.0000 0.0000 0.5000  plane waves:   50756
 k-point 12 :   0.2500 0.0000 0.5000  plane waves:   50654
 k-point 13 :   0.5000 0.0000 0.5000  plane waves:   50684
 k-point 14 :   0.0000 0.2500 0.5000  plane waves:   50654
 k-point 15 :   0.2500 0.2500 0.5000  plane waves:   50644
 k-point 16 :   0.5000 0.2500 0.5000  plane waves:   50644
 k-point 17 :  -0.2500 0.2500 0.5000  plane waves:   50654
 k-point 18 :   0.0000 0.5000 0.5000  plane waves:   50684
 k-point 19 :   0.2500 0.5000 0.5000  plane waves:   50644
 k-point 20 :   0.5000 0.5000 0.5000  plane waves:   50684

 maximum and minimum number of plane-waves per node :      2135     2085

 maximum number of plane-waves:     50756
 maximum index in each direction: 
   IXMAX=   19   IYMAX=   18   IZMAX=   39
   IXMIN=  -19   IYMIN=  -19   IZMIN=  -40


 real space projection operators:
  total allocation   :      66542.20 KBytes
  max/ min on nodes  :       3366.84       2437.88


 parallel 3D FFT for wavefunctions:
    minimum data exchange during FFTs selected (reduces bandwidth)
 parallel 3D FFT for charge:
    minimum data exchange during FFTs selected (reduces bandwidth)


 total amount of memory used by VASP MPI-rank0   256697. kBytes
=======================================================================

   base      :      30000. kBytes
   nonlr-proj:      13042. kBytes
   fftplans  :       6403. kBytes
   grid      :      16455. kBytes
   one-center:         93. kBytes
   wavefun   :     190704. kBytes
 
     INWAV:  cpu time    0.0010: real time    0.0019
 initial charge density was supplied:
 number of electron     570.0000026 magnetization     113.8140361
 keeping initial charge density in first step


--------------------------------------------------------------------------------------------------------


 Maximum index for non-local projection operator          761
 Maximum index for augmentation-charges         1117 (set IRDMAX)


--------------------------------------------------------------------------------------------------------


 First call to EWALD:  gamma=   0.144
 Maximum number of real-space cells 4x 4x 2
 Maximum number of reciprocal cells 2x 2x 4

    FEWALD:  cpu time    0.0040: real time    0.0037


--------------------------------------- Iteration      1(   1)  ---------------------------------------


    POTLOK:  cpu time    0.2560: real time    0.2565
    SETDIJ:  cpu time    0.0180: real time    0.0192
     EDDAV:  cpu time  101.1716: real time  102.3554
 BZINTS: Fermi energy: 10.710696;570.000000 electrons
         Band energy:3525.450940;  BLOECHL correction: -0.017085
       DOS:  cpu time    0.1900: real time    0.1920
    --------------------------------------------
      LOOP:  cpu time  101.6355: real time  102.8232

 eigenvalue-minimisations  : 32880
 total energy-change (2. order) : 0.4434525E+04  (-0.2433384E+05)
 number of electron     570.0000026 magnetization     113.8140361
 augmentation part      570.0000026 magnetization     113.8140361

 DIPCOR: dipole corrections for dipol
 direction  3 min pos   244,
 dipolmoment           0.000000      0.000000     -0.019908 electrons x Angstroem
 Tr[quadrupol]     -9628.009557

 energy correction for charged system         0.000000 eV
 dipol+quadrupol energy correction           -0.000019 eV
 added-field ion interaction         -0.402177 eV  (added to PSCEN)


 Free energy of the ion-electron system (eV)
  ---------------------------------------------------
  alpha Z        PSCENC =      1363.34777114
  Ewald energy   TEWEN  =    188256.51722113
  -Hartree energ DENC   =   -239502.19261834
  -exchange      EXHF   =         0.00000000
  -V(xc)+E(xc)   XCENC  =      1042.39710618
  PAW double counting   =     56866.51452079   -59170.91062147
  entropy T*S    EENTRO =         0.00000000
  eigenvalues    EBANDS =      3525.45093969
  atomic energy  EATOM  =     52053.40048729
  Solvation  Ediel_sol  =         0.00000000
  ---------------------------------------------------
  free energy    TOTEN  =      4434.52480641 eV

  energy without entropy =     4434.52480641  energy(sigma->0) =     4434.52480641


--------------------------------------------------------------------------------------------------------




--------------------------------------- Iteration      1(   2)  ---------------------------------------


     EDDAV:  cpu time  101.0386: real time  104.5964
 BZINTS: Fermi energy:  1.087581;570.000000 electrons
         Band energy:-910.924476;  BLOECHL correction: -0.007913
       DOS:  cpu time    0.1950: real time    0.1985
    --------------------------------------------
      LOOP:  cpu time  101.2336: real time  104.7949

 eigenvalue-minimisations  : 32880
 total energy-change (2. order) :-0.4436375E+04  (-0.4146979E+04)
 number of electron     570.0000026 magnetization     113.8140361
 augmentation part      570.0000026 magnetization     113.8140361

 DIPCOR: dipole corrections for dipol
 direction  3 min pos   244,
 dipolmoment           0.000000      0.000000     -0.019908 electrons x Angstroem
 Tr[quadrupol]     -9628.009557

 energy correction for charged system         0.000000 eV
 dipol+quadrupol energy correction           -0.000019 eV
 added-field ion interaction         -0.402177 eV  (added to PSCEN)


 Free energy of the ion-electron system (eV)
  ---------------------------------------------------
  alpha Z        PSCENC =      1363.34777114
  Ewald energy   TEWEN  =    188256.51722113
  -Hartree energ DENC   =   -239502.19261834
  -exchange      EXHF   =         0.00000000
  -V(xc)+E(xc)   XCENC  =      1042.39710618
  PAW double counting   =     56866.51452079   -59170.91062147
  entropy T*S    EENTRO =         0.00000000
  eigenvalues    EBANDS =      -910.92447639
  atomic energy  EATOM  =     52053.40048729
  Solvation  Ediel_sol  =         0.00000000
  ---------------------------------------------------
  free energy    TOTEN  =        -1.85060967 eV

  energy without entropy =       -1.85060967  energy(sigma->0) =       -1.85060967


--------------------------------------------------------------------------------------------------------




--------------------------------------- Iteration      1(   3)  ---------------------------------------


     EDDAV:  cpu time  101.1856: real time  103.6118
 BZINTS: Fermi energy: -0.007064;570.000000 electrons
         Band energy:***********;  BLOECHL correction: -0.128690
       DOS:  cpu time    0.1970: real time    0.1968
    --------------------------------------------
      LOOP:  cpu time  101.3826: real time  103.8086

 eigenvalue-minimisations  : 34146
 total energy-change (2. order) :-0.4052448E+03  (-0.3474315E+03)
 number of electron     570.0000026 magnetization     113.8140361
 augmentation part      570.0000026 magnetization     113.8140361

 DIPCOR: dipole corrections for dipol
 direction  3 min pos   244,
 dipolmoment           0.000000      0.000000     -0.019908 electrons x Angstroem
 Tr[quadrupol]     -9628.009557

 energy correction for charged system         0.000000 eV
 dipol+quadrupol energy correction           -0.000019 eV
 added-field ion interaction         -0.402177 eV  (added to PSCEN)


 Free energy of the ion-electron system (eV)
  ---------------------------------------------------
  alpha Z        PSCENC =      1363.34777114
  Ewald energy   TEWEN  =    188256.51722113
  -Hartree energ DENC   =   -239502.19261834
  -exchange      EXHF   =         0.00000000
  -V(xc)+E(xc)   XCENC  =      1042.39710618
  PAW double counting   =     56866.51452079   -59170.91062147
  entropy T*S    EENTRO =         0.00000000
  eigenvalues    EBANDS =     -1316.16925575
  atomic energy  EATOM  =     52053.40048729
  Solvation  Ediel_sol  =         0.00000000
  ---------------------------------------------------
  free energy    TOTEN  =      -407.09538903 eV

  energy without entropy =     -407.09538903  energy(sigma->0) =     -407.09538903


--------------------------------------------------------------------------------------------------------




--------------------------------------- Iteration      1(   4)  ---------------------------------------


     EDDAV:  cpu time  104.2642: real time  104.5964
 BZINTS: Fermi energy: -0.043294;570.000000 electrons
         Band energy:***********;  BLOECHL correction: -0.127715
       DOS:  cpu time    0.1880: real time    0.1907
    --------------------------------------------
      LOOP:  cpu time  104.4521: real time  104.7871

 eigenvalue-minimisations  : 34899
 total energy-change (2. order) :-0.1655820E+02  (-0.1620009E+02)
 number of electron     570.0000026 magnetization     113.8140361
 augmentation part      570.0000026 magnetization     113.8140361

 DIPCOR: dipole corrections for dipol
 direction  3 min pos   244,
 dipolmoment           0.000000      0.000000     -0.019908 electrons x Angstroem
 Tr[quadrupol]     -9628.009557

 energy correction for charged system         0.000000 eV
 dipol+quadrupol energy correction           -0.000019 eV
 added-field ion interaction         -0.402177 eV  (added to PSCEN)


 Free energy of the ion-electron system (eV)
  ---------------------------------------------------
  alpha Z        PSCENC =      1363.34777114
  Ewald energy   TEWEN  =    188256.51722113
  -Hartree energ DENC   =   -239502.19261834
  -exchange      EXHF   =         0.00000000
  -V(xc)+E(xc)   XCENC  =      1042.39710618
  PAW double counting   =     56866.51452079   -59170.91062147
  entropy T*S    EENTRO =         0.00000000
  eigenvalues    EBANDS =     -1332.72745240
  atomic energy  EATOM  =     52053.40048729
  Solvation  Ediel_sol  =         0.00000000
  ---------------------------------------------------
  free energy    TOTEN  =      -423.65358568 eV

  energy without entropy =     -423.65358568  energy(sigma->0) =     -423.65358568


--------------------------------------------------------------------------------------------------------




--------------------------------------- Iteration      1(   5)  ---------------------------------------


     EDDAV:  cpu time  108.8115: real time  117.2246
 BZINTS: Fermi energy: -0.043985;570.000000 electrons
         Band energy:***********;  BLOECHL correction: -0.127651
       DOS:  cpu time    0.1770: real time    0.1855
    --------------------------------------------
      LOOP:  cpu time  108.9884: real time  117.4101

 eigenvalue-minimisations  : 37491
 total energy-change (2. order) :-0.3062741E+00  (-0.3060048E+00)
 number of electron     570.0000026 magnetization     113.8140361
 augmentation part      570.0000026 magnetization     113.8140361

 DIPCOR: dipole corrections for dipol
 direction  3 min pos   244,
 dipolmoment           0.000000      0.000000     -0.019908 electrons x Angstroem
 Tr[quadrupol]     -9628.009557

 energy correction for charged system         0.000000 eV
 dipol+quadrupol energy correction           -0.000019 eV
 added-field ion interaction         -0.402177 eV  (added to PSCEN)


 Free energy of the ion-electron system (eV)
  ---------------------------------------------------
  alpha Z        PSCENC =      1363.34777114
  Ewald energy   TEWEN  =    188256.51722113
  -Hartree energ DENC   =   -239502.19261834
  -exchange      EXHF   =         0.00000000
  -V(xc)+E(xc)   XCENC  =      1042.39710618
  PAW double counting   =     56866.51452079   -59170.91062147
  entropy T*S    EENTRO =         0.00000000
  eigenvalues    EBANDS =     -1333.03372651
  atomic energy  EATOM  =     52053.40048729
  Solvation  Ediel_sol  =         0.00000000
  ---------------------------------------------------
  free energy    TOTEN  =      -423.95985979 eV

  energy without entropy =     -423.95985979  energy(sigma->0) =     -423.95985979


--------------------------------------------------------------------------------------------------------




--------------------------------------- Iteration      1(   6)  ---------------------------------------


    EDDIAG:  cpu time   14.6458: real time   15.6724
  RMM-DIIS:  cpu time   61.9876: real time   67.4668
    ORTHCH:  cpu time    2.4966: real time    2.7208
 BZINTS: Fermi energy: -0.044014;570.000000 electrons
         Band energy:***********;  BLOECHL correction: -0.127645
       DOS:  cpu time    0.1910: real time    0.1985
    --------------------------------------------
      LOOP:  cpu time   79.3209: real time   86.0584

 eigenvalue-minimisations  : 34199
 total energy-change (2. order) :-0.1032205E-01  (-0.1031782E-01)
 number of electron     570.0000026 magnetization     113.8140361
 augmentation part      570.0000026 magnetization     113.8140361

 DIPCOR: dipole corrections for dipol
 direction  3 min pos   244,
 dipolmoment           0.000000      0.000000     -0.019908 electrons x Angstroem
 Tr[quadrupol]     -9628.009557

 energy correction for charged system         0.000000 eV
 dipol+quadrupol energy correction           -0.000019 eV
 added-field ion interaction         -0.402177 eV  (added to PSCEN)


 Free energy of the ion-electron system (eV)
  ---------------------------------------------------
  alpha Z        PSCENC =      1363.34777114
  Ewald energy   TEWEN  =    188256.51722113
  -Hartree energ DENC   =   -239502.19261834
  -exchange      EXHF   =         0.00000000
  -V(xc)+E(xc)   XCENC  =      1042.39710618
  PAW double counting   =     56866.51452079   -59170.91062147
  entropy T*S    EENTRO =         0.00000000
  eigenvalues    EBANDS =     -1333.04404857
  atomic energy  EATOM  =     52053.40048729
  Solvation  Ediel_sol  =         0.00000000
  ---------------------------------------------------
  free energy    TOTEN  =      -423.97018184 eV

  energy without entropy =     -423.97018184  energy(sigma->0) =     -423.97018184


--------------------------------------------------------------------------------------------------------




--------------------------------------- Iteration      1(   7)  ---------------------------------------


    EDDIAG:  cpu time   14.7768: real time   15.7787
  RMM-DIIS:  cpu time   89.9543: real time   93.3244
    ORTHCH:  cpu time    2.6196: real time    2.6290
 BZINTS: Fermi energy: -0.044021;570.000000 electrons
         Band energy:***********;  BLOECHL correction: -0.127643
       DOS:  cpu time    0.1800: real time    0.1800
    --------------------------------------------
      LOOP:  cpu time  107.5307: real time  111.9121

 eigenvalue-minimisations  : 50193
 total energy-change (2. order) :-0.3125088E-02  (-0.3114157E-02)
 number of electron     570.0000026 magnetization     113.8140361
 augmentation part      570.0000026 magnetization     113.8140361

 DIPCOR: dipole corrections for dipol
 direction  3 min pos   244,
 dipolmoment           0.000000      0.000000     -0.019908 electrons x Angstroem
 Tr[quadrupol]     -9628.009557

 energy correction for charged system         0.000000 eV
 dipol+quadrupol energy correction           -0.000019 eV
 added-field ion interaction         -0.402177 eV  (added to PSCEN)


 Free energy of the ion-electron system (eV)
  ---------------------------------------------------
  alpha Z        PSCENC =      1363.34777114
  Ewald energy   TEWEN  =    188256.51722113
  -Hartree energ DENC   =   -239502.19261834
  -exchange      EXHF   =         0.00000000
  -V(xc)+E(xc)   XCENC  =      1042.39710618
  PAW double counting   =     56866.51452079   -59170.91062147
  entropy T*S    EENTRO =         0.00000000
  eigenvalues    EBANDS =     -1333.04717365
  atomic energy  EATOM  =     52053.40048729
  Solvation  Ediel_sol  =         0.00000000
  ---------------------------------------------------
  free energy    TOTEN  =      -423.97330693 eV

  energy without entropy =     -423.97330693  energy(sigma->0) =     -423.97330693


--------------------------------------------------------------------------------------------------------




--------------------------------------- Iteration      1(   8)  ---------------------------------------


    EDDIAG:  cpu time   15.1647: real time   15.2119
  RMM-DIIS:  cpu time   88.2876: real time   88.9383
    ORTHCH:  cpu time    2.6426: real time    2.6611
 BZINTS: Fermi energy: -0.044021;570.000000 electrons
         Band energy:***********;  BLOECHL correction: -0.127643
       DOS:  cpu time    0.1770: real time    0.1781
    --------------------------------------------
      LOOP:  cpu time  106.2718: real time  106.9894

 eigenvalue-minimisations  : 48194
 total energy-change (2. order) :-0.6896094E-04  (-0.7165439E-04)
 number of electron     570.0000026 magnetization     113.8140361
 augmentation part      570.0000026 magnetization     113.8140361

 DIPCOR: dipole corrections for dipol
 direction  3 min pos   244,
 dipolmoment           0.000000      0.000000     -0.019908 electrons x Angstroem
 Tr[quadrupol]     -9628.009557

 energy correction for charged system         0.000000 eV
 dipol+quadrupol energy correction           -0.000019 eV
 added-field ion interaction         -0.402177 eV  (added to PSCEN)


 Free energy of the ion-electron system (eV)
  ---------------------------------------------------
  alpha Z        PSCENC =      1363.34777114
  Ewald energy   TEWEN  =    188256.51722113
  -Hartree energ DENC   =   -239502.19261834
  -exchange      EXHF   =         0.00000000
  -V(xc)+E(xc)   XCENC  =      1042.39710618
  PAW double counting   =     56866.51452079   -59170.91062147
  entropy T*S    EENTRO =         0.00000000
  eigenvalues    EBANDS =     -1333.04724261
  atomic energy  EATOM  =     52053.40048729
  Solvation  Ediel_sol  =         0.00000000
  ---------------------------------------------------
  free energy    TOTEN  =      -423.97337589 eV

  energy without entropy =     -423.97337589  energy(sigma->0) =     -423.97337589


--------------------------------------------------------------------------------------------------------




--------------------------------------- Iteration      1(   9)  ---------------------------------------


    EDDIAG:  cpu time   15.4227: real time   15.5232
  RMM-DIIS:  cpu time   63.2394: real time   63.8884
    ORTHCH:  cpu time    2.6496: real time    2.6735
 BZINTS: Fermi energy: -0.044021;570.000000 electrons
         Band energy:***********;  BLOECHL correction: -0.127643
       DOS:  cpu time    0.1770: real time    0.1778
    --------------------------------------------
      LOOP:  cpu time   81.4886: real time   82.2629

 eigenvalue-minimisations  : 32980
 total energy-change (2. order) :-0.2640163E-04  (-0.2618278E-04)
 number of electron     570.0000026 magnetization     113.8140361
 augmentation part      570.0000026 magnetization     113.8140361

 DIPCOR: dipole corrections for dipol
 direction  3 min pos   244,
 dipolmoment           0.000000      0.000000     -0.019908 electrons x Angstroem
 Tr[quadrupol]     -9628.009557

 energy correction for charged system         0.000000 eV
 dipol+quadrupol energy correction           -0.000019 eV
 added-field ion interaction         -0.402177 eV  (added to PSCEN)


 Free energy of the ion-electron system (eV)
  ---------------------------------------------------
  alpha Z        PSCENC =      1363.34777114
  Ewald energy   TEWEN  =    188256.51722113
  -Hartree energ DENC   =   -239502.19261834
  -exchange      EXHF   =         0.00000000
  -V(xc)+E(xc)   XCENC  =      1042.39710618
  PAW double counting   =     56866.51452079   -59170.91062147
  entropy T*S    EENTRO =         0.00000000
  eigenvalues    EBANDS =     -1333.04726902
  atomic energy  EATOM  =     52053.40048729
  Solvation  Ediel_sol  =         0.00000000
  ---------------------------------------------------
  free energy    TOTEN  =      -423.97340229 eV

  energy without entropy =     -423.97340229  energy(sigma->0) =     -423.97340229


--------------------------------------------------------------------------------------------------------




--------------------------------------- Iteration      1(  10)  ---------------------------------------


    EDDIAG:  cpu time   15.5906: real time   15.6896
  RMM-DIIS:  cpu time   44.2473: real time   44.7972
    ORTHCH:  cpu time    2.6626: real time    2.6844
 BZINTS: Fermi energy: -0.044021;570.000000 electrons
         Band energy:***********;  BLOECHL correction: -0.127643
       DOS:  cpu time    0.1820: real time    0.1819
    --------------------------------------------
      LOOP:  cpu time   62.6825: real time   63.3530

 eigenvalue-minimisations  : 22617
 total energy-change (2. order) :-0.2076529E-05  (-0.1483764E-05)
 number of electron     570.0000026 magnetization     113.8140361
 augmentation part      570.0000026 magnetization     113.8140361

 DIPCOR: dipole corrections for dipol
 direction  3 min pos   244,
 dipolmoment           0.000000      0.000000     -0.019908 electrons x Angstroem
 Tr[quadrupol]     -9628.009557

 energy correction for charged system         0.000000 eV
 dipol+quadrupol energy correction           -0.000019 eV
 added-field ion interaction         -0.402177 eV  (added to PSCEN)


 Free energy of the ion-electron system (eV)
  ---------------------------------------------------
  alpha Z        PSCENC =      1363.34777114
  Ewald energy   TEWEN  =    188256.51722113
  -Hartree energ DENC   =   -239502.19261834
  -exchange      EXHF   =         0.00000000
  -V(xc)+E(xc)   XCENC  =      1042.39710618
  PAW double counting   =     56866.51452079   -59170.91062147
  entropy T*S    EENTRO =         0.00000000
  eigenvalues    EBANDS =     -1333.04727109
  atomic energy  EATOM  =     52053.40048729
  Solvation  Ediel_sol  =         0.00000000
  ---------------------------------------------------
  free energy    TOTEN  =      -423.97340437 eV

  energy without entropy =     -423.97340437  energy(sigma->0) =     -423.97340437


--------------------------------------------------------------------------------------------------------




--------------------------------------- Iteration      1(  11)  ---------------------------------------


    EDDIAG:  cpu time   15.8106: real time   15.9486
  RMM-DIIS:  cpu time   41.7696: real time   42.1050
    ORTHCH:  cpu time    2.6416: real time    2.6589
 BZINTS: Fermi energy: -0.044021;570.000000 electrons
         Band energy:***********;  BLOECHL correction: -0.127643
       DOS:  cpu time    0.1790: real time    0.1783
    --------------------------------------------
      LOOP:  cpu time   60.4008: real time   60.8907

 eigenvalue-minimisations  : 21290
 total energy-change (2. order) :-0.8179923E-06  (-0.7893535E-06)
 number of electron     570.0000026 magnetization     113.8140361
 augmentation part      570.0000026 magnetization     113.8140361

 DIPCOR: dipole corrections for dipol
 direction  3 min pos   244,
 dipolmoment           0.000000      0.000000     -0.019908 electrons x Angstroem
 Tr[quadrupol]     -9628.009557

 energy correction for charged system         0.000000 eV
 dipol+quadrupol energy correction           -0.000019 eV
 added-field ion interaction         -0.402177 eV  (added to PSCEN)


 Free energy of the ion-electron system (eV)
  ---------------------------------------------------
  alpha Z        PSCENC =      1363.34777114
  Ewald energy   TEWEN  =    188256.51722113
  -Hartree energ DENC   =   -239502.19261834
  -exchange      EXHF   =         0.00000000
  -V(xc)+E(xc)   XCENC  =      1042.39710618
  PAW double counting   =     56866.51452079   -59170.91062147
  entropy T*S    EENTRO =         0.00000000
  eigenvalues    EBANDS =     -1333.04727191
  atomic energy  EATOM  =     52053.40048729
  Solvation  Ediel_sol  =         0.00000000
  ---------------------------------------------------
  free energy    TOTEN  =      -423.97340519 eV

  energy without entropy =     -423.97340519  energy(sigma->0) =     -423.97340519


--------------------------------------------------------------------------------------------------------




 average (electrostatic) potential at core
  the test charge radii are     0.9791  1.0103
  (the norm of the test charge is              1.0000)
       1 -91.4451       2 -91.4054       3 -91.4902       4 -91.4320       5 -91.4435
       6 -91.2063       7 -91.3006       8 -91.3914       9 -91.4375      10 -91.2060
      11 -91.2576      12 -91.4274      13 -91.4277      14 -91.4489      15 -91.2469
      16 -91.2743      17 -91.4977      18 -91.2122      19 -91.1637      20 -91.3917
      21 -91.4279      22 -91.2355      23 -91.2639      24 -91.4628      25 -91.5036
      26 -91.4143      27 -91.4294      28 -91.4555      29 -91.4297      30 -49.4207
      31 -49.3167      32 -49.3967      33 -49.5729      34 -49.5741      35 -49.5255
      36 -49.5615      37 -49.3868      38 -49.3302      39 -49.4240      40 -49.4298
      41 -49.4244      42 -49.3510      43 -49.3425      44 -49.3622      45 -49.5404
      46 -49.4365      47 -49.3840      48 -49.3298      49 -49.3319      50 -49.4346
      51 -49.2537      52 -49.3438      53 -49.4430      54 -49.5328      55 -49.4115
      56 -49.4380      57 -49.4335      58 -49.4438      59 -49.3924      60 -49.3129
      61 -49.3541      62 -49.3112      63 -49.3334      64 -49.3280
 
 
 
 E-fermi :  -0.0440     XC(G=0):  -5.9567     alpha+bet : -5.6434


 spin component 1

 k-point     1 :       0.0000    0.0000    0.0000
  band No.  band energies     occupation 
      1      -8.4066      1.00000
      2      -7.1243      1.00000
      3      -6.5983      1.00000
      4      -6.5779      1.00000
      5      -6.5289      1.00000
      6      -6.4955      1.00000
      7      -6.4600      1.00000
      8      -6.4334      1.00000
      9      -5.6589      1.00000
     10      -5.5658      1.00000
     11      -5.5271      1.00000
     12      -5.5006      1.00000
     13      -5.4498      1.00000
     14      -5.4017      1.00000
     15      -5.3938      1.00000
     16      -5.0874      1.00000
     17      -4.8940      1.00000
     18      -4.8481      1.00000
     19      -4.8250      1.00000
     20      -4.8014      1.00000
     21      -4.7756      1.00000
     22      -4.7303      1.00000
     23      -4.4671      1.00000
     24      -4.4599      1.00000
     25      -4.4452      1.00000
     26      -4.4188      1.00000
     27      -4.4169      1.00000
     28      -4.4031      1.00000
     29      -4.3917      1.00000
     30      -4.3746      1.00000
     31      -4.3673      1.00000
     32      -4.3558      1.00000
     33      -4.3525      1.00000
     34      -4.3506      1.00000
     35      -4.3434      1.00000
     36      -4.3187      1.00000
     37      -4.3128      1.00000
     38      -4.2985      1.00000
     39      -4.2950      1.00000
     40      -4.2846      1.00000
     41      -4.2643      1.00000
     42      -4.2547      1.00000
     43      -4.2363      1.00000
     44      -4.2328      1.00000
     45      -4.2254      1.00000
     46      -4.2148      1.00000
     47      -4.1910      1.00000
     48      -4.1901      1.00000
     49      -4.1697      1.00000
     50      -4.1442      1.00000
     51      -4.1147      1.00000
     52      -4.0938      1.00000
     53      -4.0801      1.00000
     54      -4.0696      1.00000
     55      -4.0597      1.00000
     56      -4.0345      1.00000
     57      -4.0203      1.00000
     58      -4.0160      1.00000
     59      -4.0048      1.00000
     60      -3.9873      1.00000
     61      -3.9550      1.00000
     62      -3.8964      1.00000
     63      -3.8862      1.00000
     64      -3.8669      1.00000
     65      -3.7722      1.00000
     66      -3.7242      1.00000
     67      -3.7047      1.00000
     68      -3.7005      1.00000
     69      -3.6868      1.00000
     70      -3.6788      1.00000
     71      -3.6744      1.00000
     72      -3.6738      1.00000
     73      -3.6652      1.00000
     74      -3.6498      1.00000
     75      -3.6403      1.00000
     76      -3.6286      1.00000
     77      -3.6204      1.00000
     78      -3.6092      1.00000
     79      -3.5945      1.00000
     80      -3.5851      1.00000
     81      -3.5570      1.00000
     82      -3.5378      1.00000
     83      -3.4572      1.00000
     84      -3.4370      1.00000
     85      -3.4255      1.00000
     86      -3.4030      1.00000
     87      -3.3969      1.00000
     88      -3.3815      1.00000
     89      -3.3715      1.00000
     90      -3.3629      1.00000
     91      -3.3406      1.00000
     92      -3.3376      1.00000
     93      -3.3218      1.00000
     94      -3.3141      1.00000
     95      -3.3015      1.00000
     96      -3.2949      1.00000
     97      -3.2884      1.00000
     98      -3.2748      1.00000
     99      -3.2645      1.00000
    100      -3.2503      1.00000
    101      -3.2378      1.00000
    102      -3.2186      1.00000
    103      -3.2116      1.00000
    104      -3.1912      1.00000
    105      -3.1783      1.00000
    106      -3.1575      1.00000
    107      -3.1325      1.00000
    108      -3.0981      1.00000
    109      -3.0933      1.00000
    110      -3.0614      1.00000
    111      -3.0413      1.00000
    112      -3.0284      1.00000
    113      -3.0042      1.00000
    114      -2.9991      1.00000
    115      -2.9729      1.00000
    116      -2.9537      1.00000
    117      -2.9191      1.00000
    118      -2.9138      1.00000
    119      -2.9059      1.00000
    120      -2.8929      1.00000
    121      -2.8850      1.00000
    122      -2.8763      1.00000
    123      -2.8640      1.00000
    124      -2.8509      1.00000
    125      -2.8457      1.00000
    126      -2.8249      1.00000
    127      -2.8131      1.00000
    128      -2.7972      1.00000
    129      -2.7953      1.00000
    130      -2.7822      1.00000
    131      -2.7568      1.00000
    132      -2.7162      1.00000
    133      -2.7058      1.00000
    134      -2.6967      1.00000
    135      -2.6815      1.00000
    136      -2.6761      1.00000
    137      -2.6627      1.00000
    138      -2.6507      1.00000
    139      -2.6384      1.00000
    140      -2.6309      1.00000
    141      -2.6259      1.00000
    142      -2.6162      1.00000
    143      -2.5993      1.00000
    144      -2.5953      1.00000
    145      -2.5874      1.00000
    146      -2.5799      1.00000
    147      -2.5763      1.00000
    148      -2.5756      1.00000
    149      -2.5677      1.00000
    150      -2.5561      1.00000
    151      -2.5501      1.00000
    152      -2.5423      1.00000
    153      -2.5395      1.00000
    154      -2.5269      1.00000
    155      -2.5192      1.00000
    156      -2.5118      1.00000
    157      -2.5102      1.00000
    158      -2.5034      1.00000
    159      -2.4954      1.00000
    160      -2.4927      1.00000
    161      -2.4877      1.00000
    162      -2.4743      1.00000
    163      -2.4684      1.00000
    164      -2.4659      1.00000
    165      -2.4538      1.00000
    166      -2.4430      1.00000
    167      -2.4369      1.00000
    168      -2.4340      1.00000
    169      -2.4305      1.00000
    170      -2.4223      1.00000
    171      -2.4147      1.00000
    172      -2.4027      1.00000
    173      -2.3988      1.00000
    174      -2.3897      1.00000
    175      -2.3860      1.00000
    176      -2.3822      1.00000
    177      -2.3767      1.00000
    178      -2.3649      1.00000
    179      -2.3609      1.00000
    180      -2.3526      1.00000
    181      -2.3487      1.00000
    182      -2.3457      1.00000
    183      -2.3282      1.00000
    184      -2.3232      1.00000
    185      -2.3097      1.00000
    186      -2.3039      1.00000
    187      -2.2928      1.00000
    188      -2.2792      1.00000
    189      -2.2722      1.00000
    190      -2.2645      1.00000
    191      -2.2580      1.00000
    192      -2.2543      1.00000
    193      -2.2437      1.00000
    194      -2.2401      1.00000
    195      -2.2326      1.00000
    196      -2.2281      1.00000
    197      -2.2102      1.00000
    198      -2.2042      1.00000
    199      -2.1995      1.00000
    200      -2.1919      1.00000
    201      -2.1802      1.00000
    202      -2.0479      1.00000
    203      -2.0167      1.00000
    204      -2.0152      1.00000
    205      -2.0025      1.00000
    206      -1.9814      1.00000
    207      -1.9642      1.00000
    208      -1.9604      1.00000
    209      -1.9547      1.00000
    210      -1.9454      1.00000
    211      -1.9374      1.00000
    212      -1.9256      1.00000
    213      -1.9224      1.00000
    214      -1.9047      1.00000
    215      -1.8977      1.00000
    216      -1.8928      1.00000
    217      -1.8874      1.00000
    218      -1.8709      1.00000
    219      -1.8399      1.00000
    220      -1.8236      1.00000
    221      -1.8074      1.00000
    222      -1.8011      1.00000
    223      -1.7928      1.00000
    224      -1.7839      1.00000
    225      -1.7734      1.00000
    226      -1.7553      1.00000
    227      -1.7544      1.00000
    228      -1.7438      1.00000
    229      -1.7319      1.00000
    230      -1.7237      1.00000
    231      -1.7120      1.00000
    232      -1.6428      1.00000
    233      -1.6334      1.00000
    234      -1.6210      1.00000
    235      -1.6048      1.00000
    236      -1.5923      1.00000
    237      -1.5765      1.00000
    238      -1.5724      1.00000
    239      -1.5665      1.00000
    240      -1.5546      1.00000
    241      -1.5481      1.00000
    242      -1.5472      1.00000
    243      -1.5394      1.00000
    244      -1.5333      1.00000
    245      -1.5240      1.00000
    246      -1.5198      1.00000
    247      -1.5145      1.00000
    248      -1.5068      1.00000
    249      -1.5049      1.00000
    250      -1.4949      1.00000
    251      -1.4927      1.00000
    252      -1.4870      1.00000
    253      -1.4845      1.00000
    254      -1.4786      1.00000
    255      -1.4603      1.00000
    256      -1.4543      1.00000
    257      -1.4371      1.00000
    258      -1.4276      1.00000
    259      -1.4229      1.00000
    260      -1.4145      1.00000
    261      -1.4085      1.00000
    262      -1.4019      1.00000
    263      -1.3963      1.00000
    264      -1.3933      1.00000
    265      -1.3783      1.00000
    266      -1.3734      1.00000
    267      -1.3671      1.00000
    268      -1.3601      1.00000
    269      -1.3540      1.00000
    270      -1.3486      1.00000
    271      -1.3397      1.00000
    272      -1.3386      1.00000
    273      -1.3297      1.00000
    274      -1.3255      1.00000
    275      -1.3186      1.00000
    276      -1.3014      1.00000
    277      -1.2888      1.00000
    278      -1.2816      1.00000
    279      -1.2720      1.00000
    280      -1.2646      1.00000
    281      -1.2594      1.00000
    282      -1.2485      1.00000
    283      -1.2093      1.00000
    284      -1.1554      1.00000
    285      -1.1248      1.00000
    286      -1.1220      1.00000
    287      -1.1114      1.00000
    288      -1.1048      1.00000
    289      -1.0906      1.00000
    290      -1.0826      1.00000
    291      -1.0621      1.00000
    292      -1.0498      1.00000
    293      -1.0470      1.00000
    294      -1.0295      1.00000
    295      -0.9973      1.00000
    296      -0.9910      1.00000
    297      -0.9346      1.00000
    298      -0.9234      1.00000
    299      -0.9174      1.00000
    300      -0.9133      1.00000
    301      -0.9054      1.00000
    302      -0.9006      1.00000
    303      -0.8906      1.00000
    304      -0.8724      1.00000
    305      -0.8521      1.00000
    306      -0.8451      1.00000
    307      -0.8125      1.00000
    308      -0.8101      1.00000
    309      -0.8034      1.00000
    310      -0.7882      1.00000
    311      -0.7804      1.00000
    312      -0.7785      1.00000
    313      -0.7691      1.00000
    314      -0.7600      1.00000
    315      -0.7523      1.00000
    316      -0.7508      1.00000
    317      -0.7471      1.00000
    318      -0.7407      1.00000
    319      -0.7287      1.00000
    320      -0.7219      1.00000
    321      -0.7188      1.00000
    322      -0.6632      1.00000
    323      -0.6558      1.00000
    324      -0.6428      1.00000
    325      -0.6364      1.00000
    326      -0.6259      1.00000
    327      -0.6152      1.00000
    328      -0.6095      1.00000
    329      -0.6029      1.00000
    330      -0.5674      1.00000
    331      -0.5210      1.00000
    332      -0.4903      1.00000
    333      -0.4744      1.00000
    334      -0.4685      1.00000
    335      -0.4510      1.00000
    336      -0.4456      1.00000
    337      -0.3146      1.00000
    338      -0.2942      1.00000
    339      -0.2912      1.00000
    340      -0.2677      1.00000
    341      -0.2571      1.07210
    342      -0.2346      0.95306
    343       0.0134      0.00000
    344       0.5004      0.00000
    345       0.5067      0.00000
    346       0.5265      0.00000
    347       0.9974      0.00000
    348       1.0189      0.00000
    349       1.0328      0.00000
    350       1.0488      0.00000
    351       1.0798      0.00000
    352       1.0877      0.00000
    353       1.5532      0.00000
    354       1.5940      0.00000
    355       1.6029      0.00000
    356       1.6286      0.00000
    357       1.6349      0.00000
    358       1.6526      0.00000
    359       1.6752      0.00000
    360       1.6898      0.00000
    361       1.7026      0.00000
    362       1.7098      0.00000
    363       1.7327      0.00000
    364       1.7396      0.00000
    365       1.7472      0.00000
    366       1.7710      0.00000
    367       1.7903      0.00000
    368       2.3760      0.00000
    369       2.4160      0.00000
    370       2.4448      0.00000
    371       2.5023      0.00000
    372       2.5309      0.00000
    373       2.5428      0.00000
    374       2.9877      0.00000
    375       3.0062      0.00000
    376       3.0339      0.00000
    377       3.0346      0.00000
    378       3.0794      0.00000
    379       3.0874      0.00000
    380       3.4590      0.00000
    381       3.4752      0.00000
    382       3.5030      0.00000
    383       3.5513      0.00000
    384       3.5738      0.00000
    385       3.6082      0.00000
    386       4.5263      0.00000
    387       4.5750      0.00000
    388       5.0519      0.00000
    389       5.0749      0.00000
    390       5.1170      0.00000
    391       5.1608      0.00000
    392       5.1814      0.00000
    393       5.2052      0.00000
    394       5.9211      0.00000
    395       5.9971      0.00000
    396       6.0276      0.00000
    397       6.0673      0.00000
    398       6.2290      0.00000
    399       6.2568      0.00000
    400       6.2685      0.00000
[...]
   0.577E+02 -.553E+02 0.923E+03   -.578E+02 0.555E+02 -.924E+03   -.101E+00 0.203E-01 -.446E+00   0.219E+00 -.951E-01 0.189E+01
   -.723E+01 -.855E+00 0.273E+04   0.700E+01 0.729E+00 -.273E+04   0.205E+00 0.213E+00 -.646E+00   0.433E-01 -.525E-01 0.110E+01
   -.517E+01 -.740E+01 -.275E+04   0.524E+01 0.722E+01 0.275E+04   -.157E-01 -.677E-01 0.761E+00   -.597E-01 0.240E+00 -.100E+01
   -.104E+03 0.196E+02 0.946E+03   0.104E+03 -.194E+02 -.948E+03   -.220E+00 -.772E-01 -.366E+00   -.681E-01 -.844E-01 0.189E+01
   0.171E+01 -.343E+02 -.951E+03   -.179E+01 0.344E+02 0.952E+03   0.360E-01 0.162E-01 0.253E+00   0.390E-01 -.427E-01 -.573E+00
   -.682E+02 -.295E+02 0.274E+04   0.685E+02 0.296E+02 -.274E+04   -.327E+00 -.159E+00 -.483E-01   0.998E-01 0.310E-01 0.104E+01
   -.732E+02 -.557E+02 -.273E+04   0.734E+02 0.560E+02 0.273E+04   -.879E-01 -.424E+00 -.751E-01   -.108E+00 0.854E-01 -.102E+01
   0.153E+03 -.181E+02 -.946E+03   -.154E+03 0.181E+02 0.946E+03   0.490E+00 -.448E-01 0.208E+00   0.195E+00 0.708E-01 -.472E+00
   0.155E+02 -.181E+02 0.893E+03   -.154E+02 0.180E+02 -.895E+03   -.181E-01 0.258E-01 -.262E+00   -.774E-01 0.107E+00 0.192E+01
   0.138E+02 -.928E+01 0.959E+03   -.140E+02 0.934E+01 -.961E+03   0.130E+00 0.544E-01 -.374E+00   0.115E+00 -.290E-01 0.202E+01
   -.344E+02 -.770E+01 0.986E+03   0.344E+02 0.781E+01 -.988E+03   -.598E-01 -.410E-01 -.370E+00   0.325E-01 -.207E-01 0.193E+01
   -.714E+02 0.821E+02 0.908E+03   0.716E+02 -.824E+02 -.910E+03   -.870E-01 0.149E+00 -.869E-01   -.133E+00 0.187E+00 0.193E+01
   0.111E+03 -.660E+02 0.102E+04   -.112E+03 0.662E+02 -.102E+04   0.236E+00 -.169E+00 0.388E-01   0.118E+00 0.245E-01 0.206E+01
   -.475E+01 0.947E+02 -.756E+03   0.474E+01 -.953E+02 0.756E+03   0.505E-01 0.590E+00 0.335E+00   -.143E-01 0.139E-01 -.578E+00
   0.363E+01 0.132E+00 0.217E+04   -.338E+01 0.164E+00 -.216E+04   -.269E-01 -.142E+00 -.311E+01   -.130E+00 -.368E-01 0.771E+00
   -.512E+01 -.396E+01 -.218E+04   0.528E+01 0.407E+01 0.218E+04   -.120E+00 -.239E-01 0.192E+01   -.491E-01 -.857E-01 -.803E+00
   0.155E+02 -.321E+02 -.722E+03   -.155E+02 0.322E+02 0.722E+03   -.128E+00 0.258E-01 0.138E-01   0.122E+00 -.149E+00 -.474E+00
   0.872E+02 -.371E+02 0.806E+03   -.877E+02 0.374E+02 -.808E+03   0.508E+00 -.143E+00 -.593E-01   0.120E-01 -.108E+00 0.166E+01
   0.412E+01 0.602E+02 0.221E+04   -.434E+01 -.603E+02 -.220E+04   0.362E-02 0.290E+00 -.274E+01   0.349E-01 -.774E-01 0.864E+00
   0.217E+02 0.756E+02 -.222E+04   -.217E+02 -.759E+02 0.222E+04   0.907E-01 0.328E+00 0.269E+01   -.169E+00 -.544E-01 -.737E+00
   -.436E+02 0.347E+02 0.794E+03   0.438E+02 -.349E+02 -.795E+03   -.226E+00 0.118E+00 -.821E-01   -.654E-01 0.116E+00 0.160E+01
   -.681E+02 -.637E+02 -.789E+03   0.684E+02 0.640E+02 0.790E+03   -.832E-01 -.385E+00 0.903E-01   -.185E+00 0.703E-01 -.523E+00
   -.122E+03 -.796E+01 0.216E+04   0.123E+03 0.796E+01 -.216E+04   -.706E+00 -.159E+00 -.260E+01   -.163E+00 0.297E-01 0.807E+00
   -.111E+03 -.134E+02 -.222E+04   0.112E+03 0.133E+02 0.222E+04   -.102E+01 -.660E-01 0.276E+01   -.853E-01 0.122E+00 -.727E+00
   0.828E+02 -.538E+02 -.740E+03   -.834E+02 0.539E+02 0.741E+03   0.433E+00 -.186E+00 0.956E-03   0.121E+00 0.978E-01 -.380E+00
   0.815E+02 -.377E+02 0.217E+04   -.825E+02 0.378E+02 -.216E+04   0.615E+00 -.255E+00 -.219E+01   0.205E-01 0.152E-01 0.683E+00
   0.395E+02 -.644E+02 -.216E+04   -.405E+02 0.647E+02 0.216E+04   0.854E+00 -.327E+00 0.265E+01   0.113E+00 0.267E-01 -.644E+00
   -.686E+01 -.995E+01 0.785E+03   0.681E+01 0.100E+02 -.787E+03   0.240E+00 0.151E+00 0.131E+00   -.202E+00 -.128E+00 0.155E+01
   0.560E+02 0.968E+01 0.729E+03   -.561E+02 -.981E+01 -.731E+03   -.545E-01 0.505E-01 -.192E+00   0.913E-01 -.526E-01 0.146E+01
   -.125E+03 0.415E+02 -.771E+03   0.125E+03 -.417E+02 0.771E+03   -.507E+00 0.170E+00 0.134E+00   -.120E+00 0.756E-01 -.471E+00
   -.534E+01 0.377E+02 -.796E+03   0.553E+01 -.379E+02 0.797E+03   -.150E+00 0.196E-01 -.202E-01   -.727E-01 0.131E+00 -.480E+00
   -.387E+02 0.153E+02 0.215E+04   0.394E+02 -.155E+02 -.215E+04   -.314E+00 0.470E-01 -.194E+01   -.198E+00 0.647E-01 0.808E+00
   -.572E+02 -.121E+01 -.216E+04   0.578E+02 0.107E+01 0.216E+04   -.489E+00 0.562E-01 0.268E+01   -.119E+00 0.843E-01 -.737E+00
   -.111E+03 0.182E+02 0.718E+03   0.111E+03 -.187E+02 -.720E+03   -.544E+00 0.436E+00 -.314E+00   -.163E+00 0.608E-01 0.152E+01
   0.285E+02 -.413E+02 0.216E+04   -.288E+02 0.420E+02 -.215E+04   0.464E-04 -.616E+00 -.255E+01   0.780E-01 -.641E-02 0.702E+00
   0.552E+02 -.148E+02 -.216E+04   -.556E+02 0.154E+02 0.216E+04   0.242E+00 -.575E+00 0.234E+01   0.143E+00 0.118E-01 -.692E+00
   0.697E+02 -.741E+02 0.219E+04   -.701E+02 0.747E+02 -.219E+04   0.472E+00 -.527E+00 -.228E+01   0.522E-01 -.103E+00 0.760E+00
   0.612E+02 -.685E+02 -.221E+04   -.616E+02 0.690E+02 0.221E+04   0.421E+00 -.561E+00 0.211E+01   0.457E-01 0.745E-01 -.786E+00
   0.794E+02 -.374E+02 0.763E+03   -.796E+02 0.377E+02 -.764E+03   0.126E+00 -.277E+00 -.292E-01   0.132E+00 -.593E-01 0.154E+01
   0.490E+02 -.318E+02 0.221E+04   -.499E+02 0.319E+02 -.221E+04   0.582E+00 -.241E-01 -.249E+01   0.123E+00 -.912E-01 0.807E+00
   0.270E+02 -.143E+02 -.221E+04   -.277E+02 0.147E+02 0.221E+04   0.698E+00 -.149E+00 0.221E+01   0.817E-01 -.191E+00 -.810E+00
   -.369E+02 0.254E+02 0.220E+04   0.377E+02 -.254E+02 -.220E+04   -.693E+00 0.102E-01 -.197E+01   -.868E-02 0.101E-01 0.886E+00
   -.385E+02 0.355E+02 -.219E+04   0.392E+02 -.356E+02 0.219E+04   -.511E+00 0.102E+00 0.205E+01   -.117E+00 0.246E-01 -.823E+00
   -.271E+02 0.661E+02 0.216E+04   0.269E+02 -.670E+02 -.216E+04   0.261E+00 0.557E+00 -.197E+01   -.820E-01 0.202E+00 0.884E+00
   -.119E+02 0.646E+02 -.219E+04   0.117E+02 -.652E+02 0.219E+04   0.264E+00 0.648E+00 0.273E+01   -.291E-01 -.434E-02 -.736E+00
   0.122E+02 0.112E+02 0.216E+04   -.120E+02 -.118E+02 -.216E+04   -.925E-01 0.445E+00 -.220E+01   -.215E-01 0.935E-01 0.743E+00
   0.277E+02 0.170E+02 -.219E+04   -.273E+02 -.173E+02 0.219E+04   -.487E+00 0.457E+00 0.213E+01   0.407E-01 -.109E+00 -.741E+00
   0.154E+01 0.134E+02 0.740E+03   -.145E+01 -.133E+02 -.741E+03   -.533E-01 -.189E+00 -.161E-01   -.263E-01 0.117E+00 0.157E+01
 -----------------------------------------------------------------------------------------------
   0.444E-01 0.472E-01 -.206E+02   -.624E-12 0.316E-12 0.682E-12   -.238E+00 0.493E-01 0.516E+00   0.199E+00 -.898E-01 0.200E+02
 
 
 POSITION                                       TOTAL-FORCE (eV/Angst)
 -----------------------------------------------------------------------------------
     -0.00769      0.01375      6.15289         0.004979     -0.016811      0.009257
     -2.53511      8.73667      6.16858         0.018732      0.007979      0.009774
      5.04079      0.03318      6.19045         0.007320      0.004651      0.026171
      8.82804      2.19742      6.16962         0.026966     -0.043337      0.036782
      1.26885      2.18757      6.15319        -0.016934     -0.003887      0.044452
      2.54422      1.44455      2.05273        -0.027138     -0.133450      0.407473
      2.54915      1.44470      8.15556        -0.013324      0.028639      0.013038
      6.30422      2.19276      6.20916        -0.045197     -0.012032      0.024072
      3.80181      0.73423      4.10363         0.079764     -0.027710     -0.065525
      7.56604      1.45101      2.09205         0.020519      0.023982      0.273099
      7.57257      1.43647      8.19821        -0.011176      0.009615      0.012133
      6.31884      0.74108      4.13711        -0.007751      0.035829     -0.046992
     -2.51060      4.36475      6.19493        -0.030520      0.003109      0.013968
      5.04518      4.37586      6.16763         0.009800     -0.012331      0.022214
      3.80277      3.61435      2.06282         0.045195      0.094278      0.302276
      3.79658      3.65395      8.18942         0.006334      0.012016      0.020677
      2.55462      2.91604      4.10409        -0.050141      0.060713     -0.085451
      6.30075      3.62795      2.09664         0.012796      0.034025      0.335823
      6.31543      3.64282      8.16852        -0.014320     -0.005677      0.065237
      7.58585      2.93043      4.13698         0.013174     -0.046004     -0.222100
      6.30250      6.55741      6.17991        -0.006073      0.003411      0.022318
     -2.53418      5.82300      2.07647         0.063274     -0.024414      0.424693
     -2.49733      5.83471      8.18216         0.019308     -0.006799      0.036681
      3.81401      6.57068      6.19237         0.018503     -0.001788      0.029439
      1.26871      5.10416      4.14860        -0.036310     -0.020705     -0.067563
      6.29450      5.11374      4.13148         0.019970      0.084216     -0.295976
     -2.53139      7.30304      4.11316        -0.005449      0.045532     -0.211485
      0.00464      7.28975      4.16047        -0.017793      0.028416     -0.098633
      5.08583      7.28318      4.13084        -0.007042     -0.013681     -0.119548
      7.55365      0.01355      6.21694         0.026173      0.004509      0.028912
      0.00095      1.48112      2.00000         0.097769      0.117201      0.143686
     -0.00288      1.47839      8.15788        -0.006028      0.004921      0.014258
      3.76532      2.15723      6.18681        -0.027510     -0.017974     -0.021322
      1.31001      0.72945      4.13000         0.025447      0.074694     -0.305595
      5.08151      1.48100      2.04895        -0.179063      0.132889      0.004474
      5.07821      1.53649      8.25917         0.008547     -0.041435      0.013082
      8.82791      0.75063      4.10326        -0.050974     -0.037435     -0.066840
     -0.02775      4.35064      6.24404        -0.008326     -0.010467      0.026417
     -1.34500      3.63090      2.07578         0.229997     -0.124068     -0.026657
     -1.32193      3.63872      8.28391         0.027593     -0.014214     -0.011004
      2.54724      4.38324      6.17159        -0.012729      0.003230      0.054286
      1.32920      3.63133      2.06605        -0.308844     -0.101920      0.021600
      1.29534      3.61337      8.25348        -0.015321      0.011917      0.006480
      0.02215      2.94990      4.13311        -0.017495      0.092967     -0.137317
      5.09719      2.93887      4.14370        -0.084912     -0.130035     -0.418801
     -1.31655      6.60386      6.19682        -0.012743     -0.009623      0.035861
      1.24842      6.56886      6.20641        -0.033974     -0.022191      0.078348
      0.00782      5.79603      2.11654         0.179243     -0.068965     -0.096898
      0.00791      5.80465      8.31467        -0.003618     -0.005534      0.007735
     -1.29718      5.12819      4.17191         0.052538     -0.037336     -0.130188
      2.54188      5.84536      2.06287        -0.154438      0.093031     -0.147508
      2.54276      5.87760      8.28687         0.049668     -0.010565      0.018752
      5.06524      5.76239      2.05753         0.182933     -0.002959      0.098457
      5.09020      5.78246      8.19660         0.003718      0.012216      0.005194
      3.79261      5.11061      4.12660         0.025923     -0.018336     -0.152048
     -3.78540      7.99724      2.01619        -0.180141     -0.019480      0.088315
     -3.76611      8.00898      8.18128         0.012593      0.037238      0.021837
     -1.25221      8.01099      2.09289         0.053856      0.027282      0.135197
     -1.21629      8.05131      8.21742         0.005734     -0.014399     -0.009389
      1.24224      8.03556      2.10937        -0.060266     -0.100377     -0.087001
      1.23741      8.02988      8.33601         0.013953      0.022977      0.021645
      3.80728      7.99919      2.05573         0.085586     -0.034849     -0.019681
      3.84394      8.00463      8.25152        -0.017487      0.006242     -0.001388
      2.54183      7.29082      4.15634         0.015135      0.073062     -0.109201
 -----------------------------------------------------------------------------------
    total drift:                                0.005476      0.006721     -0.045750


--------------------------------------------------------------------------------------------------------



  FREE ENERGIE OF THE ION-ELECTRON SYSTEM (eV)
  ---------------------------------------------------
  free  energy   TOTEN  =      -423.97340519 eV

  energy  without entropy=     -423.97340519  energy(sigma->0) =     -423.97340519
 


--------------------------------------------------------------------------------------------------------


    POTLOK:  cpu time    0.2650: real time    0.2650


--------------------------------------------------------------------------------------------------------


     LOOP+:  cpu time 1113.7657: real time 1144.3755
    4ORBIT:  cpu time    0.0000: real time    0.0000
 


 total charge     
 
# of ion       s       p       d       tot
------------------------------------------
    1        0.502   0.505   8.306   9.313
    2        0.508   0.510   8.325   9.343
    3        0.504   0.512   8.300   9.316
    4        0.505   0.507   8.313   9.324
    5        0.510   0.516   8.321   9.346
    6        0.505   0.398   8.318   9.220
    7        0.515   0.418   8.311   9.244
    8        0.501   0.500   8.321   9.322
    9        0.497   0.496   8.313   9.306
   10        0.510   0.407   8.323   9.240
   11        0.517   0.408   8.322   9.247
   12        0.501   0.500   8.310   9.311
   13        0.500   0.500   8.309   9.309
   14        0.506   0.508   8.317   9.330
   15        0.510   0.404   8.317   9.231
   16        0.514   0.409   8.319   9.242
   17        0.506   0.508   8.314   9.329
   18        0.507   0.404   8.332   9.243
   19        0.509   0.402   8.344   9.255
   20        0.501   0.500   8.321   9.321
   21        0.498   0.499   8.309   9.306
   22        0.507   0.399   8.312   9.218
   23        0.514   0.414   8.316   9.244
   24        0.508   0.515   8.309   9.332
   25        0.513   0.524   8.308   9.345
   26        0.500   0.494   8.322   9.316
   27        0.504   0.499   8.321   9.323
   28        0.503   0.508   8.311   9.322
   29        0.502   0.504   8.309   9.315
   30        0.467   0.492   6.180   7.139
   31        0.465   0.380   6.169   7.013
   32        0.470   0.401   6.170   7.042
   33        0.469   0.499   6.170   7.138
   34        0.467   0.489   6.154   7.110
   35        0.469   0.392   6.138   6.999
   36        0.469   0.396   6.138   7.003
   37        0.467   0.489   6.187   7.144
   38        0.472   0.505   6.199   7.177
   39        0.468   0.393   6.151   7.012
   40        0.467   0.389   6.149   7.004
   41        0.469   0.494   6.191   7.153
   42        0.467   0.388   6.170   7.026
   43        0.468   0.391   6.165   7.024
   44        0.469   0.497   6.191   7.157
   45        0.467   0.493   6.169   7.130
   46        0.474   0.500   6.191   7.165
   47        0.469   0.497   6.179   7.145
   48        0.469   0.397   6.171   7.036
   49        0.472   0.398   6.167   7.037
   50        0.470   0.495   6.184   7.149
   51        0.476   0.398   6.191   7.065
   52        0.471   0.393   6.168   7.031
   53        0.467   0.397   6.155   7.019
   54        0.471   0.403   6.136   7.011
   55        0.473   0.497   6.199   7.169
   56        0.466   0.381   6.157   7.004
   57        0.469   0.397   6.166   7.032
   58        0.468   0.392   6.156   7.016
   59        0.474   0.400   6.171   7.045
   60        0.474   0.401   6.182   7.058
   61        0.471   0.391   6.171   7.032
   62        0.471   0.395   6.173   7.040
   63        0.471   0.395   6.170   7.035
   64        0.473   0.500   6.204   7.177
--------------------------------------------------
tot         31.114  28.783 457.158 517.055
 


 magnetization (x)
 
# of ion       s       p       d       tot
------------------------------------------
    1       -0.023  -0.052   0.736   0.661
    2       -0.022  -0.043   0.679   0.614
    3       -0.026  -0.059   0.765   0.680
    4       -0.023  -0.046   0.720   0.650
    5       -0.026  -0.053   0.713   0.634
    6       -0.031  -0.044   0.704   0.629
    7       -0.030  -0.047   0.737   0.660
    8       -0.020  -0.039   0.683   0.624
    9       -0.022  -0.046   0.727   0.658
   10       -0.029  -0.041   0.688   0.618
   11       -0.032  -0.037   0.703   0.634
   12       -0.023  -0.048   0.724   0.653
   13       -0.019  -0.039   0.715   0.657
   14       -0.021  -0.040   0.709   0.648
   15       -0.027  -0.039   0.715   0.648
   16       -0.028  -0.039   0.722   0.655
   17       -0.025  -0.049   0.747   0.672
   18       -0.020  -0.034   0.677   0.623
   19       -0.019  -0.026   0.630   0.584
   20       -0.021  -0.043   0.692   0.628
   21       -0.017  -0.039   0.716   0.660
   22       -0.030  -0.041   0.718   0.647
   23       -0.030  -0.044   0.719   0.646
   24       -0.028  -0.060   0.741   0.653
   25       -0.033  -0.068   0.766   0.665
   26       -0.020  -0.036   0.697   0.642
   27       -0.022  -0.041   0.703   0.640
   28       -0.025  -0.057   0.742   0.659
   29       -0.027  -0.057   0.734   0.651
   30       -0.004  -0.026   2.683   2.652
   31       -0.005  -0.023   2.755   2.727
   32        0.003  -0.020   2.752   2.735
   33        0.002  -0.017   2.746   2.731
   34       -0.002  -0.021   2.775   2.752
   35        0.007  -0.012   2.835   2.830
   36        0.009  -0.012   2.847   2.844
   37       -0.007  -0.029   2.669   2.634
   38       -0.013  -0.043   2.634   2.579
   39        0.001  -0.021   2.797   2.778
   40        0.005  -0.017   2.802   2.790
   41       -0.005  -0.026   2.681   2.650
   42        0.001  -0.019   2.747   2.729
   43       -0.002  -0.023   2.758   2.732
   44       -0.009  -0.038   2.659   2.611
   45        0.001  -0.017   2.737   2.721
   46       -0.004  -0.024   2.673   2.645
   47       -0.011  -0.041   2.694   2.641
   48       -0.003  -0.028   2.740   2.710
   49       -0.007  -0.033   2.754   2.714
   50       -0.004  -0.025   2.687   2.657
   51       -0.008  -0.026   2.691   2.657
   52       -0.005  -0.025   2.754   2.724
   53        0.005  -0.019   2.791   2.778
   54        0.008  -0.015   2.829   2.821
   55       -0.005  -0.021   2.658   2.632
   56        0.003  -0.014   2.792   2.782
   57        0.004  -0.017   2.772   2.759
   58        0.005  -0.013   2.785   2.777
   59        0.001  -0.016   2.753   2.738
   60       -0.003  -0.024   2.712   2.686
   61       -0.003  -0.025   2.757   2.729
   62       -0.005  -0.025   2.732   2.702
   63       -0.003  -0.024   2.743   2.717
   64       -0.010  -0.037   2.626   2.579
--------------------------------------------------
tot         -0.783  -2.120 116.542 113.638
 
 BZINTS: Fermi energy: -0.044021;570.000000 electrons
         Band energy:***********;  BLOECHL correction: -0.127643

 total amount of memory used by VASP MPI-rank0   256697. kBytes
=======================================================================

   base      :      30000. kBytes
   nonlr-proj:      13042. kBytes
   fftplans  :       6403. kBytes
   grid      :      16455. kBytes
   one-center:         93. kBytes
   wavefun   :     190704. kBytes
 
  
  
 General timing and accounting informations for this job:
 ========================================================
  
                  Total CPU time used (sec):     1227.597
                            User time (sec):     1197.804
                          System time (sec):       29.793
                         Elapsed time (sec):     1267.076
  
                   Maximum memory used (kb):      355928.
                   Average memory used (kb):           0.
  
                          Minor page faults:        20817
                          Major page faults:            0
                 Voluntary context switches:         8163
