SQS-NiFe                                
           1
    10.100310    0.000000    0.000000
    -5.050155    8.747125    0.000000
     0.000000    0.000000   21.301691
   Ni   Fe
  29  35
Direct configuration=     1
   0.00002491  0.00157192  0.28884509
   0.24840929  0.99880504  0.28958172
   0.50096960  0.00379305  0.29060861
   0.99964465  0.25121572  0.28963072
   0.25066981  0.25009060  0.28885923
   0.33446800  0.16514600  0.09636487
   0.33496497  0.16516236  0.38285997
   0.74950265  0.25068365  0.29148649
   0.41837500  0.08394000  0.19264317
   0.83203200  0.16588400  0.09821039
   0.83184725  0.16422197  0.38486195
   0.66797000  0.08472300  0.19421489
   0.00093027  0.49899301  0.29081887
   0.74963897  0.50026306  0.28953721
   0.58310200  0.41320400  0.09683844
   0.58475374  0.41773173  0.38444939
   0.41961000  0.33337100  0.19266495
   0.83119700  0.41475900  0.09842584
   0.83350004  0.41645883  0.38346807
   0.91855900  0.33501600  0.19420908
   0.99882332  0.74966461  0.29011353
   0.08195100  0.66570400  0.09747927
   0.08626868  0.66704355  0.38410853
   0.75320424  0.75118201  0.29069871
   0.41737300  0.58352400  0.19475466
   0.91550800  0.58461900  0.19395095
   0.16682900  0.83490800  0.19309090
   0.41715300  0.83338800  0.19531186
   0.91985100  0.83263700  0.19392075
   0.74863750  0.00154921  0.29185211
   0.08475800  0.16932700  0.09388926
   0.08422156  0.16901438  0.38296856
   0.49610340  0.24662106  0.29043757
   0.17139600  0.08339300  0.19388126
   0.58776100  0.16931300  0.09618717
   0.59060578  0.17565665  0.38772357
   0.91693100  0.08581500  0.19262604
   0.24594166  0.49737887  0.29312410
   0.07438400  0.41509600  0.09744675
   0.07711551  0.41599063  0.38888499
   0.50274732  0.50110644  0.28972324
   0.33917200  0.41514500  0.09699001
   0.33479402  0.41309223  0.38745645
   0.17081400  0.33724200  0.19402731
   0.67264700  0.33598100  0.19452441
   0.24713932  0.75497435  0.29090726
   0.49908954  0.75097396  0.29135772
   0.33208500  0.66262100  0.09936022
   0.33258682  0.66360704  0.39032888
   0.16470600  0.58627100  0.19584874
   0.58579400  0.66826100  0.09684048
   0.58772359  0.67194612  0.38902423
   0.83088100  0.65877500  0.09658990
   0.83449940  0.66106946  0.38478658
   0.66762500  0.58426200  0.19372156
   0.08235500  0.91427100  0.09464942
   0.08493504  0.91561237  0.38406719
   0.33394400  0.91584300  0.09825017
   0.33980517  0.92045248  0.38576392
   0.58231600  0.91865200  0.09902340
   0.58151263  0.91800194  0.39133109
   0.83419400  0.91449400  0.09650569
   0.83813477  0.91511588  0.38736462
   0.66841400  0.83351100  0.19511790
