  69  69   1   0
  0.2631499E+02  0.9967380E-09  0.9967380E-09  0.2110375E-08  0.5000000E-15
  1.000000000000000E-004
  CAR 
 SQS-NiFe                                
     10.69951340    -20.95149634  301      0.44116404      1.00000000
    -20.951  0.0000E+00  0.0000E+00  0.0000E+00  0.0000E+00
    -20.846  0.0000E+00  0.0000E+00  0.0000E+00  0.0000E+00
    -20.740  0.0000E+00  0.0000E+00  0.0000E+00  0.0000E+00
    -20.635 -0.3473E-31  0.0000E+00 -0.3664E-32  0.0000E+00
    -20.529 -0.1784E-27 -0.3996E-29 -0.1882E-28 -0.4215E-30
    -20.424 -0.5228E-24 -0.1510E-25 -0.5517E-25 -0.1593E-26
    -20.318 -0.8736E-21 -0.3254E-22 -0.9223E-22 -0.3434E-23
    -20.213 -0.8317E-18 -0.3997E-19 -0.8784E-19 -0.4220E-20
    -20.107 -0.4381E-15 -0.2795E-16 -0.4631E-16 -0.2953E-17
    -20.002 -0.1337E-12 -0.1075E-13 -0.1415E-13 -0.1137E-14
    -19.896 -0.2312E-10 -0.2408E-11 -0.2453E-11 -0.2551E-12
    -19.791 -0.2251E-08 -0.3042E-09 -0.2399E-09 -0.3235E-10
    -19.685 -0.1225E-06 -0.2157E-07 -0.1316E-07 -0.2308E-08
    -19.580 -0.3683E-05 -0.8499E-06 -0.4017E-06 -0.9197E-07
    -19.474 -0.5980E-04 -0.1830E-04 -0.6711E-05 -0.2022E-05
    -19.369 -0.4996E-03 -0.2078E-03 -0.5942E-04 -0.2395E-04
    -19.263 -0.1871E-02 -0.1139E-02 -0.2569E-03 -0.1441E-03
    -19.158 -0.1124E-02 -0.2032E-02 -0.3754E-03 -0.3585E-03
    -19.052  0.1087E-01  0.5185E-02  0.7718E-03  0.1885E-03
    -18.947  0.3112E-01  0.2530E-01  0.4055E-02  0.2858E-02
    -18.841  0.5363E-01  0.3498E-01  0.9713E-02  0.6549E-02
    -18.736  0.1031E+00  0.3343E-01  0.2059E-01  0.1008E-01
    -18.630  0.1479E+00  0.7152E-01  0.3619E-01  0.1762E-01
    -18.525  0.1115E+00  0.1244E+00  0.4796E-01  0.3075E-01
    -18.419  0.3411E-01  0.1147E+00  0.5155E-01  0.4284E-01
    -18.314 -0.3419E-02  0.6087E-01  0.5119E-01  0.4926E-01
    -18.208 -0.5028E-02  0.1696E-01  0.5066E-01  0.5105E-01
    -18.103 -0.1327E-02 -0.1359E-02  0.5052E-01  0.5091E-01
    -17.997 -0.1637E-03 -0.2830E-02  0.5051E-01  0.5061E-01
    -17.892 -0.1067E-04 -0.8810E-03  0.5051E-01  0.5052E-01
    -17.786 -0.3826E-06 -0.1247E-03  0.5051E-01  0.5051E-01
    -17.681 -0.7670E-08 -0.9129E-05  0.5051E-01  0.5051E-01
    -17.575 -0.8674E-10 -0.3609E-06  0.5051E-01  0.5051E-01
    -17.470 -0.5561E-12 -0.7874E-08  0.5051E-01  0.5051E-01
    -17.364 -0.2024E-14 -0.9592E-10  0.5051E-01  0.5051E-01
    -17.259  0.0000E+00 -0.6572E-12  0.5051E-01  0.5051E-01
    -17.153  0.0000E+00 -0.2549E-14  0.5051E-01  0.5051E-01
    -17.048  0.0000E+00  0.0000E+00  0.5051E-01  0.5051E-01
    -16.942  0.0000E+00  0.0000E+00  0.5051E-01  0.5051E-01
    -16.837  0.0000E+00  0.0000E+00  0.5051E-01  0.5051E-01
    -16.731  0.0000E+00  0.0000E+00  0.5051E-01  0.5051E-01
    -16.626  0.0000E+00  0.0000E+00  0.5051E-01  0.5051E-01
    -16.520  0.0000E+00  0.0000E+00  0.5051E-01  0.5051E-01
    -16.415  0.0000E+00  0.0000E+00  0.5051E-01  0.5051E-01
    -16.309  0.0000E+00  0.0000E+00  0.5051E-01  0.5051E-01
    -16.204  0.0000E+00  0.0000E+00  0.5051E-01  0.5051E-01
    -16.098  0.0000E+00  0.0000E+00  0.5051E-01  0.5051E-01
    -15.993  0.0000E+00  0.0000E+00  0.5051E-01  0.5051E-01
    -15.887  0.0000E+00  0.0000E+00  0.5051E-01  0.5051E-01
    -15.782  0.0000E+00  0.0000E+00  0.5051E-01  0.5051E-01
    -15.676  0.0000E+00  0.0000E+00  0.5051E-01  0.5051E-01
    -15.571  0.0000E+00  0.0000E+00  0.5051E-01  0.5051E-01
    -15.465  0.0000E+00  0.0000E+00  0.5051E-01  0.5051E-01
    -15.360  0.0000E+00  0.0000E+00  0.5051E-01  0.5051E-01
    -15.254  0.0000E+00  0.0000E+00  0.5051E-01  0.5051E-01
    -15.149  0.0000E+00  0.0000E+00  0.5051E-01  0.5051E-01
    -15.043  0.0000E+00  0.0000E+00  0.5051E-01  0.5051E-01
    -14.938  0.0000E+00  0.0000E+00  0.5051E-01  0.5051E-01
    -14.832  0.0000E+00  0.0000E+00  0.5051E-01  0.5051E-01
    -14.727  0.0000E+00  0.0000E+00  0.5051E-01  0.5051E-01
    -14.621  0.0000E+00  0.0000E+00  0.5051E-01  0.5051E-01
    -14.516  0.0000E+00  0.0000E+00  0.5051E-01  0.5051E-01
    -14.410  0.0000E+00  0.0000E+00  0.5051E-01  0.5051E-01
    -14.305  0.0000E+00  0.0000E+00  0.5051E-01  0.5051E-01
    -14.199  0.0000E+00  0.0000E+00  0.5051E-01  0.5051E-01
    -14.094  0.0000E+00  0.0000E+00  0.5051E-01  0.5051E-01
    -13.988  0.0000E+00  0.0000E+00  0.5051E-01  0.5051E-01
    -13.883  0.0000E+00  0.0000E+00  0.5051E-01  0.5051E-01
    -13.777  0.0000E+00  0.0000E+00  0.5051E-01  0.5051E-01
    -13.672  0.0000E+00  0.0000E+00  0.5051E-01  0.5051E-01
    -13.566  0.0000E+00  0.0000E+00  0.5051E-01  0.5051E-01
    -13.461  0.0000E+00  0.0000E+00  0.5051E-01  0.5051E-01
    -13.355  0.0000E+00  0.0000E+00  0.5051E-01  0.5051E-01
    -13.250  0.0000E+00  0.0000E+00  0.5051E-01  0.5051E-01
    -13.144  0.0000E+00  0.0000E+00  0.5051E-01  0.5051E-01
    -13.039  0.0000E+00  0.0000E+00  0.5051E-01  0.5051E-01
    -12.933  0.0000E+00  0.0000E+00  0.5051E-01  0.5051E-01
    -12.828  0.0000E+00  0.0000E+00  0.5051E-01  0.5051E-01
    -12.722  0.0000E+00  0.0000E+00  0.5051E-01  0.5051E-01
    -12.617  0.0000E+00  0.0000E+00  0.5051E-01  0.5051E-01
    -12.511  0.0000E+00  0.0000E+00  0.5051E-01  0.5051E-01
    -12.406  0.0000E+00  0.0000E+00  0.5051E-01  0.5051E-01
    -12.300  0.0000E+00  0.0000E+00  0.5051E-01  0.5051E-01
    -12.195  0.0000E+00  0.0000E+00  0.5051E-01  0.5051E-01
    -12.089  0.0000E+00  0.0000E+00  0.5051E-01  0.5051E-01
    -11.984  0.0000E+00  0.0000E+00  0.5051E-01  0.5051E-01
    -11.878  0.0000E+00  0.0000E+00  0.5051E-01  0.5051E-01
    -11.773  0.0000E+00  0.0000E+00  0.5051E-01  0.5051E-01
    -11.667  0.0000E+00  0.0000E+00  0.5051E-01  0.5051E-01
    -11.562  0.0000E+00  0.0000E+00  0.5051E-01  0.5051E-01
    -11.456  0.0000E+00  0.0000E+00  0.5051E-01  0.5051E-01
    -11.351  0.0000E+00  0.0000E+00  0.5051E-01  0.5051E-01
    -11.245  0.0000E+00  0.0000E+00  0.5051E-01  0.5051E-01
    -11.140  0.0000E+00  0.0000E+00  0.5051E-01  0.5051E-01
    -11.034  0.0000E+00  0.0000E+00  0.5051E-01  0.5051E-01
    -10.929  0.0000E+00  0.0000E+00  0.5051E-01  0.5051E-01
    -10.823  0.0000E+00  0.0000E+00  0.5051E-01  0.5051E-01
    -10.718  0.0000E+00  0.0000E+00  0.5051E-01  0.5051E-01
    -10.612  0.0000E+00  0.0000E+00  0.5051E-01  0.5051E-01
    -10.507  0.0000E+00  0.0000E+00  0.5051E-01  0.5051E-01
    -10.401  0.0000E+00  0.0000E+00  0.5051E-01  0.5051E-01
    -10.296  0.0000E+00  0.0000E+00  0.5051E-01  0.5051E-01
    -10.190  0.0000E+00  0.0000E+00  0.5051E-01  0.5051E-01
    -10.085  0.0000E+00  0.0000E+00  0.5051E-01  0.5051E-01
     -9.979  0.0000E+00  0.0000E+00  0.5051E-01  0.5051E-01
     -9.874  0.0000E+00  0.0000E+00  0.5051E-01  0.5051E-01
     -9.768 -0.3422E-32 -0.3026E-31  0.5051E-01  0.5051E-01
     -9.663 -0.1771E-28 -0.1362E-27  0.5051E-01  0.5051E-01
     -9.557 -0.5231E-25 -0.3499E-24  0.5051E-01  0.5051E-01
     -9.452 -0.8808E-22 -0.5123E-21  0.5051E-01  0.5051E-01
     -9.346 -0.8450E-19 -0.4272E-18  0.5051E-01  0.5051E-01
     -9.241 -0.4495E-16 -0.1961E-15  0.5051E-01  0.5051E-01
     -9.135 -0.1380E-13 -0.5254E-13  0.5051E-01  0.5051E-01
     -9.030 -0.2404E-11 -0.7941E-11  0.5051E-01  0.5051E-01
     -8.924 -0.2360E-09 -0.6749E-09  0.5051E-01  0.5051E-01
     -8.819 -0.1295E-07 -0.3200E-07  0.5051E-01  0.5051E-01
     -8.713 -0.3928E-06 -0.8355E-06  0.5051E-01  0.5050E-01
     -8.608 -0.6455E-05 -0.1173E-04  0.5050E-01  0.5050E-01
     -8.502 -0.5518E-04 -0.8420E-04  0.5050E-01  0.5049E-01
     -8.397 -0.2229E-03 -0.2725E-03  0.5047E-01  0.5047E-01
     -8.291 -0.2882E-03 -0.1900E-03  0.5044E-01  0.5045E-01
     -8.186  0.5650E-03  0.1009E-02  0.5050E-01  0.5055E-01
     -8.080  0.3235E-02  0.4458E-02  0.5085E-01  0.5102E-01
     -7.975  0.1108E-01  0.1410E-01  0.5201E-01  0.5251E-01
     -7.869  0.2402E-01  0.2613E-01  0.5455E-01  0.5527E-01
     -7.764  0.2513E-01  0.2233E-01  0.5720E-01  0.5762E-01
     -7.658  0.1015E-01  0.6828E-02  0.5827E-01  0.5834E-01
     -7.553  0.3960E-02  0.5347E-02  0.5869E-01  0.5891E-01
     -7.447  0.1660E-01  0.2012E-01  0.6044E-01  0.6103E-01
     -7.342  0.3031E-01  0.3161E-01  0.6364E-01  0.6436E-01
     -7.236  0.3428E-01  0.3372E-01  0.6725E-01  0.6792E-01
     -7.131  0.2938E-01  0.2705E-01  0.7036E-01  0.7078E-01
     -7.025  0.1395E-01  0.1082E-01  0.7183E-01  0.7192E-01
     -6.920 -0.8963E-03 -0.2250E-02  0.7173E-01  0.7168E-01
     -6.814 -0.3603E-02 -0.3049E-02  0.7135E-01  0.7136E-01
     -6.709  0.1498E-01  0.1728E-01  0.7293E-01  0.7318E-01
     -6.603  0.5477E-01  0.5716E-01  0.7871E-01  0.7921E-01
     -6.498  0.7535E-01  0.7448E-01  0.8666E-01  0.8707E-01
     -6.392  0.5281E-01  0.4916E-01  0.9223E-01  0.9226E-01
     -6.287  0.3206E-01  0.2862E-01  0.9561E-01  0.9528E-01
     -6.181  0.4243E-01  0.4051E-01  0.1001E+00  0.9955E-01
     -6.076  0.5343E-01  0.5297E-01  0.1057E+00  0.1051E+00
     -5.970  0.4408E-01  0.4323E-01  0.1104E+00  0.1097E+00
     -5.865  0.3958E-01  0.2794E-01  0.1146E+00  0.1126E+00
     -5.759  0.6960E-01  0.4218E-01  0.1219E+00  0.1171E+00
     -5.654  0.1113E+00  0.9030E-01  0.1336E+00  0.1266E+00
     -5.548  0.1247E+00  0.1218E+00  0.1468E+00  0.1395E+00
     -5.443  0.1234E+00  0.1164E+00  0.1598E+00  0.1517E+00
     -5.337  0.1441E+00  0.1072E+00  0.1750E+00  0.1631E+00
     -5.231  0.1925E+00  0.1103E+00  0.1953E+00  0.1747E+00
     -5.126  0.2357E+00  0.1284E+00  0.2202E+00  0.1882E+00
     -5.020  0.2359E+00  0.1818E+00  0.2451E+00  0.2074E+00
     -4.915  0.1973E+00  0.2454E+00  0.2659E+00  0.2333E+00
     -4.809  0.1433E+00  0.2470E+00  0.2810E+00  0.2594E+00
     -4.704  0.9968E-01  0.1764E+00  0.2915E+00  0.2780E+00
     -4.598  0.9454E-01  0.1029E+00  0.3015E+00  0.2888E+00
     -4.493  0.1337E+00  0.8113E-01  0.3156E+00  0.2974E+00
     -4.387  0.1815E+00  0.1105E+00  0.3348E+00  0.3091E+00
     -4.282  0.2071E+00  0.1533E+00  0.3566E+00  0.3252E+00
     -4.176  0.2258E+00  0.1631E+00  0.3804E+00  0.3424E+00
     -4.071  0.2458E+00  0.1622E+00  0.4064E+00  0.3595E+00
     -3.965  0.2714E+00  0.1565E+00  0.4350E+00  0.3761E+00
     -3.860  0.3020E+00  0.1174E+00  0.4669E+00  0.3884E+00
     -3.754  0.3202E+00  0.1221E+00  0.5006E+00  0.4013E+00
     -3.649  0.3186E+00  0.2322E+00  0.5343E+00  0.4258E+00
     -3.543  0.3775E+00  0.3402E+00  0.5741E+00  0.4617E+00
     -3.438  0.5521E+00  0.3262E+00  0.6323E+00  0.4961E+00
     -3.332  0.6652E+00  0.2397E+00  0.7025E+00  0.5214E+00
     -3.227  0.6039E+00  0.1917E+00  0.7662E+00  0.5416E+00
     -3.121  0.5107E+00  0.2485E+00  0.8201E+00  0.5679E+00
     -3.016  0.4800E+00  0.4094E+00  0.8707E+00  0.6111E+00
     -2.910  0.5194E+00  0.5329E+00  0.9255E+00  0.6673E+00
     -2.805  0.5839E+00  0.5233E+00  0.9871E+00  0.7225E+00
     -2.699  0.5904E+00  0.4881E+00  0.1049E+01  0.7740E+00
     -2.594  0.5830E+00  0.4920E+00  0.1111E+01  0.8259E+00
     -2.488  0.6033E+00  0.4984E+00  0.1175E+01  0.8785E+00
     -2.383  0.6157E+00  0.5060E+00  0.1240E+01  0.9319E+00
     -2.277  0.6512E+00  0.5206E+00  0.1308E+01  0.9868E+00
     -2.172  0.7088E+00  0.5316E+00  0.1383E+01  0.1043E+01
     -2.066  0.7691E+00  0.5480E+00  0.1464E+01  0.1101E+01
     -1.961  0.8807E+00  0.5766E+00  0.1557E+01  0.1162E+01
     -1.855  0.1047E+01  0.5880E+00  0.1668E+01  0.1224E+01
     -1.750  0.1155E+01  0.5934E+00  0.1789E+01  0.1286E+01
     -1.644  0.1119E+01  0.6447E+00  0.1907E+01  0.1354E+01
     -1.539  0.9696E+00  0.7064E+00  0.2010E+01  0.1429E+01
     -1.433  0.7642E+00  0.7317E+00  0.2090E+01  0.1506E+01
     -1.328  0.6499E+00  0.7877E+00  0.2159E+01  0.1589E+01
     -1.222  0.7397E+00  0.9329E+00  0.2237E+01  0.1687E+01
     -1.117  0.8857E+00  0.1074E+01  0.2330E+01  0.1801E+01
     -1.011  0.9207E+00  0.1100E+01  0.2428E+01  0.1917E+01
     -0.906  0.8896E+00  0.9973E+00  0.2521E+01  0.2022E+01
     -0.800  0.9276E+00  0.8055E+00  0.2619E+01  0.2107E+01
     -0.695  0.1025E+01  0.6851E+00  0.2727E+01  0.2179E+01
     -0.589  0.1043E+01  0.7332E+00  0.2837E+01  0.2257E+01
     -0.484  0.1044E+01  0.8222E+00  0.2948E+01  0.2343E+01
     -0.378  0.1219E+01  0.8477E+00  0.3076E+01  0.2433E+01
     -0.273  0.1410E+01  0.8364E+00  0.3225E+01  0.2521E+01
     -0.167  0.1276E+01  0.8520E+00  0.3360E+01  0.2611E+01
     -0.062  0.8466E+00  0.8947E+00  0.3449E+01  0.2705E+01
      0.044  0.4447E+00  0.9094E+00  0.3496E+01  0.2801E+01
      0.149  0.2568E+00  0.8974E+00  0.3523E+01  0.2896E+01
      0.255  0.2367E+00  0.9133E+00  0.3548E+01  0.2992E+01
      0.360  0.2387E+00  0.9727E+00  0.3573E+01  0.3095E+01
      0.466  0.1854E+00  0.1044E+01  0.3593E+01  0.3205E+01
      0.571  0.1402E+00  0.1070E+01  0.3607E+01  0.3318E+01
      0.677  0.1523E+00  0.9775E+00  0.3623E+01  0.3421E+01
      0.782  0.1438E+00  0.7583E+00  0.3639E+01  0.3501E+01
      0.888  0.8767E-01  0.4992E+00  0.3648E+01  0.3554E+01
      0.993  0.7022E-01  0.3187E+00  0.3655E+01  0.3587E+01
      1.099  0.1066E+00  0.2396E+00  0.3667E+01  0.3613E+01
      1.204  0.1195E+00  0.1899E+00  0.3679E+01  0.3633E+01
      1.310  0.1019E+00  0.1287E+00  0.3690E+01  0.3646E+01
      1.415  0.1192E+00  0.1004E+00  0.3702E+01  0.3657E+01
      1.521  0.1628E+00  0.1256E+00  0.3720E+01  0.3670E+01
      1.626  0.1648E+00  0.1286E+00  0.3737E+01  0.3684E+01
      1.732  0.1200E+00  0.9580E-01  0.3750E+01  0.3694E+01
      1.837  0.7316E-01  0.9185E-01  0.3757E+01  0.3704E+01
      1.943  0.4420E-01  0.1285E+00  0.3762E+01  0.3717E+01
      2.048  0.3499E-01  0.1651E+00  0.3766E+01  0.3735E+01
      2.154  0.6581E-01  0.1524E+00  0.3773E+01  0.3751E+01
      2.259  0.1172E+00  0.9347E-01  0.3785E+01  0.3760E+01
      2.365  0.1336E+00  0.5061E-01  0.3799E+01  0.3766E+01
      2.470  0.1151E+00  0.6843E-01  0.3811E+01  0.3773E+01
      2.576  0.1006E+00  0.1137E+00  0.3822E+01  0.3785E+01
      2.681  0.1147E+00  0.1346E+00  0.3834E+01  0.3799E+01
      2.787  0.1305E+00  0.1305E+00  0.3848E+01  0.3813E+01
      2.892  0.1136E+00  0.1268E+00  0.3860E+01  0.3826E+01
      2.998  0.7723E-01  0.1308E+00  0.3868E+01  0.3840E+01
      3.103  0.5399E-01  0.1261E+00  0.3874E+01  0.3853E+01
      3.209  0.7505E-01  0.1022E+00  0.3882E+01  0.3864E+01
      3.314  0.1157E+00  0.6949E-01  0.3894E+01  0.3872E+01
      3.420  0.1070E+00  0.6000E-01  0.3905E+01  0.3878E+01
      3.525  0.6953E-01  0.8750E-01  0.3912E+01  0.3887E+01
      3.631  0.7017E-01  0.1116E+00  0.3920E+01  0.3899E+01
      3.736  0.1020E+00  0.9112E-01  0.3931E+01  0.3909E+01
      3.842  0.1169E+00  0.7111E-01  0.3943E+01  0.3916E+01
      3.947  0.9607E-01  0.1054E+00  0.3953E+01  0.3927E+01
      4.053  0.7162E-01  0.1338E+00  0.3961E+01  0.3941E+01
      4.158  0.8015E-01  0.1044E+00  0.3969E+01  0.3952E+01
      4.264  0.1100E+00  0.6917E-01  0.3981E+01  0.3960E+01
      4.369  0.1221E+00  0.7676E-01  0.3993E+01  0.3968E+01
      4.475  0.9560E-01  0.1096E+00  0.4004E+01  0.3979E+01
      4.580  0.5799E-01  0.1241E+00  0.4010E+01  0.3992E+01
      4.686  0.5717E-01  0.1005E+00  0.4016E+01  0.4003E+01
      4.791  0.7326E-01  0.6820E-01  0.4023E+01  0.4010E+01
      4.897  0.6815E-01  0.6706E-01  0.4031E+01  0.4017E+01
      5.002  0.6025E-01  0.7480E-01  0.4037E+01  0.4025E+01
      5.108  0.5594E-01  0.6525E-01  0.4043E+01  0.4032E+01
      5.213  0.4986E-01  0.5724E-01  0.4048E+01  0.4038E+01
      5.319  0.5043E-01  0.5359E-01  0.4053E+01  0.4044E+01
      5.424  0.7296E-01  0.5544E-01  0.4061E+01  0.4050E+01
      5.530  0.1102E+00  0.6970E-01  0.4073E+01  0.4057E+01
      5.635  0.1217E+00  0.9126E-01  0.4086E+01  0.4067E+01
      5.741  0.9836E-01  0.1054E+00  0.4096E+01  0.4078E+01
      5.846  0.8045E-01  0.1060E+00  0.4105E+01  0.4089E+01
      5.952  0.8143E-01  0.9948E-01  0.4113E+01  0.4099E+01
      6.057  0.6962E-01  0.9684E-01  0.4120E+01  0.4110E+01
      6.163  0.5408E-01  0.9418E-01  0.4126E+01  0.4119E+01
      6.268  0.6637E-01  0.7431E-01  0.4133E+01  0.4127E+01
      6.374  0.8644E-01  0.5582E-01  0.4142E+01  0.4133E+01
      6.479  0.8837E-01  0.6360E-01  0.4152E+01  0.4140E+01
      6.585  0.8666E-01  0.7093E-01  0.4161E+01  0.4147E+01
      6.690  0.1080E+00  0.7750E-01  0.4172E+01  0.4156E+01
      6.796  0.1536E+00  0.1096E+00  0.4188E+01  0.4167E+01
      6.901  0.1768E+00  0.1409E+00  0.4207E+01  0.4182E+01
      7.007  0.1489E+00  0.1410E+00  0.4223E+01  0.4197E+01
      7.112  0.1089E+00  0.1299E+00  0.4234E+01  0.4211E+01
      7.218  0.1056E+00  0.1330E+00  0.4245E+01  0.4225E+01
      7.323  0.1398E+00  0.1399E+00  0.4260E+01  0.4239E+01
      7.429  0.1624E+00  0.1427E+00  0.4277E+01  0.4254E+01
      7.534  0.1631E+00  0.1512E+00  0.4294E+01  0.4270E+01
      7.640  0.1715E+00  0.1571E+00  0.4313E+01  0.4287E+01
      7.745  0.1684E+00  0.1596E+00  0.4330E+01  0.4304E+01
      7.851  0.1413E+00  0.1808E+00  0.4345E+01  0.4323E+01
      7.956  0.1395E+00  0.1890E+00  0.4360E+01  0.4343E+01
      8.062  0.1844E+00  0.1754E+00  0.4379E+01  0.4361E+01
      8.167  0.2020E+00  0.1741E+00  0.4401E+01  0.4380E+01
      8.273  0.1389E+00  0.1620E+00  0.4415E+01  0.4397E+01
      8.378  0.5534E-01  0.1260E+00  0.4421E+01  0.4410E+01
      8.484  0.1626E-01  0.7802E-01  0.4423E+01  0.4418E+01
      8.589  0.8906E-02  0.3463E-01  0.4424E+01  0.4422E+01
      8.695  0.4526E-02  0.1413E-01  0.4424E+01  0.4423E+01
      8.800  0.3099E-03  0.7047E-02  0.4424E+01  0.4424E+01
      8.906 -0.6769E-03  0.1821E-02  0.4424E+01  0.4424E+01
      9.011 -0.2803E-03 -0.5816E-03  0.4424E+01  0.4424E+01
      9.117 -0.4755E-04 -0.4902E-03  0.4424E+01  0.4424E+01
      9.222 -0.4066E-05 -0.1201E-03  0.4424E+01  0.4424E+01
      9.328 -0.1862E-06 -0.1400E-04  0.4424E+01  0.4424E+01
      9.433 -0.4685E-08 -0.8554E-06  0.4424E+01  0.4424E+01
      9.539 -0.6569E-10 -0.2845E-07  0.4424E+01  0.4424E+01
      9.644 -0.5174E-12 -0.5243E-09  0.4424E+01  0.4424E+01
      9.750 -0.2301E-14 -0.5410E-11  0.4424E+01  0.4424E+01
      9.855 -0.4724E-17 -0.3145E-13  0.4424E+01  0.4424E+01
      9.961  0.0000E+00 -0.1016E-15  0.4424E+01  0.4424E+01
     10.066  0.0000E+00  0.0000E+00  0.4424E+01  0.4424E+01
     10.172  0.0000E+00  0.0000E+00  0.4424E+01  0.4424E+01
     10.277  0.0000E+00  0.0000E+00  0.4424E+01  0.4424E+01
     10.383  0.0000E+00  0.0000E+00  0.4424E+01  0.4424E+01
     10.489  0.0000E+00  0.0000E+00  0.4424E+01  0.4424E+01
     10.594  0.0000E+00  0.0000E+00  0.4424E+01  0.4424E+01
     10.700  0.0000E+00  0.0000E+00  0.4424E+01  0.4424E+01
     10.69951340    -20.95149634  301      0.44116404      1.00000000
    -20.951  0.0000E+00  0.0000E+00  0.0000E+00  0.0000E+00  0.0000E+00  0.0000E+00
    -20.846  0.0000E+00  0.0000E+00  0.0000E+00  0.0000E+00  0.0000E+00  0.0000E+00
    -20.740  0.0000E+00  0.0000E+00  0.0000E+00  0.0000E+00  0.0000E+00  0.0000E+00
    -20.635 -0.4186E-40  0.0000E+00 -0.4900E-40  0.0000E+00 -0.8046E-41  0.0000E+00
    -20.529 -0.2147E-36 -0.4119E-38 -0.2515E-36 -0.5328E-38 -0.4131E-37 -0.7837E-39
    -20.424 -0.6283E-33 -0.1555E-34 -0.7365E-33 -0.2012E-34 -0.1211E-33 -0.2961E-35
    -20.318 -0.1048E-29 -0.3348E-31 -0.1230E-29 -0.4335E-31 -0.2023E-30 -0.6381E-32
    -20.213 -0.9966E-27 -0.4109E-28 -0.1170E-26 -0.5323E-28 -0.1925E-27 -0.7837E-29
    -20.107 -0.5236E-24 -0.2871E-25 -0.6150E-24 -0.3721E-25 -0.1014E-24 -0.5480E-26
    -20.002 -0.1597E-21 -0.1103E-22 -0.1878E-21 -0.1431E-22 -0.3093E-22 -0.2108E-23
    -19.896 -0.2758E-19 -0.2468E-20 -0.3246E-19 -0.3203E-20 -0.5347E-20 -0.4719E-21
    -19.791 -0.2681E-17 -0.3116E-18 -0.3158E-17 -0.4046E-18 -0.5205E-18 -0.5963E-19
    -19.685 -0.1457E-15 -0.2207E-16 -0.1718E-15 -0.2867E-16 -0.2833E-16 -0.4227E-17
    -19.580 -0.4375E-14 -0.8687E-15 -0.5160E-14 -0.1129E-14 -0.8516E-15 -0.1665E-15
    -19.474 -0.7097E-13 -0.1868E-13 -0.8373E-13 -0.2430E-13 -0.1383E-13 -0.3585E-14
    -19.369 -0.5937E-12 -0.2120E-12 -0.6995E-12 -0.2759E-12 -0.1160E-12 -0.4072E-13
    -19.263 -0.2252E-11 -0.1162E-11 -0.2625E-11 -0.1512E-11 -0.4422E-12 -0.2235E-12
    -19.158 -0.1712E-11 -0.2105E-11 -0.1644E-11 -0.2708E-11 -0.3559E-12 -0.4066E-12
    -19.052  0.1113E-10  0.4826E-11  0.1493E-10  0.6717E-11  0.2076E-11  0.9151E-12
    -18.947  0.3531E-10  0.2313E-10  0.4360E-10  0.3268E-10  0.6733E-11  0.4384E-11
    -18.841  0.7568E-10  0.3058E-10  0.7759E-10  0.4501E-10  0.1520E-10  0.5726E-11
    -18.736  0.1601E-09  0.4551E-10  0.1489E-09  0.4871E-10  0.3365E-10  0.8913E-11
    -18.630  0.2156E-09  0.1374E-09  0.2092E-09  0.1144E-09  0.4632E-10  0.2808E-10
    -18.525  0.1461E-09  0.2306E-09  0.1557E-09  0.1950E-09  0.3198E-10  0.4785E-10
    -18.419  0.3777E-10  0.1929E-09  0.4774E-10  0.1803E-09  0.8539E-11  0.4084E-10
    -18.314 -0.6557E-11  0.8870E-10 -0.4520E-11  0.1020E-09 -0.1344E-11  0.1947E-10
    -18.208 -0.6338E-11  0.2026E-10 -0.7013E-11  0.3228E-10 -0.1394E-11  0.4723E-11
    -18.103 -0.1549E-11 -0.3233E-11 -0.1885E-11 -0.1070E-11 -0.3465E-12 -0.6304E-12
    -17.997 -0.1836E-12 -0.4104E-11 -0.2364E-12 -0.4866E-11 -0.4152E-13 -0.9025E-12
    -17.892 -0.1170E-13 -0.1225E-11 -0.1565E-13 -0.1585E-11 -0.2663E-14 -0.2729E-12
    -17.786 -0.4132E-15 -0.1716E-12 -0.5686E-15 -0.2276E-12 -0.9461E-16 -0.3836E-13
    -17.681 -0.8208E-17 -0.1252E-13 -0.1154E-16 -0.1675E-13 -0.1887E-17 -0.2801E-14
    -17.575 -0.9228E-19 -0.4944E-15 -0.1318E-18 -0.6637E-15 -0.2128E-19 -0.1107E-15
    -17.470 -0.5892E-21 -0.1078E-16 -0.8525E-21 -0.1449E-16 -0.1362E-21 -0.2414E-17
    -17.364 -0.2136E-23 -0.1313E-18 -0.3127E-23 -0.1766E-18 -0.4949E-24 -0.2940E-19
    -17.259  0.0000E+00 -0.9000E-21  0.0000E+00 -0.1210E-20  0.0000E+00 -0.2015E-21
    -17.153  0.0000E+00 -0.3492E-23  0.0000E+00 -0.4693E-23  0.0000E+00 -0.7812E-24
    -17.048  0.0000E+00  0.0000E+00  0.0000E+00  0.0000E+00  0.0000E+00  0.0000E+00
    -16.942  0.0000E+00  0.0000E+00  0.0000E+00  0.0000E+00  0.0000E+00  0.0000E+00
    -16.837  0.0000E+00  0.0000E+00  0.0000E+00  0.0000E+00  0.0000E+00  0.0000E+00
    -16.731  0.0000E+00  0.0000E+00  0.0000E+00  0.0000E+00  0.0000E+00  0.0000E+00
    -16.626  0.0000E+00  0.0000E+00  0.0000E+00  0.0000E+00  0.0000E+00  0.0000E+00
    -16.520  0.0000E+00  0.0000E+00  0.0000E+00  0.0000E+00  0.0000E+00  0.0000E+00
    -16.415  0.0000E+00  0.0000E+00  0.0000E+00  0.0000E+00  0.0000E+00  0.0000E+00
    -16.309  0.0000E+00  0.0000E+00  0.0000E+00  0.0000E+00  0.0000E+00  0.0000E+00
    -16.204  0.0000E+00  0.0000E+00  0.0000E+00  0.0000E+00  0.0000E+00  0.0000E+00
    -16.098  0.0000E+00  0.0000E+00  0.0000E+00  0.0000E+00  0.0000E+00  0.0000E+00
    -15.993  0.0000E+00  0.0000E+00  0.0000E+00  0.0000E+00  0.0000E+00  0.0000E+00
    -15.887  0.0000E+00  0.0000E+00  0.0000E+00  0.0000E+00  0.0000E+00  0.0000E+00
    -15.782  0.0000E+00  0.0000E+00  0.0000E+00  0.0000E+00  0.0000E+00  0.0000E+00
    -15.676  0.0000E+00  0.0000E+00  0.0000E+00  0.0000E+00  0.0000E+00  0.0000E+00
    -15.571  0.0000E+00  0.0000E+00  0.0000E+00  0.0000E+00  0.0000E+00  0.0000E+00
    -15.465  0.0000E+00  0.0000E+00  0.0000E+00  0.0000E+00  0.0000E+00  0.0000E+00
    -15.360  0.0000E+00  0.0000E+00  0.0000E+00  0.0000E+00  0.0000E+00  0.0000E+00
    -15.254  0.0000E+00  0.0000E+00  0.0000E+00  0.0000E+00  0.0000E+00  0.0000E+00
    -15.149  0.0000E+00  0.0000E+00  0.0000E+00  0.0000E+00  0.0000E+00  0.0000E+00
    -15.043  0.0000E+00  0.0000E+00  0.0000E+00  0.0000E+00  0.0000E+00  0.0000E+00
    -14.938  0.0000E+00  0.0000E+00  0.0000E+00  0.0000E+00  0.0000E+00  0.0000E+00
    -14.832  0.0000E+00  0.0000E+00  0.0000E+00  0.0000E+00  0.0000E+00  0.0000E+00
    -14.727  0.0000E+00  0.0000E+00  0.0000E+00  0.0000E+00  0.0000E+00  0.0000E+00
    -14.621  0.0000E+00  0.0000E+00  0.0000E+00  0.0000E+00  0.0000E+00  0.0000E+00
    -14.516  0.0000E+00  0.0000E+00  0.0000E+00  0.0000E+00  0.0000E+00  0.0000E+00
    -14.410  0.0000E+00  0.0000E+00  0.0000E+00  0.0000E+00  0.0000E+00  0.0000E+00
    -14.305  0.0000E+00  0.0000E+00  0.0000E+00  0.0000E+00  0.0000E+00  0.0000E+00
    -14.199  0.0000E+00  0.0000E+00  0.0000E+00  0.0000E+00  0.0000E+00  0.0000E+00
    -14.094  0.0000E+00  0.0000E+00  0.0000E+00  0.0000E+00  0.0000E+00  0.0000E+00
    -13.988  0.0000E+00  0.0000E+00  0.0000E+00  0.0000E+00  0.0000E+00  0.0000E+00
    -13.883  0.0000E+00  0.0000E+00  0.0000E+00  0.0000E+00  0.0000E+00  0.0000E+00
    -13.777  0.0000E+00  0.0000E+00  0.0000E+00  0.0000E+00  0.0000E+00  0.0000E+00
    -13.672  0.0000E+00  0.0000E+00  0.0000E+00  0.0000E+00  0.0000E+00  0.0000E+00
    -13.566  0.0000E+00  0.0000E+00  0.0000E+00  0.0000E+00  0.0000E+00  0.0000E+00
    -13.461  0.0000E+00  0.0000E+00  0.0000E+00  0.0000E+00  0.0000E+00  0.0000E+00
    -13.355  0.0000E+00  0.0000E+00  0.0000E+00  0.0000E+00  0.0000E+00  0.0000E+00
    -13.250  0.0000E+00  0.0000E+00  0.0000E+00  0.0000E+00  0.0000E+00  0.0000E+00
    -13.144  0.0000E+00  0.0000E+00  0.0000E+00  0.0000E+00  0.0000E+00  0.0000E+00
    -13.039  0.0000E+00  0.0000E+00  0.0000E+00  0.0000E+00  0.0000E+00  0.0000E+00
    -12.933  0.0000E+00  0.0000E+00  0.0000E+00  0.0000E+00  0.0000E+00  0.0000E+00
    -12.828  0.0000E+00  0.0000E+00  0.0000E+00  0.0000E+00  0.0000E+00  0.0000E+00
    -12.722  0.0000E+00  0.0000E+00  0.0000E+00  0.0000E+00  0.0000E+00  0.0000E+00
    -12.617  0.0000E+00  0.0000E+00  0.0000E+00  0.0000E+00  0.0000E+00  0.0000E+00
    -12.511  0.0000E+00  0.0000E+00  0.0000E+00  0.0000E+00  0.0000E+00  0.0000E+00
    -12.406  0.0000E+00  0.0000E+00  0.0000E+00  0.0000E+00  0.0000E+00  0.0000E+00
    -12.300  0.0000E+00  0.0000E+00  0.0000E+00  0.0000E+00  0.0000E+00  0.0000E+00
    -12.195  0.0000E+00  0.0000E+00  0.0000E+00  0.0000E+00  0.0000E+00  0.0000E+00
    -12.089  0.0000E+00  0.0000E+00  0.0000E+00  0.0000E+00  0.0000E+00  0.0000E+00
    -11.984  0.0000E+00  0.0000E+00  0.0000E+00  0.0000E+00  0.0000E+00  0.0000E+00
    -11.878  0.0000E+00  0.0000E+00  0.0000E+00  0.0000E+00  0.0000E+00  0.0000E+00
    -11.773  0.0000E+00  0.0000E+00  0.0000E+00  0.0000E+00  0.0000E+00  0.0000E+00
    -11.667  0.0000E+00  0.0000E+00  0.0000E+00  0.0000E+00  0.0000E+00  0.0000E+00
    -11.562  0.0000E+00  0.0000E+00  0.0000E+00  0.0000E+00  0.0000E+00  0.0000E+00
    -11.456  0.0000E+00  0.0000E+00  0.0000E+00  0.0000E+00  0.0000E+00  0.0000E+00
    -11.351  0.0000E+00  0.0000E+00  0.0000E+00  0.0000E+00  0.0000E+00  0.0000E+00
    -11.245  0.0000E+00  0.0000E+00  0.0000E+00  0.0000E+00  0.0000E+00  0.0000E+00
    -11.140  0.0000E+00  0.0000E+00  0.0000E+00  0.0000E+00  0.0000E+00  0.0000E+00
    -11.034  0.0000E+00  0.0000E+00  0.0000E+00  0.0000E+00  0.0000E+00  0.0000E+00
    -10.929  0.0000E+00  0.0000E+00  0.0000E+00  0.0000E+00  0.0000E+00  0.0000E+00
    -10.823  0.0000E+00  0.0000E+00  0.0000E+00  0.0000E+00  0.0000E+00  0.0000E+00
    -10.718  0.0000E+00  0.0000E+00  0.0000E+00  0.0000E+00  0.0000E+00  0.0000E+00
    -10.612  0.0000E+00  0.0000E+00  0.0000E+00  0.0000E+00  0.0000E+00  0.0000E+00
    -10.507  0.0000E+00  0.0000E+00  0.0000E+00  0.0000E+00  0.0000E+00  0.0000E+00
    -10.401  0.0000E+00  0.0000E+00  0.0000E+00  0.0000E+00  0.0000E+00  0.0000E+00
    -10.296  0.0000E+00  0.0000E+00  0.0000E+00  0.0000E+00  0.0000E+00  0.0000E+00
    -10.190  0.0000E+00  0.0000E+00  0.0000E+00  0.0000E+00  0.0000E+00  0.0000E+00
    -10.085  0.0000E+00  0.0000E+00  0.0000E+00  0.0000E+00  0.0000E+00  0.0000E+00
     -9.979  0.0000E+00  0.0000E+00  0.0000E+00  0.0000E+00  0.0000E+00  0.0000E+00
     -9.874  0.0000E+00  0.0000E+00  0.0000E+00  0.0000E+00  0.0000E+00  0.0000E+00
     -9.768 -0.1609E-32 -0.1456E-31 -0.2071E-33 -0.1874E-32 -0.1623E-36 -0.2348E-35
     -9.663 -0.8328E-29 -0.6553E-28 -0.1072E-29 -0.8436E-29 -0.8400E-33 -0.1057E-31
     -9.557 -0.2460E-25 -0.1683E-24 -0.3166E-26 -0.2167E-25 -0.2481E-29 -0.2714E-28
     -9.452 -0.4142E-22 -0.2464E-21 -0.5331E-23 -0.3172E-22 -0.4178E-26 -0.3974E-25
     -9.346 -0.3974E-19 -0.2055E-18 -0.5114E-20 -0.2645E-19 -0.4008E-23 -0.3314E-22
     -9.241 -0.2113E-16 -0.9434E-16 -0.2720E-17 -0.1215E-16 -0.2132E-20 -0.1522E-19
     -9.135 -0.6488E-14 -0.2527E-13 -0.8350E-15 -0.3253E-14 -0.6549E-18 -0.4078E-17
     -9.030 -0.1131E-11 -0.3820E-11 -0.1455E-12 -0.4918E-12 -0.1143E-15 -0.6172E-15
     -8.924 -0.1110E-09 -0.3246E-09 -0.1428E-10 -0.4180E-10 -0.1130E-13 -0.5271E-13
     -8.819 -0.6089E-08 -0.1539E-07 -0.7837E-09 -0.1982E-08 -0.6341E-12 -0.2541E-11
     -8.713 -0.1847E-06 -0.4018E-06 -0.2378E-07 -0.5176E-07 -0.2079E-10 -0.7031E-10
     -8.608 -0.3035E-05 -0.5638E-05 -0.3910E-06 -0.7270E-06 -0.4371E-09 -0.1199E-08
     -8.502 -0.2592E-04 -0.4044E-04 -0.3352E-05 -0.5242E-05 -0.7015E-08 -0.1495E-07
     -8.397 -0.1043E-03 -0.1302E-03 -0.1372E-04 -0.1732E-04 -0.9075E-07 -0.1528E-06
     -8.291 -0.1307E-03 -0.8405E-04 -0.1965E-04 -0.1529E-04 -0.7726E-06 -0.1066E-05
     -8.186  0.2867E-03  0.5104E-03  0.2461E-04  0.5038E-04 -0.3269E-05 -0.3524E-05
     -8.080  0.1540E-02  0.2144E-02  0.1875E-03  0.2760E-03 -0.2718E-05  0.3210E-06
     -7.975  0.5067E-02  0.6568E-02  0.7361E-03  0.9752E-03  0.2299E-04  0.3149E-04
     -7.869  0.1084E-01  0.1206E-01  0.1662E-02  0.1858E-02  0.7231E-04  0.7311E-04
     -7.764  0.1132E-01  0.1032E-01  0.1743E-02  0.1583E-02  0.7546E-04  0.5915E-04
     -7.658  0.4652E-02  0.3243E-02  0.6928E-03  0.4780E-03  0.2131E-04  0.1149E-04
     -7.553  0.1800E-02  0.2425E-02  0.3441E-03  0.4940E-03  0.3715E-04  0.5386E-04
     -7.447  0.6854E-02  0.8473E-02  0.1440E-02  0.1785E-02  0.1959E-03  0.2120E-03
     -7.342  0.1190E-01  0.1267E-01  0.2584E-02  0.2781E-02  0.3846E-03  0.3676E-03
     -7.236  0.1287E-01  0.1299E-01  0.2975E-02  0.3043E-02  0.5160E-03  0.4662E-03
     -7.131  0.1084E-01  0.1032E-01  0.2621E-02  0.2510E-02  0.5004E-03  0.4141E-03
     -7.025  0.5080E-02  0.4057E-02  0.1268E-02  0.1021E-02  0.2391E-03  0.1616E-03
     -6.920 -0.4894E-03 -0.1025E-02 -0.7471E-04 -0.2114E-03 -0.5556E-04 -0.7350E-04
     -6.814 -0.1285E-02 -0.1082E-02 -0.3561E-03 -0.3257E-03 -0.9952E-04 -0.7266E-04
     -6.709  0.6356E-02  0.7566E-02  0.1277E-02  0.1576E-02  0.5382E-03  0.5498E-03
     -6.603  0.2486E-01  0.2709E-01  0.4909E-02  0.5429E-02  0.1930E-02  0.1796E-02
     -6.498  0.4135E-01  0.4326E-01  0.6802E-02  0.7090E-02  0.2636E-02  0.2332E-02