       N       E                     dE             d eps       ncg     rms          rms(c)
DAV:   1    -0.350638058988E+03   -0.35064E+03   -0.15704E+03  9606   0.466E+01    0.694E+00
RMM:   2    -0.368946179549E+03   -0.18308E+02   -0.14465E+02  8833   0.221E+01    0.369E+01
RMM:   3    -0.367638178469E+03    0.13080E+01   -0.62559E+00  8842   0.472E+00    0.326E+01
RMM:   4    -0.365664102691E+03    0.19741E+01   -0.19382E+00  8911   0.324E+00    0.173E+01
RMM:   5    -0.364669697532E+03    0.99441E+00   -0.87638E-01  8842   0.237E+00    0.576E+00
RMM:   6    -0.364826026181E+03   -0.15633E+00   -0.24621E-01  8857   0.117E+00    0.951E+00
RMM:   7    -0.364618590862E+03    0.20744E+00   -0.11754E-01  8843   0.876E-01    0.414E+00
RMM:   8    -0.364615590996E+03    0.29999E-02   -0.20321E-02  8863   0.326E-01    0.433E+00
RMM:   9    -0.364605101716E+03    0.10489E-01   -0.87187E-03  8846   0.213E-01    0.441E+00
RMM:  10    -0.364590587500E+03    0.14514E-01   -0.51062E-03  8855   0.169E-01    0.420E+00
RMM:  11    -0.364505985253E+03    0.84602E-01   -0.13674E-02  8819   0.251E-01    0.301E+00
RMM:  12    -0.364431990039E+03    0.73995E-01   -0.10395E-02  8819   0.239E-01    0.145E+00
RMM:  13    -0.364390832421E+03    0.41158E-01   -0.81436E-03  8837   0.213E-01    0.152E+00
RMM:  14    -0.364368249975E+03    0.22582E-01   -0.44905E-03  8834   0.169E-01    0.884E-01
RMM:  15    -0.364367517874E+03    0.73210E-03   -0.19707E-03  8811   0.109E-01    0.829E-01
RMM:  16    -0.364373387865E+03   -0.58700E-02   -0.28734E-03  8818   0.122E-01    0.116E+00
RMM:  17    -0.364376416378E+03   -0.30285E-02   -0.21602E-03  8813   0.113E-01    0.827E-01
RMM:  18    -0.364389717926E+03   -0.13302E-01   -0.92872E-04  8794   0.710E-02    0.859E-01
RMM:  19    -0.364417985920E+03   -0.28268E-01   -0.80860E-04  8787   0.609E-02    0.687E-01
RMM:  20    -0.364432640591E+03   -0.14655E-01   -0.43014E-04  8766   0.473E-02    0.491E-01
RMM:  21    -0.364469564537E+03   -0.36924E-01   -0.69765E-04  8780   0.489E-02    0.450E-01
RMM:  22    -0.364538207242E+03   -0.68643E-01   -0.17796E-03  8784   0.578E-02    0.191E-01
RMM:  23    -0.364565308657E+03   -0.27101E-01   -0.69730E-04  8770   0.453E-02    0.308E-01
RMM:  24    -0.364608219709E+03   -0.42911E-01   -0.16760E-03  8781   0.487E-02    0.237E-01
RMM:  25    -0.364615206644E+03   -0.69869E-02   -0.26061E-04  8706   0.293E-02    0.230E-01
RMM:  26    -0.364627680648E+03   -0.12474E-01   -0.50852E-04  8731   0.319E-02    0.201E-01
RMM:  27    -0.364631910784E+03   -0.42301E-02   -0.19215E-04  8659   0.261E-02    0.968E-02
RMM:  28    -0.364638280608E+03   -0.63698E-02   -0.31573E-04  8712   0.266E-02    0.154E-01
RMM:  29    -0.364641574132E+03   -0.32935E-02   -0.15841E-04  8487   0.212E-02    0.749E-02
RMM:  30    -0.364642328893E+03   -0.75476E-03   -0.28599E-05  5774   0.110E-02    0.653E-02
RMM:  31    -0.364644014830E+03   -0.16859E-02   -0.72688E-05  7081   0.130E-02    0.723E-02
RMM:  32    -0.364644414611E+03   -0.39978E-03   -0.30141E-05  5754   0.105E-02    0.499E-02
RMM:  33    -0.364644540320E+03   -0.12571E-03   -0.12703E-05  5258   0.707E-03    0.620E-02
RMM:  34    -0.364644661604E+03   -0.12128E-03   -0.21803E-05  5559   0.786E-03    0.878E-02
RMM:  35    -0.364644658688E+03    0.29162E-05   -0.46925E-06  5062   0.503E-03
   1 F= -.38270228E+03 E0= -.38267809E+03  d E =-.382702E+03  mag=    40.5298
       N       E                     dE             d eps       ncg     rms          rms(c)
DAV:   1    -0.364642302489E+03    0.23591E-02   -0.79001E-01  9066   0.137E+00    0.268E-01
RMM:   2    -0.364664468221E+03   -0.22166E-01   -0.29255E-02  8994   0.339E-01    0.280E+00
RMM:   3    -0.364644867564E+03    0.19601E-01   -0.23755E-03  8839   0.116E-01    0.433E-01
RMM:   4    -0.364646070224E+03   -0.12027E-02   -0.18482E-03  8838   0.104E-01    0.754E-01
RMM:   5    -0.364645369810E+03    0.70041E-03   -0.99153E-04  8801   0.804E-02    0.564E-01
RMM:   6    -0.364644774783E+03    0.59503E-03   -0.63950E-04  8736   0.636E-02    0.302E-01
RMM:   7    -0.364645273470E+03   -0.49869E-03   -0.63782E-04  8782   0.601E-02    0.543E-01
RMM:   8    -0.364644424809E+03    0.84866E-03   -0.53841E-04  8740   0.590E-02    0.187E-01
RMM:   9    -0.364644405530E+03    0.19279E-04   -0.21755E-04  8724   0.360E-02    0.168E-01
RMM:  10    -0.364644348341E+03    0.57189E-04   -0.96027E-05  8623   0.244E-02    0.110E-01
RMM:  11    -0.364644327937E+03    0.20404E-04   -0.34033E-05  6463   0.152E-02    0.482E-02
RMM:  12    -0.364644382022E+03   -0.54086E-04   -0.10862E-05  4967   0.850E-03    0.473E-02
RMM:  13    -0.364644411314E+03   -0.29292E-04   -0.68198E-06  4867   0.743E-03    0.221E-02
RMM:  14    -0.364644452193E+03   -0.40878E-04   -0.29755E-06  4841   0.438E-03    0.283E-02
RMM:  15    -0.364644567536E+03   -0.11534E-03   -0.39114E-06  5038   0.459E-03    0.216E-02
RMM:  16    -0.364644614108E+03   -0.46572E-04   -0.20248E-06  4873   0.375E-03    0.100E-02
RMM:  17    -0.364644670802E+03   -0.56694E-04   -0.10487E-06  4872   0.227E-03    0.156E-02
RMM:  18    -0.364644741057E+03   -0.70256E-04   -0.11387E-06  4959   0.219E-03    0.105E-02
RMM:  19    -0.364644777615E+03   -0.36557E-04   -0.57099E-07  4220   0.151E-03    0.122E-02
RMM:  20    -0.364644882533E+03   -0.10492E-03   -0.15305E-06  4876   0.178E-03    0.106E-02
RMM:  21    -0.364644935188E+03   -0.52655E-04   -0.73560E-07  4611   0.166E-03    0.112E-02
RMM:  22    -0.364645010401E+03   -0.75213E-04   -0.12153E-06  4812   0.167E-03    0.162E-02
RMM:  23    -0.364645111997E+03   -0.10160E-03   -0.30558E-06  4972   0.204E-03    0.191E-02
RMM:  24    -0.364645131391E+03   -0.19395E-04   -0.46986E-07  3122   0.118E-03    0.142E-02
RMM:  25    -0.364645152539E+03   -0.21147E-04   -0.58924E-07  3264   0.120E-03    0.388E-03
RMM:  26    -0.364645158780E+03   -0.62412E-05   -0.14793E-07  2020   0.999E-04
   2 F= -.38270475E+03 E0= -.38268100E+03  d E =-.246916E-02  mag=    40.5567
