 vasp.5.4.4.18Apr17-6-g9f103f2a35 (build Dec 15 2018 21:27:11) complex          
  
 executed on             LinuxIFC date 2022.03.01  00:50:07
 running on   72 total cores
 distrk:  each k-point on   72 cores,    1 groups
 distr:  one band on NCORES_PER_BAND=  24 cores,    3 groups


--------------------------------------------------------------------------------------------------------


 INCAR:
 POTCAR:    PAW_PBE Ni 02Aug2007                  
 POTCAR:    PAW_PBE O 08Apr2002                   

 ----------------------------------------------------------------------------- 
|                                                                             |
|           W    W    AA    RRRRR   N    N  II  N    N   GGGG   !!!           |
|           W    W   A  A   R    R  NN   N  II  NN   N  G    G  !!!           |
|           W    W  A    A  R    R  N N  N  II  N N  N  G       !!!           |
|           W WW W  AAAAAA  RRRRR   N  N N  II  N  N N  G  GGG   !            |
|           WW  WW  A    A  R   R   N   NN  II  N   NN  G    G                |
|           W    W  A    A  R    R  N    N  II  N    N   GGGG   !!!           |
|                                                                             |
|      For optimal performance we recommend to set                            |
|        NCORE= 4 - approx SQRT( number of cores)                             |
|      NCORE specifies how many cores store one orbital (NPAR=cpu/NCORE).     |
|      This setting can  greatly improve the performance of VASP for DFT.     |
|      The default,   NCORE=1            might be grossly inefficient         |
|      on modern multi-core architectures or massively parallel machines.     |
|      Do your own testing !!!!                                               |
|      Unfortunately you need to use the default for GW and RPA calculations. |
|      (for HF NCORE is supported but not extensively tested yet)             |
|                                                                             |
 ----------------------------------------------------------------------------- 

 POTCAR:    PAW_PBE Ni 02Aug2007                  
   VRHFIN =Ni:                                                                  
   LEXCH  = PE                                                                  
   EATOM  =  1077.6739 eV,   79.2068 Ry                                         
                                                                                
   TITEL  = PAW_PBE Ni 02Aug2007                                                
   LULTRA =        F    use ultrasoft PP ?                                      
   IUNSCR =        1    unscreen: 0-lin 1-nonlin 2-no                           
   RPACOR =    2.000    partial core radius                                     
   POMASS =   58.690; ZVAL   =   10.000    mass and valenz                      
   RCORE  =    2.300    outmost cutoff radius                                   
   RWIGS  =    2.430; RWIGS  =    1.286    wigner-seitz radius (au A)           
   ENMAX  =  269.532; ENMIN  =  202.149 eV                                      
   RCLOC  =    1.201    cutoff for local pot                                    
   LCOR   =        T    correct aug charges                                     
   LPAW   =        T    paw PP                                                  
   EAUG   =  544.565                                                            
   DEXC   =    0.000                                                            
   RMAX   =    2.357    core radius for proj-oper                               
   RAUG   =    1.300    factor for augmentation sphere                          
   RDEP   =    2.390    radius for radial grids                                 
   RDEPT  =    1.838    core radius for aug-charge                              
                                                                                
   Atomic configuration                                                         
    9 entries                                                                   
     n  l   j            E        occ.                                          
     1  0  0.50     -8206.4253   2.0000                                         
     2  0  0.50      -976.1748   2.0000                                         
     2  1  1.50      -839.0571   6.0000                                         
     3  0  0.50      -105.9991   2.0000                                         
     3  1  1.50       -66.4603   6.0000                                         
     3  2  2.50        -4.6458   9.0000                                         
     4  0  0.50        -4.4926   1.0000                                         
     4  1  1.50        -4.0817   0.0000                                         
     4  3  2.50        -1.3606   0.0000                                         
   Description                                                                  
     l       E           TYP  RCUT    TYP  RCUT                                 
     2     -4.6457903     23  2.300                                             
     2     -6.0063729     23  2.300                                             
     0     -4.4925590     23  2.300                                             
     0      5.0102601     23  2.300                                             
     1     -2.7211652     23  2.300                                             
     1     16.5183231     23  2.300                                             
  local pseudopotential read in
  partial core-charges read in
  partial kinetic energy density read in
  atomic valenz-charges read in
  non local Contribution for L=           2  read in
    real space projection operators read in
  non local Contribution for L=           2  read in
    real space projection operators read in
  non local Contribution for L=           0  read in
    real space projection operators read in
  non local Contribution for L=           0  read in
    real space projection operators read in
  non local Contribution for L=           1  read in
    real space projection operators read in
  non local Contribution for L=           1  read in
    real space projection operators read in
    PAW grid and wavefunctions read in
 
   number of l-projection  operators is LMAX  =           6
   number of lm-projection operators is LMMAX =          18
 
 POTCAR:    PAW_PBE O 08Apr2002                   
   VRHFIN =O: s2p4                                                              
   LEXCH  = PE                                                                  
   EATOM  =   432.3788 eV,   31.7789 Ry                                         
                                                                                
   TITEL  = PAW_PBE O 08Apr2002                                                 
   LULTRA =        F    use ultrasoft PP ?                                      
   IUNSCR =        1    unscreen: 0-lin 1-nonlin 2-no                           
   RPACOR =    1.200    partial core radius                                     
   POMASS =   16.000; ZVAL   =    6.000    mass and valenz                      
   RCORE  =    1.520    outmost cutoff radius                                   
   RWIGS  =    1.550; RWIGS  =    0.820    wigner-seitz radius (au A)           
   ENMAX  =  400.000; ENMIN  =  300.000 eV                                      
   ICORE  =        2    local potential                                         
   LCOR   =        T    correct aug charges                                     
   LPAW   =        T    paw PP                                                  
   EAUG   =  605.392                                                            
   DEXC   =    0.000                                                            
   RMAX   =    1.553    core radius for proj-oper                               
   RAUG   =    1.300    factor for augmentation sphere                          
   RDEP   =    1.550    radius for radial grids                                 
   RDEPT  =    1.329    core radius for aug-charge                              
                                                                                
   Atomic configuration                                                         
    4 entries                                                                   
     n  l   j            E        occ.                                          
     1  0  0.50      -514.6923   2.0000                                         
     2  0  0.50       -23.9615   2.0000                                         
     2  1  0.50        -9.0305   4.0000                                         
     3  2  1.50        -9.5241   0.0000                                         
   Description                                                                  
     l       E           TYP  RCUT    TYP  RCUT                                 
     0    -23.9615318     23  1.200                                             
     0     -9.5240782     23  1.200                                             
     1     -9.0304911     23  1.520                                             
     1      8.1634956     23  1.520                                             
     2     -9.5240782      7  1.500                                             
  local pseudopotential read in
  partial core-charges read in
  partial kinetic energy density read in
  kinetic energy density of atom read in
  atomic valenz-charges read in
  non local Contribution for L=           0  read in
    real space projection operators read in
  non local Contribution for L=           0  read in
    real space projection operators read in
  non local Contribution for L=           1  read in
    real space projection operators read in
  non local Contribution for L=           1  read in
    real space projection operators read in
    PAW grid and wavefunctions read in
 
   number of l-projection  operators is LMAX  =           4
   number of lm-projection operators is LMMAX =           8
 
 Optimization of the real space projectors (new method)

 maximal supplied QI-value         = 16.25
 optimisation between [QCUT,QGAM] = [ 11.54, 23.24] = [ 37.28,151.24] Ry 
 Optimized for a Real-space Cutoff    1.45 Angstroem

   l    n(q)    QCUT    max X(q) W(low)/X(q) W(high)/X(q)  e(spline) 
   2      9    11.539    60.317    0.19E-03    0.47E-04    0.16E-06
   2      9    11.539    55.921    0.19E-03    0.48E-04    0.16E-06
   0     10    11.539    51.690    0.80E-04    0.50E-04    0.24E-06
   0     10    11.539    30.015    0.73E-04    0.45E-04    0.22E-06
   1     10    11.539    18.849    0.87E-04    0.16E-03    0.71E-07
   1     10    11.539    14.624    0.73E-04    0.13E-03    0.64E-07
 Optimization of the real space projectors (new method)

 maximal supplied QI-value         = 24.76
 optimisation between [QCUT,QGAM] = [ 11.64, 23.27] = [ 37.91,151.63] Ry 
 Optimized for a Real-space Cutoff    1.14 Angstroem

   l    n(q)    QCUT    max X(q) W(low)/X(q) W(high)/X(q)  e(spline) 
   0      8    11.635    20.381    0.10E-03    0.33E-03    0.24E-06
   0      8    11.635    15.268    0.11E-03    0.35E-03    0.26E-06
   1      7    11.635     5.964    0.24E-03    0.31E-03    0.30E-06
   1      7    11.635     5.382    0.22E-03    0.25E-03    0.26E-06
  PAW_PBE Ni 02Aug2007                  :
 energy of atom  1       EATOM=-1077.6739
 kinetic energy error for atom=    0.0030 (will be added to EATOM!!)
  PAW_PBE O 08Apr2002                   :
 energy of atom  2       EATOM= -432.3788
 kinetic energy error for atom=    0.0208 (will be added to EATOM!!)
 
 
 POSCAR: POSCAR                                  
  positions in direct lattice
  velocities in cartesian coordinates
 exchange correlation table for  LEXCH =        8
   RHO(1)=    0.500       N(1)  =     2000
   RHO(2)=  100.500       N(2)  =     4000

 VTST: version 3.2, (02/03/18)

 CHAIN: initializing optimizer
 
 OPT: Using VASP Conjugate-Gradient optimizer
 CHAIN: Read ICHAIN            0
 
 POSCAR: POSCAR                                  
  positions in direct lattice
  velocities in cartesian coordinates
 


--------------------------------------------------------------------------------------------------------


 ion  position               nearest neighbor table
   1  0.113  0.226  0.095-  15 2.49  19 2.49   3 2.49   5 2.49  13 2.49  17 2.49  21 2.49  49 2.49
                            61 2.49
   2  0.109  0.227  0.382-  65 1.82  14 2.40  18 2.44  20 2.45  62 2.48  22 2.51  24 2.51   4 2.51
                             6 2.52  50 2.56
   3  0.196  0.142  0.191-   4 2.44   8 2.45  24 2.45   5 2.49  49 2.49   1 2.49   7 2.49  15 2.49
                            19 2.49  23 2.49  51 2.49  63 2.49
   4  0.030  0.059  0.285-  62 2.42   3 2.44  15 2.44  63 2.44   8 2.48  24 2.48  52 2.50  20 2.50
                            64 2.50  16 2.50  50 2.51   2 2.51
   5  0.363  0.226  0.095-   3 2.49  23 2.49   7 2.49   9 2.49   1 2.49  21 2.49  25 2.49  49 2.49
                            53 2.49
   6  0.360  0.225  0.390-  69 1.82  65 1.84  10 2.52  50 2.52   2 2.52  22 2.53  54 2.53  26 2.53
                            28 2.60  24 2.61   8 2.62
   7  0.446  0.142  0.191-  12 2.45   8 2.46   9 2.49  53 2.49   5 2.49   3 2.49  11 2.49  27 2.49
                            51 2.49  23 2.49  55 2.49  28 2.50
   8  0.280  0.061  0.286-  54 2.41   3 2.45   7 2.46  51 2.47  24 2.47   4 2.48  28 2.48  52 2.50
                            12 2.50  56 2.51  50 2.51   6 2.62
   9  0.613  0.226  0.095-   7 2.49  27 2.49  11 2.49  13 2.49   5 2.49  25 2.49  29 2.49  53 2.49
                            57 2.49
  10  0.614  0.225  0.389-  69 1.82  68 1.84   6 2.52  26 2.52  58 2.53  54 2.53  14 2.53  30 2.53
                            28 2.59  32 2.61  12 2.61
  11  0.696  0.142  0.191-  16 2.44  12 2.45  32 2.45  13 2.49  57 2.49   9 2.49  15 2.49   7 2.49
                            27 2.49  55 2.49  31 2.49  59 2.49
  12  0.531  0.061  0.286-  54 2.42  11 2.45   7 2.45  55 2.46  32 2.47  16 2.48  28 2.48  60 2.50
                             8 2.50  56 2.51  58 2.51  10 2.61
  13  0.863  0.226  0.095-  11 2.49  31 2.49  15 2.49   9 2.49   1 2.49  29 2.49  17 2.49  57 2.49
                            61 2.49
  14  0.868  0.227  0.382-  68 1.82   2 2.40  18 2.44  20 2.45  62 2.48  30 2.50  32 2.51  16 2.51
                            10 2.53  58 2.56
  15  0.946  0.142  0.191-   4 2.44  16 2.44  20 2.47   1 2.49  61 2.49  13 2.49   3 2.49  11 2.49
                            31 2.49  59 2.49  19 2.49  63 2.49
  16  0.779  0.059  0.285-  62 2.42  11 2.44  15 2.44  59 2.44  32 2.48  12 2.48  60 2.50  20 2.50
                             4 2.50  64 2.50  58 2.51  14 2.51
  17  0.113  0.476  0.095-  31 2.49  35 2.49  19 2.49  21 2.49  29 2.49  13 2.49  33 2.49   1 2.49
                            37 2.49
  18  0.111  0.473  0.383-  67 1.83   2 2.44  14 2.44  20 2.47  22 2.48  30 2.48  36 2.53  40 2.53
                            34 2.54  38 2.54
  19  0.196  0.392  0.191-  40 2.44  24 2.46  20 2.47  21 2.49   1 2.49  17 2.49  31 2.49  23 2.49
                            15 2.49  35 2.49  39 2.49   3 2.49
  20  0.030  0.310  0.286-   2 2.45  14 2.45  31 2.47  19 2.47  18 2.47  15 2.47  36 2.49  40 2.49
                            16 2.50   4 2.50  24 2.50  32 2.50
  21  0.363  0.476  0.095-  19 2.49  39 2.49  23 2.49  25 2.49  17 2.49   5 2.49  37 2.49   1 2.49
                            41 2.49
  22  0.361  0.477  0.377-  40 2.41  44 2.41  24 2.41  18 2.48  38 2.48   2 2.51  42 2.51  26 2.53
                             6 2.53
  23  0.446  0.392  0.191-  24 2.46  44 2.46  25 2.49   5 2.49  21 2.49  27 2.49  19 2.49   3 2.49
                            39 2.49  43 2.49   7 2.49  28 2.49
  24  0.280  0.308  0.286-  22 2.41   3 2.45  23 2.46  19 2.46   8 2.47  28 2.48   4 2.48  20 2.50
                            44 2.50  40 2.51   2 2.51   6 2.61
  25  0.613  0.476  0.095-  23 2.49  43 2.49  27 2.49  29 2.49  21 2.49   9 2.49  41 2.49   5 2.49
                            45 2.49
  26  0.614  0.478  0.390-  69 1.82  66 1.84  42 2.52  46 2.52  10 2.52  22 2.53  30 2.53   6 2.53
                            28 2.60  44 2.61  48 2.62
  27  0.696  0.392  0.191-  32 2.45  48 2.46  29 2.49   9 2.49  25 2.49  23 2.49  31 2.49   7 2.49
                            43 2.49  47 2.49  11 2.49  28 2.50
  28  0.529  0.309  0.288-  44 2.48  24 2.48   8 2.48  48 2.48  12 2.48  32 2.48  23 2.49  27 2.50
                             7 2.50  10 2.59   6 2.60  26 2.60
  29  0.863  0.476  0.095-  27 2.49  47 2.49  31 2.49  25 2.49  17 2.49  13 2.49  33 2.49  45 2.49
                             9 2.49
  30  0.865  0.477  0.377-  36 2.41  48 2.41  32 2.42  34 2.48  18 2.48  14 2.50  46 2.51  10 2.53
                            26 2.53
  31  0.946  0.392  0.191-  36 2.44  32 2.46  20 2.47  17 2.49  13 2.49  29 2.49  27 2.49  19 2.49
                            15 2.49  35 2.49  11 2.49  47 2.49
  32  0.778  0.308  0.286-  30 2.42  11 2.45  27 2.45  31 2.46  12 2.47  16 2.48  28 2.48  20 2.50
                            48 2.50  36 2.51  14 2.51  10 2.61
  33  0.113  0.726  0.095-  47 2.49  51 2.49  35 2.49  37 2.49  45 2.49  29 2.49  49 2.49  17 2.49
                            53 2.49
  34  0.111  0.727  0.383-  67 1.83  46 2.44  50 2.44  52 2.47  54 2.48  30 2.48  56 2.53  36 2.53
                            38 2.54  18 2.54
  35  0.196  0.642  0.191-  40 2.44  36 2.44  56 2.44  37 2.49  17 2.49  33 2.49  47 2.49  39 2.49
                            31 2.49  51 2.49  55 2.49  19 2.49
  36  0.030  0.559  0.285-  30 2.41  35 2.44  47 2.44  31 2.44  20 2.49  40 2.49  56 2.49  52 2.49
                            32 2.51  48 2.51  18 2.53  34 2.53
  37  0.363  0.726  0.095-  35 2.49  55 2.49  39 2.49  41 2.49  33 2.49  21 2.49  53 2.49  17 2.49
                            57 2.49
  38  0.366  0.727  0.383-  67 1.83  42 2.44  58 2.44  60 2.47  22 2.48  54 2.48  56 2.53  40 2.53
                            34 2.54  18 2.54
  39  0.446  0.642  0.191-  40 2.44  44 2.46  60 2.47  41 2.49  21 2.49  37 2.49  35 2.49  43 2.49
                            23 2.49  55 2.49  59 2.49  19 2.49
  40  0.279  0.559  0.285-  22 2.41  35 2.44  39 2.44  19 2.44  36 2.49  56 2.49  20 2.49  60 2.49
                            44 2.51  24 2.51  18 2.53  38 2.53
  41  0.613  0.726  0.095-  39 2.49  59 2.49  43 2.49  45 2.49  37 2.49  25 2.49  57 2.49  21 2.49
                            61 2.49
  42  0.611  0.730  0.382-  66 1.82  58 2.40  38 2.44  60 2.45  62 2.48  22 2.51  44 2.51  64 2.51
                            26 2.52  46 2.56
  43  0.696  0.642  0.191-  64 2.44  48 2.45  44 2.45  45 2.49  25 2.49  41 2.49  39 2.49  47 2.49
                            27 2.49  59 2.49  63 2.49  23 2.49
  44  0.531  0.559  0.286-  22 2.41  43 2.45  23 2.46  39 2.46  48 2.47  28 2.48  64 2.48  60 2.50
                            24 2.50  40 2.51  42 2.51  26 2.61
  45  0.863  0.726  0.095-  43 2.49  63 2.49  47 2.49  41 2.49  33 2.49  29 2.49  49 2.49  61 2.49
                            25 2.49
  46  0.868  0.730  0.382-  66 1.82  50 2.40  34 2.44  52 2.45  62 2.48  30 2.51  48 2.51  64 2.51
                            26 2.52  42 2.56
  47  0.946  0.642  0.191-  36 2.44  48 2.47  52 2.47  33 2.49  29 2.49  45 2.49  43 2.49  35 2.49
                            31 2.49  51 2.49  27 2.49  63 2.49
  48  0.778  0.559  0.286-  30 2.41  43 2.45  27 2.46  47 2.47  44 2.47  64 2.48  28 2.48  52 2.50
                            32 2.50  36 2.51  46 2.51  26 2.62
  49  0.113  0.976  0.095-  63 2.49   3 2.49  51 2.49  61 2.49  53 2.49   1 2.49   5 2.49  33 2.49
                            45 2.49
  50  0.109  0.971  0.382-  65 1.82  46 2.40  34 2.44  52 2.45  62 2.48  54 2.51   8 2.51   4 2.51
                             6 2.52   2 2.56
  51  0.196  0.892  0.191-  56 2.44   8 2.47  52 2.47  53 2.49  33 2.49  49 2.49  55 2.49  63 2.49
                            35 2.49  47 2.49   3 2.49   7 2.49
  52  0.030  0.809  0.286-  46 2.45  50 2.45  51 2.47  47 2.47  34 2.47  63 2.47  56 2.49  36 2.49
                             4 2.50  64 2.50   8 2.50  48 2.50
  53  0.363  0.976  0.095-  51 2.49   7 2.49  55 2.49  49 2.49  57 2.49   5 2.49   9 2.49  33 2.49
                            37 2.49
  54  0.361  0.973  0.377-  56 2.41   8 2.41  12 2.42  34 2.48  38 2.48  58 2.50  50 2.51  10 2.53
                             6 2.53
  55  0.446  0.892  0.191-  56 2.44  12 2.46  60 2.47  57 2.49  37 2.49  53 2.49  59 2.49  51 2.49
                            11 2.49  39 2.49   7 2.49  35 2.49
  56  0.279  0.809  0.285-  54 2.41  35 2.44  51 2.44  55 2.44  60 2.49  52 2.49  36 2.49  40 2.49
                            12 2.51   8 2.51  38 2.53  34 2.53
  57  0.613  0.976  0.095-  55 2.49  11 2.49  59 2.49  53 2.49  61 2.49   9 2.49  13 2.49  37 2.49
                            41 2.49
  58  0.611  0.971  0.382-  68 1.82  42 2.40  38 2.44  60 2.45  62 2.48  54 2.50  12 2.51  16 2.51
                            10 2.53  14 2.56
  59  0.696  0.892  0.191-  64 2.44  16 2.44  60 2.47  61 2.49  41 2.49  57 2.49  63 2.49  55 2.49
                            15 2.49  43 2.49  11 2.49  39 2.49
  60  0.529  0.809  0.286-  42 2.45  58 2.45  55 2.47  39 2.47  38 2.47  59 2.47  56 2.49  40 2.49
                            16 2.50  64 2.50  44 2.50  12 2.50
  61  0.863  0.976  0.095-  59 2.49  15 2.49  63 2.49  49 2.49  57 2.49  13 2.49   1 2.49  41 2.49
                            45 2.49
  62  0.863  0.976  0.377-  16 2.42   4 2.42  64 2.42  42 2.48   2 2.48  46 2.48  58 2.48  14 2.48
                            50 2.48
  63  0.946  0.892  0.191-  64 2.44   4 2.44  52 2.47  49 2.49  45 2.49  61 2.49  51 2.49  59 2.49
                             3 2.49  47 2.49  15 2.49  43 2.49
  64  0.779  0.809  0.285-  62 2.42  43 2.44  59 2.44  63 2.44  48 2.48  44 2.48  52 2.50  60 2.50
                             4 2.50  16 2.50  46 2.51  42 2.51
  65  0.179  0.134  0.436-   2 1.82  50 1.82   6 1.84
  66  0.704  0.660  0.436-  42 1.82  46 1.82  26 1.84
  67  0.196  0.643  0.435-  18 1.83  34 1.83  38 1.83
  68  0.704  0.135  0.436-  14 1.82  58 1.82  10 1.84
  69  0.529  0.309  0.441-  26 1.82   6 1.82  10 1.82
 

IMPORTANT INFORMATION: All symmetrisations will be switched off!
NOSYMM: (Re-)initialisation of all symmetry stuff for point group C_1.

 
 

Automatic generation of k-mesh.
 generate k-points for:    3    3    1
Space group operators:
 irot       det(A)        alpha          n_x          n_y          n_z        tau_x        tau_y        tau_z
    1     1.000000     0.000000     1.000000     0.000000     0.000000     0.000000     0.000000     0.000000
 
 Subroutine IBZKPT returns following result:
 ===========================================
 
 Found      5 irreducible k-points:
 
 Following reciprocal coordinates:
            Coordinates               Weight
  0.000000  0.000000  0.000000      1.000000
  0.333333  0.000000  0.000000      2.000000
  0.000000  0.333333  0.000000      2.000000
  0.333333  0.333333  0.000000      2.000000
 -0.333333  0.333333  0.000000      2.000000
 
 Following cartesian coordinates:
            Coordinates               Weight
  0.000000  0.000000  0.000000      1.000000
  0.033442  0.019308  0.000000      2.000000
  0.000000  0.038616  0.000000      2.000000
  0.033442  0.057924  0.000000      2.000000
 -0.033442  0.019308  0.000000      2.000000
 


--------------------------------------------------------------------------------------------------------




 Dimension of arrays:
   k-points           NKPTS =      5   k-points in BZ     NKDIM =      5   number of bands    NBANDS=    438
   number of dos      NEDOS =    301   number of ions     NIONS =     69
   non local maximal  LDIM  =      6   non local SUM 2l+1 LMDIM =     18
   total plane-waves  NPLWV = ******
   max r-space proj   IRMAX =   7188   max aug-charges    IRDMAX=  18478
   dimension x,y,z NGX =    80 NGY =   80 NGZ =  160
   dimension x,y,z NGXF=   160 NGYF=  160 NGZF=  320
   support grid    NGXF=   160 NGYF=  160 NGZF=  320
   ions per type =              64   5
   NGX,Y,Z   is equivalent  to a cutoff of  13.34, 13.34, 12.60 a.u.
   NGXF,Y,Z  is equivalent  to a cutoff of  26.69, 26.69, 25.21 a.u.

 SYSTEM =  SQS-NiFe                                
 POSCAR =  POSCAR                                  

 Startparameter for this run:
   NWRITE =      2    write-flag & timer
   PREC   = accura    normal or accurate (medium, high low for compatibility)
   ISTART =      1    job   : 0-new  1-cont  2-samecut
   ICHARG =      1    charge: 1-file 2-atom 10-const
   ISPIN  =      2    spin polarized calculation?
   LNONCOLLINEAR =      F non collinear calculations
   LSORBIT =      F    spin-orbit coupling
   INIWAV =      1    electr: 0-lowe 1-rand  2-diag
   LASPH  =      F    aspherical Exc in radial PAW
   METAGGA=      F    non-selfconsistent MetaGGA calc.

 Electronic Relaxation 1
   ENCUT  =  520.0 eV  38.22 Ry    6.18 a.u.  18.53 18.53 39.24*2*pi/ulx,y,z
   ENINI  =  520.0     initial cutoff
   ENAUG  =  605.4 eV  augmentation charge cutoff
   NELM   =    200;   NELMIN=  2; NELMDL=  0     # of ELM steps 
   EDIFF  = 0.1E-04   stopping-criterion for ELM
   LREAL  =      T    real-space projection
   NLSPLINE    = F    spline interpolate recip. space projectors
   LCOMPAT=      F    compatible to vasp.4.4
   GGA_COMPAT  = T    GGA compatible to vasp.4.4-vasp.4.6
   LMAXPAW     = -100 max onsite density
   LMAXMIX     =    2 max onsite mixed and CHGCAR
   VOSKOWN=      0    Vosko Wilk Nusair interpolation
   ROPT   =   -0.00025  -0.00025
 Ionic relaxation
   EDIFFG = -.5E-01   stopping-criterion for IOM
   NSW    =     99    number of steps for IOM
   NBLOCK =      1;   KBLOCK =     99    inner block; outer block 
   IBRION =      2    ionic relax: 0-MD 1-quasi-New 2-CG
   NFREE  =      1    steps in history (QN), initial steepest desc. (CG)
   ISIF   =      2    stress and relaxation
   IWAVPR =     11    prediction:  0-non 1-charg 2-wave 3-comb
   ISYM   =      0    0-nonsym 1-usesym 2-fastsym
   LCORR  =      T    Harris-Foulkes like correction to forces

   POTIM  = 0.5000    time-step for ionic-motion
   TEIN   =    0.0    initial temperature
   TEBEG  =    0.0;   TEEND  =   0.0 temperature during run
   SMASS  =  -3.00    Nose mass-parameter (am)
   estimated Nose-frequenzy (Omega)   =  0.10E-29 period in steps =****** mass=  -0.227E-26a.u.
   SCALEE = 1.0000    scale energy and forces
   NPACO  =    256;   APACO  = 16.0  distance and # of slots for P.C.
   PSTRESS=    0.0 pullay stress

  Mass of Ions in am
   POMASS =  58.69 16.00
  Ionic Valenz
   ZVAL   =  10.00  6.00
  Atomic Wigner-Seitz radii
   RWIGS  =  -1.00 -1.00
  virtual crystal weights 
   VCA    =   1.00  1.00
   NELECT =     670.0000    total number of electrons
   NUPDOWN=      -1.0000    fix difference up-down

 DOS related values:
   EMIN   =  10.00;   EMAX   =-10.00  energy-range for DOS
   EFERMI =   0.00
   ISMEAR =     1;   SIGMA  =   0.20  broadening in eV -4-tet -1-fermi 0-gaus

 Electronic relaxation 2 (details)
   IALGO  =     68    algorithm
   LDIAG  =      T    sub-space diagonalisation (order eigenvalues)
   LSUBROT=      F    optimize rotation matrix (better conditioning)
   TURBO    =      0    0=normal 1=particle mesh
   IRESTART =      0    0=no restart 2=restart with 2 vectors
   NREBOOT  =      0    no. of reboots
   NMIN     =      0    reboot dimension
   EREF     =   0.00    reference energy to select bands
   IMIX   =      4    mixing-type and parameters
     AMIX     =   0.40;   BMIX     =  1.00
     AMIX_MAG =   1.60;   BMIX_MAG =  1.00
     AMIN     =   0.10
     WC   =   100.;   INIMIX=   1;  MIXPRE=   1;  MAXMIX= -45

 Intra band minimization:
   WEIMIN = 0.0010     energy-eigenvalue tresh-hold
   EBREAK =  0.57E-08  absolut break condition
   DEPER  =   0.30     relativ break condition  

   TIME   =   0.40     timestep for ELM

  volume/ion in A,a.u.               =      26.31       177.58
  Fermi-wavevector in a.u.,A,eV,Ry     =   1.174219  2.218952 18.759571  1.378790
  Thomas-Fermi vector in A             =   2.310619
 
 Write flags
   LWAVE        =      T    write WAVECAR
   LDOWNSAMPLE  =      F    k-point downsampling of WAVECAR
   LCHARG       =      T    write CHGCAR
   LVTOT        =      F    write LOCPOT, total local potential
   LVHAR        =      F    write LOCPOT, Hartree potential only
   LELF         =      F    write electronic localiz. function (ELF)
   LORBIT       =     10    0 simple, 1 ext, 2 COOP (PROOUT), +10 PAW based schemes


 Dipole corrections
   LMONO  =      F    monopole corrections only (constant potential shift)
   LDIPOL =      T    correct potential (dipole corrections)
   IDIPOL =      3    1-x, 2-y, 3-z, 4-all directions 
   EPSILON=  1.0000000 bulk dielectric constant

 Exchange correlation treatment:
   GGA     =    --    GGA type
   LEXCH   =     8    internal setting for exchange type
   VOSKOWN=      0    Vosko Wilk Nusair interpolation
   LHFCALC =     F    Hartree Fock is set to
   LHFONE  =     F    Hartree Fock one center treatment
   AEXX    =    0.0000 exact exchange contribution

 Linear response parameters
   LEPSILON=     F    determine dielectric tensor
   LRPA    =     F    only Hartree local field effects (RPA)
   LNABLA  =     F    use nabla operator in PAW spheres
   LVEL    =     F    velocity operator in full k-point grid
   LINTERFAST=   F  fast interpolation
   KINTER  =     0    interpolate to denser k-point grid
   CSHIFT  =0.1000    complex shift for real part using Kramers Kronig
   OMEGAMAX=  -1.0    maximum frequency
   DEG_THRESHOLD= 0.2000000E-02 threshold for treating states as degnerate
   RTIME   =   -0.100 relaxation time in fs
  (WPLASMAI=    0.000 imaginary part of plasma frequency in eV, 0.658/RTIME)
   DFIELD  = 0.0000000 0.0000000 0.0000000 field for delta impulse in time
 
 Orbital magnetization related:
   ORBITALMAG=     F  switch on orbital magnetization
   LCHIMAG   =     F  perturbation theory with respect to B field
   DQ        =  0.001000  dq finite difference perturbation B field
   LLRAUG    =     F  two centre corrections for induced B field



--------------------------------------------------------------------------------------------------------


 conjugate gradient relaxation of ions
   using selective dynamics as specified on POSCAR
 charge density and potential will be updated during run
 spin polarized calculation
 RMM-DIIS sequential band-by-band and
  variant of blocked Davidson during initial phase
 perform sub-space diagonalisation
    before iterative eigenvector-optimisation
 modified Broyden-mixing scheme, WC =      100.0
 initial mixing is a Kerker type mixing with AMIX =  0.4000 and BMIX =      1.0000
 Hartree-type preconditioning will be used
 using additional bands          103
 real space projection scheme for non local part
 use partial core corrections
 calculate Harris-corrections to forces 
   (improved forces if not selfconsistent)
 use gradient corrections 
 use of overlap-Matrix (Vanderbilt PP)
 Methfessel and Paxton  Order N= 1 SIGMA  =   0.20


--------------------------------------------------------------------------------------------------------


  energy-cutoff  :      520.00
  volume of cell :     1815.73
      direct lattice vectors                 reciprocal lattice vectors
     9.967380000  0.000000000  0.000000000     0.100327268  0.057923975  0.000000000
    -4.983690000  8.632004290  0.000000000     0.000000000  0.115847950  0.000000000
     0.000000000  0.000000000 21.103750000     0.000000000  0.000000000  0.047384943

  length of vectors
     9.967380000  9.967380001 21.103750000     0.115847950  0.115847950  0.047384943


 
 old parameters found on file WAVECAR:
  energy-cutoff  :      520.00
  volume of cell :     1815.73
      direct lattice vectors                 reciprocal lattice vectors
     9.967380000  0.000000000  0.000000000     0.100327268  0.057923975  0.000000000
    -4.983690000  8.632004290  0.000000000     0.000000000  0.115847950  0.000000000
     0.000000000  0.000000000 21.103750000     0.000000000  0.000000000  0.047384943

  length of vectors

 
 k-points in units of 2pi/SCALE and weight: read from INCAR                         
   0.00000000  0.00000000  0.00000000       0.111
   0.03344242  0.01930799  0.00000000       0.222
   0.00000000  0.03861598  0.00000000       0.222
   0.03344242  0.05792397  0.00000000       0.222
  -0.03344242  0.01930799  0.00000000       0.222
 
 k-points in reciprocal lattice and weights: read from INCAR                         
   0.00000000  0.00000000  0.00000000       0.111
   0.33333333  0.00000000  0.00000000       0.222
   0.00000000  0.33333333  0.00000000       0.222
   0.33333333  0.33333333  0.00000000       0.222
  -0.33333333  0.33333333  0.00000000       0.222
 
 position of ions in fractional coordinates (direct lattice) 
   0.11283300  0.22566700  0.09477000
   0.10878465  0.22730474  0.38192409
   0.19616700  0.14233300  0.19117800
   0.02984034  0.05930751  0.28462483
   0.36283300  0.22566700  0.09477000
   0.36023371  0.22476511  0.38979123
   0.44616700  0.14233300  0.19117800
   0.27965550  0.06053572  0.28560985
   0.61283300  0.22566700  0.09477000
   0.61358526  0.22497398  0.38944375
   0.69616700  0.14233300  0.19117800
   0.53052490  0.06053217  0.28556757
   0.86283300  0.22566700  0.09477000
   0.86774460  0.22743582  0.38189243
   0.94616700  0.14233300  0.19117800
   0.77918479  0.05934467  0.28462030
   0.11283300  0.47566700  0.09477000
   0.11113649  0.47278163  0.38266395
   0.19616700  0.39233300  0.19117800
   0.02966176  0.30964571  0.28634320
   0.36283300  0.47566700  0.09477000
   0.36136291  0.47720897  0.37674286
   0.44616700  0.39233300  0.19117800
   0.27962334  0.30795768  0.28563662
   0.61283300  0.47566700  0.09477000
   0.61383919  0.47839609  0.38977179
   0.69616700  0.39233300  0.19117800
   0.52935812  0.30917974  0.28774400
   0.86283300  0.47566700  0.09477000
   0.86533193  0.47726675  0.37669755
   0.94616700  0.39233300  0.19117800
   0.77800529  0.30800316  0.28556782
   0.11283300  0.72566700  0.09477000
   0.11116232  0.72742490  0.38266721
   0.19616700  0.64233300  0.19117800
   0.02969431  0.55922855  0.28458826
   0.36283300  0.72566700  0.09477000
   0.36579896  0.72744196  0.38265739
   0.44616700  0.64233300  0.19117800
   0.27930801  0.55922443  0.28459123
   0.61283300  0.72566700  0.09477000
   0.61127555  0.72978539  0.38192453
   0.69616700  0.64233300  0.19117800
   0.53056926  0.55890853  0.28563384
   0.86283300  0.72566700  0.09477000
   0.86791964  0.72966747  0.38188872
   0.94616700  0.64233300  0.19117800
   0.77800881  0.55888568  0.28560533
   0.11283300  0.97566700  0.09477000
   0.10893170  0.97067887  0.38189986
   0.19616700  0.89233300  0.19117800
   0.02971792  0.80883636  0.28633940
   0.36283300  0.97566700  0.09477000
   0.36130799  0.97324882  0.37670626
   0.44616700  0.89233300  0.19117800
   0.27931013  0.80884803  0.28458942
   0.61283300  0.97566700  0.09477000
   0.61113097  0.97083301  0.38189310
   0.69616700  0.89233300  0.19117800
   0.52888550  0.80887336  0.28633886
   0.86283300  0.97566700  0.09477000
   0.86261922  0.97593235  0.37689552
   0.94616700  0.89233300  0.19117800
   0.77922169  0.80868832  0.28462208
   0.17909806  0.13414760  0.43603935
   0.70449047  0.65952527  0.43603306
   0.19604251  0.64253631  0.43475027
   0.70398985  0.13460286  0.43588787
   0.52933855  0.30933751  0.44135425
 
 position of ions in cartesian coordinates  (Angst):
  -0.00000498  1.94795851  2.00000239
  -0.04851843  1.96209548  8.06003059
   1.24592748  1.22861907  4.03457272
   0.00185975  0.51194268  6.00665121
   2.49184002  1.94795851  2.00000239
   2.47042667  1.94017343  8.22605676
   3.73777248  1.22861907  4.03457272
   2.48574136  0.52254457  6.02743884
   4.98368502  1.94795851  2.00000239
   4.99463691  1.94197636  8.21872364
   6.22961748  1.22861907  4.03457272
   4.98626967  0.52251394  6.02654664
   7.47553002  1.94795851  2.00000239
   7.51567054  1.96322697  8.05936237
   8.72146248  1.22861907  4.03457272
   7.47067548  0.51226341  6.00655563
  -1.24592748  4.10595958  2.00000239
  -1.24845742  4.08105307  8.07564442
   0.00000498  3.38662014  4.03457272
  -1.24752823  2.67286313  6.04291531
   1.24591752  4.10595958  2.00000239
   1.22357990  4.11926988  7.95068720
   2.49184998  3.38662014  4.03457272
   1.25234651  2.65829199  6.02800373
   3.73776252  4.10595958  2.00000239
   3.73419064  4.12951709  8.22564635
   4.98369498  3.38662014  4.03457272
   3.73545751  2.66884085  6.07247737
   6.22960752  4.10595958  2.00000239
   6.24654262  4.11976861  7.94973095
   7.47553998  3.38662014  4.03457272
   6.21968209  2.65868459  6.02655182
  -2.49184998  6.26396066  2.00000239
  -2.51726311  6.27913484  8.07571304
  -1.24591752  5.54462121  4.03457272
  -2.49104723  4.82726324  6.00587942
  -0.00000498  6.26396066  2.00000239
   0.02071198  6.27928213  8.07550587
   1.24592748  5.54462121  4.03457272
  -0.00303210  4.82722771  6.00594208
   2.49184002  6.26396066  2.00000239
   2.45579153  6.29951062  8.06003985
   3.73777248  5.54462121  4.03457272
   2.50295857  4.82450082  6.02794518
   4.98368502  6.26396066  2.00000239
   5.01444837  6.29849270  8.05928403
   6.22961748  5.54462121  4.03457272
   4.96939644  4.82430357  6.02734352
  -3.73777248  8.42196173  2.00000239
  -3.75179897  8.37890415  8.05951916
  -2.49184002  7.70262228  4.03457272
  -3.73477986  6.98187892  6.04283522
  -1.24592748  8.42196173  2.00000239
  -1.24907638  8.40108803  7.94991466
   0.00000498  7.70262228  4.03457272
  -1.24705766  6.98197970  6.00590403
   1.24591752  8.42196173  2.00000239
   1.25304379  8.38023472  8.05937648
   2.49184998  7.70262228  4.03457272
   1.24042864  6.98219830  6.04282373
   3.73776252  8.42196173  2.00000239
   3.73430927  8.42425221  7.95390877
   4.98369498  7.70262228  4.03457272
   3.73654677  6.98060102  6.00659313
   1.11658837  1.15796263  9.20206535
   3.73505471  5.69302500  9.20193273
  -1.24817163  5.54637621  9.17486107
   6.34611538  1.16189248  9.19886865
   3.73447625  2.67020274  9.31422969
 


--------------------------------------------------------------------------------------------------------


 k-point  1 :   0.0000 0.0000 0.0000  plane waves:   48949
 k-point  2 :   0.3333 0.0000 0.0000  plane waves:   48884
 k-point  3 :   0.0000 0.3333 0.0000  plane waves:   48884
 k-point  4 :   0.3333 0.3333 0.0000  plane waves:   48804
 k-point  5 :  -0.3333 0.3333 0.0000  plane waves:   48884

 maximum and minimum number of plane-waves per node :      2058     2018

 maximum number of plane-waves:     48949
 maximum index in each direction: 
   IXMAX=   18   IYMAX=   18   IZMAX=   39
   IXMIN=  -18   IYMIN=  -18   IZMIN=  -39


 real space projection operators:
  total allocation   :      63301.06 KBytes
  max/ min on nodes  :       3213.58       2329.75


 parallel 3D FFT for wavefunctions:
    minimum data exchange during FFTs selected (reduces bandwidth)
 parallel 3D FFT for charge:
    minimum data exchange during FFTs selected (reduces bandwidth)


 total amount of memory used by VASP MPI-rank0   114637. kBytes
=======================================================================

   base      :      30000. kBytes
   nonlr-proj:      12351. kBytes
   fftplans  :       6402. kBytes
   grid      :      16455. kBytes
   one-center:         93. kBytes
   wavefun   :      49336. kBytes
 
     INWAV:  cpu time   11.3838: real time   11.6041
 Broyden mixing: mesh for mixing (old mesh)
   NGX = 37   NGY = 37   NGZ = 79
  (NGX  =160   NGY  =160   NGZ  =320)
  gives a total of 108151 points

 initial charge density was supplied:
 number of electron     670.0000061 magnetization      40.8586528
 keeping initial charge density in first step


--------------------------------------------------------------------------------------------------------


 Maximum index for non-local projection operator          709
 Maximum index for augmentation-charges         1178 (set IRDMAX)


--------------------------------------------------------------------------------------------------------


 First call to EWALD:  gamma=   0.145
 Maximum number of real-space cells 4x 4x 2
 Maximum number of reciprocal cells 2x 2x 4

    FEWALD:  cpu time    0.0035: real time    0.0035


--------------------------------------- Iteration      1(   1)  ---------------------------------------


    POTLOK:  cpu time    0.4169: real time    0.4245
    SETDIJ:  cpu time    0.0235: real time    0.0235
     EDDAV:  cpu time   46.4161: real time   46.4569
       DOS:  cpu time    0.0092: real time    0.0092
    CHARGE:  cpu time    1.3496: real time    1.3497
    MIXING:  cpu time    0.0064: real time    0.0065
    --------------------------------------------
      LOOP:  cpu time   48.2218: real time   48.2704

 eigenvalue-minimisations  :  9606
 total energy-change (2. order) :-0.3506381E+03  (-0.1570373E+03)
 number of electron     670.0000062 magnetization      40.6491642
 augmentation part      399.7520255 magnetization      38.4626966

 DIPCOR: dipole corrections for dipol
 direction  3 min pos   245,
 dipolmoment           0.000000      0.000000      0.378640 electrons x Angstroem
 Tr[quadrupol]    -11010.245849

 energy correction for charged system         0.000000 eV
 dipol+quadrupol energy correction           -0.007144 eV
 added-field ion interaction          8.110356 eV  (added to PSCEN)


 Broyden mixing:
  rms(total) = 0.69425E+00    rms(broyden)= 0.69419E+00
  rms(prec ) = 0.71111E+00
  weight for this iteration     100.00

 Free energy of the ion-electron system (eV)
  ---------------------------------------------------
  alpha Z        PSCENC =      1255.22247621
  Ewald energy   TEWEN  =    248297.82712452
  -Hartree energ DENC   =   -317353.15436218
  -exchange      EXHF   =         0.00000000
  -V(xc)+E(xc)   XCENC  =      2098.29663674
  PAW double counting   =     74960.29814122   -79358.23992608
  entropy T*S    EENTRO =        -0.07218028
  eigenvalues    EBANDS =     -1383.54474352
  atomic energy  EATOM  =     71132.72877437
  Solvation  Ediel_sol  =         0.00000000
  ---------------------------------------------------
  free energy    TOTEN  =      -350.63805899 eV

  energy without entropy =     -350.56587871  energy(sigma->0) =     -350.61399889


--------------------------------------------------------------------------------------------------------




--------------------------------------- Iteration      1(   2)  ---------------------------------------


    POTLOK:  cpu time    0.4190: real time    0.4310
    SETDIJ:  cpu time    0.0234: real time    0.0234
    EDDIAG:  cpu time    6.2420: real time    6.2434
  RMM-DIIS:  cpu time   21.6605: real time   21.6686
    ORTHCH:  cpu time    1.7746: real time    1.7748
       DOS:  cpu time    0.0089: real time    0.0089
    CHARGE:  cpu time    1.3480: real time    1.3482
    MIXING:  cpu time    0.0066: real time    0.0066
    --------------------------------------------
      LOOP:  cpu time   31.4829: real time   31.5050

 eigenvalue-minimisations  :  8833
 total energy-change (2. order) :-0.1830812E+02  (-0.1446473E+02)
 number of electron     670.0000052 magnetization      40.6830121
 augmentation part      395.6450110 magnetization      36.6767306

 DIPCOR: dipole corrections for dipol
 direction  3 min pos   244,
 dipolmoment           0.000000      0.000000      0.075639 electrons x Angstroem
 Tr[quadrupol]    -11010.090612

 energy correction for charged system         0.000000 eV
 dipol+quadrupol energy correction           -0.000285 eV
 added-field ion interaction          1.287074 eV  (added to PSCEN)


 Broyden mixing:
  rms(total) = 0.36921E+01    rms(broyden)= 0.36920E+01
  rms(prec ) = 0.49086E+01
  weight for this iteration     100.00

 eigenvalues of (default mixing * dielectric matrix)
  average eigenvalue GAMMA=   0.0877
  0.0877

 Free energy of the ion-electron system (eV)
  ---------------------------------------------------
  alpha Z        PSCENC =      1248.40605352
  Ewald energy   TEWEN  =    248297.82712452
  -Hartree energ DENC   =   -317388.30866816
  -exchange      EXHF   =         0.00000000
  -V(xc)+E(xc)   XCENC  =      2099.68379268
  PAW double counting   =     75462.88232480   -79891.41094266
  entropy T*S    EENTRO =         0.14212955
  eigenvalues    EBANDS =     -1330.89676818
  atomic energy  EATOM  =     71132.72877437
  Solvation  Ediel_sol  =         0.00000000
  ---------------------------------------------------
  free energy    TOTEN  =      -368.94617955 eV

  energy without entropy =     -369.08830910  energy(sigma->0) =     -368.99355607


--------------------------------------------------------------------------------------------------------




--------------------------------------- Iteration      1(   3)  ---------------------------------------


    POTLOK:  cpu time    0.4189: real time    0.4302
    SETDIJ:  cpu time    0.0232: real time    0.0232
    EDDIAG:  cpu time    6.2501: real time    6.2519
  RMM-DIIS:  cpu time   21.7316: real time   21.7382
    ORTHCH:  cpu time    1.7667: real time    1.7670
       DOS:  cpu time    0.0101: real time    0.0101
    CHARGE:  cpu time    1.3528: real time    1.3529
    MIXING:  cpu time    0.0068: real time    0.0068
    --------------------------------------------
      LOOP:  cpu time   31.5602: real time   31.5802

 eigenvalue-minimisations  :  8842
 total energy-change (2. order) : 0.1308001E+01  (-0.6255866E+00)
 number of electron     670.0000068 magnetization      40.6836056
 augmentation part      395.9816549 magnetization      38.2138273

 DIPCOR: dipole corrections for dipol
 direction  3 min pos   244,
 dipolmoment           0.000000      0.000000      0.622045 electrons x Angstroem
 Tr[quadrupol]    -11010.450959

 energy correction for charged system         0.000000 eV
 dipol+quadrupol energy correction           -0.019282 eV
 added-field ion interaction         10.584722 eV  (added to PSCEN)


 Broyden mixing:
  rms(total) = 0.32553E+01    rms(broyden)= 0.32551E+01
  rms(prec ) = 0.42762E+01
  weight for this iteration     100.00

 eigenvalues of (default mixing * dielectric matrix)
  average eigenvalue GAMMA=   0.1959
  0.3575  0.0343

 Free energy of the ion-electron system (eV)
  ---------------------------------------------------
  alpha Z        PSCENC =      1257.68470497
  Ewald energy   TEWEN  =    248297.82712452
  -Hartree energ DENC   =   -317389.62287859
  -exchange      EXHF   =         0.00000000
  -V(xc)+E(xc)   XCENC  =      2099.52517891
  PAW double counting   =     75459.59165998   -79885.54691841
  entropy T*S    EENTRO =        -0.10204478
  eigenvalues    EBANDS =     -1339.72377944
  atomic energy  EATOM  =     71132.72877437
  Solvation  Ediel_sol  =         0.00000000
  ---------------------------------------------------
  free energy    TOTEN  =      -367.63817847 eV

  energy without entropy =     -367.53613369  energy(sigma->0) =     -367.60416354


--------------------------------------------------------------------------------------------------------




--------------------------------------- Iteration      1(   4)  ---------------------------------------


    POTLOK:  cpu time    0.4179: real time    0.4286
    SETDIJ:  cpu time    0.0232: real time    0.0232
    EDDIAG:  cpu time    6.2664: real time    6.2676
  RMM-DIIS:  cpu time   21.9466: real time   21.9528
    ORTHCH:  cpu time    1.7674: real time    1.7676
       DOS:  cpu time    0.0094: real time    0.0094
    CHARGE:  cpu time    1.3485: real time    1.3486
    MIXING:  cpu time    0.0068: real time    0.0068
    --------------------------------------------
      LOOP:  cpu time   31.7862: real time   31.8045

 eigenvalue-minimisations  :  8911
 total energy-change (2. order) : 0.1974076E+01  (-0.1938206E+00)
 number of electron     670.0000068 magnetization      40.6549380
 augmentation part      397.4973134 magnetization      38.2780040

 DIPCOR: dipole corrections for dipol
 direction  3 min pos   238,
 dipolmoment           0.000000      0.000000      0.445837 electrons x Angstroem
 Tr[quadrupol]    -11009.745638

 energy correction for charged system         0.000000 eV
 dipol+quadrupol energy correction           -0.009905 eV
 added-field ion interaction         -4.193557 eV  (added to PSCEN)


 Broyden mixing:
  rms(total) = 0.17296E+01    rms(broyden)= 0.17295E+01
  rms(prec ) = 0.19060E+01
  weight for this iteration     100.00

 eigenvalues of (default mixing * dielectric matrix)
  average eigenvalue GAMMA=   0.2066
  0.4780  0.1048  0.0370

 Free energy of the ion-electron system (eV)
  ---------------------------------------------------
  alpha Z        PSCENC =      1242.91580223
  Ewald energy   TEWEN  =    248297.82712452
  -Hartree energ DENC   =   -317349.77586897
  -exchange      EXHF   =         0.00000000
  -V(xc)+E(xc)   XCENC  =      2098.33100157
  PAW double counting   =     75417.67991658   -79832.37980612
  entropy T*S    EENTRO =        -0.09568899
  eigenvalues    EBANDS =     -1372.89535789
  atomic energy  EATOM  =     71132.72877437
  Solvation  Ediel_sol  =         0.00000000
  ---------------------------------------------------
  free energy    TOTEN  =      -365.66410269 eV

  energy without entropy =     -365.56841370  energy(sigma->0) =     -365.63220636


--------------------------------------------------------------------------------------------------------




--------------------------------------- Iteration      1(   5)  ---------------------------------------


    POTLOK:  cpu time    0.4182: real time    0.4297
    SETDIJ:  cpu time    0.0232: real time    0.0232
    EDDIAG:  cpu time    6.2544: real time    6.2557
  RMM-DIIS:  cpu time   21.7750: real time   21.7809
    ORTHCH:  cpu time    1.7706: real time    1.7708
       DOS:  cpu time    0.0094: real time    0.0094
    CHARGE:  cpu time    1.3493: real time    1.3495
    MIXING:  cpu time    0.0069: real time    0.0069
    --------------------------------------------
      LOOP:  cpu time   31.6077: real time   31.6261

 eigenvalue-minimisations  :  8842
 total energy-change (2. order) : 0.9944052E+00  (-0.8763841E-01)
 number of electron     670.0000060 magnetization      40.6311147
 augmentation part      398.0154318 magnetization      37.9914136

 DIPCOR: dipole corrections for dipol
 direction  3 min pos   232,
 dipolmoment           0.000000      0.000000      0.421490 electrons x Angstroem
 Tr[quadrupol]    -11009.118902

 energy correction for charged system         0.000000 eV
 dipol+quadrupol energy correction           -0.008853 eV
 added-field ion interaction        -15.101158 eV  (added to PSCEN)


 Broyden mixing:
  rms(total) = 0.57614E+00    rms(broyden)= 0.57606E+00
  rms(prec ) = 0.70118E+00
  weight for this iteration     100.00

 eigenvalues of (default mixing * dielectric matrix)
  average eigenvalue GAMMA=   0.2335
  0.3949  0.3949  0.0363  0.1080

 Free energy of the ion-electron system (eV)
  ---------------------------------------------------
  alpha Z        PSCENC =      1232.00925315
  Ewald energy   TEWEN  =    248297.82712452
  -Hartree energ DENC   =   -317328.22904195
  -exchange      EXHF   =         0.00000000
  -V(xc)+E(xc)   XCENC  =      2097.85268898
  PAW double counting   =     75385.66455255   -79795.52449904
  entropy T*S    EENTRO =        -0.12771292
  eigenvalues    EBANDS =     -1386.87083720
  atomic energy  EATOM  =     71132.72877437
  Solvation  Ediel_sol  =         0.00000000
  ---------------------------------------------------
  free energy    TOTEN  =      -364.66969753 eV

  energy without entropy =     -364.54198462  energy(sigma->0) =     -364.62712656


--------------------------------------------------------------------------------------------------------




--------------------------------------- Iteration      1(   6)  ---------------------------------------


    POTLOK:  cpu time    0.4170: real time    0.4283
    SETDIJ:  cpu time    0.0232: real time    0.0232
    EDDIAG:  cpu time    6.2507: real time    6.2524
  RMM-DIIS:  cpu time   21.8222: real time   21.8313
    ORTHCH:  cpu time    1.7729: real time    1.7733
       DOS:  cpu time    0.0091: real time    0.0091
    CHARGE:  cpu time    1.3525: real time    1.3526
    MIXING:  cpu time    0.0071: real time    0.0071
    --------------------------------------------
      LOOP:  cpu time   31.6539: real time   31.6773

 eigenvalue-minimisations  :  8857
 total energy-change (2. order) :-0.1563286E+00  (-0.2462086E-01)
 number of electron     670.0000064 magnetization      40.6215271
 augmentation part      397.8835740 magnetization      37.9408232

 DIPCOR: dipole corrections for dipol
 direction  3 min pos   238,
 dipolmoment           0.000000      0.000000      0.395499 electrons x Angstroem
 Tr[quadrupol]    -11009.886203

 energy correction for charged system         0.000000 eV
 dipol+quadrupol energy correction           -0.007795 eV
 added-field ion interaction         -3.720073 eV  (added to PSCEN)


 Broyden mixing:
  rms(total) = 0.95109E+00    rms(broyden)= 0.95107E+00
  rms(prec ) = 0.10766E+01
  weight for this iteration     100.00

 eigenvalues of (default mixing * dielectric matrix)
  average eigenvalue GAMMA=   0.2523
  0.5115  0.5115  0.0364  0.1222  0.0802

 Free energy of the ion-electron system (eV)
  ---------------------------------------------------
  alpha Z        PSCENC =      1243.39139625
  Ewald energy   TEWEN  =    248297.82712452
  -Hartree energ DENC   =   -317345.39052288
  -exchange      EXHF   =         0.00000000
  -V(xc)+E(xc)   XCENC  =      2097.83089331
  PAW double counting   =     75351.37873093   -79760.16498814
  entropy T*S    EENTRO =        -0.04520545
  eigenvalues    EBANDS =     -1382.38222910
  atomic energy  EATOM  =     71132.72877437
  Solvation  Ediel_sol  =         0.00000000
  ---------------------------------------------------
  free energy    TOTEN  =      -364.82602618 eV

  energy without entropy =     -364.78082073  energy(sigma->0) =     -364.81095770


--------------------------------------------------------------------------------------------------------




--------------------------------------- Iteration      1(   7)  ---------------------------------------


    POTLOK:  cpu time    0.4280: real time    0.4291
    SETDIJ:  cpu time    0.0231: real time    0.0231
    EDDIAG:  cpu time    6.2742: real time    6.2760
  RMM-DIIS:  cpu time   21.8053: real time   21.8121
    ORTHCH:  cpu time    1.7768: real time    1.7770
       DOS:  cpu time    0.0093: real time    0.0093
    CHARGE:  cpu time    1.3468: real time    1.3469
    MIXING:  cpu time    0.0074: real time    0.0073
    --------------------------------------------
      LOOP:  cpu time   31.6708: real time   31.6808

 eigenvalue-minimisations  :  8843
 total energy-change (2. order) : 0.2074353E+00  (-0.1175413E-01)
 number of electron     670.0000062 magnetization      40.6206653
 augmentation part      397.7921353 magnetization      38.0032436

 DIPCOR: dipole corrections for dipol
 direction  3 min pos   242,
 dipolmoment           0.000000      0.000000      0.403871 electrons x Angstroem
 Tr[quadrupol]    -11009.982598

 energy correction for charged system         0.000000 eV
 dipol+quadrupol energy correction           -0.008128 eV
 added-field ion interaction          3.315244 eV  (added to PSCEN)


 Broyden mixing:
  rms(total) = 0.41405E+00    rms(broyden)= 0.41404E+00
  rms(prec ) = 0.50136E+00
  weight for this iteration     100.00

 eigenvalues of (default mixing * dielectric matrix)
  average eigenvalue GAMMA=   0.2373
  0.5070  0.5070  0.1873  0.0364  0.0931  0.0931

 Free energy of the ion-electron system (eV)
  ---------------------------------------------------
  alpha Z        PSCENC =      1250.42638031
  Ewald energy   TEWEN  =    248297.82712452
  -Hartree energ DENC   =   -317346.10993889
  -exchange      EXHF   =         0.00000000
  -V(xc)+E(xc)   XCENC  =      2098.03059330
  PAW double counting   =     75316.93422288   -79725.43877162
  entropy T*S    EENTRO =        -0.07837665
  eigenvalues    EBANDS =     -1388.93859909
  atomic energy  EATOM  =     71132.72877437
  Solvation  Ediel_sol  =         0.00000000
  ---------------------------------------------------
  free energy    TOTEN  =      -364.61859086 eV

  energy without entropy =     -364.54021421  energy(sigma->0) =     -364.59246531


--------------------------------------------------------------------------------------------------------




--------------------------------------- Iteration      1(   8)  ---------------------------------------


    POTLOK:  cpu time    0.4236: real time    0.4357
    SETDIJ:  cpu time    0.0232: real time    0.0232
    EDDIAG:  cpu time    6.2797: real time    6.2811
  RMM-DIIS:  cpu time   21.9215: real time   21.9283
    ORTHCH:  cpu time    1.7721: real time    1.7724
       DOS:  cpu time    0.0092: real time    0.0092
    CHARGE:  cpu time    1.3470: real time    1.3473
    MIXING:  cpu time    0.0075: real time    0.0076
    --------------------------------------------
      LOOP:  cpu time   31.7840: real time   31.8047

 eigenvalue-minimisations  :  8863
 total energy-change (2. order) : 0.2999866E-02  (-0.2032143E-02)
 number of electron     670.0000062 magnetization      40.6218048
 augmentation part      397.7791887 magnetization      38.0129396

 DIPCOR: dipole corrections for dipol
 direction  3 min pos   248,
 dipolmoment           0.000000      0.000000      0.408320 electrons x Angstroem
 Tr[quadrupol]    -11010.318358

 energy correction for charged system         0.000000 eV
 dipol+quadrupol energy correction           -0.008308 eV
 added-field ion interaction         14.140424 eV  (added to PSCEN)


 Broyden mixing:
  rms(total) = 0.43344E+00    rms(broyden)= 0.43344E+00
  rms(prec ) = 0.53367E+00
  weight for this iteration     100.00

 eigenvalues of (default mixing * dielectric matrix)
  average eigenvalue GAMMA=   0.2516
  0.5563  0.5563  0.3216  0.0364  0.1056  0.1056  0.0792

 Free energy of the ion-electron system (eV)
  ---------------------------------------------------
  alpha Z        PSCENC =      1261.25137967
  Ewald energy   TEWEN  =    248297.82712452
  -Hartree energ DENC   =   -317347.28021011
  -exchange      EXHF   =         0.00000000
  -V(xc)+E(xc)   XCENC  =      2098.09094767
  PAW double counting   =     75298.03670048   -79706.14308981
  entropy T*S    EENTRO =        -0.08174545
  eigenvalues    EBANDS =     -1399.04547234
  atomic energy  EATOM  =     71132.72877437
  Solvation  Ediel_sol  =         0.00000000
  ---------------------------------------------------
  free energy    TOTEN  =      -364.61559100 eV

  energy without entropy =     -364.53384554  energy(sigma->0) =     -364.58834251


--------------------------------------------------------------------------------------------------------




--------------------------------------- Iteration      1(   9)  ---------------------------------------


    POTLOK:  cpu time    0.4217: real time    0.4331
    SETDIJ:  cpu time    0.0232: real time    0.0232
    EDDIAG:  cpu time    6.2719: real time    6.2735
  RMM-DIIS:  cpu time   21.7873: real time   21.7938
    ORTHCH:  cpu time    1.7764: real time    1.7768
       DOS:  cpu time    0.0094: real time    0.0094
    CHARGE:  cpu time    1.3474: real time    1.3475
    MIXING:  cpu time    0.0078: real time    0.0078
    --------------------------------------------
      LOOP:  cpu time   31.6458: real time   31.6651

 eigenvalue-minimisations  :  8846
 total energy-change (2. order) : 0.1048928E-01  (-0.8718662E-03)
 number of electron     670.0000062 magnetization      40.6240977
 augmentation part      397.7837017 magnetization      38.0516738

 DIPCOR: dipole corrections for dipol
 direction  3 min pos   251,
 dipolmoment           0.000000      0.000000      0.413396 electrons x Angstroem
 Tr[quadrupol]    -11010.525826

 energy correction for charged system         0.000000 eV
 dipol+quadrupol energy correction           -0.008516 eV
 added-field ion interaction         19.777558 eV  (added to PSCEN)


 Broyden mixing:
  rms(total) = 0.44126E+00    rms(broyden)= 0.44126E+00
  rms(prec ) = 0.55589E+00
  weight for this iteration     100.00

 eigenvalues of (default mixing * dielectric matrix)
  average eigenvalue GAMMA=   0.2471
  0.5976  0.5976  0.3297  0.0364  0.1264  0.1264  0.0813  0.0813

 Free energy of the ion-electron system (eV)
  ---------------------------------------------------
  alpha Z        PSCENC =      1266.88830587
  Ewald energy   TEWEN  =    248297.82712452
  -Hartree energ DENC   =   -317349.96858750
  -exchange      EXHF   =         0.00000000
  -V(xc)+E(xc)   XCENC  =      2098.18595485
  PAW double counting   =     75260.16863752   -79667.32879805
  entropy T*S    EENTRO =        -0.07656445
  eigenvalues    EBANDS =     -1403.02994885
  atomic energy  EATOM  =     71132.72877437
  Solvation  Ediel_sol  =         0.00000000
  ---------------------------------------------------
  free energy    TOTEN  =      -364.60510172 eV

  energy without entropy =     -364.52853726  energy(sigma->0) =     -364.57958023


--------------------------------------------------------------------------------------------------------




--------------------------------------- Iteration      1(  10)  ---------------------------------------


    POTLOK:  cpu time    0.4200: real time    0.4313
    SETDIJ:  cpu time    0.0232: real time    0.0232
    EDDIAG:  cpu time    6.2777: real time    6.2791
  RMM-DIIS:  cpu time   21.7970: real time   21.8036
    ORTHCH:  cpu time    1.7645: real time    1.7651
       DOS:  cpu time    0.0095: real time    0.0095
    CHARGE:  cpu time    1.3474: real time    1.3475
    MIXING:  cpu time    0.0078: real time    0.0078
    --------------------------------------------
      LOOP:  cpu time   31.6463: real time   31.6671

 eigenvalue-minimisations  :  8855
 total energy-change (2. order) : 0.1451422E-01  (-0.5106239E-03)
 number of electron     670.0000062 magnetization      40.6343701
 augmentation part      397.8066729 magnetization      38.0904117

 DIPCOR: dipole corrections for dipol
 direction  3 min pos   247,
 dipolmoment           0.000000      0.000000      0.417166 electrons x Angstroem
 Tr[quadrupol]    -11010.309163

 energy correction for charged system         0.000000 eV
 dipol+quadrupol energy correction           -0.008672 eV
 added-field ion interaction         12.609699 eV  (added to PSCEN)


 Broyden mixing:
  rms(total) = 0.41960E+00    rms(broyden)= 0.41960E+00
  rms(prec ) = 0.54191E+00
  weight for this iteration     100.00

 eigenvalues of (default mixing * dielectric matrix)
  average eigenvalue GAMMA=   0.3783
  0.9986  0.9986  0.4846  0.4846  0.0364  0.1275  0.1099  0.0855  0.0786

 Free energy of the ion-electron system (eV)
  ---------------------------------------------------
  alpha Z        PSCENC =      1259.72029163
  Ewald energy   TEWEN  =    248297.82712452
  -Hartree energ DENC   =   -317350.33865614
  -exchange      EXHF   =         0.00000000
  -V(xc)+E(xc)   XCENC  =      2098.24321263
  PAW double counting   =     75235.90271460   -79642.44058951
  entropy T*S    EENTRO =        -0.08384120
  eigenvalues    EBANDS =     -1396.14961842
  atomic energy  EATOM  =     71132.72877437
  Solvation  Ediel_sol  =         0.00000000
  ---------------------------------------------------
  free energy    TOTEN  =      -364.59058750 eV

  energy without entropy =     -364.50674630  energy(sigma->0) =     -364.56264043


--------------------------------------------------------------------------------------------------------




--------------------------------------- Iteration      1(  11)  ---------------------------------------


    POTLOK:  cpu time    0.4251: real time    0.4394
    SETDIJ:  cpu time    0.0232: real time    0.0232
    EDDIAG:  cpu time    6.2719: real time    6.2733
  RMM-DIIS:  cpu time   21.7460: real time   21.7540
    ORTHCH:  cpu time    1.7711: real time    1.7713
       DOS:  cpu time    0.0095: real time    0.0095
    CHARGE:  cpu time    1.3527: real time    1.3529
    MIXING:  cpu time    0.0082: real time    0.0081
    --------------------------------------------
      LOOP:  cpu time   31.6078: real time   31.6318

 eigenvalue-minimisations  :  8819
 total energy-change (2. order) : 0.8460225E-01  (-0.1367357E-02)
 number of electron     670.0000062 magnetization      40.6417746
 augmentation part      397.8549267 magnetization      38.1133123

 DIPCOR: dipole corrections for dipol
 direction  3 min pos   245,
 dipolmoment           0.000000      0.000000      0.398845 electrons x Angstroem
 Tr[quadrupol]    -11010.267775

 energy correction for charged system         0.000000 eV
 dipol+quadrupol energy correction           -0.007927 eV
 added-field ion interaction          8.543126 eV  (added to PSCEN)


 Broyden mixing:
  rms(total) = 0.30079E+00    rms(broyden)= 0.30078E+00
  rms(prec ) = 0.35804E+00
  weight for this iteration     100.00

 eigenvalues of (default mixing * dielectric matrix)
  average eigenvalue GAMMA=   0.3924
  1.1708  1.1708  0.5189  0.5189  0.0364  0.1361  0.1083  0.1004  0.0859  0.0775

 Free energy of the ion-electron system (eV)
  ---------------------------------------------------
  alpha Z        PSCENC =      1255.65446330
  Ewald energy   TEWEN  =    248297.82712452
  -Hartree energ DENC   =   -317354.62670197
  -exchange      EXHF   =         0.00000000
  -V(xc)+E(xc)   XCENC  =      2098.36172703
  PAW double counting   =     75149.22070491   -79553.43090244
  entropy T*S    EENTRO =        -0.07390227
  eigenvalues    EBANDS =     -1390.16727271
  atomic energy  EATOM  =     71132.72877437
  Solvation  Ediel_sol  =         0.00000000
  ---------------------------------------------------
  free energy    TOTEN  =      -364.50598525 eV

  energy without entropy =     -364.43208298  energy(sigma->0) =     -364.48135116


--------------------------------------------------------------------------------------------------------




--------------------------------------- Iteration      1(  12)  ---------------------------------------


    POTLOK:  cpu time    0.4207: real time    0.4335
    SETDIJ:  cpu time    0.0231: real time    0.0231
    EDDIAG:  cpu time    6.2146: real time    6.2158
  RMM-DIIS:  cpu time   21.7321: real time   21.7398
    ORTHCH:  cpu time    1.7750: real time    1.7753
       DOS:  cpu time    0.0094: real time    0.0094
    CHARGE:  cpu time    1.3493: real time    1.3494
    MIXING:  cpu time    0.0082: real time    0.0082
    --------------------------------------------
      LOOP:  cpu time   31.5326: real time   31.5547

 eigenvalue-minimisations  :  8819
 total energy-change (2. order) : 0.7399521E-01  (-0.1039526E-02)
 number of electron     670.0000061 magnetization      40.6486659
 augmentation part      397.8894109 magnetization      38.1360761

 DIPCOR: dipole corrections for dipol
 direction  3 min pos   245,
 dipolmoment           0.000000      0.000000      0.389529 electrons x Angstroem
 Tr[quadrupol]    -11010.304786

 energy correction for charged system         0.000000 eV
 dipol+quadrupol energy correction           -0.007561 eV
 added-field ion interaction          8.343587 eV  (added to PSCEN)


 Broyden mixing:
  rms(total) = 0.14487E+00    rms(broyden)= 0.14486E+00
  rms(prec ) = 0.16910E+00
  weight for this iteration     100.00

 eigenvalues of (default mixing * dielectric matrix)
  average eigenvalue GAMMA=   0.4078
  1.2859  1.2859  0.5364  0.5364  0.3148  0.0364  0.1260  0.1134  0.0894  0.0834
  0.0774

 Free energy of the ion-electron system (eV)
  ---------------------------------------------------
  alpha Z        PSCENC =      1255.45529049
  Ewald energy   TEWEN  =    248297.82712452
  -Hartree energ DENC   =   -317357.03151715
  -exchange      EXHF   =         0.00000000
  -V(xc)+E(xc)   XCENC  =      2098.44881405
  PAW double counting   =     75098.38129594   -79501.18735365
  entropy T*S    EENTRO =        -0.07299504
  eigenvalues    EBANDS =     -1388.98142358
  atomic energy  EATOM  =     71132.72877437
  Solvation  Ediel_sol  =         0.00000000
  ---------------------------------------------------
  free energy    TOTEN  =      -364.43199004 eV

  energy without entropy =     -364.35899500  energy(sigma->0) =     -364.40765836


--------------------------------------------------------------------------------------------------------




--------------------------------------- Iteration      1(  13)  ---------------------------------------


    POTLOK:  cpu time    0.4203: real time    0.4320
    SETDIJ:  cpu time    0.0231: real time    0.0231
    EDDIAG:  cpu time    6.2159: real time    6.2174
  RMM-DIIS:  cpu time   21.7664: real time   21.7726
    ORTHCH:  cpu time    1.7746: real time    1.7748
       DOS:  cpu time    0.0094: real time    0.0094
    CHARGE:  cpu time    1.3484: real time    1.3486
    MIXING:  cpu time    0.0085: real time    0.0085
    --------------------------------------------
      LOOP:  cpu time   31.5675: real time   31.5864

 eigenvalue-minimisations  :  8837
 total energy-change (2. order) : 0.4115762E-01  (-0.8143623E-03)
 number of electron     670.0000061 magnetization      40.6516117
 augmentation part      397.9308118 magnetization      38.1601240

 DIPCOR: dipole corrections for dipol
 direction  3 min pos   245,
 dipolmoment           0.000000      0.000000      0.389368 electrons x Angstroem
 Tr[quadrupol]    -11010.336807

 energy correction for charged system         0.000000 eV
 dipol+quadrupol energy correction           -0.007555 eV
 added-field ion interaction          8.340144 eV  (added to PSCEN)


 Broyden mixing:
  rms(total) = 0.15155E+00    rms(broyden)= 0.15154E+00
  rms(prec ) = 0.16986E+00
  weight for this iteration     100.00

 eigenvalues of (default mixing * dielectric matrix)
  average eigenvalue GAMMA=   0.4190
  1.3712  1.3712  0.6133  0.6133  0.4199  0.0364  0.1317  0.1190  0.1071  0.0846
  0.0829  0.0769

 Free energy of the ion-electron system (eV)
  ---------------------------------------------------
  alpha Z        PSCENC =      1255.45185383
  Ewald energy   TEWEN  =    248297.82712452
  -Hartree energ DENC   =   -317358.82092823
  -exchange      EXHF   =         0.00000000
  -V(xc)+E(xc)   XCENC  =      2098.50795126
  PAW double counting   =     75064.59165758   -79466.33904336
  entropy T*S    EENTRO =        -0.07592473
  eigenvalues    EBANDS =     -1388.26229767
  atomic energy  EATOM  =     71132.72877437
  Solvation  Ediel_sol  =         0.00000000
  ---------------------------------------------------
  free energy    TOTEN  =      -364.39083242 eV

  energy without entropy =     -364.31490769  energy(sigma->0) =     -364.36552418


--------------------------------------------------------------------------------------------------------




--------------------------------------- Iteration      1(  14)  ---------------------------------------


    POTLOK:  cpu time    0.4204: real time    0.4315
    SETDIJ:  cpu time    0.0232: real time    0.0232
    EDDIAG:  cpu time    6.2036: real time    6.2053
  RMM-DIIS:  cpu time   21.7473: real time   21.7520
    ORTHCH:  cpu time    1.7650: real time    1.7657
       DOS:  cpu time    0.0087: real time    0.0087
    CHARGE:  cpu time    1.3447: real time    1.3448
    MIXING:  cpu time    0.0087: real time    0.0087
    --------------------------------------------
      LOOP:  cpu time   31.5216: real time   31.5400

 eigenvalue-minimisations  :  8834
 total energy-change (2. order) : 0.2258245E-01  (-0.4490475E-03)
 number of electron     670.0000061 magnetization      40.6512040
 augmentation part      397.9553704 magnetization      38.1483143

 DIPCOR: dipole corrections for dipol
 direction  3 min pos   245,
 dipolmoment           0.000000      0.000000      0.392652 electrons x Angstroem
 Tr[quadrupol]    -11010.376647

 energy correction for charged system         0.000000 eV
 dipol+quadrupol energy correction           -0.007683 eV
 added-field ion interaction          8.410491 eV  (added to PSCEN)


 Broyden mixing:
  rms(total) = 0.88362E-01    rms(broyden)= 0.88358E-01
  rms(prec ) = 0.10241E+00
  weight for this iteration     100.00

 eigenvalues of (default mixing * dielectric matrix)
  average eigenvalue GAMMA=   0.4132
  1.4188  1.4188  0.6422  0.6422  0.4223  0.1993  0.0364  0.1300  0.1088  0.1088
  0.0858  0.0812  0.0768

 Free energy of the ion-electron system (eV)
  ---------------------------------------------------
  alpha Z        PSCENC =      1255.52207192
  Ewald energy   TEWEN  =    248297.82712452
  -Hartree energ DENC   =   -317360.63041426
  -exchange      EXHF   =         0.00000000
  -V(xc)+E(xc)   XCENC  =      2098.52137365
  PAW double counting   =     75047.66750112   -79448.75722921
  entropy T*S    EENTRO =        -0.07318224
  eigenvalues    EBANDS =     -1387.17426986
  atomic energy  EATOM  =     71132.72877437
  Solvation  Ediel_sol  =         0.00000000
  ---------------------------------------------------
  free energy    TOTEN  =      -364.36824997 eV

  energy without entropy =     -364.29506774  energy(sigma->0) =     -364.34385590


--------------------------------------------------------------------------------------------------------




--------------------------------------- Iteration      1(  15)  ---------------------------------------


    POTLOK:  cpu time    0.4173: real time    0.4294
    SETDIJ:  cpu time    0.0231: real time    0.0231
    EDDIAG:  cpu time    6.2056: real time    6.2067
  RMM-DIIS:  cpu time   21.7395: real time   21.7464
    ORTHCH:  cpu time    1.7683: real time    1.7685
       DOS:  cpu time    0.0092: real time    0.0092
    CHARGE:  cpu time    1.3448: real time    1.3450
    MIXING:  cpu time    0.0090: real time    0.0090
    --------------------------------------------
      LOOP:  cpu time   31.5160: real time   31.5373

 eigenvalue-minimisations  :  8811
 total energy-change (2. order) : 0.7321002E-03  (-0.1970660E-03)
 number of electron     670.0000061 magnetization      40.6498906
 augmentation part      397.9592251 magnetization      38.1392651

 DIPCOR: dipole corrections for dipol
 direction  3 min pos   245,
 dipolmoment           0.000000      0.000000      0.393336 electrons x Angstroem
 Tr[quadrupol]    -11010.391306

 energy correction for charged system         0.000000 eV
 dipol+quadrupol energy correction           -0.007710 eV
 added-field ion interaction          8.425124 eV  (added to PSCEN)


 Broyden mixing:
  rms(total) = 0.82906E-01    rms(broyden)= 0.82904E-01
  rms(prec ) = 0.97597E-01
  weight for this iteration     100.00

 eigenvalues of (default mixing * dielectric matrix)
  average eigenvalue GAMMA=   0.4568
  1.6234  1.6234  0.7655  0.7655  0.4387  0.4387  0.0364  0.1337  0.1156  0.1156
  0.0960  0.0856  0.0807  0.0767

 Free energy of the ion-electron system (eV)
  ---------------------------------------------------
  alpha Z        PSCENC =      1255.53667848
  Ewald energy   TEWEN  =    248297.82712452
  -Hartree energ DENC   =   -317361.32418531
  -exchange      EXHF   =         0.00000000
  -V(xc)+E(xc)   XCENC  =      2098.52072864
  PAW double counting   =     75042.31305997   -79443.19279665
  entropy T*S    EENTRO =        -0.07246856
  eigenvalues    EBANDS =     -1386.70443334
  atomic energy  EATOM  =     71132.72877437
  Solvation  Ediel_sol  =         0.00000000
  ---------------------------------------------------
  free energy    TOTEN  =      -364.36751787 eV

  energy without entropy =     -364.29504931  energy(sigma->0) =     -364.34336169


--------------------------------------------------------------------------------------------------------




--------------------------------------- Iteration      1(  16)  ---------------------------------------


    POTLOK:  cpu time    0.4194: real time    0.4318
    SETDIJ:  cpu time    0.0232: real time    0.0232
    EDDIAG:  cpu time    6.2127: real time    6.2142
  RMM-DIIS:  cpu time   21.7401: real time   21.7470
    ORTHCH:  cpu time    1.7684: real time    1.7687
       DOS:  cpu time    0.0093: real time    0.0093
    CHARGE:  cpu time    1.3452: real time    1.3453
    MIXING:  cpu time    0.0092: real time    0.0092
    --------------------------------------------
      LOOP:  cpu time   31.5283: real time   31.5487

 eigenvalue-minimisations  :  8818
 total energy-change (2. order) :-0.5869990E-02  (-0.2873427E-03)
 number of electron     670.0000061 magnetization      40.6482035
 augmentation part      397.9790050 magnetization      38.1399438

 DIPCOR: dipole corrections for dipol
 direction  3 min pos   245,
 dipolmoment           0.000000      0.000000      0.394534 electrons x Angstroem
 Tr[quadrupol]    -11010.452063

 energy correction for charged system         0.000000 eV
 dipol+quadrupol energy correction           -0.007757 eV
 added-field ion interaction          8.450798 eV  (added to PSCEN)


 Broyden mixing:
  rms(total) = 0.11639E+00    rms(broyden)= 0.11639E+00
  rms(prec ) = 0.13406E+00
  weight for this iteration     100.00

 eigenvalues of (default mixing * dielectric matrix)
  average eigenvalue GAMMA=   0.4615
  1.7420  1.7420  0.8298  0.8298  0.4628  0.4628  0.0364  0.1418  0.1240  0.1167
  0.1054  0.0880  0.0765  0.0835  0.0804

 Free energy of the ion-electron system (eV)
  ---------------------------------------------------
  alpha Z        PSCENC =      1255.56230511
  Ewald energy   TEWEN  =    248297.82712452
  -Hartree energ DENC   =   -317364.19469473
  -exchange      EXHF   =         0.00000000
  -V(xc)+E(xc)   XCENC  =      2098.52036726
  PAW double counting   =     75016.67911091   -79416.66163078
  entropy T*S    EENTRO =        -0.07171689
  eigenvalues    EBANDS =     -1384.76302764
  atomic energy  EATOM  =     71132.72877437
  Solvation  Ediel_sol  =         0.00000000
  ---------------------------------------------------
  free energy    TOTEN  =      -364.37338786 eV

  energy without entropy =     -364.30167097  energy(sigma->0) =     -364.34948223


--------------------------------------------------------------------------------------------------------




--------------------------------------- Iteration      1(  17)  ---------------------------------------


    POTLOK:  cpu time    0.4228: real time    0.4347
    SETDIJ:  cpu time    0.0232: real time    0.0232
    EDDIAG:  cpu time    6.2159: real time    6.2174
  RMM-DIIS:  cpu time   21.7141: real time   21.7203
    ORTHCH:  cpu time    1.7669: real time    1.7671
       DOS:  cpu time    0.0093: real time    0.0093
    CHARGE:  cpu time    1.3592: real time    1.3594
    MIXING:  cpu time    0.0096: real time    0.0096
    --------------------------------------------
      LOOP:  cpu time   31.5201: real time   31.5409

 eigenvalue-minimisations  :  8813
 total energy-change (2. order) :-0.3028513E-02  (-0.2160240E-03)
 number of electron     670.0000061 magnetization      40.6456272
 augmentation part      397.9978630 magnetization      38.1408931

 DIPCOR: dipole corrections for dipol
 direction  3 min pos   234,
 dipolmoment           0.000000      0.000000      0.399066 electrons x Angstroem
 Tr[quadrupol]    -11009.916535

 energy correction for charged system         0.000000 eV
 dipol+quadrupol energy correction           -0.007936 eV
 added-field ion interaction        -10.783038 eV  (added to PSCEN)


 Broyden mixing:
  rms(total) = 0.82710E-01    rms(broyden)= 0.82707E-01
  rms(prec ) = 0.10552E+00
  weight for this iteration     100.00

[...]
   -.500E+01 -.294E+01 -.815E+03   0.494E+01 0.290E+01 0.814E+03   0.437E-01 0.259E-01 0.462E+00   0.258E-02 0.114E-02 -.393E-02
   -.357E+00 -.176E+00 0.320E+04   0.329E+00 0.158E+00 -.320E+04   0.386E-01 0.217E-01 -.132E+01   -.230E-02 0.482E-03 0.103E-02
   -.916E+02 -.530E+02 -.288E+04   0.933E+02 0.539E+02 0.288E+04   -.172E+01 -.991E+00 0.506E+00   -.740E-03 -.217E-02 -.627E-03
   -.344E+01 -.367E+00 0.120E+04   0.342E+01 0.465E+00 -.121E+04   0.402E-01 -.874E-01 -.158E+00   -.353E-02 0.155E-02 -.350E-02
   0.491E+01 -.282E+01 -.815E+03   -.485E+01 0.278E+01 0.814E+03   -.453E-01 0.267E-01 0.462E+00   -.128E-02 0.544E-05 -.536E-02
   0.111E+00 0.974E+00 0.320E+04   -.148E+00 -.963E+00 -.320E+04   0.234E-01 0.123E-02 -.145E+01   -.287E-02 0.565E-03 -.242E-03
   0.113E+03 -.558E+02 -.285E+04   -.115E+03 0.566E+02 0.285E+04   0.192E+01 -.871E+00 0.472E+00   0.172E-02 0.537E-03 -.722E-03
   0.129E+00 0.642E+01 0.121E+04   -.130E+00 -.645E+01 -.121E+04   -.143E-03 -.707E-02 -.238E+00   -.124E-02 0.924E-03 -.300E-02
   -.825E+01 0.700E+01 -.831E+03   0.839E+01 -.717E+01 0.831E+03   -.154E+00 0.174E+00 0.322E+00   -.194E-02 0.231E-02 -.355E-02
   -.102E+00 0.948E+00 0.320E+04   0.139E+00 -.935E+00 -.320E+04   -.236E-01 0.163E-02 -.145E+01   0.225E-02 -.113E-02 -.162E-02
   -.113E+03 -.556E+02 -.285E+04   0.115E+03 0.565E+02 0.285E+04   -.192E+01 -.868E+00 0.471E+00   0.675E-03 0.256E-02 0.127E-03
   0.345E+01 -.493E+00 0.120E+04   -.343E+01 0.593E+00 -.121E+04   -.412E-01 -.879E-01 -.159E+00   0.355E-02 0.348E-03 -.460E-02
   0.840E+01 0.690E+01 -.830E+03   -.854E+01 -.707E+01 0.830E+03   0.154E+00 0.171E+00 0.323E+00   0.635E-03 0.289E-02 -.256E-02
   -.873E+00 -.389E+00 0.320E+04   0.880E+00 0.351E+00 -.320E+04   -.135E-01 0.190E-01 -.145E+01   0.292E-02 -.226E-02 -.169E-02
   -.821E+01 0.126E+03 -.285E+04   0.842E+01 -.128E+03 0.285E+04   -.210E+00 0.210E+01 0.473E+00   -.298E-02 -.779E-03 0.196E-03
   0.215E+01 -.277E+01 0.120E+04   -.222E+01 0.270E+01 -.121E+04   0.557E-01 0.801E-01 -.159E+00   0.259E-02 -.305E-02 -.484E-02
   -.373E+01 0.214E+01 -.837E+03   0.371E+01 -.212E+01 0.839E+03   0.201E-01 -.115E-01 -.118E+01   0.211E-03 -.506E-04 -.121E-02
   0.212E-01 -.114E+01 0.320E+04   -.232E-01 0.118E+01 -.320E+04   0.161E-03 -.218E-01 -.127E+01   0.183E-02 -.264E-02 -.663E-03
   -.208E-01 0.285E+02 -.285E+04   0.195E-01 -.291E+02 0.285E+04   0.461E-02 0.573E+00 0.322E+01   -.237E-02 -.207E-02 0.905E-03
   -.206E+01 -.261E+01 0.121E+04   0.213E+01 0.254E+01 -.121E+04   -.556E-01 0.794E-01 -.159E+00   -.760E-04 -.286E-02 -.581E-02
   0.531E-01 0.579E+01 -.815E+03   -.528E-01 -.571E+01 0.814E+03   -.107E-03 -.503E-01 0.462E+00   -.245E-03 -.287E-02 -.581E-02
   0.868E+00 -.355E+00 0.320E+04   -.874E+00 0.315E+00 -.320E+04   0.130E-01 0.189E-01 -.145E+01   -.283E-02 -.426E-03 -.367E-03
   0.764E+01 0.126E+03 -.285E+04   -.783E+01 -.128E+03 0.285E+04   0.200E+00 0.209E+01 0.469E+00   0.278E-02 -.108E-02 -.583E-03
   0.539E+01 0.318E+01 0.121E+04   -.550E+01 -.324E+01 -.121E+04   0.735E-01 0.435E-01 -.214E+00   -.329E-02 -.901E-03 -.256E-02
   0.361E+01 0.226E+01 -.837E+03   -.359E+01 -.225E+01 0.839E+03   -.186E-01 -.105E-01 -.118E+01   0.403E-03 -.136E-02 -.561E-02
   -.160E-01 0.724E-02 0.320E+04   0.174E-01 -.665E-02 -.320E+04   0.424E-03 -.744E-03 -.121E+01   -.192E-02 -.278E-03 -.159E-02
   0.260E+00 -.216E+00 -.288E+04   -.271E+00 0.222E+00 0.287E+04   0.103E-01 -.673E-02 0.339E+01   0.273E-02 0.248E-03 0.800E-04
   -.540E+01 0.310E+01 0.121E+04   0.551E+01 -.316E+01 -.121E+04   -.740E-01 0.429E-01 -.213E+00   0.771E-03 -.121E-02 -.184E-02
   0.640E-01 0.800E+01 -.809E+03   -.632E-01 -.793E+01 0.808E+03   -.490E-03 -.550E-01 0.481E+00   -.374E-03 0.109E-02 -.145E-02
   0.492E+02 0.285E+02 -.230E+04   -.508E+02 -.294E+02 0.233E+04   0.160E+01 0.933E+00 -.293E+02   -.189E-02 -.513E-03 -.131E-03
   -.971E-01 -.569E+02 -.230E+04   0.104E+00 0.587E+02 0.233E+04   -.807E-02 -.185E+01 -.293E+02   0.638E-03 0.101E-02 0.562E-03
   -.126E-01 -.675E-02 -.231E+04   0.172E-01 0.783E-02 0.233E+04   -.360E-02 0.804E-03 -.284E+02   -.102E-02 -.751E-03 0.385E-03
   -.487E+02 0.281E+02 -.230E+04   0.502E+02 -.290E+02 0.233E+04   -.150E+01 0.867E+00 -.292E+02   0.109E-02 0.576E-03 0.190E-02
   -.465E+00 0.188E+00 -.231E+04   0.533E+00 -.219E+00 0.234E+04   -.688E-01 0.320E-01 -.310E+02   -.296E-03 0.480E-03 0.163E-02
 -----------------------------------------------------------------------------------------------
   -.136E-01 0.162E-01 0.155E+03   -.212E-13 0.881E-12 -.728E-11   0.127E-01 -.100E-01 -.155E+03   -.753E-03 0.480E-03 -.120E+00
 
 
 POSITION                                       TOTAL-FORCE (eV/Angst)
 -----------------------------------------------------------------------------------
     -0.00000      1.94796      2.00000        -0.020351      0.006816      0.254843
     -0.04857      1.96193      8.05790         0.025155     -0.021151     -0.017763
      1.24593      1.22862      4.03457         0.024865      0.017856     -0.213883
      0.00125      0.51162      6.00489        -0.006597     -0.003626     -0.019201
      2.49184      1.94796      2.00000         0.025526      0.014158      0.246361
      2.47116      1.94052      8.22576        -0.017276     -0.011144     -0.001348
      3.73777      1.22862      4.03457        -0.003572      0.033403     -0.110313
      2.48654      0.52143      6.02682         0.005937     -0.007158     -0.007368
      4.98369      1.94796      2.00000        -0.025710      0.014283      0.245877
      4.99398      1.94239      8.21912         0.025866     -0.014475      0.011039
      6.22962      1.22862      4.03457        -0.029098      0.017023     -0.217059
      4.98556      0.52141      6.02602        -0.004292     -0.006873     -0.005438
      7.47553      1.94796      2.00000         0.020251      0.006698      0.255006
      7.51601      1.96298      8.05724        -0.020835     -0.023113     -0.016963
      8.72146      1.22862      4.03457        -0.001936      0.050860     -0.268534
      7.47134      0.51189      6.00480         0.007644     -0.004294     -0.019077
     -1.24593      4.10596      2.00000         0.000147     -0.010923      0.258037
     -1.24847      4.07898      8.07231        -0.000128      0.047238     -0.005352
      0.00000      3.38662      4.03457        -0.003083     -0.018247     -0.246245
     -1.24752      2.67284      6.04299         0.000302     -0.001919     -0.014252
      1.24592      4.10596      2.00000         0.009524     -0.006052      0.190739
      1.22343      4.11935      7.95188        -0.003360      0.001906      0.018871
      2.49185      3.38662      4.03457         0.022778     -0.013019     -0.107477
      1.25184      2.65951      6.02735        -0.002137      0.008047     -0.007876
      3.73776      4.10596      2.00000         0.000021     -0.030013      0.246321
      3.73428      4.12869      8.22535         0.001178      0.021107     -0.000869
      4.98369      3.38662      4.03457        -0.030436     -0.013356     -0.110285
      3.73552      2.66882      6.07317         0.001402     -0.000721      0.007018
      6.22961      4.10596      2.00000        -0.009696     -0.006151      0.190950
      6.24668      4.11982      7.95100         0.003548      0.001084      0.020581
      7.47554      3.38662      4.03457         0.000438     -0.017245     -0.249067
      6.22028      2.65987      6.02603         0.003717      0.007291     -0.005386
     -2.49185      6.26396      2.00000        -0.009083      0.004664      0.258129
     -2.51909      6.28017      8.07240         0.040536     -0.023512     -0.005000
     -1.24592      5.54462      4.03457        -0.001599      0.001347     -0.274052
     -2.49294      4.82620      6.00545        -0.013691     -0.007737     -0.007798
     -0.00000      6.26396      2.00000         0.009071      0.004491      0.257952
      0.02252      6.28033      8.07220        -0.040457     -0.023300     -0.005259
      1.24593      5.54462      4.03457         0.014367      0.012215     -0.246405
     -0.00119      4.82616      6.00549         0.013132     -0.007569     -0.008182
      2.49184      6.26396      2.00000        -0.016575      0.013356      0.254847
      2.45585      6.29969      8.05787         0.030988     -0.011061     -0.017555
      3.73777      5.54462      4.03457        -0.002864     -0.030093     -0.214114
      2.50166      4.82431      6.02730        -0.007964     -0.002325     -0.007844
      4.98369      6.26396      2.00000         0.016399      0.013217      0.254997
      5.01433      6.29867      8.05723        -0.029865     -0.009031     -0.016863
      6.22962      5.54462      4.03457        -0.017781      0.012079     -0.247176
      4.97077      4.82416      6.02674         0.009240     -0.001666     -0.007130
     -3.73777      8.42196      2.00000        -0.003750     -0.021634      0.255018
     -3.75203      8.37897      8.05750        -0.007365      0.029950     -0.017516
     -2.49184      7.70262      4.03457        -0.018945      0.010089     -0.247196
     -3.73479      6.98187      6.04292        -0.001954      0.001053     -0.013565
     -1.24593      8.42196      2.00000         0.000016      0.010610      0.190952
     -1.24905      8.40094      7.95115         0.000946     -0.003632      0.020273
      0.00000      7.70262      4.03457         0.015329      0.008717     -0.249181
     -1.24708      6.98414      6.00548        -0.000089      0.015795     -0.007838
      1.24592      8.42196      2.00000         0.003823     -0.021712      0.254994
      1.25345      8.38006      8.05728         0.009892      0.029901     -0.016434
      2.49185      7.70262      4.03457        -0.044787     -0.023251     -0.268759
      1.24046      6.98221      6.04293         0.001931      0.000811     -0.013912
      3.73776      8.42196      2.00000        -0.000069     -0.000523      0.190286
      3.73438      8.42424      7.95623         0.001490     -0.000677      0.025992
      4.98369      7.70262      4.03457         0.041332     -0.023501     -0.268764
      3.73653      6.98129      6.00484        -0.000026      0.007619     -0.019210
      1.11649      1.15784      9.20383        -0.004630     -0.001707     -0.017091
      3.73513      5.69320      9.20376        -0.000088      0.005801     -0.016706
     -1.24818      5.54639      9.18071         0.000005      0.001034     -0.042562
      6.34689      1.16145      9.20099         0.014355     -0.008789     -0.014284
      3.73454      2.67017      9.31332        -0.001064      0.000684      0.005069
 -----------------------------------------------------------------------------------
    total drift:                               -0.001597      0.006710      0.035992


--------------------------------------------------------------------------------------------------------



  FREE ENERGIE OF THE ION-ELECTRON SYSTEM (eV)
  ---------------------------------------------------
  free  energy   TOTEN  =      -382.70475365 eV

  energy  without entropy=     -382.63350667  energy(sigma->0) =     -382.68100466
 
 d Force = 0.1798376E-02[ 0.589E-04, 0.354E-02]  d Energy = 0.2469157E-02-0.671E-03
 d Force =-0.2982881E+02[-0.299E+02,-0.298E+02]  d Ewald  =-0.2982881E+02-0.122E-05


--------------------------------------------------------------------------------------------------------


    POTLOK:  cpu time    0.4423: real time    0.4424


--------------------------------------------------------------------------------------------------------


 stress matrix after NEB project (eV)
    -31.48348     -0.06319      0.14730
     -0.06319    -31.58173     -0.11096
      0.14730     -0.11096     -9.03221
  FORCES: max atom, RMS     0.047540    0.018972
  FORCE total and by dimension    0.157596    0.047238
  Stress total and by dimension   45.500237   31.581728
 Steepest descent step on ions:
 trial-energy change:   -0.002469  1 .order   -0.001798   -0.003538   -0.000059
  (g-gl).g = 0.354E-02      g.g   = 0.354E-02  gl.gl    = 0.000E+00
 g(Force)  = 0.354E-02   g(Stress)= 0.000E+00 ortho     = 0.000E+00
 gamma     =   0.00000
 trial     =   1.00000
 opt step  =   1.00782  (harmonic =   1.01694) maximal distance =0.00588972
 next E    =  -382.704754   (d E  =  -0.00247)


--------------------------------------------------------------------------------------------------------


  
 reached required accuracy - stopping structural energy minimisation
 writing wavefunctions
     LOOP+:  cpu time  752.9882: real time  783.3031
    4ORBIT:  cpu time    0.0000: real time    0.0000
 


 total charge     
 
# of ion       s       p       d       tot
------------------------------------------
    1        0.485   0.377   8.305   9.167
    2        0.502   0.523   8.331   9.356
    3        0.498   0.503   8.315   9.315
    4        0.498   0.507   8.321   9.326
    5        0.487   0.377   8.304   9.167
    6        0.476   0.586   8.340   9.402
    7        0.493   0.498   8.309   9.301
    8        0.498   0.497   8.318   9.313
    9        0.487   0.377   8.304   9.167
   10        0.477   0.587   8.340   9.404
   11        0.498   0.503   8.315   9.316
   12        0.498   0.498   8.318   9.313
   13        0.485   0.377   8.305   9.167
   14        0.502   0.523   8.331   9.356
   15        0.497   0.503   8.312   9.312
   16        0.498   0.507   8.321   9.326
   17        0.487   0.378   8.301   9.165
   18        0.496   0.509   8.321   9.326
   19        0.496   0.500   8.312   9.308
   20        0.505   0.508   8.330   9.343
   21        0.488   0.377   8.298   9.163
   22        0.474   0.375   8.359   9.208
   23        0.493   0.498   8.309   9.301
   24        0.497   0.497   8.318   9.312
   25        0.487   0.377   8.304   9.167
   26        0.476   0.586   8.340   9.402
   27        0.493   0.498   8.309   9.301
   28        0.483   0.474   8.317   9.274
   29        0.488   0.377   8.298   9.163
   30        0.474   0.376   8.359   9.208
   31        0.496   0.500   8.312   9.309
   32        0.498   0.498   8.318   9.313
   33        0.487   0.378   8.301   9.165
   34        0.496   0.509   8.321   9.326
   35        0.500   0.505   8.317   9.321
   36        0.498   0.505   8.321   9.325
   37        0.487   0.378   8.301   9.165
   38        0.496   0.509   8.321   9.326
   39        0.496   0.500   8.312   9.308
   40        0.498   0.505   8.321   9.325
   41        0.485   0.377   8.305   9.167
   42        0.502   0.523   8.331   9.356
   43        0.498   0.503   8.315   9.315
   44        0.497   0.497   8.318   9.312
   45        0.485   0.377   8.305   9.167
   46        0.502   0.523   8.331   9.356
   47        0.496   0.500   8.312   9.309
   48        0.498   0.497   8.318   9.313
   49        0.485   0.377   8.305   9.167
   50        0.502   0.523   8.331   9.356
   51        0.496   0.500   8.312   9.309
   52        0.505   0.508   8.331   9.343
   53        0.488   0.377   8.298   9.163
   54        0.474   0.376   8.359   9.208
   55        0.496   0.500   8.312   9.309
   56        0.498   0.505   8.321   9.325
   57        0.485   0.377   8.305   9.167
   58        0.502   0.522   8.331   9.356
   59        0.497   0.503   8.312   9.312
   60        0.505   0.508   8.330   9.343
   61        0.490   0.376   8.299   9.165
   62        0.474   0.378   8.362   9.213
   63        0.497   0.503   8.312   9.312
   64        0.498   0.507   8.321   9.326
   65        1.585   3.336   0.000   4.921
   66        1.585   3.336   0.000   4.921
   67        1.583   3.335   0.000   4.918
   68        1.585   3.336   0.000   4.921
   69        1.588   3.332   0.000   4.920
--------------------------------------------------
tot         39.448  46.671 532.389 618.508
 


 magnetization (x)
 
# of ion       s       p       d       tot
------------------------------------------
    1       -0.009  -0.025   0.706   0.672
    2       -0.003  -0.012   0.477   0.462
    3       -0.007  -0.025   0.759   0.728
    4       -0.007  -0.023   0.724   0.694
    5       -0.007  -0.025   0.712   0.679
    6       -0.003  -0.007   0.183   0.172
    7       -0.006  -0.024   0.745   0.714
    8       -0.005  -0.023   0.718   0.690
    9       -0.007  -0.025   0.711   0.679
   10       -0.004  -0.008   0.183   0.172
   11       -0.007  -0.025   0.760   0.728
   12       -0.005  -0.023   0.718   0.690
   13       -0.009  -0.025   0.706   0.672
   14       -0.003  -0.012   0.477   0.462
   15       -0.006  -0.025   0.729   0.699
   16       -0.007  -0.023   0.724   0.694
   17       -0.005  -0.024   0.726   0.697
   18       -0.002  -0.012   0.579   0.565
   19       -0.005  -0.025   0.729   0.699
   20       -0.005  -0.020   0.577   0.552
   21       -0.003  -0.025   0.746   0.719
   22       -0.009  -0.012   0.777   0.757
   23       -0.006  -0.024   0.744   0.714
   24       -0.005  -0.023   0.718   0.690
   25       -0.007  -0.025   0.712   0.679
   26       -0.003  -0.007   0.183   0.172
   27       -0.006  -0.024   0.745   0.714
   28       -0.006  -0.019   0.702   0.677
   29       -0.002  -0.025   0.746   0.719
   30       -0.009  -0.012   0.777   0.756
   31       -0.005  -0.025   0.728   0.698
   32       -0.005  -0.023   0.718   0.690
   33       -0.005  -0.024   0.726   0.697
   34       -0.002  -0.012   0.579   0.565
   35       -0.005  -0.024   0.752   0.722
   36       -0.007  -0.023   0.718   0.689
   37       -0.005  -0.024   0.726   0.697
   38       -0.002  -0.012   0.579   0.565
   39       -0.005  -0.025   0.729   0.699
   40       -0.007  -0.023   0.719   0.689
   41       -0.009  -0.025   0.706   0.672
   42       -0.003  -0.012   0.477   0.462
   43       -0.007  -0.025   0.759   0.728
   44       -0.005  -0.023   0.718   0.690
   45       -0.009  -0.025   0.706   0.672
   46       -0.003  -0.012   0.477   0.462
   47       -0.005  -0.025   0.729   0.699
   48       -0.005  -0.023   0.718   0.690
   49       -0.009  -0.025   0.706   0.672
   50       -0.003  -0.012   0.477   0.462
   51       -0.005  -0.025   0.729   0.699
   52       -0.005  -0.020   0.577   0.552
   53       -0.002  -0.025   0.746   0.719
   54       -0.009  -0.012   0.777   0.756
   55       -0.005  -0.025   0.728   0.698
   56       -0.007  -0.023   0.718   0.689
   57       -0.009  -0.025   0.706   0.672
   58       -0.003  -0.012   0.477   0.462
   59       -0.006  -0.025   0.729   0.699
   60       -0.005  -0.020   0.577   0.552
   61       -0.000  -0.026   0.741   0.715
   62       -0.007  -0.015   0.761   0.739
   63       -0.006  -0.025   0.729   0.699
   64       -0.007  -0.023   0.724   0.694
   65        0.001   0.070   0.000   0.072
   66        0.001   0.070   0.000   0.072
   67        0.002   0.118   0.000   0.121
   68        0.001   0.070   0.000   0.071
   69        0.001   0.012   0.000   0.013
--------------------------------------------------
tot         -0.340  -0.993  42.658  41.325
 

 total amount of memory used by VASP MPI-rank0   114637. kBytes
=======================================================================

   base      :      30000. kBytes
   nonlr-proj:      12351. kBytes
   fftplans  :       6402. kBytes
   grid      :      16455. kBytes
   one-center:         93. kBytes
   wavefun   :      49336. kBytes
 
  
  
 General timing and accounting informations for this job:
 ========================================================
  
                  Total CPU time used (sec):     1993.770
                            User time (sec):     1874.749
                          System time (sec):      119.021
                         Elapsed time (sec):     2028.520
  
                   Maximum memory used (kb):      348800.
                   Average memory used (kb):           0.
  
                          Minor page faults:     21060348
                          Major page faults:            0
                 Voluntary context switches:         4350
