SQS-NiFe                                
           1
     9.967380    0.000000    0.000000
    -4.983690    8.632004    0.000000
     0.000000    0.000000   21.103750
   Ni   O 
  64   5
Direct configuration=     1
   0.11283300  0.22566700  0.09477000
   0.10878465  0.22730474  0.38192409
   0.19616700  0.14233300  0.19117800
   0.02984034  0.05930751  0.28462483
   0.36283300  0.22566700  0.09477000
   0.36023371  0.22476511  0.38979123
   0.44616700  0.14233300  0.19117800
   0.27965550  0.06053572  0.28560985
   0.61283300  0.22566700  0.09477000
   0.61358526  0.22497398  0.38944375
   0.69616700  0.14233300  0.19117800
   0.53052490  0.06053217  0.28556757
   0.86283300  0.22566700  0.09477000
   0.86774460  0.22743582  0.38189243
   0.94616700  0.14233300  0.19117800
   0.77918479  0.05934467  0.28462030
   0.11283300  0.47566700  0.09477000
   0.11113649  0.47278163  0.38266395
   0.19616700  0.39233300  0.19117800
   0.02966176  0.30964571  0.28634320
   0.36283300  0.47566700  0.09477000
   0.36136291  0.47720897  0.37674286
   0.44616700  0.39233300  0.19117800
   0.27962334  0.30795768  0.28563662
   0.61283300  0.47566700  0.09477000
   0.61383919  0.47839609  0.38977179
   0.69616700  0.39233300  0.19117800
   0.52935812  0.30917974  0.28774400
   0.86283300  0.47566700  0.09477000
   0.86533193  0.47726675  0.37669755
   0.94616700  0.39233300  0.19117800
   0.77800529  0.30800316  0.28556782
   0.11283300  0.72566700  0.09477000
   0.11116232  0.72742490  0.38266721
   0.19616700  0.64233300  0.19117800
   0.02969431  0.55922855  0.28458826
   0.36283300  0.72566700  0.09477000
   0.36579896  0.72744196  0.38265739
   0.44616700  0.64233300  0.19117800
   0.27930801  0.55922443  0.28459123
   0.61283300  0.72566700  0.09477000
   0.61127555  0.72978539  0.38192453
   0.69616700  0.64233300  0.19117800
   0.53056926  0.55890853  0.28563384
   0.86283300  0.72566700  0.09477000
   0.86791964  0.72966747  0.38188872
   0.94616700  0.64233300  0.19117800
   0.77800881  0.55888568  0.28560533
   0.11283300  0.97566700  0.09477000
   0.10893170  0.97067887  0.38189986
   0.19616700  0.89233300  0.19117800
   0.02971792  0.80883636  0.28633940
   0.36283300  0.97566700  0.09477000
   0.36130799  0.97324882  0.37670626
   0.44616700  0.89233300  0.19117800
   0.27931013  0.80884803  0.28458942
   0.61283300  0.97566700  0.09477000
   0.61113097  0.97083301  0.38189310
   0.69616700  0.89233300  0.19117800
   0.52888550  0.80887336  0.28633886
   0.86283300  0.97566700  0.09477000
   0.86261922  0.97593235  0.37689552
   0.94616700  0.89233300  0.19117800
   0.77922169  0.80868832  0.28462208
   0.17909806  0.13414760  0.43603935
   0.70449047  0.65952527  0.43603306
   0.19604251  0.64253631  0.43475027
   0.70398985  0.13460286  0.43588787
   0.52933855  0.30933751  0.44135425
Direct configuration=     2
   0.11283300  0.22566700  0.09477000
   0.10876954  0.22728573  0.38182296
   0.19616700  0.14233300  0.19117800
   0.02976055  0.05927004  0.28454154
   0.36283300  0.22566700  0.09477000
   0.36032792  0.22480540  0.38977708
   0.44616700  0.14233300  0.19117800
   0.27967082  0.06040663  0.28558066
   0.61283300  0.22566700  0.09477000
   0.61354347  0.22502201  0.38946268
   0.69616700  0.14233300  0.19117800
   0.53038924  0.06040391  0.28554271
   0.86283300  0.22566700  0.09477000
   0.86776452  0.22740689  0.38179204
   0.94616700  0.14233300  0.19117800
   0.77922929  0.05930131  0.28453734
   0.11283300  0.47566700  0.09477000
   0.11101503  0.47254114  0.38250616
   0.19616700  0.39233300  0.19117800
   0.02966137  0.30964358  0.28634677
   0.36283300  0.47566700  0.09477000
   0.36135228  0.47721846  0.37679931
   0.44616700  0.39233300  0.19117800
   0.27964336  0.30809851  0.28560563
   0.61283300  0.47566700  0.09477000
   0.61380017  0.47830033  0.38975789
   0.69616700  0.39233300  0.19117800
   0.52936300  0.30917726  0.28777677
   0.86283300  0.47566700  0.09477000
   0.86534834  0.47727266  0.37675757
   0.94616700  0.39233300  0.19117800
   0.77813399  0.30814030  0.28554302
   0.11283300  0.72566700  0.09477000
   0.11103934  0.72754484  0.38251022
   0.19616700  0.64233300  0.19117800
   0.02944297  0.55910480  0.28456789
   0.36283300  0.72566700  0.09477000
   0.36604115  0.72756334  0.38250090
   0.44616700  0.64233300  0.19117800
   0.27943129  0.55910082  0.28457002
   0.61283300  0.72566700  0.09477000
   0.61129119  0.72980568  0.38182192
   0.69616700  0.64233300  0.19117800
   0.53042806  0.55888691  0.28560305
   0.86283300  0.72566700  0.09477000
   0.86791864  0.72968830  0.38179155
   0.94616700  0.64233300  0.19117800
   0.77813798  0.55886920  0.28557665
   0.11283300  0.97566700  0.09477000
   0.10891222  0.97068668  0.38180409
   0.19616700  0.89233300  0.19117800
   0.02971661  0.80883575  0.28634353
   0.36283300  0.97566700  0.09477000
   0.36130152  0.97323136  0.37676493
   0.44616700  0.89233300  0.19117800
   0.27943342  0.80909827  0.28456924
   0.61283300  0.97566700  0.09477000
   0.61116215  0.97081309  0.38179397
   0.69616700  0.89233300  0.19117800
   0.52888953  0.80887458  0.28634410
   0.86283300  0.97566700  0.09477000
   0.86262515  0.97593092  0.37700540
   0.94616700  0.89233300  0.19117800
   0.77925981  0.80876854  0.28453888
   0.17908154  0.13413383  0.43612285
   0.70450813  0.65954518  0.43611954
   0.19604270  0.64253823  0.43502719
   0.70404167  0.13455162  0.43598822
   0.52934333  0.30933411  0.44131133
