  70  70   1   0
  0.2799384E+02  0.9929500E-09  0.9929500E-09  0.2108055E-08  0.1500000E-16
  1.000000000000000E-004
  CAR 
 SQS-NiFe                                
      1.82419318    -23.65987610  301     -0.65292678      1.00000000
    -23.660  0.0000E+00  0.0000E+00
    -23.575  0.0000E+00  0.0000E+00
    -23.490  0.0000E+00  0.0000E+00
    -23.405  0.0000E+00  0.0000E+00
    -23.320  0.0000E+00  0.0000E+00
    -23.235  0.0000E+00  0.0000E+00
    -23.150  0.0000E+00  0.0000E+00
    -23.065  0.0000E+00  0.0000E+00
    -22.980  0.0000E+00  0.0000E+00
    -22.895  0.0000E+00  0.0000E+00
    -22.810  0.5961E-17  0.5064E-18
    -22.725  0.6498E-15  0.5570E-16
    -22.641  0.5420E-13  0.4660E-14
    -22.556  0.3162E-11  0.2733E-12
    -22.471  0.1294E-09  0.1126E-10
    -22.386  0.3712E-08  0.3266E-09
    -22.301  0.7477E-07  0.6678E-08
    -22.216  0.1058E-05  0.9653E-07
    -22.131  0.1051E-04  0.9897E-06
    -22.046  0.7349E-04  0.7233E-05
    -21.961  0.3614E-03  0.3793E-04
    -21.876  0.1251E-02  0.1442E-03
    -21.791  0.3050E-02  0.4033E-03
    -21.706  0.5237E-02  0.8481E-03
    -21.621  0.6336E-02  0.1386E-02
    -21.536  0.5401E-02  0.1845E-02
    -21.451  0.3244E-02  0.2121E-02
    -21.366  0.1373E-02  0.2237E-02
    -21.281  0.4090E-03  0.2272E-02
    -21.196  0.8579E-04  0.2279E-02
    -21.111  0.1266E-04  0.2280E-02
    -21.027  0.1314E-05  0.2280E-02
    -20.942  0.9582E-07  0.2281E-02
    -20.857  0.4908E-08  0.2281E-02
    -20.772  0.1925E-09  0.2281E-02
    -20.687  0.6385E-09  0.2281E-02
    -20.602  0.1765E-07  0.2281E-02
    -20.517  0.3453E-06  0.2281E-02
    -20.432  0.4755E-05  0.2281E-02
    -20.347  0.4611E-04  0.2285E-02
    -20.262  0.3152E-03  0.2312E-02
    -20.177  0.1519E-02  0.2441E-02
    -20.092  0.5167E-02  0.2880E-02
    -20.007  0.1241E-01  0.3934E-02
    -19.922  0.2105E-01  0.5722E-02
    -19.837  0.2524E-01  0.7866E-02
    -19.752  0.2138E-01  0.9683E-02
    -19.667  0.1281E-01  0.1077E-01
    -19.582  0.5420E-02  0.1123E-01
    -19.497  0.1621E-02  0.1137E-01
    -19.413  0.3424E-03  0.1140E-01
    -19.328  0.5108E-04  0.1140E-01
    -19.243  0.5377E-05  0.1140E-01
    -19.158  0.3993E-06  0.1140E-01
    -19.073  0.2090E-07  0.1140E-01
    -18.988  0.7707E-09  0.1140E-01
    -18.903  0.2001E-10  0.1140E-01
    -18.818  0.3656E-12  0.1140E-01
    -18.733  0.4697E-14  0.1140E-01
    -18.648  0.4173E-16  0.1140E-01
    -18.563  0.0000E+00  0.1140E-01
    -18.478  0.0000E+00  0.1140E-01
    -18.393  0.0000E+00  0.1140E-01
    -18.308  0.0000E+00  0.1140E-01
    -18.223  0.0000E+00  0.1140E-01
    -18.138  0.0000E+00  0.1140E-01
    -18.053  0.0000E+00  0.1140E-01
    -17.968  0.0000E+00  0.1140E-01
    -17.883  0.0000E+00  0.1140E-01
    -17.799  0.0000E+00  0.1140E-01
    -17.714  0.0000E+00  0.1140E-01
    -17.629  0.0000E+00  0.1140E-01
    -17.544  0.0000E+00  0.1140E-01
    -17.459  0.0000E+00  0.1140E-01
    -17.374  0.0000E+00  0.1140E-01
    -17.289  0.0000E+00  0.1140E-01
    -17.204  0.0000E+00  0.1140E-01
    -17.119  0.0000E+00  0.1140E-01
    -17.034  0.0000E+00  0.1140E-01
    -16.949  0.0000E+00  0.1140E-01
    -16.864  0.0000E+00  0.1140E-01
    -16.779  0.0000E+00  0.1140E-01
    -16.694  0.0000E+00  0.1140E-01
    -16.609  0.0000E+00  0.1140E-01
    -16.524  0.0000E+00  0.1140E-01
    -16.439  0.0000E+00  0.1140E-01
    -16.354  0.0000E+00  0.1140E-01
    -16.269  0.0000E+00  0.1140E-01
    -16.185  0.0000E+00  0.1140E-01
    -16.100  0.0000E+00  0.1140E-01
    -16.015  0.0000E+00  0.1140E-01
    -15.930  0.0000E+00  0.1140E-01
    -15.845  0.0000E+00  0.1140E-01
    -15.760  0.0000E+00  0.1140E-01
    -15.675  0.0000E+00  0.1140E-01
    -15.590  0.0000E+00  0.1140E-01
    -15.505  0.0000E+00  0.1140E-01
    -15.420  0.0000E+00  0.1140E-01
    -15.335  0.0000E+00  0.1140E-01
    -15.250  0.0000E+00  0.1140E-01
    -15.165  0.0000E+00  0.1140E-01
    -15.080  0.0000E+00  0.1140E-01
    -14.995  0.0000E+00  0.1140E-01
    -14.910  0.0000E+00  0.1140E-01
    -14.825  0.0000E+00  0.1140E-01
    -14.740  0.0000E+00  0.1140E-01
    -14.656  0.0000E+00  0.1140E-01
    -14.571  0.0000E+00  0.1140E-01
    -14.486  0.0000E+00  0.1140E-01
    -14.401  0.0000E+00  0.1140E-01
    -14.316  0.0000E+00  0.1140E-01
    -14.231  0.0000E+00  0.1140E-01
    -14.146  0.0000E+00  0.1140E-01
    -14.061  0.0000E+00  0.1140E-01
    -13.976  0.0000E+00  0.1140E-01
    -13.891  0.0000E+00  0.1140E-01
    -13.806  0.0000E+00  0.1140E-01
    -13.721  0.0000E+00  0.1140E-01
    -13.636  0.0000E+00  0.1140E-01
    -13.551  0.0000E+00  0.1140E-01
    -13.466  0.0000E+00  0.1140E-01
    -13.381  0.0000E+00  0.1140E-01
    -13.296  0.0000E+00  0.1140E-01
    -13.211  0.0000E+00  0.1140E-01
    -13.126  0.0000E+00  0.1140E-01
    -13.042  0.0000E+00  0.1140E-01
    -12.957  0.0000E+00  0.1140E-01
    -12.872  0.0000E+00  0.1140E-01
    -12.787  0.0000E+00  0.1140E-01
    -12.702  0.0000E+00  0.1140E-01
    -12.617  0.0000E+00  0.1140E-01
    -12.532  0.0000E+00  0.1140E-01
    -12.447  0.0000E+00  0.1140E-01
    -12.362  0.0000E+00  0.1140E-01
    -12.277  0.0000E+00  0.1140E-01
    -12.192  0.0000E+00  0.1140E-01
    -12.107  0.0000E+00  0.1140E-01
    -12.022  0.0000E+00  0.1140E-01
    -11.937  0.0000E+00  0.1140E-01
    -11.852  0.0000E+00  0.1140E-01
    -11.767  0.0000E+00  0.1140E-01
    -11.682  0.0000E+00  0.1140E-01
    -11.597  0.0000E+00  0.1140E-01
    -11.512  0.0000E+00  0.1140E-01
    -11.428  0.0000E+00  0.1140E-01
    -11.343  0.0000E+00  0.1140E-01
    -11.258  0.0000E+00  0.1140E-01
    -11.173  0.0000E+00  0.1140E-01
    -11.088  0.0000E+00  0.1140E-01
    -11.003  0.1043E-16  0.1140E-01
    -10.918  0.1167E-14  0.1140E-01
    -10.833  0.9290E-13  0.1140E-01
    -10.748  0.5180E-11  0.1140E-01
    -10.663  0.2025E-09  0.1140E-01
    -10.578  0.5555E-08  0.1140E-01
    -10.493  0.1069E-06  0.1140E-01
    -10.408  0.1446E-05  0.1140E-01
    -10.323  0.1374E-04  0.1140E-01
    -10.238  0.9184E-04  0.1141E-01
    -10.153  0.4318E-03  0.1145E-01
    -10.068  0.1429E-02  0.1157E-01
     -9.983  0.3332E-02  0.1185E-01
     -9.898  0.5471E-02  0.1232E-01
     -9.814  0.6330E-02  0.1286E-01
     -9.729  0.5160E-02  0.1329E-01
     -9.644  0.2964E-02  0.1355E-01
     -9.559  0.1199E-02  0.1365E-01
     -9.474  0.3417E-03  0.1368E-01
     -9.389  0.6853E-04  0.1368E-01
     -9.304  0.9669E-05  0.1368E-01
     -9.219  0.9593E-06  0.1368E-01
     -9.134  0.6961E-07  0.1368E-01
     -9.049  0.6025E-07  0.1368E-01
     -8.964  0.8337E-06  0.1368E-01
     -8.879  0.8571E-05  0.1368E-01
     -8.794  0.6196E-04  0.1369E-01
     -8.709  0.3151E-03  0.1372E-01
     -8.624  0.1128E-02  0.1381E-01
     -8.539  0.2843E-02  0.1405E-01
     -8.454  0.5049E-02  0.1448E-01
     -8.369  0.6316E-02  0.1502E-01
     -8.284  0.5568E-02  0.1549E-01
     -8.200  0.3458E-02  0.1579E-01
     -8.115  0.1513E-02  0.1591E-01
     -8.030  0.4662E-03  0.1595E-01
     -7.945  0.1011E-03  0.1596E-01
     -7.860  0.1544E-04  0.1596E-01
     -7.775  0.1661E-05  0.1596E-01
     -7.690  0.2195E-06  0.1596E-01
     -7.605  0.1393E-05  0.1596E-01
     -7.520  0.1440E-04  0.1596E-01
     -7.435  0.1064E-03  0.1597E-01
     -7.350  0.5611E-03  0.1602E-01
     -7.265  0.2131E-02  0.1620E-01
     -7.180  0.5906E-02  0.1670E-01
     -7.095  0.1222E-01  0.1774E-01
     -7.010  0.1960E-01  0.1941E-01
     -6.925  0.2567E-01  0.2159E-01
     -6.840  0.2897E-01  0.2405E-01
     -6.755  0.2909E-01  0.2652E-01
     -6.670  0.2614E-01  0.2874E-01
     -6.586  0.2162E-01  0.3058E-01
     -6.501  0.1938E-01  0.3222E-01
     -6.416  0.2316E-01  0.3419E-01
     -6.331  0.3213E-01  0.3692E-01
     -6.246  0.4127E-01  0.4043E-01
     -6.161  0.4711E-01  0.4443E-01
     -6.076  0.4946E-01  0.4863E-01
     -5.991  0.4828E-01  0.5273E-01
     -5.906  0.4324E-01  0.5640E-01
     -5.821  0.3522E-01  0.5940E-01
     -5.736  0.2562E-01  0.6157E-01
     -5.651  0.1611E-01  0.6294E-01
     -5.566  0.9520E-02  0.6375E-01
     -5.481  0.8731E-02  0.6449E-01
     -5.396  0.1436E-01  0.6571E-01
     -5.311  0.2351E-01  0.6771E-01
     -5.226  0.3068E-01  0.7031E-01
     -5.141  0.3176E-01  0.7301E-01
     -5.057  0.2800E-01  0.7539E-01
     -4.972  0.2504E-01  0.7752E-01
     -4.887  0.2796E-01  0.7989E-01
     -4.802  0.3691E-01  0.8303E-01
     -4.717  0.4642E-01  0.8697E-01
     -4.632  0.4946E-01  0.9117E-01
     -4.547  0.4419E-01  0.9493E-01
     -4.462  0.3644E-01  0.9802E-01
     -4.377  0.3427E-01  0.1009E+00
     -4.292  0.4208E-01  0.1045E+00
     -4.207  0.6037E-01  0.1096E+00
     -4.122  0.8665E-01  0.1170E+00
     -4.037  0.1142E+00  0.1267E+00
     -3.952  0.1330E+00  0.1380E+00
     -3.867  0.1357E+00  0.1495E+00
     -3.782  0.1238E+00  0.1600E+00
     -3.697  0.1059E+00  0.1690E+00
     -3.612  0.8831E-01  0.1765E+00
     -3.527  0.7330E-01  0.1828E+00
     -3.443  0.6518E-01  0.1883E+00
     -3.358  0.7299E-01  0.1945E+00
     -3.273  0.1018E+00  0.2031E+00
     -3.188  0.1429E+00  0.2153E+00
     -3.103  0.1783E+00  0.2304E+00
     -3.018  0.1937E+00  0.2469E+00
     -2.933  0.1872E+00  0.2628E+00
     -2.848  0.1670E+00  0.2770E+00
     -2.763  0.1468E+00  0.2894E+00
     -2.678  0.1386E+00  0.3012E+00
     -2.593  0.1437E+00  0.3134E+00
     -2.508  0.1534E+00  0.3265E+00
     -2.423  0.1573E+00  0.3398E+00
     -2.338  0.1502E+00  0.3526E+00
     -2.253  0.1376E+00  0.3643E+00
     -2.168  0.1320E+00  0.3755E+00
     -2.083  0.1378E+00  0.3872E+00
     -1.998  0.1476E+00  0.3997E+00
     -1.913  0.1540E+00  0.4128E+00
     -1.829  0.1542E+00  0.4259E+00
     -1.744  0.1446E+00  0.4382E+00
     -1.659  0.1233E+00  0.4487E+00
     -1.574  0.9582E-01  0.4568E+00
     -1.489  0.7229E-01  0.4629E+00
     -1.404  0.6121E-01  0.4681E+00
     -1.319  0.6787E-01  0.4739E+00
     -1.234  0.9355E-01  0.4819E+00
     -1.149  0.1325E+00  0.4931E+00
     -1.064  0.1746E+00  0.5079E+00
     -0.979  0.2140E+00  0.5261E+00
     -0.894  0.2514E+00  0.5475E+00
     -0.809  0.2837E+00  0.5716E+00
     -0.724  0.3030E+00  0.5973E+00
     -0.639  0.3061E+00  0.6233E+00
     -0.554  0.2968E+00  0.6485E+00
     -0.469  0.2789E+00  0.6722E+00
     -0.384  0.2541E+00  0.6938E+00
     -0.299  0.2204E+00  0.7125E+00
     -0.215  0.1740E+00  0.7273E+00
     -0.130  0.1170E+00  0.7372E+00
     -0.045  0.6323E-01  0.7426E+00
      0.040  0.2627E-01  0.7448E+00
      0.125  0.8168E-02  0.7455E+00
      0.210  0.1868E-02  0.7457E+00
      0.295  0.3110E-03  0.7457E+00
      0.380  0.3741E-04  0.7457E+00
      0.465  0.3235E-05  0.7457E+00
      0.550  0.2002E-06  0.7457E+00
      0.635  0.8846E-08  0.7457E+00
      0.720  0.2782E-09  0.7457E+00
      0.805  0.6214E-11  0.7457E+00
      0.890  0.9835E-13  0.7457E+00
      0.975  0.1103E-14  0.7457E+00
      1.060  0.5961E-17  0.7457E+00
      1.145  0.0000E+00  0.7457E+00
      1.230  0.0000E+00  0.7457E+00
      1.315  0.0000E+00  0.7457E+00
      1.399  0.0000E+00  0.7457E+00
      1.484  0.0000E+00  0.7457E+00
      1.569  0.0000E+00  0.7457E+00
      1.654  0.0000E+00  0.7457E+00
      1.739  0.0000E+00  0.7457E+00
      1.824  0.0000E+00  0.7457E+00
      1.82419318    -23.65987610  301     -0.65292678      1.00000000
    -23.660  0.0000E+00  0.0000E+00  0.0000E+00
    -23.575  0.0000E+00  0.0000E+00  0.0000E+00
    -23.490  0.0000E+00  0.0000E+00  0.0000E+00
    -23.405  0.0000E+00  0.0000E+00  0.0000E+00
    -23.320  0.0000E+00  0.0000E+00  0.0000E+00
    -23.235  0.0000E+00  0.0000E+00  0.0000E+00
    -23.150  0.0000E+00  0.0000E+00  0.0000E+00
    -23.065  0.0000E+00  0.0000E+00  0.0000E+00
    -22.980  0.0000E+00  0.0000E+00  0.0000E+00
    -22.895  0.0000E+00  0.0000E+00  0.0000E+00
    -22.810  0.7975E-27  0.1458E-26  0.4631E-25
    -22.725  0.8693E-25  0.1589E-24  0.5048E-23
    -22.641  0.7251E-23  0.1325E-22  0.4211E-21
    -22.556  0.4231E-21  0.7734E-21  0.2457E-19
    -22.471  0.1731E-19  0.3164E-19  0.1005E-17
    -22.386  0.4966E-18  0.9079E-18  0.2884E-16
    -22.301  0.1000E-16  0.1829E-16  0.5809E-15
    -22.216  0.1415E-15  0.2587E-15  0.8217E-14
    -22.131  0.1407E-14  0.2571E-14  0.8168E-13
    -22.046  0.9832E-14  0.1797E-13  0.5709E-12
    -21.961  0.4835E-13  0.8839E-13  0.2808E-11
    -21.876  0.1674E-12  0.3060E-12  0.9719E-11
    -21.791  0.4080E-12  0.7458E-12  0.2369E-10
    -21.706  0.7006E-12  0.1281E-11  0.4068E-10
    -21.621  0.8476E-12  0.1549E-11  0.4922E-10
    -21.536  0.7226E-12  0.1321E-11  0.4196E-10
    -21.451  0.4340E-12  0.7934E-12  0.2520E-10
    -21.366  0.1836E-12  0.3357E-12  0.1066E-10
    -21.281  0.5472E-13  0.1000E-12  0.3177E-11
    -21.196  0.1148E-13  0.2098E-13  0.6665E-12
    -21.111  0.1694E-14  0.3096E-14  0.9835E-13
    -21.027  0.1758E-15  0.3213E-15  0.1021E-13
    -20.942  0.1282E-16  0.2343E-16  0.7444E-15
    -20.857  0.6609E-18  0.1203E-17  0.3813E-16
    -20.772  0.2598E-18  0.2144E-18  0.1524E-17
    -20.687  0.9136E-17  0.6645E-17  0.6029E-17
    -20.602  0.2480E-15  0.1809E-15  0.1648E-15
    -20.517  0.4727E-14  0.3461E-14  0.3183E-14
    -20.432  0.6331E-13  0.4653E-13  0.4325E-13
    -20.347  0.5963E-12  0.4398E-12  0.4135E-12
    -20.262  0.3951E-11  0.2925E-11  0.2784E-11
    -20.177  0.1843E-10  0.1370E-10  0.1321E-10
    -20.092  0.6058E-10  0.4521E-10  0.4420E-10
    -20.007  0.1403E-09  0.1051E-09  0.1043E-09
    -19.922  0.2291E-09  0.1724E-09  0.1738E-09
    -19.837  0.2638E-09  0.1993E-09  0.2045E-09
    -19.752  0.2143E-09  0.1626E-09  0.1699E-09
    -19.667  0.1228E-09  0.9358E-10  0.9974E-10
    -19.582  0.4964E-10  0.3799E-10  0.4134E-10
    -19.497  0.1415E-10  0.1087E-10  0.1210E-10
    -19.413  0.2843E-11  0.2195E-11  0.2501E-11
    -19.328  0.4027E-12  0.3122E-12  0.3649E-12
    -19.243  0.4019E-13  0.3129E-13  0.3755E-13
    -19.158  0.2825E-14  0.2208E-14  0.2725E-14
    -19.073  0.1398E-15  0.1097E-15  0.1394E-15
    -18.988  0.4869E-17  0.3835E-17  0.5025E-17
    -18.903  0.1193E-18  0.9431E-19  0.1275E-18
    -18.818  0.2056E-20  0.1631E-20  0.2279E-20
    -18.733  0.2488E-22  0.1980E-22  0.2864E-22
    -18.648  0.2142E-24  0.1697E-24  0.2494E-24
    -18.563  0.0000E+00  0.0000E+00  0.0000E+00
    -18.478  0.0000E+00  0.0000E+00  0.0000E+00
    -18.393  0.0000E+00  0.0000E+00  0.0000E+00
    -18.308  0.0000E+00  0.0000E+00  0.0000E+00
    -18.223  0.0000E+00  0.0000E+00  0.0000E+00
    -18.138  0.0000E+00  0.0000E+00  0.0000E+00
    -18.053  0.0000E+00  0.0000E+00  0.0000E+00
    -17.968  0.0000E+00  0.0000E+00  0.0000E+00
    -17.883  0.0000E+00  0.0000E+00  0.0000E+00
    -17.799  0.0000E+00  0.0000E+00  0.0000E+00
    -17.714  0.0000E+00  0.0000E+00  0.0000E+00
    -17.629  0.0000E+00  0.0000E+00  0.0000E+00
    -17.544  0.0000E+00  0.0000E+00  0.0000E+00
    -17.459  0.0000E+00  0.0000E+00  0.0000E+00
    -17.374  0.0000E+00  0.0000E+00  0.0000E+00
    -17.289  0.0000E+00  0.0000E+00  0.0000E+00
    -17.204  0.0000E+00  0.0000E+00  0.0000E+00
    -17.119  0.0000E+00  0.0000E+00  0.0000E+00
    -17.034  0.0000E+00  0.0000E+00  0.0000E+00
    -16.949  0.0000E+00  0.0000E+00  0.0000E+00
    -16.864  0.0000E+00  0.0000E+00  0.0000E+00
    -16.779  0.0000E+00  0.0000E+00  0.0000E+00
    -16.694  0.0000E+00  0.0000E+00  0.0000E+00
    -16.609  0.0000E+00  0.0000E+00  0.0000E+00
    -16.524  0.0000E+00  0.0000E+00  0.0000E+00
    -16.439  0.0000E+00  0.0000E+00  0.0000E+00
    -16.354  0.0000E+00  0.0000E+00  0.0000E+00
    -16.269  0.0000E+00  0.0000E+00  0.0000E+00
    -16.185  0.0000E+00  0.0000E+00  0.0000E+00
    -16.100  0.0000E+00  0.0000E+00  0.0000E+00
    -16.015  0.0000E+00  0.0000E+00  0.0000E+00
    -15.930  0.0000E+00  0.0000E+00  0.0000E+00
    -15.845  0.0000E+00  0.0000E+00  0.0000E+00
    -15.760  0.0000E+00  0.0000E+00  0.0000E+00
    -15.675  0.0000E+00  0.0000E+00  0.0000E+00
    -15.590  0.0000E+00  0.0000E+00  0.0000E+00
    -15.505  0.0000E+00  0.0000E+00  0.0000E+00
    -15.420  0.0000E+00  0.0000E+00  0.0000E+00
    -15.335  0.0000E+00  0.0000E+00  0.0000E+00
    -15.250  0.0000E+00  0.0000E+00  0.0000E+00
    -15.165  0.0000E+00  0.0000E+00  0.0000E+00
    -15.080  0.0000E+00  0.0000E+00  0.0000E+00
    -14.995  0.0000E+00  0.0000E+00  0.0000E+00
    -14.910  0.0000E+00  0.0000E+00  0.0000E+00
    -14.825  0.0000E+00  0.0000E+00  0.0000E+00
    -14.740  0.0000E+00  0.0000E+00  0.0000E+00
    -14.656  0.0000E+00  0.0000E+00  0.0000E+00
    -14.571  0.0000E+00  0.0000E+00  0.0000E+00
    -14.486  0.0000E+00  0.0000E+00  0.0000E+00
    -14.401  0.0000E+00  0.0000E+00  0.0000E+00
    -14.316  0.0000E+00  0.0000E+00  0.0000E+00
    -14.231  0.0000E+00  0.0000E+00  0.0000E+00
    -14.146  0.0000E+00  0.0000E+00  0.0000E+00
    -14.061  0.0000E+00  0.0000E+00  0.0000E+00
    -13.976  0.0000E+00  0.0000E+00  0.0000E+00
    -13.891  0.0000E+00  0.0000E+00  0.0000E+00
    -13.806  0.0000E+00  0.0000E+00  0.0000E+00
    -13.721  0.0000E+00  0.0000E+00  0.0000E+00
    -13.636  0.0000E+00  0.0000E+00  0.0000E+00
    -13.551  0.0000E+00  0.0000E+00  0.0000E+00
    -13.466  0.0000E+00  0.0000E+00  0.0000E+00
    -13.381  0.0000E+00  0.0000E+00  0.0000E+00
    -13.296  0.0000E+00  0.0000E+00  0.0000E+00
    -13.211  0.0000E+00  0.0000E+00  0.0000E+00
    -13.126  0.0000E+00  0.0000E+00  0.0000E+00
    -13.042  0.0000E+00  0.0000E+00  0.0000E+00
    -12.957  0.0000E+00  0.0000E+00  0.0000E+00
    -12.872  0.0000E+00  0.0000E+00  0.0000E+00
    -12.787  0.0000E+00  0.0000E+00  0.0000E+00
    -12.702  0.0000E+00  0.0000E+00  0.0000E+00
    -12.617  0.0000E+00  0.0000E+00  0.0000E+00
    -12.532  0.0000E+00  0.0000E+00  0.0000E+00
    -12.447  0.0000E+00  0.0000E+00  0.0000E+00
    -12.362  0.0000E+00  0.0000E+00  0.0000E+00
    -12.277  0.0000E+00  0.0000E+00  0.0000E+00
    -12.192  0.0000E+00  0.0000E+00  0.0000E+00
    -12.107  0.0000E+00  0.0000E+00  0.0000E+00
    -12.022  0.0000E+00  0.0000E+00  0.0000E+00
    -11.937  0.0000E+00  0.0000E+00  0.0000E+00
    -11.852  0.0000E+00  0.0000E+00  0.0000E+00
    -11.767  0.0000E+00  0.0000E+00  0.0000E+00
    -11.682  0.0000E+00  0.0000E+00  0.0000E+00
    -11.597  0.0000E+00  0.0000E+00  0.0000E+00
    -11.512  0.0000E+00  0.0000E+00  0.0000E+00
    -11.428  0.0000E+00  0.0000E+00  0.0000E+00
    -11.343  0.0000E+00  0.0000E+00  0.0000E+00
    -11.258  0.0000E+00  0.0000E+00  0.0000E+00
    -11.173  0.0000E+00  0.0000E+00  0.0000E+00
    -11.088  0.0000E+00  0.0000E+00  0.0000E+00
    -11.003  0.2251E-19  0.4486E-20  0.1286E-21
    -10.918  0.2518E-17  0.5018E-18  0.1438E-19
    -10.833  0.2004E-15  0.3995E-16  0.1145E-17
    -10.748  0.1118E-13  0.2228E-14  0.6385E-16
    -10.663  0.4370E-12  0.8709E-13  0.2496E-14
    -10.578  0.1199E-10  0.2389E-11  0.6847E-13
    -10.493  0.2308E-09  0.4599E-10  0.1318E-11
    -10.408  0.3120E-08  0.6219E-09  0.1782E-10
    -10.323  0.2965E-07  0.5910E-08  0.1694E-09
    -10.238  0.1982E-06  0.3949E-07  0.1132E-08
    -10.153  0.9318E-06  0.1857E-06  0.5323E-08
    -10.068  0.3084E-05  0.6147E-06  0.1762E-07
     -9.983  0.7189E-05  0.1433E-05  0.4107E-07
     -9.898  0.1181E-04  0.2353E-05  0.6744E-07
     -9.814  0.1366E-04  0.2722E-05  0.7802E-07
     -9.729  0.1113E-04  0.2219E-05  0.6361E-07
     -9.644  0.6396E-05  0.1275E-05  0.3654E-07
     -9.559  0.2588E-05  0.5157E-06  0.1478E-07
     -9.474  0.7373E-06  0.1469E-06  0.4212E-08
     -9.389  0.1479E-06  0.2947E-07  0.8447E-09
     -9.304  0.2087E-07  0.4159E-08  0.1192E-09
     -9.219  0.2458E-08  0.4618E-09  0.1192E-10
     -9.134  0.1167E-07  0.1491E-08  0.3712E-11
     -9.049  0.2401E-06  0.3047E-07  0.6020E-10
     -8.964  0.3513E-05  0.4458E-06  0.8803E-09
     -8.879  0.3612E-04  0.4584E-05  0.9051E-08
     -8.794  0.2611E-03  0.3314E-04  0.6543E-07
     -8.709  0.1328E-02  0.1685E-03  0.3328E-06
     -8.624  0.4754E-02  0.6033E-03  0.1191E-05
     -8.539  0.1198E-01  0.1521E-02  0.3003E-05
     -8.454  0.2128E-01  0.2700E-02  0.5332E-05
     -8.369  0.2662E-01  0.3378E-02  0.6670E-05
     -8.284  0.2347E-01  0.2978E-02  0.5880E-05
     -8.200  0.1458E-01  0.1850E-02  0.3652E-05
     -8.115  0.6377E-02  0.8093E-03  0.1598E-05
     -8.030  0.1965E-02  0.2494E-03  0.4924E-06
     -7.945  0.4263E-03  0.5409E-04  0.1068E-06
     -7.860  0.6506E-04  0.8256E-05  0.1635E-07
     -7.775  0.7011E-05  0.8874E-06  0.3253E-08
     -7.690  0.1085E-05  0.9334E-07  0.3084E-07
     -7.605  0.7966E-05  0.3969E-06  0.4423E-06
     -7.520  0.7962E-04  0.4157E-05  0.4502E-05
     -7.435  0.5648E-03  0.3145E-04  0.3248E-04
     -7.350  0.2847E-02  0.1718E-03  0.1669E-03
     -7.265  0.1026E-01  0.6870E-03  0.6162E-03
     -7.180  0.2677E-01  0.2050E-02  0.1660E-02
     -7.095  0.5139E-01  0.4685E-02  0.3357E-02
     -7.010  0.7441E-01  0.8439E-02  0.5322E-02
     -6.925  0.8388E-01  0.1225E-01  0.6964E-02
     -6.840  0.7619E-01  0.1448E-01  0.7772E-02
     -6.755  0.5786E-01  0.1399E-01  0.7396E-02
     -6.670  0.3918E-01  0.1142E-01  0.6039E-02
     -6.586  0.2883E-01  0.9284E-02  0.4858E-02
     -6.501  0.3212E-01  0.1049E-01  0.5425E-02
     -6.416  0.4797E-01  0.1570E-01  0.8309E-02
     -6.331  0.6544E-01  0.2158E-01  0.1210E-01
     -6.246  0.7271E-01  0.2390E-01  0.1475E-01
     -6.161  0.7245E-01  0.2296E-01  0.1607E-01
     -6.076  0.7582E-01  0.2244E-01  0.1717E-01
     -5.991  0.8195E-01  0.2324E-01  0.1786E-01
     -5.906  0.7891E-01  0.2281E-01  0.1687E-01
     -5.821  0.6278E-01  0.1968E-01  0.1397E-01
     -5.736  0.4173E-01  0.1472E-01  0.1010E-01
     -5.651  0.2541E-01  0.9698E-02  0.6677E-02
     -5.566  0.2180E-01  0.7132E-02  0.5924E-02
     -5.481  0.4060E-01  0.9931E-02  0.1114E-01
     -5.396  0.8885E-01  0.1924E-01  0.2512E-01
     -5.311  0.1562E+00  0.3174E-01  0.4614E-01
     -5.226  0.2104E+00  0.4029E-01  0.6495E-01
     -5.141  0.2222E+00  0.4025E-01  0.7074E-01
     -5.057  0.1915E+00  0.3493E-01  0.6335E-01
     -4.972  0.1404E+00  0.3192E-01  0.5620E-01
     -4.887  0.9170E-01  0.3465E-01  0.6460E-01
     -4.802  0.5905E-01  0.3987E-01  0.9304E-01
     -4.717  0.4295E-01  0.4238E-01  0.1307E+00
     -4.632  0.3424E-01  0.3932E-01  0.1557E+00
     -4.547  0.2747E-01  0.3151E-01  0.1525E+00
     -4.462  0.2830E-01  0.2385E-01  0.1303E+00
     -4.377  0.4670E-01  0.2296E-01  0.1202E+00
     -4.292  0.8611E-01  0.3314E-01  0.1556E+00
     -4.207  0.1400E+00  0.5416E-01  0.2661E+00
     -4.122  0.1978E+00  0.8114E-01  0.4741E+00
     -4.037  0.2470E+00  0.1056E+00  0.7611E+00
     -3.952  0.2685E+00  0.1182E+00  0.1023E+01
     -3.867  0.2448E+00  0.1139E+00  0.1109E+01
     -3.782  0.1836E+00  0.9594E-01  0.9625E+00
     -3.697  0.1174E+00  0.7321E-01  0.6903E+00
     -3.612  0.7188E-01  0.5317E-01  0.4440E+00
     -3.527  0.4778E-01  0.3811E-01  0.2944E+00
     -3.443  0.3380E-01  0.2838E-01  0.2495E+00
     -3.358  0.2340E-01  0.2570E-01  0.3267E+00
     -3.273  0.1716E-01  0.3202E-01  0.5624E+00
     -3.188  0.1581E-01  0.4691E-01  0.9667E+00
     -3.103  0.1654E-01  0.6815E-01  0.1480E+01
     -3.018  0.1599E-01  0.9151E-01  0.1954E+01
     -2.933  0.1365E-01  0.1076E+00  0.2189E+01
     -2.848  0.1159E-01  0.1067E+00  0.2081E+01
     -2.763  0.1205E-01  0.9143E-01  0.1767E+01
     -2.678  0.1590E-01  0.7660E-01  0.1518E+01
     -2.593  0.2217E-01  0.7323E-01  0.1490E+01
     -2.508  0.2826E-01  0.8193E-01  0.1650E+01
     -2.423  0.3213E-01  0.9630E-01  0.1853E+01
     -2.338  0.3512E-01  0.1064E+00  0.1951E+01
     -2.253  0.4174E-01  0.1080E+00  0.1990E+01
     -2.168  0.5441E-01  0.1097E+00  0.2181E+01
     -2.083  0.6887E-01  0.1202E+00  0.2552E+01
     -1.998  0.7847E-01  0.1368E+00  0.2885E+01
     -1.913  0.8273E-01  0.1539E+00  0.3048E+01
     -1.829  0.8496E-01  0.1663E+00  0.3043E+01
     -1.744  0.8223E-01  0.1603E+00  0.2774E+01
     -1.659  0.6854E-01  0.1259E+00  0.2173E+01
     -1.574  0.4646E-01  0.7668E-01  0.1452E+01
     -1.489  0.2579E-01  0.3661E-01  0.9305E+00
     -1.404  0.1309E-01  0.1638E-01  0.7534E+00
     -1.319  0.8885E-02  0.1221E-01  0.9370E+00
     -1.234  0.1107E-01  0.1716E-01  0.1458E+01
     -1.149  0.1626E-01  0.2640E-01  0.2131E+01
     -1.064  0.2041E-01  0.3767E-01  0.2602E+01
     -0.979  0.2187E-01  0.5128E-01  0.2701E+01
     -0.894  0.2261E-01  0.6676E-01  0.2668E+01
     -0.809  0.2466E-01  0.7851E-01  0.2855E+01
     -0.724  0.2676E-01  0.7984E-01  0.3348E+01
     -0.639  0.2625E-01  0.7130E-01  0.3951E+01
     -0.554  0.2332E-01  0.6091E-01  0.4337E+01
     -0.469  0.2158E-01  0.5593E-01  0.4271E+01
     -0.384  0.2367E-01  0.5595E-01  0.3822E+01
     -0.299  0.2732E-01  0.5389E-01  0.3216E+01
     -0.215  0.2736E-01  0.4427E-01  0.2517E+01
     -0.130  0.2152E-01  0.2905E-01  0.1709E+01
     -0.045  0.1277E-01  0.1475E-01  0.9307E+00
      0.040  0.5606E-02  0.5686E-02  0.3865E+00
      0.125  0.1798E-02  0.1637E-02  0.1190E+00
      0.210  0.4179E-03  0.3473E-03  0.2678E-01
      0.295  0.6997E-04  0.5371E-04  0.4358E-02
      0.380  0.8401E-05  0.6004E-05  0.5103E-03
      0.465  0.7212E-06  0.4825E-06  0.4280E-04
      0.550  0.4415E-07  0.2775E-07  0.2564E-05
      0.635  0.1924E-08  0.1139E-08  0.1095E-06
      0.720  0.5960E-10  0.3334E-10  0.3324E-08
      0.805  0.1310E-11  0.6942E-12  0.7170E-10
      0.890  0.2042E-13  0.1028E-13  0.1097E-11
      0.975  0.2266E-15  0.1056E-15  0.1193E-13
      1.060  0.1184E-17  0.4183E-18  0.5273E-16
      1.145  0.0000E+00  0.0000E+00  0.0000E+00
      1.230  0.0000E+00  0.0000E+00  0.0000E+00
      1.315  0.0000E+00  0.0000E+00  0.0000E+00
      1.399  0.0000E+00  0.0000E+00  0.0000E+00
      1.484  0.0000E+00  0.0000E+00  0.0000E+00
      1.569  0.0000E+00  0.0000E+00  0.0000E+00
      1.654  0.0000E+00  0.0000E+00  0.0000E+00
      1.739  0.0000E+00  0.0000E+00  0.0000E+00
      1.824  0.0000E+00  0.0000E+00  0.0000E+00
      1.82419318    -23.65987610  301     -0.65292678      1.00000000
    -23.660  0.0000E+00  0.0000E+00  0.0000E+00
    -23.575  0.0000E+00  0.0000E+00  0.0000E+00
    -23.490  0.0000E+00  0.0000E+00  0.0000E+00
    -23.405  0.0000E+00  0.0000E+00  0.0000E+00
    -23.320  0.0000E+00  0.0000E+00  0.0000E+00
    -23.235  0.0000E+00  0.0000E+00  0.0000E+00
    -23.150  0.0000E+00  0.0000E+00  0.0000E+00
    -23.065  0.0000E+00  0.0000E+00  0.0000E+00
    -22.980  0.0000E+00  0.0000E+00  0.0000E+00
    -22.895  0.0000E+00  0.0000E+00  0.0000E+00
    -22.810  0.3239E-22  0.1240E-22  0.4702E-23
    -22.725  0.3530E-20  0.1352E-20  0.5125E-21
    -22.641  0.2945E-18  0.1127E-18  0.4275E-19
    -22.556  0.1718E-16  0.6578E-17  0.2494E-17
    -22.471  0.7029E-15  0.2691E-15  0.1020E-15
    -22.386  0.2017E-13  0.7722E-14  0.2928E-14
    -22.301  0.4063E-12  0.1555E-12  0.5898E-13
    -22.216  0.5747E-11  0.2200E-11  0.8343E-12
    -22.131  0.5713E-10  0.2187E-10  0.8293E-11
    -22.046  0.3993E-09  0.1529E-09  0.5797E-10
    -21.961  0.1964E-08  0.7518E-09  0.2851E-09
    -21.876  0.6797E-08  0.2602E-08  0.9868E-09
    -21.791  0.1657E-07  0.6343E-08  0.2405E-08
    -21.706  0.2845E-07  0.1089E-07  0.4130E-08
    -21.621  0.3442E-07  0.1318E-07  0.4997E-08
    -21.536  0.2935E-07  0.1123E-07  0.4260E-08
    -21.451  0.1763E-07  0.6748E-08  0.2559E-08
    -21.366  0.7458E-08  0.2855E-08  0.1083E-08
    -21.281  0.2222E-08  0.8507E-09  0.3226E-09
    -21.196  0.4661E-09  0.1784E-09  0.6767E-10
    -21.111  0.6879E-10  0.2633E-10  0.9986E-11
    -21.027  0.7138E-11  0.2733E-11  0.1036E-11
    -20.942  0.5206E-12  0.1993E-12  0.7558E-13
    -20.857  0.2728E-13  0.1068E-13  0.4039E-14
    -20.772  0.3484E-13  0.2642E-13  0.9572E-14
    -20.687  0.1317E-11  0.1018E-11  0.3718E-12
    -20.602  0.3593E-10  0.2795E-10  0.1028E-10
    -20.517  0.6881E-09  0.5386E-09  0.1998E-09
    -20.432  0.9257E-08  0.7293E-08  0.2729E-08
    -20.347  0.8755E-07  0.6944E-07  0.2621E-07
    -20.262  0.5824E-06  0.4652E-06  0.1771E-06
    -20.177  0.2726E-05  0.2193E-05  0.8426E-06
    -20.092  0.8987E-05  0.7284E-05  0.2824E-05
    -20.007  0.2087E-04  0.1704E-04  0.6669E-05
    -19.922  0.3414E-04  0.2811E-04  0.1110E-04
    -19.837  0.3937E-04  0.3268E-04  0.1303E-04
    -19.752  0.3199E-04  0.2679E-04  0.1078E-04
    -19.667  0.1832E-04  0.1548E-04  0.6292E-05
    -19.582  0.7394E-05  0.6304E-05  0.2588E-05
    -19.497  0.2102E-05  0.1809E-05  0.7502E-06
    -19.413  0.4207E-06  0.3656E-06  0.1532E-06
    -19.328  0.5925E-07  0.5202E-07  0.2202E-07
    -19.243  0.5869E-08  0.5208E-08  0.2227E-08
    -19.158  0.4087E-09  0.3667E-09  0.1584E-09
    -19.073  0.1999E-10  0.1814E-10  0.7922E-11
    -18.988  0.6867E-12  0.6305E-12  0.2782E-12
    -18.903  0.1655E-13  0.1538E-13  0.6860E-14
    -18.818  0.2798E-15  0.2633E-15  0.1187E-15
    -18.733  0.3313E-17  0.3161E-17  0.1441E-17
    -18.648  0.2921E-19  0.2580E-19  0.1082E-19
    -18.563  0.0000E+00  0.0000E+00  0.0000E+00
    -18.478  0.0000E+00  0.0000E+00  0.0000E+00
    -18.393  0.0000E+00  0.0000E+00  0.0000E+00
    -18.308  0.0000E+00  0.0000E+00  0.0000E+00
    -18.223  0.0000E+00  0.0000E+00  0.0000E+00
    -18.138  0.0000E+00  0.0000E+00  0.0000E+00
    -18.053  0.0000E+00  0.0000E+00  0.0000E+00
    -17.968  0.0000E+00  0.0000E+00  0.0000E+00
    -17.883  0.0000E+00  0.0000E+00  0.0000E+00
    -17.799  0.0000E+00  0.0000E+00  0.0000E+00
    -17.714  0.0000E+00  0.0000E+00  0.0000E+00
    -17.629  0.0000E+00  0.0000E+00  0.0000E+00
    -17.544  0.0000E+00  0.0000E+00  0.0000E+00
    -17.459  0.0000E+00  0.0000E+00  0.0000E+00
    -17.374  0.0000E+00  0.0000E+00  0.0000E+00
    -17.289  0.0000E+00  0.0000E+00  0.0000E+00
    -17.204  0.0000E+00  0.0000E+00  0.0000E+00
    -17.119  0.0000E+00  0.0000E+00  0.0000E+00
    -17.034  0.0000E+00  0.0000E+00  0.0000E+00
    -16.949  0.0000E+00  0.0000E+00  0.0000E+00
    -16.864  0.0000E+00  0.0000E+00  0.0000E+00
    -16.779  0.0000E+00  0.0000E+00  0.0000E+00
    -16.694  0.0000E+00  0.0000E+00  0.0000E+00
    -16.609  0.0000E+00  0.0000E+00  0.0000E+00
    -16.524  0.0000E+00  0.0000E+00  0.0000E+00
    -16.439  0.0000E+00  0.0000E+00  0.0000E+00
    -16.354  0.0000E+00  0.0000E+00  0.0000E+00
    -16.269  0.0000E+00  0.0000E+00  0.0000E+00
    -16.185  0.0000E+00  0.0000E+00  0.0000E+00
    -16.100  0.0000E+00  0.0000E+00  0.0000E+00