       N       E                     dE             d eps       ncg     rms          rms(c)
DAV:   1     0.521391238298E+04    0.52139E+04   -0.26044E+05   654   0.188E+03
DAV:   2     0.992863387162E+02   -0.51146E+04   -0.50072E+04   654   0.426E+02
DAV:   3    -0.388607334517E+03   -0.48789E+03   -0.43991E+03   813   0.164E+02
DAV:   4    -0.498212317437E+03   -0.10960E+03   -0.10325E+03  1263   0.542E+01
DAV:   5    -0.511857514002E+03   -0.13645E+02   -0.12580E+02  1110   0.196E+01    0.378E+01
RMM:   6    -0.893525058422E+03   -0.38167E+03   -0.93736E+02   984   0.763E+01    0.179E+02
RMM:   7    -0.710813939109E+03    0.18271E+03   -0.40299E+02   700   0.673E+01    0.156E+02
RMM:   8    -0.510523564482E+03    0.20029E+03   -0.11118E+02   675   0.317E+01    0.417E+01
RMM:   9    -0.510820611249E+03   -0.29705E+00   -0.60786E+01   954   0.107E+01    0.284E+01
RMM:  10    -0.524706688102E+03   -0.13886E+02   -0.37070E+01   841   0.129E+01    0.623E+01
RMM:  11    -0.518219455278E+03    0.64872E+01   -0.23591E+01   683   0.139E+01    0.507E+01
RMM:  12    -0.516066857771E+03    0.21526E+01   -0.18197E+01   677   0.121E+01    0.432E+01
RMM:  13    -0.520510079707E+03   -0.44432E+01   -0.20251E+01   722   0.116E+01    0.528E+01
RMM:  14    -0.513508039772E+03    0.70020E+01   -0.98689E+00   663   0.100E+01    0.318E+01
RMM:  15    -0.512329316911E+03    0.11787E+01   -0.54725E+00   793   0.531E+00    0.281E+01
RMM:  16    -0.511497670869E+03    0.83165E+00   -0.27608E+00   855   0.310E+00    0.231E+01
RMM:  17    -0.511081641117E+03    0.41603E+00   -0.15023E+00   773   0.305E+00    0.212E+01
RMM:  18    -0.511767538770E+03   -0.68590E+00   -0.29625E+00   803   0.388E+00    0.250E+01
RMM:  19    -0.511188066186E+03    0.57947E+00   -0.17517E+00   725   0.370E+00    0.211E+01
RMM:  20    -0.510583264470E+03    0.60480E+00   -0.94132E-01   764   0.252E+00    0.162E+01
RMM:  21    -0.510360705119E+03    0.22256E+00   -0.74323E-01   960   0.133E+00    0.136E+01
RMM:  22    -0.510101517748E+03    0.25919E+00   -0.38206E-01   903   0.984E-01    0.928E+00
RMM:  23    -0.510075646154E+03    0.25872E-01   -0.26895E-01   909   0.854E-01    0.865E+00
RMM:  24    -0.510242723074E+03   -0.16708E+00   -0.37414E-01   861   0.121E+00    0.114E+01
RMM:  25    -0.510192225819E+03    0.50497E-01   -0.17034E-01   740   0.118E+00    0.102E+01
RMM:  26    -0.510167060044E+03    0.25166E-01   -0.14966E-01   869   0.720E-01    0.974E+00
RMM:  27    -0.510135462839E+03    0.31597E-01   -0.18935E-01   846   0.887E-01    0.897E+00
RMM:  28    -0.509997334644E+03    0.13813E+00   -0.12807E-01   766   0.875E-01    0.540E+00
RMM:  29    -0.509979796056E+03    0.17539E-01   -0.11806E-01   897   0.608E-01    0.472E+00
RMM:  30    -0.509991316755E+03   -0.11521E-01   -0.11284E-01   903   0.604E-01    0.496E+00
RMM:  31    -0.509960179085E+03    0.31138E-01   -0.43052E-02   771   0.478E-01    0.345E+00
RMM:  32    -0.509956862175E+03    0.33169E-02   -0.40849E-02   968   0.284E-01    0.315E+00
RMM:  33    -0.509950306704E+03    0.65555E-02   -0.38314E-02   905   0.330E-01    0.247E+00
RMM:  34    -0.509941869771E+03    0.84369E-02   -0.21284E-02   852   0.262E-01    0.161E+00
RMM:  35    -0.509941821438E+03    0.48333E-04   -0.18237E-02  1028   0.151E-01    0.140E+00
RMM:  36    -0.509942518700E+03   -0.69726E-03   -0.12266E-02   906   0.177E-01    0.131E+00
RMM:  37    -0.509940186584E+03    0.23321E-02   -0.72427E-03   807   0.151E-01    0.844E-01
RMM:  38    -0.509940430181E+03   -0.24360E-03   -0.64864E-03   966   0.102E-01    0.792E-01
RMM:  39    -0.509940962064E+03   -0.53188E-03   -0.62262E-03   892   0.127E-01    0.757E-01
RMM:  40    -0.509939913117E+03    0.10489E-02   -0.37533E-03   809   0.113E-01    0.309E-01
RMM:  41    -0.509940192237E+03   -0.27912E-03   -0.35272E-03   964   0.763E-02    0.347E-01
RMM:  42    -0.509940378689E+03   -0.18645E-03   -0.21902E-03   868   0.663E-02    0.342E-01
RMM:  43    -0.509940259336E+03    0.11935E-03   -0.14294E-03   826   0.520E-02    0.172E-01
RMM:  44    -0.509940407207E+03   -0.14787E-03   -0.13453E-03   918   0.445E-02    0.216E-01
RMM:  45    -0.509940446085E+03   -0.38878E-04   -0.95358E-04   837   0.398E-02    0.150E-01
RMM:  46    -0.509940446590E+03   -0.50509E-06   -0.70368E-04   817   0.301E-02    0.608E-02
RMM:  47    -0.509940535530E+03   -0.88940E-04   -0.64942E-04   950   0.241E-02    0.122E-01
RMM:  48    -0.509940553243E+03   -0.17713E-04   -0.45514E-04   800   0.196E-02    0.463E-02
RMM:  49    -0.509940590350E+03   -0.37107E-04   -0.39348E-04   912   0.119E-02    0.455E-02
RMM:  50    -0.509940638515E+03   -0.48165E-04   -0.33421E-04   860   0.122E-02    0.635E-02
RMM:  51    -0.509940659704E+03   -0.21189E-04   -0.27559E-04   739   0.100E-02    0.223E-02
RMM:  52    -0.509940695031E+03   -0.35327E-04   -0.31632E-04   770   0.784E-03    0.340E-02
RMM:  53    -0.509940725533E+03   -0.30501E-04   -0.20953E-04   637   0.681E-03    0.222E-02
RMM:  54    -0.509940747102E+03   -0.21569E-04   -0.20243E-04   557   0.637E-03    0.151E-02
RMM:  55    -0.509940772331E+03   -0.25229E-04   -0.16928E-04   609   0.576E-03    0.254E-02
RMM:  56    -0.509940792010E+03   -0.19680E-04   -0.15788E-04   533   0.632E-03    0.160E-02
RMM:  57    -0.509940809957E+03   -0.17947E-04   -0.13744E-04   495   0.370E-03    0.117E-02
RMM:  58    -0.509940826441E+03   -0.16483E-04   -0.12710E-04   482   0.370E-03    0.107E-02
RMM:  59    -0.509940842434E+03   -0.15993E-04   -0.11392E-04   478   0.354E-03    0.103E-02
RMM:  60    -0.509940857425E+03   -0.14991E-04   -0.10525E-04   466   0.291E-03    0.699E-03
RMM:  61    -0.509940869582E+03   -0.12157E-04   -0.95691E-05   460   0.266E-03    0.949E-03
RMM:  62    -0.509940879491E+03   -0.99095E-05   -0.88817E-05   452   0.276E-03    0.563E-03
RMM:  63    -0.509940892444E+03   -0.12953E-04   -0.81594E-05   451   0.197E-03    0.686E-03
RMM:  64    -0.509940905287E+03   -0.12843E-04   -0.76276E-05   444   0.221E-03    0.340E-03
RMM:  65    -0.509940916152E+03   -0.10866E-04   -0.70787E-05   438   0.175E-03    0.626E-03
RMM:  66    -0.509940927238E+03   -0.11086E-04   -0.66405E-05   436   0.215E-03    0.610E-03
RMM:  67    -0.509940934187E+03   -0.69486E-05   -0.61945E-05   428   0.163E-03    0.466E-03
RMM:  68    -0.509940942380E+03   -0.81934E-05   -0.58284E-05   418   0.140E-03    0.327E-03
RMM:  69    -0.509940950557E+03   -0.81765E-05   -0.54724E-05   415   0.124E-03    0.366E-03
RMM:  70    -0.509940958380E+03   -0.78230E-05   -0.51685E-05   408   0.132E-03    0.323E-03
RMM:  71    -0.509940964461E+03   -0.60814E-05   -0.48745E-05   401   0.124E-03    0.395E-03
RMM:  72    -0.509940970821E+03   -0.63596E-05   -0.46187E-05   396   0.123E-03    0.192E-03
RMM:  73    -0.509940976302E+03   -0.54810E-05   -0.43776E-05   355   0.886E-04    0.211E-03
RMM:  74    -0.509940983057E+03   -0.67548E-05   -0.41623E-05   380   0.105E-03    0.274E-03
RMM:  75    -0.509940988890E+03   -0.58334E-05   -0.39612E-05   389   0.100E-03    0.172E-03
RMM:  76    -0.509940990880E+03   -0.19903E-05   -0.37820E-05   398   0.114E-03    0.509E-03
RMM:  77    -0.509940996809E+03   -0.59290E-05   -0.36092E-05   394   0.123E-03    0.122E-03
RMM:  78    -0.509941000703E+03   -0.38936E-05   -0.34560E-05   216   0.638E-04    0.151E-03
RMM:  79    -0.509941005263E+03   -0.45597E-05   -0.36114E-05   221   0.672E-04    0.133E-03
RMM:  80    -0.509941009174E+03   -0.39113E-05   -0.33125E-05   217   0.579E-04    0.706E-04
RMM:  81    -0.509941012515E+03   -0.33411E-05   -0.32040E-05   243   0.674E-04    0.190E-03
RMM:  82    -0.509941015838E+03   -0.33228E-05   -0.30656E-05   241   0.625E-04    0.786E-04
RMM:  83    -0.509941018877E+03   -0.30395E-05   -0.29480E-05   181   0.514E-04    0.545E-04
RMM:  84    -0.509941021882E+03   -0.30047E-05   -0.28318E-05   184   0.511E-04    0.490E-04
RMM:  85    -0.509941024624E+03   -0.27426E-05   -0.27243E-05   181   0.499E-04    0.424E-04
RMM:  86    -0.509941027327E+03   -0.27023E-05   -0.26251E-05   176   0.505E-04    0.458E-04
RMM:  87    -0.509941029845E+03   -0.25183E-05   -0.25278E-05   172   0.489E-04    0.424E-04
RMM:  88    -0.509941032293E+03   -0.24481E-05   -0.24396E-05   167   0.480E-04    0.587E-04
RMM:  89    -0.509941034653E+03   -0.23593E-05   -0.23541E-05   164   0.474E-04    0.650E-04
RMM:  90    -0.509941036941E+03   -0.22888E-05   -0.22774E-05   160   0.468E-04    0.713E-04
RMM:  91    -0.509941039045E+03   -0.21041E-05   -0.22043E-05   168   0.479E-04    0.113E-03
RMM:  92    -0.509941041223E+03   -0.21776E-05   -0.21382E-05   164   0.461E-04    0.101E-03
RMM:  93    -0.509941044389E+03   -0.31655E-05   -0.31254E-05   153   0.442E-04    0.103E-03
RMM:  94    -0.509941046376E+03   -0.19876E-05   -0.20051E-05   151   0.443E-04    0.108E-03
RMM:  95    -0.509941048507E+03   -0.21308E-05   -0.21326E-05   149   0.430E-04    0.117E-03
RMM:  96    -0.509941050446E+03   -0.19393E-05   -0.19176E-05   161   0.462E-04    0.147E-03
RMM:  97    -0.509941052344E+03   -0.18973E-05   -0.19184E-05   159   0.432E-04    0.131E-03
RMM:  98    -0.509941054166E+03   -0.18230E-05   -0.18205E-05   141   0.415E-04    0.133E-03
RMM:  99    -0.509941056037E+03   -0.18710E-05   -0.18455E-05   142   0.417E-04    0.138E-03
RMM: 100    -0.509941057832E+03   -0.17950E-05   -0.17875E-05   138   0.410E-04    0.140E-03
RMM: 101    -0.509941059546E+03   -0.17134E-05   -0.17661E-05   153   0.443E-04    0.166E-03
RMM: 102    -0.509941061323E+03   -0.17770E-05   -0.17237E-05   150   0.411E-04    0.150E-03
RMM: 103    -0.509941063011E+03   -0.16883E-05   -0.16887E-05   135   0.398E-04    0.156E-03
RMM: 104    -0.509941064672E+03   -0.16607E-05   -0.16552E-05   134   0.397E-04    0.160E-03
RMM: 105    -0.509941066303E+03   -0.16308E-05   -0.16258E-05   134   0.394E-04    0.166E-03
RMM: 106    -0.509941068047E+03   -0.17441E-05   -0.15936E-05   158   0.445E-04    0.175E-03
RMM: 107    -0.509941069618E+03   -0.15710E-05   -0.15838E-05   151   0.411E-04    0.165E-03
RMM: 108    -0.509941071164E+03   -0.15466E-05   -0.15514E-05   133   0.381E-04    0.164E-03
RMM: 109    -0.509941072687E+03   -0.15231E-05   -0.15313E-05   133   0.379E-04    0.169E-03
RMM: 110    -0.509941074198E+03   -0.15108E-05   -0.15079E-05   127   0.375E-04    0.173E-03
RMM: 111    -0.509941075693E+03   -0.14954E-05   -0.14894E-05   146   0.430E-04    0.213E-03
RMM: 112    -0.509941077179E+03   -0.14856E-05   -0.14705E-05   139   0.389E-04    0.180E-03
RMM: 113    -0.509941078649E+03   -0.14700E-05   -0.14532E-05   119   0.369E-04    0.180E-03
RMM: 114    -0.509941080111E+03   -0.14622E-05   -0.14366E-05   117   0.379E-04    0.181E-03
RMM: 115    -0.509941081538E+03   -0.14263E-05   -0.14214E-05   114   0.376E-04    0.180E-03
RMM: 116    -0.509941082788E+03   -0.12499E-05   -0.14071E-05   120   0.396E-04    0.194E-03
RMM: 117    -0.509941084200E+03   -0.14121E-05   -0.13878E-05   115   0.374E-04    0.183E-03
RMM: 118    -0.509941085602E+03   -0.14028E-05   -0.13922E-05   107   0.371E-04    0.185E-03
RMM: 119    -0.509941086972E+03   -0.13695E-05   -0.13707E-05   108   0.369E-04    0.189E-03
RMM: 120    -0.509941088340E+03   -0.13684E-05   -0.13620E-05   107   0.371E-04    0.192E-03
RMM: 121    -0.509941089781E+03   -0.14404E-05   -0.13501E-05   189   0.457E-04    0.247E-03
RMM: 122    -0.509941091107E+03   -0.13260E-05   -0.13418E-05   176   0.431E-04    0.212E-03
RMM: 123    -0.509941092434E+03   -0.13271E-05   -0.13307E-05   104   0.335E-04    0.208E-03
RMM: 124    -0.509941093759E+03   -0.13252E-05   -0.13218E-05   101   0.329E-04    0.210E-03
RMM: 125    -0.509941095074E+03   -0.13146E-05   -0.13121E-05    99   0.326E-04    0.214E-03
RMM: 126    -0.509941096440E+03   -0.13662E-05   -0.13001E-05   123   0.420E-04    0.263E-03
RMM: 127    -0.509941097722E+03   -0.12818E-05   -0.12929E-05   115   0.345E-04    0.226E-03
RMM: 128    -0.509941099003E+03   -0.12811E-05   -0.12819E-05   100   0.325E-04    0.220E-03
RMM: 129    -0.509941100275E+03   -0.12721E-05   -0.12708E-05    97   0.324E-04    0.222E-03
RMM: 130    -0.509941101538E+03   -0.12628E-05   -0.12593E-05    97   0.325E-04    0.225E-03
RMM: 131    -0.509941102884E+03   -0.13464E-05   -0.12522E-05   356   0.732E-04    0.408E-03
RMM: 132    -0.509941104102E+03   -0.12181E-05   -0.12388E-05   352   0.864E-04    0.258E-03
RMM: 133    -0.509941105353E+03   -0.12511E-05   -0.12218E-05    98   0.311E-04    0.230E-03
RMM: 134    -0.509941106579E+03   -0.12260E-05   -0.12085E-05    96   0.302E-04    0.224E-03
RMM: 135    -0.509941107777E+03   -0.11982E-05   -0.11949E-05    92   0.295E-04    0.223E-03
RMM: 136    -0.509941109055E+03   -0.12774E-05   -0.11878E-05   346   0.850E-04    0.488E-03
RMM: 137    -0.509941110202E+03   -0.11474E-05   -0.11727E-05   343   0.107E-03    0.279E-03
RMM: 138    -0.509941111350E+03   -0.11473E-05   -0.11520E-05   121   0.357E-04    0.242E-03
RMM: 139    -0.509941112488E+03   -0.11381E-05   -0.11369E-05   108   0.366E-04    0.247E-03
RMM: 140    -0.509941113611E+03   -0.11238E-05   -0.11213E-05    94   0.358E-04    0.250E-03
RMM: 141    -0.509941114717E+03   -0.11055E-05   -0.11071E-05   263   0.491E-04    0.307E-03
RMM: 142    -0.509941115810E+03   -0.10926E-05   -0.10903E-05   239   0.492E-04    0.257E-03
RMM: 143    -0.509941116885E+03   -0.10751E-05   -0.10723E-05    93   0.298E-04    0.251E-03
RMM: 144    -0.509941117936E+03   -0.10511E-05   -0.10527E-05    89   0.286E-04    0.250E-03
RMM: 145    -0.509941118976E+03   -0.10400E-05   -0.10421E-05    88   0.280E-04    0.253E-03
RMM: 146    -0.509941119953E+03   -0.97722E-06   -0.10217E-05   288   0.516E-04    0.311E-03
RMM: 147    -0.509941120964E+03   -0.10114E-05   -0.10048E-05   285   0.569E-04    0.254E-03
RMM: 148    -0.509941121958E+03   -0.99378E-06   -0.98201E-06    87   0.307E-04
   1 F= -.52335866E+03 E0= -.52068813E+03  d E =-.534106E+01
       N       E                     dE             d eps       ncg     rms          rms(c)
DAV:   1    -0.509931537151E+03    0.95838E-02   -0.12908E+00   678   0.125E+00    0.135E-01
RMM:   2    -0.509934783502E+03   -0.32464E-02   -0.25835E-02   886   0.268E-01    0.594E-01
RMM:   3    -0.509934294463E+03    0.48904E-03   -0.25813E-03   684   0.122E-01    0.411E-01
RMM:   4    -0.509935082655E+03   -0.78819E-03   -0.18117E-03   851   0.824E-02    0.711E-01
RMM:   5    -0.509934572871E+03    0.50978E-03   -0.96031E-04   713   0.767E-02    0.513E-01
RMM:   6    -0.509933912401E+03    0.66047E-03   -0.47546E-04   670   0.699E-02    0.212E-01
RMM:   7    -0.509934056515E+03   -0.14411E-03   -0.76561E-04   734   0.671E-02    0.332E-01
RMM:   8    -0.509934729738E+03   -0.67322E-03   -0.16733E-03   789   0.907E-02    0.591E-01
RMM:   9    -0.509933921158E+03    0.80858E-03   -0.65959E-04   663   0.826E-02    0.210E-01
RMM:  10    -0.509933826908E+03    0.94250E-04   -0.52399E-04   761   0.525E-02    0.173E-01
RMM:  11    -0.509934038826E+03   -0.21192E-03   -0.64915E-04   785   0.553E-02    0.323E-01
RMM:  12    -0.509933808686E+03    0.23014E-03   -0.20328E-04   668   0.448E-02    0.127E-01
RMM:  13    -0.509933758433E+03    0.50253E-04   -0.12645E-04   739   0.264E-02    0.653E-02
RMM:  14    -0.509933776011E+03   -0.17579E-04   -0.10649E-04   814   0.206E-02    0.101E-01
RMM:  15    -0.509933770099E+03    0.59128E-05   -0.42339E-05   699   0.174E-02    0.878E-02
RMM:  16    -0.509933752064E+03    0.18034E-04   -0.26076E-05   679   0.146E-02    0.426E-02
RMM:  17    -0.509933752107E+03   -0.42564E-07   -0.25797E-05   821   0.887E-03    0.415E-02
RMM:  18    -0.509933762457E+03   -0.10351E-04   -0.24365E-05   769   0.112E-02    0.732E-02
RMM:  19    -0.509933750824E+03    0.11633E-04   -0.98113E-06   635   0.990E-03    0.252E-02
RMM:  20    -0.509933750354E+03    0.46998E-06   -0.69891E-06   597   0.610E-03
   2 F= -.52335123E+03 E0= -.52068049E+03  d E =-.534146E+01
       N       E                     dE             d eps       ncg     rms          rms(c)
DAV:   1    -0.509938471187E+03   -0.47204E-02   -0.51612E+00   654   0.251E+00    0.263E-01
RMM:   2    -0.509951170614E+03   -0.12699E-01   -0.99825E-02   906   0.538E-01    0.116E+00
RMM:   3    -0.509948998965E+03    0.21716E-02   -0.13186E-02   678   0.250E-01    0.710E-01
RMM:   4    -0.509951814952E+03   -0.28160E-02   -0.71191E-03   832   0.171E-01    0.130E+00
RMM:   5    -0.509950624317E+03    0.11906E-02   -0.34343E-03   748   0.133E-01    0.107E+00
RMM:   6    -0.509947915699E+03    0.27086E-02   -0.18423E-03   660   0.133E-01    0.425E-01
RMM:   7    -0.509948418790E+03   -0.50309E-03   -0.31261E-03   740   0.132E-01    0.660E-01
RMM:   8    -0.509951043977E+03   -0.26252E-02   -0.63730E-03   779   0.180E-01    0.117E+00
RMM:   9    -0.509947821430E+03    0.32225E-02   -0.24763E-03   659   0.162E-01    0.387E-01
RMM:  10    -0.509947581744E+03    0.23969E-03   -0.19588E-03   735   0.107E-01    0.385E-01
RMM:  11    -0.509948442346E+03   -0.86060E-03   -0.27139E-03   768   0.117E-01    0.668E-01
RMM:  12    -0.509947485633E+03    0.95671E-03   -0.87206E-04   663   0.926E-02    0.289E-01
RMM:  13    -0.509947237798E+03    0.24784E-03   -0.58481E-04   720   0.583E-02    0.149E-01
RMM:  14    -0.509947348174E+03   -0.11038E-03   -0.52873E-04   814   0.470E-02    0.250E-01
RMM:  15    -0.509947313423E+03    0.34751E-04   -0.23186E-04   695   0.414E-02    0.211E-01
RMM:  16    -0.509947202868E+03    0.11055E-03   -0.13255E-04   675   0.348E-02    0.947E-02
RMM:  17    -0.509947199365E+03    0.35038E-05   -0.12668E-04   830   0.207E-02    0.912E-02
RMM:  18    -0.509947238874E+03   -0.39509E-04   -0.10175E-04   755   0.242E-02    0.148E-01
RMM:  19    -0.509947191525E+03    0.47349E-04   -0.43026E-05   678   0.207E-02    0.608E-02
RMM:  20    -0.509947186610E+03    0.49149E-05   -0.34228E-05   795   0.127E-02    0.491E-02
RMM:  21    -0.509947200090E+03   -0.13480E-04   -0.39718E-05   821   0.132E-02    0.839E-02
RMM:  22    -0.509947185662E+03    0.14428E-04   -0.13596E-05   671   0.108E-02    0.363E-02
RMM:  23    -0.509947183306E+03    0.23562E-05   -0.89902E-06   662   0.660E-03    0.231E-02
RMM:  24    -0.509947187021E+03   -0.37145E-05   -0.11163E-05   712   0.645E-03    0.411E-02
RMM:  25    -0.509947183882E+03    0.31380E-05   -0.37309E-06   499   0.582E-03    0.164E-02
RMM:  26    -0.509947183690E+03    0.19249E-06   -0.21044E-06   419   0.392E-03
   3 F= -.52336479E+03 E0= -.52069412E+03  d E =-.534133E+01
       N       E                     dE             d eps       ncg     rms          rms(c)
DAV:   1    -0.509930724117E+03    0.16460E-01   -0.25732E+00   654   0.176E+00    0.189E-01
RMM:   2    -0.509937935063E+03   -0.72109E-02   -0.55791E-02   890   0.394E-01    0.912E-01
RMM:   3    -0.509936524065E+03    0.14110E-02   -0.56903E-03   675   0.186E-01    0.508E-01
RMM:   4    -0.509938107539E+03   -0.15835E-02   -0.39687E-03   808   0.134E-01    0.961E-01
RMM:   5    -0.509937581035E+03    0.52650E-03   -0.18371E-03   739   0.976E-02    0.834E-01
RMM:   6    -0.509935987901E+03    0.15931E-02   -0.96868E-04   661   0.954E-02    0.310E-01
RMM:   7    -0.509936014248E+03   -0.26348E-04   -0.13287E-03   744   0.845E-02    0.390E-01
RMM:   8    -0.509937194192E+03   -0.11799E-02   -0.28575E-03   787   0.118E-01    0.757E-01
RMM:   9    -0.509935961299E+03    0.12329E-02   -0.11755E-03   659   0.107E-01    0.324E-01
RMM:  10    -0.509935729598E+03    0.23170E-03   -0.88455E-04   707   0.767E-02    0.245E-01
RMM:  11    -0.509936223817E+03   -0.49422E-03   -0.15035E-03   762   0.870E-02    0.479E-01
RMM:  12    -0.509935776546E+03    0.44727E-03   -0.53581E-04   664   0.716E-02    0.244E-01
RMM:  13    -0.509935596485E+03    0.18006E-03   -0.29776E-04   681   0.470E-02    0.112E-01
RMM:  14    -0.509935617437E+03   -0.20952E-04   -0.27518E-04   800   0.329E-02    0.139E-01
RMM:  15    -0.509935654430E+03   -0.36993E-04   -0.14611E-04   730   0.300E-02    0.182E-01
RMM:  16    -0.509935576766E+03    0.77664E-04   -0.69088E-05   669   0.260E-02    0.694E-02
RMM:  17    -0.509935573154E+03    0.36114E-05   -0.57645E-05   833   0.140E-02    0.659E-02
RMM:  18    -0.509935595939E+03   -0.22784E-04   -0.57162E-05   776   0.171E-02    0.112E-01
RMM:  19    -0.509935569993E+03    0.25945E-04   -0.22813E-05   667   0.151E-02    0.435E-02
RMM:  20    -0.509935566533E+03    0.34609E-05   -0.16535E-05   737   0.894E-03    0.339E-02
RMM:  21    -0.509935572859E+03   -0.63259E-05   -0.19941E-05   799   0.948E-03    0.563E-02
RMM:  22    -0.509935566217E+03    0.66415E-05   -0.66104E-06   573   0.793E-03    0.249E-02
RMM:  23    -0.509935565405E+03    0.81173E-06   -0.32793E-06   469   0.464E-03
   4 F= -.52335306E+03 E0= -.52068229E+03  d E =-.534154E+01
       N       E                     dE             d eps       ncg     rms          rms(c)
DAV:   1    -0.509936516088E+03   -0.94987E-03   -0.51655E+00   654   0.249E+00    0.271E-01
RMM:   2    -0.509948447764E+03   -0.11932E-01   -0.95865E-02   904   0.529E-01    0.110E+00
RMM:   3    -0.509946775466E+03    0.16723E-02   -0.13024E-02   672   0.250E-01    0.683E-01
RMM:   4    -0.509949138716E+03   -0.23632E-02   -0.84980E-03   770   0.205E-01    0.118E+00
RMM:   5    -0.509946241549E+03    0.28972E-02   -0.22275E-03   662   0.147E-01    0.547E-01
RMM:   6    -0.509946250329E+03   -0.87801E-05   -0.17385E-03   729   0.103E-01    0.668E-01
RMM:   7    -0.509947612399E+03   -0.13621E-02   -0.35466E-03   807   0.125E-01    0.971E-01
RMM:   8    -0.509949276427E+03   -0.16640E-02   -0.59824E-03   728   0.186E-01    0.118E+00
RMM:   9    -0.509945757887E+03    0.35185E-02   -0.26213E-03   657   0.170E-01    0.383E-01
RMM:  10    -0.509945444759E+03    0.31313E-03   -0.19479E-03   712   0.107E-01    0.351E-01
RMM:  11    -0.509946192549E+03   -0.74779E-03   -0.24939E-03   780   0.108E-01    0.614E-01
RMM:  12    -0.509945393075E+03    0.79947E-03   -0.81647E-04   660   0.890E-02    0.280E-01
RMM:  13    -0.509945169302E+03    0.22377E-03   -0.54745E-04   766   0.513E-02    0.127E-01
RMM:  14    -0.509945240242E+03   -0.70940E-04   -0.38253E-04   833   0.396E-02    0.214E-01
RMM:  15    -0.509945202994E+03    0.37248E-04   -0.16716E-04   700   0.346E-02    0.164E-01
RMM:  16    -0.509945132310E+03    0.70684E-04   -0.94368E-05   676   0.293E-02    0.792E-02
RMM:  17    -0.509945132446E+03   -0.13637E-06   -0.92598E-05   865   0.167E-02    0.775E-02
RMM:  18    -0.509945166157E+03   -0.33711E-04   -0.80558E-05   782   0.205E-02    0.135E-01
RMM:  19    -0.509945126980E+03    0.39177E-04   -0.30904E-05   678   0.173E-02    0.466E-02
RMM:  20    -0.509945128001E+03   -0.10205E-05   -0.31073E-05   825   0.111E-02    0.555E-02
RMM:  21    -0.509945137497E+03   -0.94967E-05   -0.31902E-05   821   0.118E-02    0.784E-02
RMM:  22    -0.509945124181E+03    0.13316E-04   -0.12670E-05   675   0.107E-02    0.289E-02
RMM:  23    -0.509945123099E+03    0.10825E-05   -0.86989E-06   664   0.636E-03    0.225E-02
RMM:  24    -0.509945126201E+03   -0.31019E-05   -0.10455E-05   713   0.645E-03    0.368E-02
RMM:  25    -0.509945123794E+03    0.24071E-05   -0.34095E-06   482   0.572E-03    0.157E-02
RMM:  26    -0.509945123491E+03    0.30236E-06   -0.21283E-06   422   0.408E-03
   5 F= -.52336271E+03 E0= -.52069201E+03  d E =-.534140E+01
       N       E                     dE             d eps       ncg     rms          rms(c)
DAV:   1    -0.509914120727E+03    0.31003E-01   -0.25601E+00   654   0.167E+00    0.255E-01
RMM:   2    -0.509920170382E+03   -0.60497E-02   -0.61670E-02   893   0.385E-01    0.724E-01
RMM:   3    -0.509921415958E+03   -0.12456E-02   -0.66532E-03   688   0.199E-01    0.104E+00
RMM:   4    -0.509924685048E+03   -0.32691E-02   -0.80129E-03   826   0.182E-01    0.153E+00
RMM:   5    -0.509921079235E+03    0.36058E-02   -0.30638E-03   665   0.161E-01    0.861E-01
RMM:   6    -0.509919032363E+03    0.20469E-02   -0.17301E-03   662   0.130E-01    0.382E-01
RMM:   7    -0.509920193076E+03   -0.11607E-02   -0.39885E-03   730   0.150E-01    0.758E-01
RMM:   8    -0.509921079392E+03   -0.88632E-03   -0.39305E-03   698   0.160E-01    0.940E-01
RMM:   9    -0.509918979374E+03    0.21000E-02   -0.18730E-03   661   0.139E-01    0.333E-01
RMM:  10    -0.509918995938E+03   -0.16564E-04   -0.19916E-03   734   0.104E-01    0.408E-01
RMM:  11    -0.509919303585E+03   -0.30765E-03   -0.15389E-03   717   0.968E-02    0.512E-01
RMM:  12    -0.509918688917E+03    0.61467E-03   -0.60796E-04   667   0.789E-02    0.234E-01
RMM:  13    -0.509918538243E+03    0.15067E-03   -0.41139E-04   729   0.459E-02    0.113E-01
RMM:  14    -0.509918609481E+03   -0.71239E-04   -0.32278E-04   844   0.358E-02    0.198E-01
RMM:  15    -0.509918589099E+03    0.20382E-04   -0.14581E-04   707   0.318E-02    0.168E-01
RMM:  16    -0.509918516234E+03    0.72865E-04   -0.82570E-05   677   0.268E-02    0.579E-02
RMM:  17    -0.509918533987E+03   -0.17752E-04   -0.10214E-04   850   0.196E-02    0.985E-02
RMM:  18    -0.509918538314E+03   -0.43273E-05   -0.51765E-05   726   0.185E-02    0.970E-02
RMM:  19    -0.509918519262E+03    0.19052E-04   -0.25465E-05   712   0.139E-02    0.408E-02
RMM:  20    -0.509918524779E+03   -0.55171E-05   -0.32623E-05   838   0.110E-02    0.586E-02
RMM:  21    -0.509918528394E+03   -0.36148E-05   -0.21195E-05   748   0.107E-02    0.603E-02
RMM:  22    -0.509918520923E+03    0.74714E-05   -0.83963E-06   634   0.842E-03    0.224E-02
RMM:  23    -0.509918520943E+03   -0.19980E-07   -0.69731E-06   608   0.583E-03
   6 F= -.52333567E+03 E0= -.52066418E+03  d E =-.534298E+01
       N       E                     dE             d eps       ncg     rms          rms(c)
DAV:   1    -0.509946406100E+03   -0.27885E-01   -0.50825E+00   654   0.222E+00    0.499E-01
RMM:   2    -0.509956593539E+03   -0.10187E-01   -0.13610E-01   854   0.568E-01    0.127E+00
RMM:   3    -0.509966543389E+03   -0.99498E-02   -0.24642E-02   684   0.417E-01    0.239E+00
RMM:   4    -0.509986622716E+03   -0.20079E-01   -0.41410E-02   808   0.420E-01    0.362E+00
RMM:   5    -0.509966731351E+03    0.19891E-01   -0.15800E-02   666   0.369E-01    0.208E+00
RMM:   6    -0.509953990581E+03    0.12741E-01   -0.97295E-03   663   0.301E-01    0.729E-01
RMM:   7    -0.509955405836E+03   -0.14153E-02   -0.12293E-02   776   0.241E-01    0.111E+00
RMM:   8    -0.509960704668E+03   -0.52988E-02   -0.16205E-02   779   0.277E-01    0.178E+00
RMM:   9    -0.509953328785E+03    0.73759E-02   -0.64650E-03   662   0.250E-01    0.573E-01
RMM:  10    -0.509953264973E+03    0.63812E-04   -0.59429E-03   787   0.158E-01    0.699E-01
RMM:  11    -0.509953654628E+03   -0.38965E-03   -0.37783E-03   732   0.145E-01    0.783E-01
RMM:  12    -0.509952149179E+03    0.15054E-02   -0.13947E-03   666   0.116E-01    0.303E-01
RMM:  13    -0.509952027726E+03    0.12145E-03   -0.12668E-03   802   0.729E-02    0.269E-01
RMM:  14    -0.509952430915E+03   -0.40319E-03   -0.11838E-03   764   0.789E-02    0.466E-01
RMM:  15    -0.509952011545E+03    0.41937E-03   -0.45192E-04   675   0.645E-02    0.222E-01
RMM:  16    -0.509951874838E+03    0.13671E-03   -0.35057E-04   696   0.507E-02    0.131E-01
RMM:  17    -0.509951965640E+03   -0.90802E-04   -0.42812E-04   791   0.436E-02    0.214E-01
RMM:  18    -0.509951938572E+03    0.27068E-04   -0.18720E-04   689   0.392E-02    0.190E-01
RMM:  19    -0.509951849705E+03    0.88866E-04   -0.10074E-04   695   0.288E-02    0.651E-02
RMM:  20    -0.509951851407E+03   -0.17011E-05   -0.94659E-05   894   0.167E-02    0.738E-02
RMM:  21    -0.509951855833E+03   -0.44268E-05   -0.44146E-05   769   0.151E-02    0.747E-02
RMM:  22    -0.509951844756E+03    0.11077E-04   -0.20985E-05   722   0.118E-02    0.364E-02
RMM:  23    -0.509951846359E+03   -0.16030E-05   -0.21356E-05   818   0.850E-03    0.393E-02
RMM:  24    -0.509951852658E+03   -0.62986E-05   -0.16903E-05   770   0.880E-03    0.545E-02
RMM:  25    -0.509951847169E+03    0.54892E-05   -0.64734E-06   578   0.738E-03    0.191E-02
RMM:  26    -0.509951847640E+03   -0.47133E-06   -0.50329E-06   546   0.498E-03
   7 F= -.52336978E+03 E0= -.52069978E+03  d E =-.533999E+01
       N       E                     dE             d eps       ncg     rms          rms(c)
DAV:   1    -0.509937695275E+03    0.14152E-01   -0.13487E+00   654   0.113E+00    0.258E-01
RMM:   2    -0.509940920326E+03   -0.32251E-02   -0.36888E-02   834   0.304E-01    0.691E-01
RMM:   3    -0.509942426371E+03   -0.15060E-02   -0.63185E-03   669   0.215E-01    0.105E+00
RMM:   4    -0.509948574970E+03   -0.61486E-02   -0.10260E-02   808   0.211E-01    0.187E+00
RMM:   5    -0.509943842788E+03    0.47322E-02   -0.38710E-03   676   0.176E-01    0.113E+00
RMM:   6    -0.509940246228E+03    0.35966E-02   -0.24734E-03   658   0.156E-01    0.424E-01
RMM:   7    -0.509940377358E+03   -0.13113E-03   -0.29843E-03   756   0.120E-01    0.530E-01
RMM:   8    -0.509942074334E+03   -0.16970E-02   -0.46380E-03   786   0.149E-01    0.937E-01
RMM:   9    -0.509940044877E+03    0.20295E-02   -0.18873E-03   664   0.136E-01    0.340E-01
RMM:  10    -0.509939881888E+03    0.16299E-03   -0.15582E-03   777   0.818E-02    0.310E-01
RMM:  11    -0.509940168037E+03   -0.28615E-03   -0.11899E-03   762   0.770E-02    0.454E-01
RMM:  12    -0.509939691138E+03    0.47690E-03   -0.38428E-04   665   0.612E-02    0.165E-01
RMM:  13    -0.509939641051E+03    0.50087E-04   -0.33346E-04   776   0.387E-02    0.132E-01
RMM:  14    -0.509939740716E+03   -0.99665E-04   -0.34449E-04   777   0.406E-02    0.227E-01
RMM:  15    -0.509939651091E+03    0.89625E-04   -0.12745E-04   671   0.337E-02    0.132E-01
RMM:  16    -0.509939607400E+03    0.43692E-04   -0.90131E-05   697   0.251E-02    0.647E-02
RMM:  17    -0.509939623065E+03   -0.15665E-04   -0.10276E-04   781   0.212E-02    0.946E-02
RMM:  18    -0.509939624074E+03   -0.10091E-05   -0.45367E-05   690   0.187E-02    0.934E-02
RMM:  19    -0.509939604432E+03    0.19642E-04   -0.22721E-05   672   0.142E-02    0.379E-02
RMM:  20    -0.509939604068E+03    0.36399E-06   -0.22081E-05   796   0.864E-03    0.338E-02
RMM:  21    -0.509939608948E+03   -0.48804E-05   -0.13917E-05   729   0.868E-03    0.437E-02
RMM:  22    -0.509939605190E+03    0.37585E-05   -0.53856E-06   563   0.703E-03    0.182E-02
RMM:  23    -0.509939605338E+03   -0.14865E-06   -0.31830E-06   466   0.437E-03
   8 F= -.52335717E+03 E0= -.52068634E+03  d E =-.534166E+01
       N       E                     dE             d eps       ncg     rms          rms(c)
DAV:   1    -0.509941768819E+03   -0.21636E-02   -0.26989E-01   660   0.363E-01    0.151E-01
RMM:   2    -0.509942805991E+03   -0.10372E-02   -0.46809E-03   777   0.119E-01    0.443E-01
RMM:   3    -0.509942639977E+03    0.16601E-03   -0.11966E-03   673   0.940E-02    0.361E-01
RMM:   4    -0.509944785360E+03   -0.21454E-02   -0.29245E-03   812   0.117E-01    0.979E-01
RMM:   5    -0.509945749242E+03   -0.96388E-03   -0.35287E-03   803   0.123E-01    0.109E+00
RMM:   6    -0.509943156674E+03    0.25926E-02   -0.17401E-03   655   0.131E-01    0.427E-01
RMM:   7    -0.509942565956E+03    0.59072E-03   -0.13078E-03   733   0.836E-02    0.203E-01
RMM:   8    -0.509942863819E+03   -0.29786E-03   -0.11913E-03   849   0.676E-02    0.389E-01
RMM:   9    -0.509942612823E+03    0.25100E-03   -0.41561E-04   667   0.556E-02    0.213E-01
RMM:  10    -0.509942483712E+03    0.12911E-03   -0.20154E-04   691   0.378E-02    0.980E-02
RMM:  11    -0.509942493891E+03   -0.10179E-04   -0.19540E-04   920   0.237E-02    0.115E-01
RMM:  12    -0.509942487248E+03    0.66429E-05   -0.69003E-05   729   0.210E-02    0.994E-02
RMM:  13    -0.509942464331E+03    0.22917E-04   -0.29176E-05   680   0.155E-02    0.455E-02
RMM:  14    -0.509942462311E+03    0.20193E-05   -0.24514E-05   833   0.890E-03    0.342E-02
RMM:  15    -0.509942466000E+03   -0.36884E-05   -0.14197E-05   751   0.808E-03    0.427E-02
RMM:  16    -0.509942466888E+03   -0.88797E-06   -0.86124E-06   621   0.814E-03
   9 F= -.52335998E+03 E0= -.52068934E+03  d E =-.534128E+01
       N       E                     dE             d eps       ncg     rms          rms(c)
DAV:   1    -0.509939688041E+03    0.27780E-02   -0.13502E-01   657   0.254E-01    0.107E-01
RMM:   2    -0.509940225164E+03   -0.53712E-03   -0.23252E-03   788   0.792E-02    0.333E-01
RMM:   3    -0.509940211086E+03    0.14077E-04   -0.52397E-04   683   0.588E-02    0.323E-01
RMM:   4    -0.509940825544E+03   -0.61446E-03   -0.10772E-03   802   0.677E-02    0.574E-01
RMM:   5    -0.509941244986E+03   -0.41944E-03   -0.18753E-03   736   0.101E-01    0.631E-01
RMM:   6    -0.509940328875E+03    0.91611E-03   -0.79131E-04   656   0.921E-02    0.288E-01
RMM:   7    -0.509940097156E+03    0.23172E-03   -0.54271E-04   715   0.546E-02    0.140E-01
RMM:   8    -0.509940208528E+03   -0.11137E-03   -0.46964E-04   790   0.461E-02    0.244E-01
RMM:   9    -0.509940143603E+03    0.64924E-04   -0.21784E-04   663   0.411E-02    0.170E-01
RMM:  10    -0.509940058749E+03    0.84855E-04   -0.10084E-04   662   0.304E-02    0.670E-02
RMM:  11    -0.509940054977E+03    0.37716E-05   -0.89513E-05   862   0.164E-02    0.606E-02
RMM:  12    -0.509940061134E+03   -0.61570E-05   -0.37578E-05   746   0.144E-02    0.753E-02
RMM:  13    -0.509940048009E+03    0.13125E-04   -0.14492E-05   645   0.116E-02    0.322E-02
RMM:  14    -0.509940046097E+03    0.19128E-05   -0.87627E-06   628   0.610E-03    0.195E-02
RMM:  15    -0.509940047945E+03   -0.18480E-05   -0.54514E-06   553   0.546E-03    0.292E-02
RMM:  16    -0.509940047579E+03    0.36520E-06   -0.28411E-06   426   0.548E-03
  10 F= -.52335760E+03 E0= -.52068679E+03  d E =-.534163E+01
       N       E                     dE             d eps       ncg     rms          rms(c)
DAV:   1    -0.509941361766E+03   -0.13138E-02   -0.27016E-01   660   0.365E-01    0.148E-01
RMM:   2    -0.509942025094E+03   -0.66333E-03   -0.37745E-03   768   0.914E-02    0.273E-01
RMM:   3    -0.509942805470E+03   -0.78038E-03   -0.11644E-03   757   0.772E-02    0.629E-01
RMM:   4    -0.509944935199E+03   -0.21297E-02   -0.35058E-03   799   0.126E-01    0.106E+00
RMM:   5    -0.509943695007E+03    0.12402E-02   -0.21577E-03   666   0.132E-01    0.721E-01
RMM:   6    -0.509942289800E+03    0.14052E-02   -0.10884E-03   654   0.109E-01    0.252E-01
RMM:   7    -0.509942132691E+03    0.15711E-03   -0.79708E-04   752   0.612E-02    0.194E-01
RMM:   8    -0.509942326331E+03   -0.19364E-03   -0.76244E-04   775   0.590E-02    0.318E-01
RMM:   9    -0.509942146120E+03    0.18021E-03   -0.29252E-04   654   0.512E-02    0.185E-01
RMM:  10    -0.509942055499E+03    0.90621E-04   -0.19332E-04   710   0.345E-02    0.863E-02
RMM:  11    -0.509942052871E+03    0.26282E-05   -0.13145E-04   911   0.189E-02    0.788E-02
RMM:  12    -0.509942059518E+03   -0.66472E-05   -0.50057E-05   766   0.161E-02    0.954E-02
RMM:  13    -0.509942038787E+03    0.20731E-04   -0.17574E-05   663   0.122E-02    0.279E-02
RMM:  14    -0.509942038516E+03    0.27141E-06   -0.13428E-05   749   0.686E-03    0.283E-02
RMM:  15    -0.509942042831E+03   -0.43147E-05   -0.11111E-05   712   0.713E-03    0.409E-02
RMM:  16    -0.509942041378E+03    0.14526E-05   -0.47878E-06   531   0.675E-03    0.182E-02
RMM:  17    -0.509942041552E+03   -0.17371E-06   -0.27965E-06   412   0.476E-03
  11 F= -.52335956E+03 E0= -.52068886E+03  d E =-.534140E+01
       N       E                     dE             d eps       ncg     rms          rms(c)
DAV:   1    -0.509937478656E+03    0.45627E-02   -0.15124E-01   660   0.272E-01    0.185E-01
RMM:   2    -0.509939442008E+03   -0.19634E-02   -0.64683E-03   808   0.146E-01    0.907E-01
RMM:   3    -0.509938367806E+03    0.10742E-02   -0.18640E-03   661   0.130E-01    0.615E-01
RMM:   4    -0.509940406957E+03   -0.20392E-02   -0.37432E-03   808   0.127E-01    0.111E+00
RMM:   5    -0.509940098091E+03    0.30887E-03   -0.43705E-03   701   0.166E-01    0.904E-01
RMM:   6    -0.509937778354E+03    0.23197E-02   -0.17632E-03   657   0.145E-01    0.326E-01
RMM:   7    -0.509937505503E+03    0.27285E-03   -0.10722E-03   703   0.754E-02    0.247E-01
RMM:   8    -0.509938016066E+03   -0.51056E-03   -0.14245E-03   780   0.831E-02    0.483E-01
RMM:   9    -0.509937606638E+03    0.40943E-03   -0.57955E-04   664   0.724E-02    0.279E-01
RMM:  10    -0.509937413797E+03    0.19284E-03   -0.31491E-04   682   0.474E-02    0.146E-01
RMM:  11    -0.509937455188E+03   -0.41391E-04   -0.36272E-04   802   0.390E-02    0.190E-01
RMM:  12    -0.509937437496E+03    0.17691E-04   -0.18807E-04   683   0.368E-02    0.160E-01
RMM:  13    -0.509937364692E+03    0.72804E-04   -0.82867E-05   656   0.287E-02    0.680E-02
RMM:  14    -0.509937357210E+03    0.74818E-05   -0.60570E-05   797   0.142E-02    0.447E-02
RMM:  15    -0.509937370525E+03   -0.13314E-04   -0.40551E-05   796   0.140E-02    0.812E-02
RMM:  16    -0.509937357734E+03    0.12791E-04   -0.15101E-05   647   0.117E-02    0.380E-02
RMM:  17    -0.509937354467E+03    0.32669E-05   -0.87687E-06   632   0.678E-03    0.208E-02
RMM:  18    -0.509937356826E+03   -0.23590E-05   -0.76838E-06   633   0.637E-03    0.330E-02
RMM:  19    -0.509937356680E+03    0.14609E-06   -0.42029E-06   501   0.617E-03
  12 F= -.52335457E+03 E0= -.52068367E+03  d E =-.534181E+01
       N       E                     dE             d eps       ncg     rms          rms(c)
DAV:   1    -0.509935992755E+03    0.13641E-02   -0.35477E-01   669   0.410E-01    0.358E-01
RMM:   2    -0.509938391675E+03   -0.23989E-02   -0.17760E-02   888   0.187E-01    0.128E+00
RMM:   3    -0.509940631610E+03   -0.22399E-02   -0.56476E-03   678   0.209E-01    0.158E+00
RMM:   4    -0.509952820662E+03   -0.12189E-01   -0.25383E-02   787   0.333E-01    0.265E+00
RMM:   5    -0.509938986280E+03    0.13834E-01   -0.85132E-03   661   0.300E-01    0.102E+00
RMM:   6    -0.509935042659E+03    0.39436E-02   -0.41316E-03   680   0.179E-01    0.424E-01
RMM:   7    -0.509935983297E+03   -0.94064E-03   -0.40840E-03   759   0.144E-01    0.768E-01
RMM:   8    -0.509936694913E+03   -0.71162E-03   -0.39442E-03   734   0.148E-01    0.879E-01
RMM:   9    -0.509934756062E+03    0.19389E-02   -0.18346E-03   666   0.134E-01    0.304E-01
RMM:  10    -0.509934739775E+03    0.16287E-04   -0.16528E-03   769   0.845E-02    0.351E-01
RMM:  11    -0.509934929693E+03   -0.18992E-03   -0.10618E-03   733   0.784E-02    0.420E-01
RMM:  12    -0.509934496581E+03    0.43311E-03   -0.43371E-04   660   0.660E-02    0.171E-01
RMM:  13    -0.509934414381E+03    0.82200E-04   -0.27758E-04   754   0.351E-02    0.901E-02
RMM:  14    -0.509934450548E+03   -0.36167E-04   -0.17597E-04   829   0.268E-02    0.146E-01
RMM:  15    -0.509934426843E+03    0.23705E-04   -0.69428E-05   695   0.227E-02    0.103E-01
RMM:  16    -0.509934401073E+03    0.25770E-04   -0.37605E-05   685   0.169E-02    0.413E-02
RMM:  17    -0.509934407641E+03   -0.65685E-05   -0.44865E-05   849   0.127E-02    0.603E-02
RMM:  18    -0.509934420071E+03   -0.12430E-04   -0.30669E-05   739   0.133E-02    0.789E-02
RMM:  19    -0.509934407228E+03    0.12843E-04   -0.12432E-05   635   0.108E-02    0.259E-02
RMM:  20    -0.509934409392E+03   -0.21643E-05   -0.13404E-05   705   0.759E-03    0.344E-02
RMM:  21    -0.509934412787E+03   -0.33948E-05   -0.72640E-06   597   0.689E-03    0.345E-02
RMM:  22    -0.509934411105E+03    0.16818E-05   -0.26741E-06   417   0.552E-03    0.136E-02
RMM:  23    -0.509934411995E+03   -0.88969E-06   -0.19292E-06   380   0.383E-03
  13 F= -.52335225E+03 E0= -.52068167E+03  d E =-.534117E+01
