 vasp.5.4.4.18Apr17-6-g9f103f2a35 (build Dec 15 2018 21:27:54) gamma-only       
  
 executed on             LinuxIFC date 2022.03.06  13:17:06
 running on   72 total cores
 distrk:  each k-point on   72 cores,    1 groups
 distr:  one band on NCORES_PER_BAND=  24 cores,    3 groups


--------------------------------------------------------------------------------------------------------


 INCAR:
 POTCAR:    PAW_PBE Fe 06Sep2000                  
 POTCAR:    PAW_PBE O 08Apr2002                   
 POTCAR:    PAW_PBE H 15Jun2001                   

 ----------------------------------------------------------------------------- 
|                                                                             |
|           W    W    AA    RRRRR   N    N  II  N    N   GGGG   !!!           |
|           W    W   A  A   R    R  NN   N  II  NN   N  G    G  !!!           |
|           W    W  A    A  R    R  N N  N  II  N N  N  G       !!!           |
|           W WW W  AAAAAA  RRRRR   N  N N  II  N  N N  G  GGG   !            |
|           WW  WW  A    A  R   R   N   NN  II  N   NN  G    G                |
|           W    W  A    A  R    R  N    N  II  N    N   GGGG   !!!           |
|                                                                             |
|      For optimal performance we recommend to set                            |
|        NCORE= 4 - approx SQRT( number of cores)                             |
|      NCORE specifies how many cores store one orbital (NPAR=cpu/NCORE).     |
|      This setting can  greatly improve the performance of VASP for DFT.     |
|      The default,   NCORE=1            might be grossly inefficient         |
|      on modern multi-core architectures or massively parallel machines.     |
|      Do your own testing !!!!                                               |
|      Unfortunately you need to use the default for GW and RPA calculations. |
|      (for HF NCORE is supported but not extensively tested yet)             |
|                                                                             |
 ----------------------------------------------------------------------------- 

 POTCAR:    PAW_PBE Fe 06Sep2000                  
   VRHFIN =Fe:  d7 s1                                                           
   LEXCH  = PE                                                                  
   EATOM  =   594.3153 eV,   43.6809 Ry                                         
                                                                                
   TITEL  = PAW_PBE Fe 06Sep2000                                                
   LULTRA =        F    use ultrasoft PP ?                                      
   IUNSCR =        1    unscreen: 0-lin 1-nonlin 2-no                           
   RPACOR =    2.000    partial core radius                                     
   POMASS =   55.847; ZVAL   =    8.000    mass and valenz                      
   RCORE  =    2.300    outmost cutoff radius                                   
   RWIGS  =    2.460; RWIGS  =    1.302    wigner-seitz radius (au A)           
   ENMAX  =  267.882; ENMIN  =  200.911 eV                                      
   RCLOC  =    1.701    cutoff for local pot                                    
   LCOR   =        T    correct aug charges                                     
   LPAW   =        T    paw PP                                                  
   EAUG   =  511.368                                                            
   DEXC   =    0.000                                                            
   RMAX   =    2.356    core radius for proj-oper                               
   RAUG   =    1.300    factor for augmentation sphere                          
   RDEP   =    2.442    radius for radial grids                                 
   RDEPT  =    1.890    core radius for aug-charge                              
                                                                                
   Atomic configuration                                                         
    9 entries                                                                   
     n  l   j            E        occ.                                          
     1  0  0.50     -6993.8440   2.0000                                         
     2  0  0.50      -814.6047   2.0000                                         
     2  1  1.50      -693.3689   6.0000                                         
     3  0  0.50       -89.4732   2.0000                                         
     3  1  1.50       -55.6373   6.0000                                         
     3  2  2.50        -3.8151   7.0000                                         
     4  0  0.50        -4.2551   1.0000                                         
     4  1  1.50        -3.4015   0.0000                                         
     4  3  2.50        -1.3606   0.0000                                         
   Description                                                                  
     l       E           TYP  RCUT    TYP  RCUT                                 
     2     -3.8151135     23  2.300                                             
     2     -5.1756961     23  2.300                                             
     0     -4.2550963     23  2.300                                             
     0      7.2035603     23  2.300                                             
     1     -2.7211652     23  2.300                                             
     1     18.4316424     23  2.300                                             
  local pseudopotential read in
  partial core-charges read in
  partial kinetic energy density read in
  atomic valenz-charges read in
  non local Contribution for L=           2  read in
    real space projection operators read in
  non local Contribution for L=           2  read in
    real space projection operators read in
  non local Contribution for L=           0  read in
    real space projection operators read in
  non local Contribution for L=           0  read in
    real space projection operators read in
  non local Contribution for L=           1  read in
    real space projection operators read in
  non local Contribution for L=           1  read in
    real space projection operators read in
    PAW grid and wavefunctions read in
 
   number of l-projection  operators is LMAX  =           6
   number of lm-projection operators is LMMAX =          18
 
 POTCAR:    PAW_PBE O 08Apr2002                   
   VRHFIN =O: s2p4                                                              
   LEXCH  = PE                                                                  
   EATOM  =   432.3788 eV,   31.7789 Ry                                         
                                                                                
   TITEL  = PAW_PBE O 08Apr2002                                                 
   LULTRA =        F    use ultrasoft PP ?                                      
   IUNSCR =        1    unscreen: 0-lin 1-nonlin 2-no                           
   RPACOR =    1.200    partial core radius                                     
   POMASS =   16.000; ZVAL   =    6.000    mass and valenz                      
   RCORE  =    1.520    outmost cutoff radius                                   
   RWIGS  =    1.550; RWIGS  =    0.820    wigner-seitz radius (au A)           
   ENMAX  =  400.000; ENMIN  =  300.000 eV                                      
   ICORE  =        2    local potential                                         
   LCOR   =        T    correct aug charges                                     
   LPAW   =        T    paw PP                                                  
   EAUG   =  605.392                                                            
   DEXC   =    0.000                                                            
   RMAX   =    1.553    core radius for proj-oper                               
   RAUG   =    1.300    factor for augmentation sphere                          
   RDEP   =    1.550    radius for radial grids                                 
   RDEPT  =    1.329    core radius for aug-charge                              
                                                                                
   Atomic configuration                                                         
    4 entries                                                                   
     n  l   j            E        occ.                                          
     1  0  0.50      -514.6923   2.0000                                         
     2  0  0.50       -23.9615   2.0000                                         
     2  1  0.50        -9.0305   4.0000                                         
     3  2  1.50        -9.5241   0.0000                                         
   Description                                                                  
     l       E           TYP  RCUT    TYP  RCUT                                 
     0    -23.9615318     23  1.200                                             
     0     -9.5240782     23  1.200                                             
     1     -9.0304911     23  1.520                                             
     1      8.1634956     23  1.520                                             
     2     -9.5240782      7  1.500                                             
  local pseudopotential read in
  partial core-charges read in
  partial kinetic energy density read in
  kinetic energy density of atom read in
  atomic valenz-charges read in
  non local Contribution for L=           0  read in
    real space projection operators read in
  non local Contribution for L=           0  read in
    real space projection operators read in
  non local Contribution for L=           1  read in
    real space projection operators read in
  non local Contribution for L=           1  read in
    real space projection operators read in
    PAW grid and wavefunctions read in
 
   number of l-projection  operators is LMAX  =           4
   number of lm-projection operators is LMMAX =           8
 
 POTCAR:    PAW_PBE H 15Jun2001                   
   VRHFIN =H: ultrasoft test                                                    
   LEXCH  = PE                                                                  
   EATOM  =    12.4884 eV,    0.9179 Ry                                         
                                                                                
   TITEL  = PAW_PBE H 15Jun2001                                                 
   LULTRA =        F    use ultrasoft PP ?                                      
   IUNSCR =        0    unscreen: 0-lin 1-nonlin 2-no                           
   RPACOR =    0.000    partial core radius                                     
   POMASS =    1.000; ZVAL   =    1.000    mass and valenz                      
   RCORE  =    1.100    outmost cutoff radius                                   
   RWIGS  =    0.700; RWIGS  =    0.370    wigner-seitz radius (au A)           
   ENMAX  =  250.000; ENMIN  =  200.000 eV                                      
   RCLOC  =    0.701    cutoff for local pot                                    
   LCOR   =        T    correct aug charges                                     
   LPAW   =        T    paw PP                                                  
   EAUG   =  400.000                                                            
   RMAX   =    1.123    core radius for proj-oper                               
   RAUG   =    1.200    factor for augmentation sphere                          
   RDEP   =    1.112    radius for radial grids                                 
   RDEPT  =    0.926    core radius for aug-charge                              
                                                                                
   Atomic configuration                                                         
    2 entries                                                                   
     n  l   j            E        occ.                                          
     1  0  0.50        -6.4927   1.0000                                         
     2  1  0.50        -3.4015   0.0000                                         
   Description                                                                  
     l       E           TYP  RCUT    TYP  RCUT                                 
     0     -6.4927494     23  1.100                                             
     0      6.8029130     23  1.100                                             
     1     -4.0817478     23  1.100                                             
  local pseudopotential read in
  atomic valenz-charges read in
  non local Contribution for L=           0  read in
    real space projection operators read in
  non local Contribution for L=           0  read in
    real space projection operators read in
  non local Contribution for L=           1  read in
    real space projection operators read in
    PAW grid and wavefunctions read in
 
   number of l-projection  operators is LMAX  =           3
   number of lm-projection operators is LMMAX =           5
 
 Optimization of the real space projectors (new method)

 maximal supplied QI-value         = 16.25
 optimisation between [QCUT,QGAM] = [ 11.54, 23.24] = [ 37.28,151.24] Ry 
 Optimized for a Real-space Cutoff    1.53 Angstroem

   l    n(q)    QCUT    max X(q) W(low)/X(q) W(high)/X(q)  e(spline) 
   2     10    11.539    80.901    0.11E-03    0.14E-03    0.21E-06
   2     10    11.539    75.754    0.11E-03    0.14E-03    0.22E-06
   0     11    11.539    58.752    0.52E-04    0.18E-04    0.33E-06
   0     11    11.539    30.679    0.44E-04    0.16E-04    0.30E-06
   1     10    11.539    17.977    0.53E-04    0.29E-04    0.13E-06
   1     10    11.539    13.559    0.44E-04    0.25E-04    0.11E-06
 Optimization of the real space projectors (new method)

 maximal supplied QI-value         = 24.76
 optimisation between [QCUT,QGAM] = [ 11.64, 23.27] = [ 37.91,151.63] Ry 
 Optimized for a Real-space Cutoff    1.14 Angstroem

   l    n(q)    QCUT    max X(q) W(low)/X(q) W(high)/X(q)  e(spline) 
   0      8    11.635    20.381    0.10E-03    0.33E-03    0.24E-06
   0      8    11.635    15.268    0.11E-03    0.35E-03    0.26E-06
   1      7    11.635     5.964    0.24E-03    0.31E-03    0.30E-06
   1      7    11.635     5.382    0.22E-03    0.25E-03    0.26E-06
 Optimization of the real space projectors (new method)

 maximal supplied QI-value         = 34.20
 optimisation between [QCUT,QGAM] = [ 11.63, 23.26] = [ 37.87,151.49] Ry 
 Optimized for a Real-space Cutoff    1.21 Angstroem

   l    n(q)    QCUT    max X(q) W(low)/X(q) W(high)/X(q)  e(spline) 
   0      8    11.629    19.460    0.17E-03    0.34E-03    0.21E-06
   0      8    11.629    12.209    0.16E-03    0.33E-03    0.21E-06
   1      8    11.629     4.655    0.18E-03    0.16E-03    0.26E-06
  PAW_PBE Fe 06Sep2000                  :
 energy of atom  1       EATOM= -594.3153
 kinetic energy error for atom=    0.0026 (will be added to EATOM!!)
  PAW_PBE O 08Apr2002                   :
 energy of atom  2       EATOM= -432.3788
 kinetic energy error for atom=    0.0208 (will be added to EATOM!!)
  PAW_PBE H 15Jun2001                   :
 energy of atom  3       EATOM=  -12.4884
 kinetic energy error for atom=    0.0014 (will be added to EATOM!!)
 
 
 POSCAR: POSCAR                                  
  positions in direct lattice
  velocities in cartesian coordinates
 exchange correlation table for  LEXCH =        8
   RHO(1)=    0.500       N(1)  =     2000
   RHO(2)=  100.500       N(2)  =     4000

 VTST: version 3.2, (02/03/18)

 CHAIN: initializing optimizer
 
 OPT: Using VASP Dynamics algorithm
 CHAIN: Read ICHAIN            0
 
 POSCAR: POSCAR                                  
  positions in direct lattice
  velocities in cartesian coordinates
 


--------------------------------------------------------------------------------------------------------


 ion  position               nearest neighbor table
   1  0.087  0.163  0.095-   5 2.48  13 2.48  17 2.48  49 2.48  31 2.48   3 2.48  29 2.87  53 2.87
                            15 2.87  19 2.87
   2  0.088  0.160  0.285-  32 2.38   3 2.44  31 2.45  50 2.47   4 2.47  14 2.48   6 2.48  18 2.50
                            20 2.82  15 2.83  54 2.84  19 2.84  16 2.87  30 2.89
   3  0.212  0.038  0.191-   2 2.44  54 2.44  15 2.48   7 2.48  51 2.48  19 2.48  53 2.48   1 2.48
                             6 2.83  50 2.85  31 2.87  55 2.87  49 2.87   5 2.87
   4  0.206  0.031  0.381-  65 1.89  16 2.42  52 2.42  54 2.47   2 2.47   8 2.54  20 2.54  50 2.77
                            56 2.86  32 2.87   6 2.95
   5  0.337  0.163  0.095-   1 2.48   9 2.48  21 2.48  53 2.48   7 2.48  19 2.48  17 2.87  57 2.87
                             3 2.87  23 2.87
   6  0.338  0.163  0.285-   7 2.44  19 2.44  20 2.46   8 2.46  10 2.48  22 2.48   2 2.48  54 2.48
                            24 2.80  23 2.83   3 2.83  58 2.86  18 2.86   4 2.95
   7  0.462  0.038  0.191-   6 2.44  58 2.44  11 2.48   3 2.48  55 2.48  23 2.48  57 2.48   5 2.48
                            10 2.84  54 2.84  19 2.87  59 2.87  53 2.87   9 2.87
   8  0.460  0.036  0.380-  65 1.87  12 2.43  56 2.44  58 2.45   6 2.46  24 2.49   4 2.54  54 2.82
                            60 2.84  20 2.86  10 2.86
   9  0.587  0.163  0.095-   5 2.48  13 2.48  25 2.48  57 2.48  11 2.48  23 2.48  21 2.87  61 2.87
                             7 2.87  27 2.87
  10  0.588  0.162  0.286-  24 2.42  12 2.44  11 2.45  23 2.46  58 2.47   6 2.48  14 2.49  26 2.49
                             7 2.84  27 2.84  28 2.85  62 2.86   8 2.86  22 2.87
  11  0.712  0.038  0.191-  62 2.44  10 2.45  15 2.48   7 2.48  59 2.48  27 2.48  61 2.48   9 2.48
                            14 2.84  58 2.84  23 2.87  63 2.87  57 2.87  13 2.87
  12  0.707  0.029  0.379-  66 1.86  60 2.39  62 2.43   8 2.43  10 2.44  16 2.54  28 2.56  58 2.74
                            64 2.85  24 2.89  14 2.92
  13  0.837  0.163  0.095-   1 2.48   9 2.48  29 2.48  61 2.48  15 2.48  27 2.48  49 2.87  25 2.87
                            11 2.87  31 2.87
  14  0.838  0.163  0.285-  15 2.44  27 2.44  28 2.45  16 2.47   2 2.48  30 2.48  10 2.49  62 2.49
                            32 2.78  31 2.83  11 2.84  50 2.87  26 2.87  12 2.92
  15  0.962  0.038  0.191-  14 2.44  50 2.46   3 2.48  11 2.48  31 2.48  63 2.48  13 2.48  49 2.48
                             2 2.83  62 2.84  27 2.87  51 2.87   1 2.87  61 2.87
  16  0.961  0.033  0.380-  66 1.86   4 2.42  50 2.43  64 2.44  14 2.47  12 2.54  32 2.54  62 2.82
                            52 2.82  28 2.83   2 2.87
  17  0.087  0.413  0.095-  21 2.48  29 2.48   1 2.48  33 2.48  19 2.48  47 2.48  45 2.87   5 2.87
                            31 2.87  35 2.87
  18  0.088  0.412  0.285-  48 2.42  19 2.44  20 2.45  47 2.46  22 2.47  34 2.48  30 2.49   2 2.50
                            36 2.74  32 2.76  35 2.84  31 2.84   6 2.86  46 2.88
  19  0.212  0.288  0.191-   6 2.44  18 2.44  23 2.48  31 2.48   3 2.48  35 2.48   5 2.48  17 2.48
                            22 2.84   2 2.84   7 2.87  47 2.87  21 2.87   1 2.87
  20  0.211  0.285  0.380-  65 1.87  36 2.43  32 2.44  18 2.45   6 2.46  24 2.48   4 2.54   2 2.82
                            48 2.85   8 2.86  22 2.86
  21  0.337  0.413  0.095-  17 2.48  25 2.48   5 2.48  37 2.48  35 2.48  23 2.48   9 2.87  33 2.87
                            19 2.87  39 2.87
  22  0.337  0.413  0.286-  24 2.42  36 2.44  35 2.45  23 2.46  18 2.47   6 2.48  38 2.49  26 2.49
                            19 2.84  39 2.84  40 2.85  34 2.86  20 2.86  10 2.87
  23  0.462  0.288  0.191-  22 2.46  10 2.46  19 2.48  27 2.48   7 2.48  39 2.48  21 2.48   9 2.48
                             6 2.83  26 2.87  35 2.87  11 2.87   5 2.87  25 2.87
  24  0.460  0.286  0.378-  69 2.03  10 2.42  22 2.42  20 2.48   8 2.49  40 2.54  28 2.54   6 2.80
                            26 2.83  12 2.89  36 2.89
  25  0.587  0.413  0.095-  21 2.48  29 2.48   9 2.48  41 2.48  39 2.48  27 2.48  13 2.87  37 2.87
                            23 2.87  43 2.87
  26  0.588  0.413  0.287-  42 2.47  30 2.47  27 2.47  39 2.47  40 2.48  28 2.48  22 2.49  10 2.49
                            44 2.78  24 2.83  43 2.85  23 2.87  14 2.87  38 2.87
  27  0.712  0.288  0.191-  14 2.44  26 2.47  23 2.48  31 2.48  11 2.48  43 2.48  25 2.48  13 2.48
                            30 2.83  10 2.84  39 2.87  15 2.87   9 2.87  29 2.87
  28  0.717  0.283  0.381-  66 1.90  69 2.05  14 2.45  32 2.47  26 2.48  44 2.49  24 2.54  12 2.56
                            16 2.83  10 2.85  30 2.86  40 2.97
  29  0.837  0.413  0.095-  17 2.48  25 2.48  13 2.48  45 2.48  43 2.48  31 2.48   1 2.87  41 2.87
                            27 2.87  47 2.87
  30  0.837  0.413  0.285-  32 2.39  43 2.44  31 2.45  44 2.45  26 2.47  46 2.48  14 2.48  18 2.49
                            48 2.81  27 2.83  47 2.83  42 2.85  28 2.86   2 2.89
  31  0.962  0.288  0.191-  30 2.45   2 2.45  27 2.48  19 2.48  15 2.48  47 2.48   1 2.48  29 2.48
                            14 2.83  18 2.84  43 2.87   3 2.87  17 2.87  13 2.87
  32  0.964  0.288  0.375-   2 2.38  30 2.39  48 2.44  20 2.44  28 2.47  16 2.54  18 2.76  14 2.78
                             4 2.87  44 2.88
  33  0.087  0.663  0.095-  37 2.48  45 2.48  17 2.48  49 2.48  35 2.48  63 2.48  61 2.87  21 2.87
                            47 2.87  51 2.87
  34  0.088  0.662  0.285-  64 2.40  36 2.43  35 2.44  63 2.45  18 2.48  46 2.48  38 2.49  50 2.49
                            52 2.82  47 2.83  51 2.84  48 2.85  22 2.86  62 2.88
  35  0.212  0.538  0.191-  34 2.44  22 2.45  39 2.48  47 2.48  19 2.48  51 2.48  21 2.48  33 2.48
                            38 2.84  18 2.84  23 2.87  63 2.87  37 2.87  17 2.87
  36  0.204  0.532  0.379-  68 1.86  48 2.39  34 2.43  20 2.43  22 2.44  52 2.54  40 2.56  18 2.74
                            64 2.85  24 2.89  38 2.92
  37  0.337  0.663  0.095-  33 2.48  41 2.48  21 2.48  53 2.48  51 2.48  39 2.48  25 2.87  49 2.87
                            35 2.87  55 2.87
  38  0.338  0.663  0.285-  51 2.44  39 2.44  40 2.45  52 2.47  54 2.48  42 2.48  22 2.49  34 2.49
                            56 2.78  55 2.83  35 2.84  50 2.87  26 2.87  36 2.92
  39  0.462  0.538  0.191-  38 2.44  26 2.47  35 2.48  43 2.48  23 2.48  55 2.48  37 2.48  25 2.48
                            42 2.83  22 2.84  51 2.87  27 2.87  21 2.87  41 2.87
  40  0.458  0.542  0.381-  68 1.90  69 2.05  38 2.45  56 2.47  26 2.48  44 2.49  24 2.54  36 2.56
                            52 2.83  22 2.85  42 2.86  28 2.97
  41  0.587  0.663  0.095-  37 2.48  45 2.48  25 2.48  57 2.48  55 2.48  43 2.48  29 2.87  53 2.87
                            39 2.87  59 2.87
  42  0.588  0.662  0.285-  56 2.39  43 2.44  55 2.45  44 2.45  26 2.47  46 2.48  38 2.48  58 2.49
                            60 2.81  39 2.83  59 2.83  30 2.85  40 2.86  54 2.89
  43  0.712  0.538  0.191-  42 2.44  30 2.44  39 2.48  47 2.48  27 2.48  59 2.48  41 2.48  29 2.48
                            46 2.82  26 2.85  55 2.87  31 2.87  25 2.87  45 2.87
  44  0.710  0.536  0.379-  67 1.94  42 2.45  30 2.45  40 2.49  28 2.49  60 2.50  48 2.50  26 2.78
                            46 2.87  56 2.87  32 2.88
  45  0.837  0.663  0.095-  33 2.48  41 2.48  29 2.48  61 2.48  59 2.48  47 2.48  17 2.87  57 2.87
                            43 2.87  63 2.87
  46  0.837  0.663  0.284-  47 2.43  59 2.43  48 2.47  60 2.47  30 2.48  42 2.48  34 2.48  62 2.48
                            64 2.80  43 2.82  63 2.82  44 2.87  58 2.88  18 2.88
  47  0.962  0.538  0.191-  46 2.43  18 2.46  43 2.48  35 2.48  31 2.48  63 2.48  17 2.48  45 2.48
                            34 2.83  30 2.83  59 2.87  19 2.87  33 2.87  29 2.87
  48  0.963  0.533  0.379-  67 1.86  36 2.39  18 2.42  32 2.44  46 2.47  44 2.50  64 2.52  30 2.81
                            20 2.85  34 2.85  60 2.92
  49  0.087  0.913  0.095-  53 2.48  61 2.48   1 2.48  33 2.48  15 2.48  51 2.48  37 2.87  13 2.87
                             3 2.87  63 2.87
  50  0.087  0.912  0.286-  16 2.43  52 2.43  51 2.46  15 2.46  54 2.47   2 2.47  34 2.49  62 2.49
                             4 2.77  64 2.79  63 2.84   3 2.85  38 2.87  14 2.87
  51  0.212  0.788  0.191-  38 2.44  50 2.46  55 2.48  63 2.48   3 2.48  35 2.48  49 2.48  37 2.48
                            54 2.82  34 2.84  39 2.87  15 2.87  53 2.87  33 2.87
  52  0.208  0.786  0.380-  68 1.86   4 2.42  50 2.43  64 2.44  38 2.47  36 2.54  56 2.54  34 2.82
                            16 2.82  40 2.83  54 2.87
  53  0.337  0.913  0.095-  49 2.48  57 2.48   5 2.48  37 2.48  55 2.48   3 2.48  41 2.87   1 2.87
                             7 2.87  51 2.87
  54  0.335  0.913  0.285-  56 2.38   3 2.44  55 2.45  50 2.47   4 2.47  38 2.48   6 2.48  58 2.50
                             8 2.82  51 2.82   2 2.84   7 2.84  52 2.87  42 2.89
  55  0.462  0.788  0.191-  42 2.45  54 2.45  51 2.48  59 2.48   7 2.48  39 2.48  41 2.48  53 2.48
                            38 2.83  58 2.84  43 2.87   3 2.87  37 2.87  57 2.87
  56  0.462  0.789  0.375-  54 2.38  42 2.39  60 2.44   8 2.44  40 2.47  52 2.54  58 2.76  38 2.78
                             4 2.86  44 2.87
  57  0.587  0.913  0.095-  53 2.48  61 2.48   9 2.48  41 2.48  59 2.48   7 2.48  45 2.87   5 2.87
                            11 2.87  55 2.87
  58  0.586  0.914  0.285-  60 2.42   7 2.44   8 2.45  59 2.46  10 2.47  62 2.48  42 2.49  54 2.50
                            12 2.74  56 2.76  11 2.84  55 2.84   6 2.86  46 2.88
  59  0.712  0.788  0.191-  46 2.43  58 2.46  55 2.48  63 2.48  11 2.48  43 2.48  45 2.48  57 2.48
                            62 2.83  42 2.83  47 2.87   7 2.87  41 2.87  61 2.87
  60  0.708  0.788  0.379-  67 1.86  12 2.39  58 2.42  56 2.44  46 2.47  44 2.50  64 2.52  42 2.81
                             8 2.84  62 2.85  48 2.92
  61  0.837  0.913  0.095-  49 2.48  57 2.48  13 2.48  45 2.48  11 2.48  63 2.48   9 2.87  33 2.87
                            59 2.87  15 2.87
  62  0.836  0.913  0.285-  64 2.40  12 2.43  11 2.44  63 2.45  58 2.48  46 2.48  14 2.49  50 2.49
                            16 2.82  59 2.83  15 2.84  60 2.85  10 2.86  34 2.88
  63  0.962  0.788  0.191-  34 2.45  62 2.45  59 2.48  51 2.48  47 2.48  15 2.48  61 2.48  33 2.48
                            46 2.82  50 2.84  35 2.87  11 2.87  49 2.87  45 2.87
  64  0.962  0.787  0.376-  62 2.40  34 2.40  16 2.44  52 2.44  48 2.52  60 2.52  50 2.79  46 2.80
                            12 2.85  36 2.85
  65  0.302  0.127  0.431-   8 1.87  20 1.87   4 1.89
  66  0.804  0.118  0.431-  16 1.86  12 1.86  28 1.90
  67  0.810  0.635  0.430-  48 1.86  60 1.86  44 1.94
  68  0.292  0.628  0.431-  52 1.86  36 1.86  40 1.90
  69  0.554  0.379  0.442-  70 0.97  24 2.03  28 2.05  40 2.05
  70  0.550  0.375  0.488-  69 0.97
 

IMPORTANT INFORMATION: All symmetrisations will be switched off!
NOSYMM: (Re-)initialisation of all symmetry stuff for point group C_1.

 
 

Automatic generation of k-mesh.
 generate k-points for:    1    1    1
Space group operators:
 irot       det(A)        alpha          n_x          n_y          n_z        tau_x        tau_y        tau_z
    1     1.000000     0.000001     1.000000     0.000000     0.000000     0.000000     0.000000     0.000000
 
 Subroutine IBZKPT returns following result:
 ===========================================
 
 Found      1 irreducible k-points:
 
 Following reciprocal coordinates:
            Coordinates               Weight
  0.000000  0.000000  0.000000      1.000000
 
 Following cartesian coordinates:
            Coordinates               Weight
  0.000000  0.000000  0.000000      1.000000
 
 
 Subroutine IBZKPT_HF returns following result:
 ==============================================
 
 Found      1 k-points in 1st BZ
 the following      1 k-points will be used (e.g. in the exchange kernel)
 Following reciprocal coordinates:   # in IRBZ
  0.000000  0.000000  0.000000    1.00000000   1 t-inv F


--------------------------------------------------------------------------------------------------------




 Dimension of arrays:
   k-points           NKPTS =      1   k-points in BZ     NKDIM =      1   number of bands    NBANDS=    327
   number of dos      NEDOS =    301   number of ions     NIONS =     70
   non local maximal  LDIM  =      6   non local SUM 2l+1 LMDIM =     18
   total plane-waves  NPLWV = ******
   max r-space proj   IRMAX =   7948   max aug-charges    IRDMAX=  18812
   dimension x,y,z NGX =    80 NGY =   80 NGZ =  160
   dimension x,y,z NGXF=   160 NGYF=  160 NGZF=  320
   support grid    NGXF=   160 NGYF=  160 NGZF=  320
   ions per type =              64   5   1
   NGX,Y,Z   is equivalent  to a cutoff of  13.39, 13.39, 12.62 a.u.
   NGXF,Y,Z  is equivalent  to a cutoff of  26.79, 26.79, 25.24 a.u.

 SYSTEM =  SQS-NiFe                                
 POSCAR =  POSCAR                                  

 Startparameter for this run:
   NWRITE =      2    write-flag & timer
   PREC   = accura    normal or accurate (medium, high low for compatibility)
   ISTART =      0    job   : 0-new  1-cont  2-samecut
   ICHARG =      1    charge: 1-file 2-atom 10-const
   ISPIN  =      1    spin polarized calculation?
   LNONCOLLINEAR =      F non collinear calculations
   LSORBIT =      F    spin-orbit coupling
   INIWAV =      1    electr: 0-lowe 1-rand  2-diag
   LASPH  =      F    aspherical Exc in radial PAW
   METAGGA=      F    non-selfconsistent MetaGGA calc.

 Electronic Relaxation 1
   ENCUT  =  520.0 eV  38.22 Ry    6.18 a.u.  18.46 18.46 39.20*2*pi/ulx,y,z
   ENINI  =  520.0     initial cutoff
   ENAUG  =  605.4 eV  augmentation charge cutoff
   NELM   =    200;   NELMIN=  2; NELMDL= -5     # of ELM steps 
   EDIFF  = 0.1E-05   stopping-criterion for ELM
   LREAL  =      T    real-space projection
   NLSPLINE    = F    spline interpolate recip. space projectors
   LCOMPAT=      F    compatible to vasp.4.4
   GGA_COMPAT  = T    GGA compatible to vasp.4.4-vasp.4.6
   LMAXPAW     = -100 max onsite density
   LMAXMIX     =    2 max onsite mixed and CHGCAR
   VOSKOWN=      0    Vosko Wilk Nusair interpolation
   ROPT   =   -0.00025  -0.00025  -0.00025
 Ionic relaxation
   EDIFFG = -.2E-01   stopping-criterion for IOM
   NSW    =    877    number of steps for IOM
   NBLOCK =      1;   KBLOCK =    877    inner block; outer block 
   IBRION =      5    ionic relax: 0-MD 1-quasi-New 2-CG
   NFREE  =      2    steps in history (QN), initial steepest desc. (CG)
   ISIF   =      2    stress and relaxation
   IWAVPR =     11    prediction:  0-non 1-charg 2-wave 3-comb
   ISYM   =      0    0-nonsym 1-usesym 2-fastsym
   LCORR  =      T    Harris-Foulkes like correction to forces

   POTIM  = 0.0150    time-step for ionic-motion
   TEIN   =    0.0    initial temperature
   TEBEG  =    0.0;   TEEND  =   0.0 temperature during run
   SMASS  =  -3.00    Nose mass-parameter (am)
   estimated Nose-frequenzy (Omega)   =  0.10E-29 period in steps =****** mass=  -0.225E-26a.u.
   SCALEE = 1.0000    scale energy and forces
   NPACO  =    256;   APACO  = 16.0  distance and # of slots for P.C.
   PSTRESS=    0.0 pullay stress

  Mass of Ions in am
   POMASS =  55.85 16.00  1.00
  Ionic Valenz
   ZVAL   =   8.00  6.00  1.00
  Atomic Wigner-Seitz radii
   RWIGS  =  -1.00 -1.00 -1.00
  virtual crystal weights 
   VCA    =   1.00  1.00  1.00
   NELECT =     543.0000    total number of electrons
   NUPDOWN=      -1.0000    fix difference up-down

 DOS related values:
   EMIN   =  10.00;   EMAX   =-10.00  energy-range for DOS
   EFERMI =   0.00
   ISMEAR =     0;   SIGMA  =   0.20  broadening in eV -4-tet -1-fermi 0-gaus

 Electronic relaxation 2 (details)
   IALGO  =     68    algorithm
   LDIAG  =      T    sub-space diagonalisation (order eigenvalues)
   LSUBROT=      F    optimize rotation matrix (better conditioning)
   TURBO    =      0    0=normal 1=particle mesh
   IRESTART =      0    0=no restart 2=restart with 2 vectors
   NREBOOT  =      0    no. of reboots
   NMIN     =      0    reboot dimension
   EREF     =   0.00    reference energy to select bands
   IMIX   =      4    mixing-type and parameters
     AMIX     =   0.40;   BMIX     =  1.00
     AMIX_MAG =   1.60;   BMIX_MAG =  1.00
     AMIN     =   0.10
     WC   =   100.;   INIMIX=   1;  MIXPRE=   1;  MAXMIX= -45

 Intra band minimization:
   WEIMIN = 0.0010     energy-eigenvalue tresh-hold
   EBREAK =  0.76E-09  absolut break condition
   DEPER  =   0.30     relativ break condition  

   TIME   =   0.40     timestep for ELM

  volume/ion in A,a.u.               =      27.99       188.91
  Fermi-wavevector in a.u.,A,eV,Ry     =   1.067304  2.016911 15.498899  1.139137
  Thomas-Fermi vector in A             =   2.202916
 
 Write flags
   LWAVE        =      F    write WAVECAR
   LDOWNSAMPLE  =      F    k-point downsampling of WAVECAR
   LCHARG       =      F    write CHGCAR
   LVTOT        =      F    write LOCPOT, total local potential
   LVHAR        =      F    write LOCPOT, Hartree potential only
   LELF         =      F    write electronic localiz. function (ELF)
   LORBIT       =     10    0 simple, 1 ext, 2 COOP (PROOUT), +10 PAW based schemes


 Dipole corrections
   LMONO  =      F    monopole corrections only (constant potential shift)
   LDIPOL =      F    correct potential (dipole corrections)
   IDIPOL =      0    1-x, 2-y, 3-z, 4-all directions 
   EPSILON=  1.0000000 bulk dielectric constant

 Exchange correlation treatment:
   GGA     =    --    GGA type
   LEXCH   =     8    internal setting for exchange type
   VOSKOWN=      0    Vosko Wilk Nusair interpolation
   LHFCALC =     F    Hartree Fock is set to
   LHFONE  =     F    Hartree Fock one center treatment
   AEXX    =    0.0000 exact exchange contribution

 Linear response parameters
   LEPSILON=     F    determine dielectric tensor
   LRPA    =     F    only Hartree local field effects (RPA)
   LNABLA  =     F    use nabla operator in PAW spheres
   LVEL    =     F    velocity operator in full k-point grid
   LINTERFAST=   F  fast interpolation
   KINTER  =     0    interpolate to denser k-point grid
   CSHIFT  =0.1000    complex shift for real part using Kramers Kronig
   OMEGAMAX=  -1.0    maximum frequency
   DEG_THRESHOLD= 0.2000000E-02 threshold for treating states as degnerate
   RTIME   =   -0.100 relaxation time in fs
  (WPLASMAI=    0.000 imaginary part of plasma frequency in eV, 0.658/RTIME)
   DFIELD  = 0.0000000 0.0000000 0.0000000 field for delta impulse in time
 
 Orbital magnetization related:
   ORBITALMAG=     F  switch on orbital magnetization
   LCHIMAG   =     F  perturbation theory with respect to B field
   DQ        =  0.001000  dq finite difference perturbation B field
   LLRAUG    =     F  two centre corrections for induced B field



--------------------------------------------------------------------------------------------------------


 finite differences
   using selective dynamics as specified on POSCAR
 charge density and potential will be updated during run
 non-spin polarized calculation
 RMM-DIIS sequential band-by-band and
  variant of blocked Davidson during initial phase
 perform sub-space diagonalisation
    before iterative eigenvector-optimisation
 modified Broyden-mixing scheme, WC =      100.0
 initial mixing is a Kerker type mixing with AMIX =  0.4000 and BMIX =      1.0000
 Hartree-type preconditioning will be used
 using additional bands           55
 real space projection scheme for non local part
 use partial core corrections
 calculate Harris-corrections to forces 
   (improved forces if not selfconsistent)
 use gradient corrections 
 use of overlap-Matrix (Vanderbilt PP)
 Gauss-broadening in eV      SIGMA  =   0.20


--------------------------------------------------------------------------------------------------------


  energy-cutoff  :      520.00
  volume of cell :     1959.57
      direct lattice vectors                 reciprocal lattice vectors
     9.929500000  0.000000000  0.000000000     0.100710006 -0.035606363  0.000000000
     3.309833230  9.361622420  0.000000000     0.000000000  0.106819091  0.000000000
     0.000000000  0.000000000 21.080550000     0.000000000  0.000000000  0.047437092

  length of vectors
     9.929500000  9.929500005 21.080550000     0.106819091  0.106819091  0.047437092


 
 k-points in units of 2pi/SCALE and weight: read from INCAR                         
   0.00000000  0.00000000  0.00000000       1.000
 
 k-points in reciprocal lattice and weights: read from INCAR                         
   0.00000000  0.00000000  0.00000000       1.000
 
 position of ions in fractional coordinates (direct lattice) 
   0.08738900  0.16261100  0.09487400
   0.08805884  0.16049282  0.28495458
   0.21238900  0.03761100  0.19102200
   0.20550250  0.03060065  0.38064930
   0.33738900  0.16261100  0.09487400
   0.33754578  0.16268706  0.28467204
   0.46238900  0.03761100  0.19102200
   0.45954980  0.03561460  0.37950043
   0.58738900  0.16261100  0.09487400
   0.58751132  0.16226095  0.28553925
   0.71238900  0.03761100  0.19102200
   0.70681724  0.02885685  0.37876288
   0.83738900  0.16261100  0.09487400
   0.83769503  0.16274011  0.28491391
   0.96238900  0.03761100  0.19102200
   0.96134394  0.03270494  0.37967715
   0.08738900  0.41261100  0.09487400
   0.08846056  0.41168515  0.28530289
   0.21238900  0.28761100  0.19102200
   0.21057924  0.28466899  0.37951384
   0.33738900  0.41261100  0.09487400
   0.33711586  0.41268584  0.28551574
   0.46238900  0.28761100  0.19102200
   0.46049547  0.28564506  0.37812983
   0.58738900  0.41261100  0.09487400
   0.58798973  0.41317008  0.28670458
   0.71238900  0.28761100  0.19102200
   0.71708436  0.28288061  0.38065218
   0.83738900  0.41261100  0.09487400
   0.83676164  0.41300368  0.28483031
   0.96238900  0.28761100  0.19102200
   0.96367142  0.28764929  0.37480337
   0.08738900  0.66261100  0.09487400
   0.08750377  0.66157853  0.28483756
   0.21238900  0.53761100  0.19102200
   0.20368742  0.53198899  0.37873425
   0.33738900  0.66261100  0.09487400
   0.33753499  0.66285990  0.28489954
   0.46238900  0.53761100  0.19102200
   0.45763497  0.54218200  0.38064876
   0.58738900  0.66261100  0.09487400
   0.58776916  0.66193334  0.28483757
   0.71238900  0.53761100  0.19102200
   0.71019760  0.53551084  0.37922161
   0.83738900  0.66261100  0.09487400
   0.83734244  0.66253132  0.28418788
   0.96238900  0.53761100  0.19102200
   0.96275266  0.53316955  0.37858987
   0.08738900  0.91261100  0.09487400
   0.08718012  0.91235703  0.28566941
   0.21238900  0.78761100  0.19102200
   0.20756590  0.78640325  0.37968916
   0.33738900  0.91261100  0.09487400
   0.33531053  0.91319953  0.28494538
   0.46238900  0.78761100  0.19102200
   0.46233907  0.78877575  0.37482257
   0.58738900  0.91261100  0.09487400
   0.58648881  0.91357395  0.28530451
   0.71238900  0.78761100  0.19102200
   0.70789775  0.78797453  0.37857899
   0.83738900  0.91261100  0.09487400
   0.83637920  0.91270470  0.28484979
   0.96238900  0.78761100  0.19102200
   0.96177516  0.78700676  0.37600978
   0.30155315  0.12662157  0.43106699
   0.80350096  0.11771554  0.43096382
   0.81018516  0.63542923  0.42999392
   0.29238031  0.62848274  0.43093983
   0.55405192  0.37916208  0.44218286
   0.55026937  0.37515852  0.48832369
 
 position of ions in cartesian coordinates  (Angst):
   1.40594437  1.52230278  1.99999610
   1.40558477  1.50247320  6.00699931
   2.23340271  0.35209998  4.02684882
   2.14182009  0.28647177  8.02429656
   3.88831937  1.52230278  1.99999610
   3.89012781  1.52301481  6.00104322
   4.71577771  0.35209998  4.02684882
   4.68097810  0.33341043  8.00007775
   6.37069437  1.52230278  1.99999610
   6.37075030  1.51902574  6.01932449
   7.19815271  0.35209998  4.02684882
   7.11385313  0.27014691  7.98452977
   8.85306937  1.52230278  1.99999610
   8.85653541  1.52351142  6.00614198
   9.68052771  0.35209998  4.02684882
   9.65391258  0.30617133  8.00380315
   2.23340267  3.86270839  1.99999610
   2.24097836  3.85404098  6.01434189
   3.06086102  2.69250559  4.02684882
   3.03315344  2.66496362  8.00036038
   4.71577767  3.86270839  1.99999610
   4.71331326  3.86340901  6.01882888
   5.54323602  2.69250559  4.02684882
   5.51792724  2.67410120  7.97118471
   7.19815267  3.86270839  1.99999610
   7.20596807  3.86794231  6.04389027
   8.02561102  2.69250559  4.02684882
   8.05657682  2.64822144  8.02435730
   9.68052767  3.86270839  1.99999610
   9.67559806  3.86638454  6.00437966
  10.50798602  2.69250559  4.02684882
  10.52084651  2.69286401  7.90106115
   3.06086098  6.20311399  1.99999610
   3.05858323  6.19344836  6.00453235
   3.88831933  5.03291119  4.02684882
   3.78330905  4.98028004  7.98392635
   5.54323598  6.20311399  1.99999610
   5.54550938  6.20544414  6.00583909
   6.37069433  5.03291119  4.02684882
   6.33861843  5.07570318  8.02428528
   8.02561098  6.20311399  1.99999610
   8.02714279  6.19676998  6.00453261
   8.85306933  5.03291119  4.02684882
   8.82435866  5.01325029  7.99420006
  10.50798598  6.20311399  1.99999610
  10.50725988  6.20236802  5.99083680
  11.33544433  5.03291119  4.02684882
  11.32435484  4.99133205  7.98088260
   3.88831929  8.54351960  1.99999610
   3.88540462  8.54114200  6.02206819
   4.71577764  7.37331680  4.02684882
   4.66388923  7.36201033  8.00405627
   6.37069429  8.54351960  1.99999610
   6.35200405  8.54902919  6.00680534
   7.19815264  7.37331680  4.02684882
   7.20151195  7.38422074  7.90146585
   8.85306929  8.54351960  1.99999610
   8.84731802  8.55253436  6.01437599
   9.68052764  7.37331680  4.02684882
   9.63713496  7.37672002  7.98065337
  11.33544429  8.54351960  1.99999610
  11.32572755  8.54439675  6.00479023
  12.16290264  7.37331680  4.02684882
  12.15480756  7.36766014  7.92649300
   3.41336830  1.18538331  9.08712921
   8.36798164  1.10200844  9.08495442
  10.14789832  5.94864851  9.06450824
   4.98336336  5.88361807  9.08444860
   6.75642177  3.54957226  9.32145780
   6.70561188  3.51209238 10.29413195
 


--------------------------------------------------------------------------------------------------------


 use parallel FFT for orbitals z direction half grid
 k-point  1 :   0.0000 0.0000 0.0000  plane waves:   26399

 maximum and minimum number of plane-waves per node :      1107     1096

 maximum number of plane-waves:     26399
 maximum index in each direction: 
   IXMAX=   18   IYMAX=   18   IZMAX=   39
   IXMIN=  -18   IYMIN=  -18   IZMIN=    0


 real space projection operators:
  total allocation   :      69831.79 KBytes
  max/ min on nodes  :       3506.25       2557.85


 parallel 3D FFT for wavefunctions:
    minimum data exchange during FFTs selected (reduces bandwidth)
 parallel 3D FFT for charge:
    minimum data exchange during FFTs selected (reduces bandwidth)


 total amount of memory used by VASP MPI-rank0    54105. kBytes
=======================================================================

   base      :      30000. kBytes
   nonlr-proj:       4222. kBytes
   fftplans  :       5964. kBytes
   grid      :      11929. kBytes
   one-center:         23. kBytes
   wavefun   :       1967. kBytes
 
     INWAV:  cpu time    0.0001: real time    0.0009
 Broyden mixing: mesh for mixing (old mesh)
   NGX = 37   NGY = 37   NGZ = 79
  (NGX  =160   NGY  =160   NGZ  =320)
  gives a total of 108151 points

 initial charge density was supplied:
 number of electron     543.0000219 magnetization 
 keeping initial charge density in first step


--------------------------------------------------------------------------------------------------------


 Maximum index for non-local projection operator          801
 Maximum index for augmentation-charges         1216 (set IRDMAX)


--------------------------------------------------------------------------------------------------------


 First call to EWALD:  gamma=   0.142
 Maximum number of real-space cells 4x 4x 2
 Maximum number of reciprocal cells 2x 2x 4

    FEWALD:  cpu time    0.0090: real time    0.0113


--------------------------------------- Iteration      1(   1)  ---------------------------------------


    POTLOK:  cpu time    0.1854: real time    0.2013
    SETDIJ:  cpu time    0.0330: real time    0.0331
     EDDAV:  cpu time    1.9847: real time    1.9996
       DOS:  cpu time    0.0086: real time    0.0086
    --------------------------------------------
      LOOP:  cpu time    2.2117: real time    2.2426

 eigenvalue-minimisations  :   654
 total energy-change (2. order) : 0.5213912E+04  (-0.2604444E+05)
 number of electron     543.0000219 magnetization 
 augmentation part      543.0000219 magnetization 

 Free energy of the ion-electron system (eV)
  ---------------------------------------------------
  alpha Z        PSCENC =      1564.88647228
  Ewald energy   TEWEN  =    149058.23502799
  -Hartree energ DENC   =   -189516.11887420
  -exchange      EXHF   =         0.00000000
  -V(xc)+E(xc)   XCENC  =       333.19573236
  PAW double counting   =     47654.11041386   -48238.63623391
  entropy T*S    EENTRO =        -0.62250953
  eigenvalues    EBANDS =      4148.57388560
  atomic energy  EATOM  =     40210.28846851
  Solvation  Ediel_sol  =         0.00000000
  ---------------------------------------------------
  free energy    TOTEN  =      5213.91238298 eV

  energy without entropy =     5214.53489251  energy(sigma->0) =     5214.22363774


--------------------------------------------------------------------------------------------------------




--------------------------------------- Iteration      1(   2)  ---------------------------------------


     EDDAV:  cpu time    1.8627: real time    1.8766
       DOS:  cpu time    0.0013: real time    0.0013
    --------------------------------------------
      LOOP:  cpu time    1.8640: real time    1.8779

 eigenvalue-minimisations  :   654
 total energy-change (2. order) :-0.5114626E+04  (-0.5007233E+04)
 number of electron     543.0000219 magnetization 
 augmentation part      543.0000219 magnetization 

 Free energy of the ion-electron system (eV)
  ---------------------------------------------------
  alpha Z        PSCENC =      1564.88647228
  Ewald energy   TEWEN  =    149058.23502799
  -Hartree energ DENC   =   -189516.11887420
  -exchange      EXHF   =         0.00000000
  -V(xc)+E(xc)   XCENC  =       333.19573236
  PAW double counting   =     47654.11041386   -48238.63623391
  entropy T*S    EENTRO =        -1.72701600
  eigenvalues    EBANDS =      -964.94765218
  atomic energy  EATOM  =     40210.28846851
  Solvation  Ediel_sol  =         0.00000000
  ---------------------------------------------------
  free energy    TOTEN  =        99.28633872 eV

  energy without entropy =      101.01335472  energy(sigma->0) =      100.14984672


--------------------------------------------------------------------------------------------------------




--------------------------------------- Iteration      1(   3)  ---------------------------------------


     EDDAV:  cpu time    2.1862: real time    2.2068
       DOS:  cpu time    0.0014: real time    0.0014
    --------------------------------------------
      LOOP:  cpu time    2.1876: real time    2.2083

 eigenvalue-minimisations  :   813
 total energy-change (2. order) :-0.4878937E+03  (-0.4399056E+03)
 number of electron     543.0000219 magnetization 
 augmentation part      543.0000219 magnetization 

 Free energy of the ion-electron system (eV)
  ---------------------------------------------------
  alpha Z        PSCENC =      1564.88647228
  Ewald energy   TEWEN  =    149058.23502799
  -Hartree energ DENC   =   -189516.11887420
  -exchange      EXHF   =         0.00000000
  -V(xc)+E(xc)   XCENC  =       333.19573236
  PAW double counting   =     47654.11041386   -48238.63623391
  entropy T*S    EENTRO =        -3.58617665
  eigenvalues    EBANDS =     -1450.98216477
  atomic energy  EATOM  =     40210.28846851
  Solvation  Ediel_sol  =         0.00000000
  ---------------------------------------------------
  free energy    TOTEN  =      -388.60733452 eV

  energy without entropy =     -385.02115786  energy(sigma->0) =     -386.81424619


--------------------------------------------------------------------------------------------------------




--------------------------------------- Iteration      1(   4)  ---------------------------------------


     EDDAV:  cpu time    3.1254: real time    3.1395
       DOS:  cpu time    0.0038: real time    0.0038
    --------------------------------------------
      LOOP:  cpu time    3.1293: real time    3.1434

 eigenvalue-minimisations  :  1263
 total energy-change (2. order) :-0.1096050E+03  (-0.1032452E+03)
 number of electron     543.0000219 magnetization 
 augmentation part      543.0000219 magnetization 

 Free energy of the ion-electron system (eV)
  ---------------------------------------------------
  alpha Z        PSCENC =      1564.88647228
  Ewald energy   TEWEN  =    149058.23502799
  -Hartree energ DENC   =   -189516.11887420
  -exchange      EXHF   =         0.00000000
  -V(xc)+E(xc)   XCENC  =       333.19573236
  PAW double counting   =     47654.11041386   -48238.63623391
  entropy T*S    EENTRO =        -4.26121900
  eigenvalues    EBANDS =     -1559.91210534
  atomic energy  EATOM  =     40210.28846851
  Solvation  Ediel_sol  =         0.00000000
  ---------------------------------------------------
  free energy    TOTEN  =      -498.21231744 eV

  energy without entropy =     -493.95109844  energy(sigma->0) =     -496.08170794


--------------------------------------------------------------------------------------------------------




--------------------------------------- Iteration      1(   5)  ---------------------------------------


     EDDAV:  cpu time    2.7930: real time    2.8085
       DOS:  cpu time    0.0014: real time    0.0014
    CHARGE:  cpu time    0.1079: real time    0.1116
    MIXING:  cpu time    0.0149: real time    0.0149
    --------------------------------------------
      LOOP:  cpu time    2.9172: real time    2.9365

 eigenvalue-minimisations  :  1110
 total energy-change (2. order) :-0.1364520E+02  (-0.1257951E+02)
 number of electron     543.0000215 magnetization 
 augmentation part      265.3646091 magnetization 

 Broyden mixing:
  rms(total) = 0.37769E+01    rms(broyden)= 0.37765E+01
  rms(prec ) = 0.43193E+01
  weight for this iteration     100.00

 Free energy of the ion-electron system (eV)
  ---------------------------------------------------
  alpha Z        PSCENC =      1564.88647228
  Ewald energy   TEWEN  =    149058.23502799
  -Hartree energ DENC   =   -189516.11887420
  -exchange      EXHF   =         0.00000000
  -V(xc)+E(xc)   XCENC  =       333.19573236
  PAW double counting   =     47654.11041386   -48238.63623391
  entropy T*S    EENTRO =        -4.53655036
  eigenvalues    EBANDS =     -1573.28197054
  atomic energy  EATOM  =     40210.28846851
  Solvation  Ediel_sol  =         0.00000000
  ---------------------------------------------------
  free energy    TOTEN  =      -511.85751400 eV

  energy without entropy =     -507.32096364  energy(sigma->0) =     -509.58923882


--------------------------------------------------------------------------------------------------------




--------------------------------------- Iteration      1(   6)  ---------------------------------------


    POTLOK:  cpu time    0.1823: real time    0.1956
    SETDIJ:  cpu time    0.0106: real time    0.0106
    EDDIAG:  cpu time    0.2890: real time    0.2890
  RMM-DIIS:  cpu time    1.9553: real time    1.9574
    ORTHCH:  cpu time    0.0579: real time    0.0579
       DOS:  cpu time    0.0015: real time    0.0015
    CHARGE:  cpu time    0.0928: real time    0.0929
    MIXING:  cpu time    0.0051: real time    0.0051
    --------------------------------------------
      LOOP:  cpu time    2.5945: real time    2.6099

 eigenvalue-minimisations  :   984
 total energy-change (2. order) :-0.3816675E+03  (-0.9373643E+02)
 number of electron     543.0000270 magnetization 
 augmentation part      281.6889752 magnetization 

 Broyden mixing:
  rms(total) = 0.17904E+02    rms(broyden)= 0.17904E+02
  rms(prec ) = 0.24234E+02
  weight for this iteration     100.00

 eigenvalues of (default mixing * dielectric matrix)
  average eigenvalue GAMMA=   0.1544
  0.1544

 Free energy of the ion-electron system (eV)
  ---------------------------------------------------
  alpha Z        PSCENC =      1564.88647228
  Ewald energy   TEWEN  =    149058.23502799
  -Hartree energ DENC   =   -189034.83772050
  -exchange      EXHF   =         0.00000000
  -V(xc)+E(xc)   XCENC  =       329.70369510
  PAW double counting   =     46670.85367895   -47220.15880499
  entropy T*S    EENTRO =        -1.00858065
  eigenvalues    EBANDS =     -2471.48729512
  atomic energy  EATOM  =     40210.28846851
  Solvation  Ediel_sol  =         0.00000000
  ---------------------------------------------------
  free energy    TOTEN  =      -893.52505842 eV

  energy without entropy =     -892.51647777  energy(sigma->0) =     -893.02076810


--------------------------------------------------------------------------------------------------------




--------------------------------------- Iteration      1(   7)  ---------------------------------------


    POTLOK:  cpu time    0.1814: real time    0.1932
    SETDIJ:  cpu time    0.0103: real time    0.0103
    EDDIAG:  cpu time    0.2745: real time    0.2746
  RMM-DIIS:  cpu time    1.3955: real time    1.3957
    ORTHCH:  cpu time    0.0579: real time    0.0580
       DOS:  cpu time    0.0014: real time    0.0015
    CHARGE:  cpu time    0.0943: real time    0.0943
    MIXING:  cpu time    0.0034: real time    0.0034
    --------------------------------------------
      LOOP:  cpu time    2.0189: real time    2.0311

 eigenvalue-minimisations  :   700
 total energy-change (2. order) : 0.1827111E+03  (-0.4029852E+02)
 number of electron     543.0000258 magnetization 
 augmentation part      279.0766831 magnetization 

 Broyden mixing:
  rms(total) = 0.15627E+02    rms(broyden)= 0.15626E+02
  rms(prec ) = 0.22115E+02
  weight for this iteration     100.00

 eigenvalues of (default mixing * dielectric matrix)
  average eigenvalue GAMMA=   0.1097
  0.1614  0.0580

 Free energy of the ion-electron system (eV)
  ---------------------------------------------------
  alpha Z        PSCENC =      1564.88647228
  Ewald energy   TEWEN  =    149058.23502799
  -Hartree energ DENC   =   -189195.64253259
  -exchange      EXHF   =         0.00000000
  -V(xc)+E(xc)   XCENC  =       330.40072176
  PAW double counting   =     46813.31804477   -47371.92448295
  entropy T*S    EENTRO =        -0.71610854
  eigenvalues    EBANDS =     -2119.65955035
  atomic energy  EATOM  =     40210.28846851
  Solvation  Ediel_sol  =         0.00000000
  ---------------------------------------------------
  free energy    TOTEN  =      -710.81393911 eV

  energy without entropy =     -710.09783057  energy(sigma->0) =     -710.45588484


--------------------------------------------------------------------------------------------------------




--------------------------------------- Iteration      1(   8)  ---------------------------------------


    POTLOK:  cpu time    0.1787: real time    0.1929
    SETDIJ:  cpu time    0.0105: real time    0.0105
    EDDIAG:  cpu time    0.2748: real time    0.2748
  RMM-DIIS:  cpu time    1.3401: real time    1.3410
    ORTHCH:  cpu time    0.0582: real time    0.0582
       DOS:  cpu time    0.0017: real time    0.0017
    CHARGE:  cpu time    0.0999: real time    0.0999
    MIXING:  cpu time    0.0036: real time    0.0036
    --------------------------------------------
      LOOP:  cpu time    1.9674: real time    1.9826

 eigenvalue-minimisations  :   675
 total energy-change (2. order) : 0.2002904E+03  (-0.1111772E+02)
 number of electron     543.0000243 magnetization 
 augmentation part      268.6868022 magnetization 

 Broyden mixing:
  rms(total) = 0.41690E+01    rms(broyden)= 0.41679E+01
  rms(prec ) = 0.48022E+01
  weight for this iteration     100.00

 eigenvalues of (default mixing * dielectric matrix)
  average eigenvalue GAMMA=   0.1066
  0.1787  0.0706  0.0706

 Free energy of the ion-electron system (eV)
  ---------------------------------------------------
  alpha Z        PSCENC =      1564.88647228
  Ewald energy   TEWEN  =    149058.23502799
  -Hartree energ DENC   =   -189384.21363878
  -exchange      EXHF   =         0.00000000
  -V(xc)+E(xc)   XCENC  =       330.57984755
  PAW double counting   =     46888.19336824   -47452.10463388
  entropy T*S    EENTRO =        -4.46977707
  eigenvalues    EBANDS =     -1721.91869934
  atomic energy  EATOM  =     40210.28846851
  Solvation  Ediel_sol  =         0.00000000
  ---------------------------------------------------
  free energy    TOTEN  =      -510.52356448 eV

  energy without entropy =     -506.05378742  energy(sigma->0) =     -508.28867595


--------------------------------------------------------------------------------------------------------




--------------------------------------- Iteration      1(   9)  ---------------------------------------


    POTLOK:  cpu time    0.1940: real time    0.1949
    SETDIJ:  cpu time    0.0103: real time    0.0103
    EDDIAG:  cpu time    0.2740: real time    0.2740
  RMM-DIIS:  cpu time    1.9045: real time    1.9049
    ORTHCH:  cpu time    0.0580: real time    0.0580
       DOS:  cpu time    0.0018: real time    0.0018
    CHARGE:  cpu time    0.1070: real time    0.1070
    MIXING:  cpu time    0.0038: real time    0.0038
    --------------------------------------------
      LOOP:  cpu time    2.5535: real time    2.5547

 eigenvalue-minimisations  :   954
 total energy-change (2. order) :-0.2970468E+00  (-0.6078647E+01)
 number of electron     543.0000229 magnetization 
 augmentation part      268.8954024 magnetization 

 Broyden mixing:
  rms(total) = 0.28418E+01    rms(broyden)= 0.28415E+01
  rms(prec ) = 0.36509E+01
  weight for this iteration     100.00

 eigenvalues of (default mixing * dielectric matrix)
  average eigenvalue GAMMA=   0.2210
  0.6254  0.0991  0.0991  0.0605

 Free energy of the ion-electron system (eV)
  ---------------------------------------------------
  alpha Z        PSCENC =      1564.88647228
  Ewald energy   TEWEN  =    149058.23502799
  -Hartree energ DENC   =   -189380.80092636
  -exchange      EXHF   =         0.00000000
  -V(xc)+E(xc)   XCENC  =       330.58608513
  PAW double counting   =     46837.90006358   -47400.93285846
  entropy T*S    EENTRO =        -4.64741621
  eigenvalues    EBANDS =     -1726.33552773
  atomic energy  EATOM  =     40210.28846851
  Solvation  Ediel_sol  =         0.00000000
  ---------------------------------------------------
  free energy    TOTEN  =      -510.82061125 eV

  energy without entropy =     -506.17319504  energy(sigma->0) =     -508.49690314


--------------------------------------------------------------------------------------------------------




--------------------------------------- Iteration      1(  10)  ---------------------------------------


    POTLOK:  cpu time    0.1792: real time    0.1931
    SETDIJ:  cpu time    0.0104: real time    0.0104
    EDDIAG:  cpu time    0.2752: real time    0.2752
  RMM-DIIS:  cpu time    1.6749: real time    1.6753
    ORTHCH:  cpu time    0.0570: real time    0.0570
       DOS:  cpu time    0.0017: real time    0.0017
    CHARGE:  cpu time    0.0997: real time    0.0997
    MIXING:  cpu time    0.0038: real time    0.0039
    --------------------------------------------
      LOOP:  cpu time    2.3029: real time    2.3163

 eigenvalue-minimisations  :   841
 total energy-change (2. order) :-0.1388608E+02  (-0.3706997E+01)
 number of electron     543.0000225 magnetization 
 augmentation part      269.5243738 magnetization 

 Broyden mixing:
  rms(total) = 0.62321E+01    rms(broyden)= 0.62318E+01
  rms(prec ) = 0.73442E+01
  weight for this iteration     100.00

 eigenvalues of (default mixing * dielectric matrix)
  average eigenvalue GAMMA=   0.3558
  1.4340  0.1014  0.1014  0.0904  0.0521

 Free energy of the ion-electron system (eV)
  ---------------------------------------------------
  alpha Z        PSCENC =      1564.88647228
  Ewald energy   TEWEN  =    149058.23502799
  -Hartree energ DENC   =   -189402.95482789
  -exchange      EXHF   =         0.00000000
  -V(xc)+E(xc)   XCENC  =       330.70351884
  PAW double counting   =     46608.25168092   -47166.71266553
  entropy T*S    EENTRO =        -4.12067619
  eigenvalues    EBANDS =     -1723.28368704
  atomic energy  EATOM  =     40210.28846851
  Solvation  Ediel_sol  =         0.00000000
  ---------------------------------------------------
  free energy    TOTEN  =      -524.70668810 eV

  energy without entropy =     -520.58601191  energy(sigma->0) =     -522.64635001


--------------------------------------------------------------------------------------------------------




--------------------------------------- Iteration      1(  11)  ---------------------------------------


    POTLOK:  cpu time    0.1794: real time    0.1937
    SETDIJ:  cpu time    0.0103: real time    0.0103
    EDDIAG:  cpu time    0.2720: real time    0.2720
  RMM-DIIS:  cpu time    1.3539: real time    1.3542
    ORTHCH:  cpu time    0.0578: real time    0.0578
       DOS:  cpu time    0.0017: real time    0.0017
    CHARGE:  cpu time    0.0994: real time    0.0994
    MIXING:  cpu time    0.0039: real time    0.0039
    --------------------------------------------
      LOOP:  cpu time    1.9776: real time    1.9931

 eigenvalue-minimisations  :   683
 total energy-change (2. order) : 0.6487233E+01  (-0.2359146E+01)
 number of electron     543.0000227 magnetization 
 augmentation part      268.8760965 magnetization 

 Broyden mixing:
  rms(total) = 0.50680E+01    rms(broyden)= 0.50676E+01
  rms(prec ) = 0.60018E+01
  weight for this iteration     100.00

 eigenvalues of (default mixing * dielectric matrix)
  average eigenvalue GAMMA=   0.3424
  1.5721  0.1354  0.1354  0.0886  0.0689  0.0543

 Free energy of the ion-electron system (eV)
  ---------------------------------------------------
  alpha Z        PSCENC =      1564.88647228
  Ewald energy   TEWEN  =    149058.23502799
  -Hartree energ DENC   =   -189438.12013871
  -exchange      EXHF   =         0.00000000
  -V(xc)+E(xc)   XCENC  =       331.25270094
  PAW double counting   =     46322.27682247   -46876.74217482
  entropy T*S    EENTRO =        -4.43933695
  eigenvalues    EBANDS =     -1685.85729699
  atomic energy  EATOM  =     40210.28846851
  Solvation  Ediel_sol  =         0.00000000
  ---------------------------------------------------
  free energy    TOTEN  =      -518.21945528 eV

  energy without entropy =     -513.78011832  energy(sigma->0) =     -515.99978680


--------------------------------------------------------------------------------------------------------




--------------------------------------- Iteration      1(  12)  ---------------------------------------


    POTLOK:  cpu time    0.1801: real time    0.1938
    SETDIJ:  cpu time    0.0103: real time    0.0102
    EDDIAG:  cpu time    0.2716: real time    0.2717
  RMM-DIIS:  cpu time    1.3433: real time    1.3435
    ORTHCH:  cpu time    0.0586: real time    0.0586
       DOS:  cpu time    0.0016: real time    0.0016
    CHARGE:  cpu time    0.0999: real time    0.0999
    MIXING:  cpu time    0.0041: real time    0.0041
    --------------------------------------------
      LOOP:  cpu time    1.9695: real time    1.9835

 eigenvalue-minimisations  :   677
 total energy-change (2. order) : 0.2152598E+01  (-0.1819664E+01)
 number of electron     543.0000215 magnetization 
 augmentation part      268.4993106 magnetization 

 Broyden mixing:
  rms(total) = 0.43184E+01    rms(broyden)= 0.43181E+01
  rms(prec ) = 0.51594E+01
  weight for this iteration     100.00

 eigenvalues of (default mixing * dielectric matrix)
  average eigenvalue GAMMA=   0.3433
  1.5285  0.4638  0.1076  0.1076  0.0793  0.0663  0.0501

 Free energy of the ion-electron system (eV)
  ---------------------------------------------------
  alpha Z        PSCENC =      1564.88647228
  Ewald energy   TEWEN  =    149058.23502799
  -Hartree energ DENC   =   -189445.71126571
  -exchange      EXHF   =         0.00000000
  -V(xc)+E(xc)   XCENC  =       331.71223048
  PAW double counting   =     46287.15244035   -46842.79361033
  entropy T*S    EENTRO =        -4.55909989
  eigenvalues    EBANDS =     -1675.27752146
  atomic energy  EATOM  =     40210.28846851
  Solvation  Ediel_sol  =         0.00000000
  ---------------------------------------------------
  free energy    TOTEN  =      -516.06685777 eV

  energy without entropy =     -511.50775788  energy(sigma->0) =     -513.78730782


--------------------------------------------------------------------------------------------------------




--------------------------------------- Iteration      1(  13)  ---------------------------------------


    POTLOK:  cpu time    0.1785: real time    0.1942
    SETDIJ:  cpu time    0.0109: real time    0.0109
    EDDIAG:  cpu time    0.2725: real time    0.2726
  RMM-DIIS:  cpu time    1.4378: real time    1.4385
    ORTHCH:  cpu time    0.0573: real time    0.0573
       DOS:  cpu time    0.0017: real time    0.0017
    CHARGE:  cpu time    0.0996: real time    0.0996
    MIXING:  cpu time    0.0041: real time    0.0042
    --------------------------------------------
      LOOP:  cpu time    2.0626: real time    2.0790

 eigenvalue-minimisations  :   722
 total energy-change (2. order) :-0.4443222E+01  (-0.2025137E+01)
 number of electron     543.0000232 magnetization 
 augmentation part      268.1677352 magnetization 

 Broyden mixing:
  rms(total) = 0.52773E+01    rms(broyden)= 0.52770E+01
  rms(prec ) = 0.62314E+01
  weight for this iteration     100.00

 eigenvalues of (default mixing * dielectric matrix)
  average eigenvalue GAMMA=   0.3412
  1.4237  0.8227  0.1106  0.1106  0.0791  0.0791  0.0535  0.0500

 Free energy of the ion-electron system (eV)
  ---------------------------------------------------
  alpha Z        PSCENC =      1564.88647228
  Ewald energy   TEWEN  =    149058.23502799
  -Hartree energ DENC   =   -189453.28675732
  -exchange      EXHF   =         0.00000000
  -V(xc)+E(xc)   XCENC  =       332.36740063
  PAW double counting   =     46298.37357232   -46856.76143426
  entropy T*S    EENTRO =        -4.21714180
  eigenvalues    EBANDS =     -1670.39568806
  atomic energy  EATOM  =     40210.28846851
  Solvation  Ediel_sol  =         0.00000000
  ---------------------------------------------------
  free energy    TOTEN  =      -520.51007971 eV

  energy without entropy =     -516.29293791  energy(sigma->0) =     -518.40150881


--------------------------------------------------------------------------------------------------------




--------------------------------------- Iteration      1(  14)  ---------------------------------------


    POTLOK:  cpu time    0.1824: real time    0.1945
    SETDIJ:  cpu time    0.0103: real time    0.0103
    EDDIAG:  cpu time    0.2696: real time    0.2699
  RMM-DIIS:  cpu time    1.3317: real time    1.3319
    ORTHCH:  cpu time    0.0581: real time    0.0581
       DOS:  cpu time    0.0017: real time    0.0017
    CHARGE:  cpu time    0.0999: real time    0.0999
    MIXING:  cpu time    0.0043: real time    0.0043
    --------------------------------------------
      LOOP:  cpu time    1.9579: real time    1.9705

 eigenvalue-minimisations  :   663
 total energy-change (2. order) : 0.7002040E+01  (-0.9868867E+00)
 number of electron     543.0000238 magnetization 
 augmentation part      267.3920730 magnetization 

 Broyden mixing:
  rms(total) = 0.31810E+01    rms(broyden)= 0.31806E+01
  rms(prec ) = 0.37552E+01
  weight for this iteration     100.00

 eigenvalues of (default mixing * dielectric matrix)
  average eigenvalue GAMMA=   0.3382
  1.5966  0.8666  0.1160  0.1160  0.0884  0.0884  0.0675  0.0558  0.0482

 Free energy of the ion-electron system (eV)
  ---------------------------------------------------
  alpha Z        PSCENC =      1564.88647228
  Ewald energy   TEWEN  =    149058.23502799
  -Hartree energ DENC   =   -189455.75521095
  -exchange      EXHF   =         0.00000000
  -V(xc)+E(xc)   XCENC  =       332.76684535
  PAW double counting   =     46282.08303450   -46841.52374198
  entropy T*S    EENTRO =        -4.31841216
  eigenvalues    EBANDS =     -1660.17052332
  atomic energy  EATOM  =     40210.28846851
  Solvation  Ediel_sol  =         0.00000000
  ---------------------------------------------------
  free energy    TOTEN  =      -513.50803977 eV

  energy without entropy =     -509.18962762  energy(sigma->0) =     -511.34883369


--------------------------------------------------------------------------------------------------------




--------------------------------------- Iteration      1(  15)  ---------------------------------------


    POTLOK:  cpu time    0.1870: real time    0.1982
    SETDIJ:  cpu time    0.0103: real time    0.0103
    EDDIAG:  cpu time    0.2731: real time    0.2732
  RMM-DIIS:  cpu time    1.5585: real time    1.5587
    ORTHCH:  cpu time    0.0576: real time    0.0576
       DOS:  cpu time    0.0018: real time    0.0018
    CHARGE:  cpu time    0.1008: real time    0.1008
    MIXING:  cpu time    0.0045: real time    0.0044
    --------------------------------------------
      LOOP:  cpu time    2.1935: real time    2.2051

 eigenvalue-minimisations  :   793
 total energy-change (2. order) : 0.1178723E+01  (-0.5472515E+00)
 number of electron     543.0000238 magnetization 
 augmentation part      267.3213721 magnetization 

 Broyden mixing:
  rms(total) = 0.28137E+01    rms(broyden)= 0.28135E+01
  rms(prec ) = 0.33883E+01
  weight for this iteration     100.00

 eigenvalues of (default mixing * dielectric matrix)
  average eigenvalue GAMMA=   0.3440
  1.8889  0.8533  0.1355  0.1355  0.1110  0.0773  0.0773  0.0631  0.0504  0.0479

 Free energy of the ion-electron system (eV)
  ---------------------------------------------------
  alpha Z        PSCENC =      1564.88647228
  Ewald energy   TEWEN  =    149058.23502799
  -Hartree energ DENC   =   -189455.03435235
  -exchange      EXHF   =         0.00000000
  -V(xc)+E(xc)   XCENC  =       332.59791761
  PAW double counting   =     46202.04490825   -46758.78115282
  entropy T*S    EENTRO =        -4.51215101
  eigenvalues    EBANDS =     -1662.05445537
  atomic energy  EATOM  =     40210.28846851
  Solvation  Ediel_sol  =         0.00000000
  ---------------------------------------------------
  free energy    TOTEN  =      -512.32931691 eV

  energy without entropy =     -507.81716590  energy(sigma->0) =     -510.07324140


--------------------------------------------------------------------------------------------------------




--------------------------------------- Iteration      1(  16)  ---------------------------------------


    POTLOK:  cpu time    0.1793: real time    0.1916
    SETDIJ:  cpu time    0.0103: real time    0.0103
    EDDIAG:  cpu time    0.2732: real time    0.2732
  RMM-DIIS:  cpu time    1.6790: real time    1.6844
    ORTHCH:  cpu time    0.0574: real time    0.0574
       DOS:  cpu time    0.0017: real time    0.0017
    CHARGE:  cpu time    0.0997: real time    0.0997
    MIXING:  cpu time    0.0045: real time    0.0045
    --------------------------------------------
      LOOP:  cpu time    2.3059: real time    2.3227

 eigenvalue-minimisations  :   855
 total energy-change (2. order) : 0.8316460E+00  (-0.2760845E+00)
 number of electron     543.0000239 magnetization 
 augmentation part      267.6232651 magnetization 

 Broyden mixing:
  rms(total) = 0.23145E+01    rms(broyden)= 0.23144E+01
  rms(prec ) = 0.27843E+01
  weight for this iteration     100.00

 eigenvalues of (default mixing * dielectric matrix)
  average eigenvalue GAMMA=   0.3453
  2.1264  0.8407  0.1554  0.1554  0.1145  0.0861  0.0861  0.0795  0.0564  0.0515
  0.0468

 Free energy of the ion-electron system (eV)
  ---------------------------------------------------
  alpha Z        PSCENC =      1564.88647228
  Ewald energy   TEWEN  =    149058.23502799
  -Hartree energ DENC   =   -189450.95531436
  -exchange      EXHF   =         0.00000000
  -V(xc)+E(xc)   XCENC  =       332.23660679
  PAW double counting   =     46076.07133028   -46628.33882469
  entropy T*S    EENTRO =        -4.65924261
  eigenvalues    EBANDS =     -1669.26219506
  atomic energy  EATOM  =     40210.28846851
  Solvation  Ediel_sol  =         0.00000000
  ---------------------------------------------------
  free energy    TOTEN  =      -511.49767087 eV

  energy without entropy =     -506.83842826  energy(sigma->0) =     -509.16804956


--------------------------------------------------------------------------------------------------------




--------------------------------------- Iteration      1(  17)  ---------------------------------------


    POTLOK:  cpu time    0.1838: real time    0.1972
    SETDIJ:  cpu time    0.0102: real time    0.0102
    EDDIAG:  cpu time    0.2720: real time    0.2721
  RMM-DIIS:  cpu time    1.5323: real time    1.5334
    ORTHCH:  cpu time    0.0579: real time    0.0579
       DOS:  cpu time    0.0017: real time    0.0017
    CHARGE:  cpu time    0.1003: real time    0.1003
    MIXING:  cpu time    0.0049: real time    0.0049
    --------------------------------------------
      LOOP:  cpu time    2.1622: real time    2.1776

 eigenvalue-minimisations  :   773
 total energy-change (2. order) : 0.4160298E+00  (-0.1502262E+00)
 number of electron     543.0000236 magnetization 
 augmentation part      267.9055192 magnetization 

 Broyden mixing:
  rms(total) = 0.21233E+01    rms(broyden)= 0.21232E+01
  rms(prec ) = 0.26786E+01
  weight for this iteration     100.00

 eigenvalues of (default mixing * dielectric matrix)
  average eigenvalue GAMMA=   0.3650
  2.3730  0.8039  0.3017  0.3017  0.1063  0.1063  0.0950  0.0774  0.0690  0.0540
  0.0489  0.0430

 Free energy of the ion-electron system (eV)
  ---------------------------------------------------
  alpha Z        PSCENC =      1564.88647228
  Ewald energy   TEWEN  =    149058.23502799
  -Hartree energ DENC   =   -189447.44031885
  -exchange      EXHF   =         0.00000000
  -V(xc)+E(xc)   XCENC  =       331.96929254
  PAW double counting   =     45982.11777722   -46531.28765909
  entropy T*S    EENTRO =        -4.79910702
  eigenvalues    EBANDS =     -1675.05159470
  atomic energy  EATOM  =     40210.28846851
  Solvation  Ediel_sol  =         0.00000000
  ---------------------------------------------------
  free energy    TOTEN  =      -511.08164112 eV

  energy without entropy =     -506.28253409  energy(sigma->0) =     -508.68208761


--------------------------------------------------------------------------------------------------------




--------------------------------------- Iteration      1(  18)  ---------------------------------------


    POTLOK:  cpu time    0.1815: real time    0.1964
    SETDIJ:  cpu time    0.0103: real time    0.0103
    EDDIAG:  cpu time    0.2693: real time    0.2694
  RMM-DIIS:  cpu time    1.6157: real time    1.6160
    ORTHCH:  cpu time    0.0585: real time    0.0585
       DOS:  cpu time    0.0018: real time    0.0018
    CHARGE:  cpu time    0.1058: real time    0.1058
    MIXING:  cpu time    0.0050: real time    0.0050
    --------------------------------------------
      LOOP:  cpu time    2.2477: real time    2.2631

 eigenvalue-minimisations  :   803
 total energy-change (2. order) :-0.6858977E+00  (-0.2962533E+00)
 number of electron     543.0000237 magnetization 
 augmentation part      268.2708934 magnetization 

 Broyden mixing:
  rms(total) = 0.25026E+01    rms(broyden)= 0.25025E+01
  rms(prec ) = 0.29632E+01
  weight for this iteration     100.00

 eigenvalues of (default mixing * dielectric matrix)
  average eigenvalue GAMMA=   0.3920
  2.7126  0.6906  0.5122  0.5122  0.1114  0.1114  0.0915  0.0761  0.0761  0.0590
  0.0526  0.0483  0.0417

 Free energy of the ion-electron system (eV)
  ---------------------------------------------------
  alpha Z        PSCENC =      1564.88647228
  Ewald energy   TEWEN  =    149058.23502799
  -Hartree energ DENC   =   -189440.50384053
  -exchange      EXHF   =         0.00000000
  -V(xc)+E(xc)   XCENC  =       331.77917457
  PAW double counting   =     45900.03753641   -46446.91178310
  entropy T*S    EENTRO =        -4.81272229
  eigenvalues    EBANDS =     -1684.76587263
  atomic energy  EATOM  =     40210.28846851
  Solvation  Ediel_sol  =         0.00000000
  ---------------------------------------------------
  free energy    TOTEN  =      -511.76753877 eV

  energy without entropy =     -506.95481649  energy(sigma->0) =     -509.36117763


--------------------------------------------------------------------------------------------------------




--------------------------------------- Iteration      1(  19)  ---------------------------------------


    POTLOK:  cpu time    0.1816: real time    0.1961
    SETDIJ:  cpu time    0.0102: real time    0.0102
    EDDIAG:  cpu time    0.2721: real time    0.2724
  RMM-DIIS:  cpu time    1.4281: real time    1.4283
    ORTHCH:  cpu time    0.0576: real time    0.0576
       DOS:  cpu time    0.0018: real time    0.0018
    CHARGE:  cpu time    0.0999: real time    0.1000
    MIXING:  cpu time    0.0051: real time    0.0051
    --------------------------------------------
      LOOP:  cpu time    2.0564: real time    2.0714

 eigenvalue-minimisations  :   725
 total energy-change (2. order) : 0.5794726E+00  (-0.1751654E+00)
 number of electron     543.0000239 magnetization 
 augmentation part      268.5768236 magnetization 

 Broyden mixing:
  rms(total) = 0.21103E+01    rms(broyden)= 0.21101E+01
  rms(prec ) = 0.24882E+01
  weight for this iteration     100.00

 eigenvalues of (default mixing * dielectric matrix)
  average eigenvalue GAMMA=   0.3807
  2.7848  0.7186  0.5440  0.5440  0.1141  0.1141  0.0902  0.0795  0.0795  0.0636
  0.0577  0.0507  0.0480  0.0409

 Free energy of the ion-electron system (eV)
  ---------------------------------------------------
  alpha Z        PSCENC =      1564.88647228
  Ewald energy   TEWEN  =    149058.23502799
  -Hartree energ DENC   =   -189428.53930478
  -exchange      EXHF   =         0.00000000
  -V(xc)+E(xc)   XCENC  =       331.56534574
  PAW double counting   =     45787.00719590   -46331.17601227
  entropy T*S    EENTRO =        -4.82252427
  eigenvalues    EBANDS =     -1698.63273530
  atomic energy  EATOM  =     40210.28846851
  Solvation  Ediel_sol  =         0.00000000
  ---------------------------------------------------
  free energy    TOTEN  =      -511.18806619 eV

  energy without entropy =     -506.36554192  energy(sigma->0) =     -508.77680405


--------------------------------------------------------------------------------------------------------




--------------------------------------- Iteration      1(  20)  ---------------------------------------


    POTLOK:  cpu time    0.1836: real time    0.1958
    SETDIJ:  cpu time    0.0105: real time    0.0105
    EDDIAG:  cpu time    0.2739: real time    0.2739
  RMM-DIIS:  cpu time    1.5055: real time    1.5058
    ORTHCH:  cpu time    0.0582: real time    0.0582
       DOS:  cpu time    0.0017: real time    0.0017
    CHARGE:  cpu time    0.1000: real time    0.1000
    MIXING:  cpu time    0.0052: real time    0.0052
    --------------------------------------------
[...]
      2.141820  0.286472  8.024297            0           0           0  
      3.888319  1.522303  1.999996            0           0           0  
      3.890128  1.523015  6.001043            0           0           0  
      4.715778  0.352100  4.026849            0           0           0  
      4.680978  0.333410  8.000078            0           0           0  
      6.370694  1.522303  1.999996            0           0           0  
      6.370750  1.519026  6.019324            0           0           0  
      7.198153  0.352100  4.026849            0           0           0  
      7.113853  0.270147  7.984530            0           0           0  
      8.853069  1.522303  1.999996            0           0           0  
      8.856535  1.523511  6.006142            0           0           0  
      9.680528  0.352100  4.026849            0           0           0  
      9.653913  0.306171  8.003803            0           0           0  
      2.233403  3.862708  1.999996            0           0           0  
      2.240978  3.854041  6.014342            0           0           0  
      3.060861  2.692506  4.026849            0           0           0  
      3.033153  2.664964  8.000360            0           0           0  
      4.715778  3.862708  1.999996            0           0           0  
      4.713313  3.863409  6.018829            0           0           0  
      5.543236  2.692506  4.026849            0           0           0  
      5.517927  2.674101  7.971185            0           0           0  
      7.198153  3.862708  1.999996            0           0           0  
      7.205968  3.867942  6.043890            0           0           0  
      8.025611  2.692506  4.026849            0           0           0  
      8.056577  2.648221  8.024357            0           0           0  
      9.680528  3.862708  1.999996            0           0           0  
      9.675598  3.866385  6.004380            0           0           0  
     10.507986  2.692506  4.026849            0           0           0  
     10.520847  2.692864  7.901061            0           0           0  
      3.060861  6.203114  1.999996            0           0           0  
      3.058583  6.193448  6.004532            0           0           0  
      3.888319  5.032911  4.026849            0           0           0  
      3.783309  4.980280  7.983926            0           0           0  
      5.543236  6.203114  1.999996            0           0           0  
      5.545509  6.205444  6.005839            0           0           0  
      6.370694  5.032911  4.026849            0           0           0  
      6.338618  5.075703  8.024285            0           0           0  
      8.025611  6.203114  1.999996            0           0           0  
      8.027143  6.196770  6.004533            0           0           0  
      8.853069  5.032911  4.026849            0           0           0  
      8.824359  5.013250  7.994200            0           0           0  
     10.507986  6.203114  1.999996            0           0           0  
     10.507260  6.202368  5.990837            0           0           0  
     11.335444  5.032911  4.026849            0           0           0  
     11.324355  4.991332  7.980883            0           0           0  
      3.888319  8.543520  1.999996            0           0           0  
      3.885405  8.541142  6.022068            0           0           0  
      4.715778  7.373317  4.026849            0           0           0  
      4.663889  7.362010  8.004056            0           0           0  
      6.370694  8.543520  1.999996            0           0           0  
      6.352004  8.549029  6.006805            0           0           0  
      7.198153  7.373317  4.026849            0           0           0  
      7.201512  7.384221  7.901466            0           0           0  
      8.853069  8.543520  1.999996            0           0           0  
      8.847318  8.552534  6.014376            0           0           0  
      9.680528  7.373317  4.026849            0           0           0  
      9.637135  7.376720  7.980653            0           0           0  
     11.335444  8.543520  1.999996            0           0           0  
     11.325728  8.544397  6.004790            0           0           0  
     12.162903  7.373317  4.026849            0           0           0  
     12.154808  7.367660  7.926493            0           0           0  
      3.413368  1.185383  9.087129            0           0           0  
      8.367982  1.102008  9.084954            0           0           0  
     10.147898  5.948649  9.064508            0           0           0  
      4.983363  5.883618  9.084449            0           0           0  
      6.756422  3.549572  9.321458     0.051083    0.037522    0.968864  
      6.705612  3.512092 10.294132    -0.023170   -0.015848    0.237690  
 
   5 f  =    7.028932 THz    44.164080 2PiTHz  234.459917 cm-1    29.069335 meV
             X         Y         Z           dx          dy          dz
      1.405944  1.522303  1.999996            0           0           0  
      1.405585  1.502473  6.006999            0           0           0  
      2.233403  0.352100  4.026849            0           0           0  
      2.141820  0.286472  8.024297            0           0           0  
      3.888319  1.522303  1.999996            0           0           0  
      3.890128  1.523015  6.001043            0           0           0  
      4.715778  0.352100  4.026849            0           0           0  
      4.680978  0.333410  8.000078            0           0           0  
      6.370694  1.522303  1.999996            0           0           0  
      6.370750  1.519026  6.019324            0           0           0  
      7.198153  0.352100  4.026849            0           0           0  
      7.113853  0.270147  7.984530            0           0           0  
      8.853069  1.522303  1.999996            0           0           0  
      8.856535  1.523511  6.006142            0           0           0  
      9.680528  0.352100  4.026849            0           0           0  
      9.653913  0.306171  8.003803            0           0           0  
      2.233403  3.862708  1.999996            0           0           0  
      2.240978  3.854041  6.014342            0           0           0  
      3.060861  2.692506  4.026849            0           0           0  
      3.033153  2.664964  8.000360            0           0           0  
      4.715778  3.862708  1.999996            0           0           0  
      4.713313  3.863409  6.018829            0           0           0  
      5.543236  2.692506  4.026849            0           0           0  
      5.517927  2.674101  7.971185            0           0           0  
      7.198153  3.862708  1.999996            0           0           0  
      7.205968  3.867942  6.043890            0           0           0  
      8.025611  2.692506  4.026849            0           0           0  
      8.056577  2.648221  8.024357            0           0           0  
      9.680528  3.862708  1.999996            0           0           0  
      9.675598  3.866385  6.004380            0           0           0  
     10.507986  2.692506  4.026849            0           0           0  
     10.520847  2.692864  7.901061            0           0           0  
      3.060861  6.203114  1.999996            0           0           0  
      3.058583  6.193448  6.004532            0           0           0  
      3.888319  5.032911  4.026849            0           0           0  
      3.783309  4.980280  7.983926            0           0           0  
      5.543236  6.203114  1.999996            0           0           0  
      5.545509  6.205444  6.005839            0           0           0  
      6.370694  5.032911  4.026849            0           0           0  
      6.338618  5.075703  8.024285            0           0           0  
      8.025611  6.203114  1.999996            0           0           0  
      8.027143  6.196770  6.004533            0           0           0  
      8.853069  5.032911  4.026849            0           0           0  
      8.824359  5.013250  7.994200            0           0           0  
     10.507986  6.203114  1.999996            0           0           0  
     10.507260  6.202368  5.990837            0           0           0  
     11.335444  5.032911  4.026849            0           0           0  
     11.324355  4.991332  7.980883            0           0           0  
      3.888319  8.543520  1.999996            0           0           0  
      3.885405  8.541142  6.022068            0           0           0  
      4.715778  7.373317  4.026849            0           0           0  
      4.663889  7.362010  8.004056            0           0           0  
      6.370694  8.543520  1.999996            0           0           0  
      6.352004  8.549029  6.006805            0           0           0  
      7.198153  7.373317  4.026849            0           0           0  
      7.201512  7.384221  7.901466            0           0           0  
      8.853069  8.543520  1.999996            0           0           0  
      8.847318  8.552534  6.014376            0           0           0  
      9.680528  7.373317  4.026849            0           0           0  
      9.637135  7.376720  7.980653            0           0           0  
     11.335444  8.543520  1.999996            0           0           0  
     11.325728  8.544397  6.004790            0           0           0  
     12.162903  7.373317  4.026849            0           0           0  
     12.154808  7.367660  7.926493            0           0           0  
      3.413368  1.185383  9.087129            0           0           0  
      8.367982  1.102008  9.084954            0           0           0  
     10.147898  5.948649  9.064508            0           0           0  
      4.983363  5.883618  9.084449            0           0           0  
      6.756422  3.549572  9.321458     0.539693   -0.637215   -0.002560  
      6.705612  3.512092 10.294132     0.343803   -0.429513   -0.000086  
 
   6 f  =    6.660275 THz    41.847743 2PiTHz  222.162861 cm-1    27.544694 meV
             X         Y         Z           dx          dy          dz
      1.405944  1.522303  1.999996            0           0           0  
      1.405585  1.502473  6.006999            0           0           0  
      2.233403  0.352100  4.026849            0           0           0  
      2.141820  0.286472  8.024297            0           0           0  
      3.888319  1.522303  1.999996            0           0           0  
      3.890128  1.523015  6.001043            0           0           0  
      4.715778  0.352100  4.026849            0           0           0  
      4.680978  0.333410  8.000078            0           0           0  
      6.370694  1.522303  1.999996            0           0           0  
      6.370750  1.519026  6.019324            0           0           0  
      7.198153  0.352100  4.026849            0           0           0  
      7.113853  0.270147  7.984530            0           0           0  
      8.853069  1.522303  1.999996            0           0           0  
      8.856535  1.523511  6.006142            0           0           0  
      9.680528  0.352100  4.026849            0           0           0  
      9.653913  0.306171  8.003803            0           0           0  
      2.233403  3.862708  1.999996            0           0           0  
      2.240978  3.854041  6.014342            0           0           0  
      3.060861  2.692506  4.026849            0           0           0  
      3.033153  2.664964  8.000360            0           0           0  
      4.715778  3.862708  1.999996            0           0           0  
      4.713313  3.863409  6.018829            0           0           0  
      5.543236  2.692506  4.026849            0           0           0  
      5.517927  2.674101  7.971185            0           0           0  
      7.198153  3.862708  1.999996            0           0           0  
      7.205968  3.867942  6.043890            0           0           0  
      8.025611  2.692506  4.026849            0           0           0  
      8.056577  2.648221  8.024357            0           0           0  
      9.680528  3.862708  1.999996            0           0           0  
      9.675598  3.866385  6.004380            0           0           0  
     10.507986  2.692506  4.026849            0           0           0  
     10.520847  2.692864  7.901061            0           0           0  
      3.060861  6.203114  1.999996            0           0           0  
      3.058583  6.193448  6.004532            0           0           0  
      3.888319  5.032911  4.026849            0           0           0  
      3.783309  4.980280  7.983926            0           0           0  
      5.543236  6.203114  1.999996            0           0           0  
      5.545509  6.205444  6.005839            0           0           0  
      6.370694  5.032911  4.026849            0           0           0  
      6.338618  5.075703  8.024285            0           0           0  
      8.025611  6.203114  1.999996            0           0           0  
      8.027143  6.196770  6.004533            0           0           0  
      8.853069  5.032911  4.026849            0           0           0  
      8.824359  5.013250  7.994200            0           0           0  
     10.507986  6.203114  1.999996            0           0           0  
     10.507260  6.202368  5.990837            0           0           0  
     11.335444  5.032911  4.026849            0           0           0  
     11.324355  4.991332  7.980883            0           0           0  
      3.888319  8.543520  1.999996            0           0           0  
      3.885405  8.541142  6.022068            0           0           0  
      4.715778  7.373317  4.026849            0           0           0  
      4.663889  7.362010  8.004056            0           0           0  
      6.370694  8.543520  1.999996            0           0           0  
      6.352004  8.549029  6.006805            0           0           0  
      7.198153  7.373317  4.026849            0           0           0  
      7.201512  7.384221  7.901466            0           0           0  
      8.853069  8.543520  1.999996            0           0           0  
      8.847318  8.552534  6.014376            0           0           0  
      9.680528  7.373317  4.026849            0           0           0  
      9.637135  7.376720  7.980653            0           0           0  
     11.335444  8.543520  1.999996            0           0           0  
     11.325728  8.544397  6.004790            0           0           0  
     12.162903  7.373317  4.026849            0           0           0  
     12.154808  7.367660  7.926493            0           0           0  
      3.413368  1.185383  9.087129            0           0           0  
      8.367982  1.102008  9.084954            0           0           0  
     10.147898  5.948649  9.064508            0           0           0  
      4.983363  5.883618  9.084449            0           0           0  
      6.756422  3.549572  9.321458    -0.711763   -0.586029    0.048643  
      6.705612  3.512092 10.294132    -0.287229   -0.255131    0.002192  
 
 Finite differences POTIM=  1.500000000000000E-002
     LOOP+:  cpu time   50.7371: real time   51.0804
    4ORBIT:  cpu time    0.0000: real time    0.0000
 


 total charge     
 
# of ion       s       p       d       tot
------------------------------------------
    1        0.454   0.356   6.231   7.041
    2        0.474   0.510   6.261   7.245
    3        0.468   0.493   6.256   7.218
    4        0.457   0.469   6.281   7.206
    5        0.454   0.355   6.233   7.043
    6        0.469   0.502   6.264   7.235
    7        0.467   0.494   6.251   7.212
    8        0.461   0.484   6.281   7.226
    9        0.454   0.356   6.232   7.042
   10        0.471   0.505   6.252   7.229
   11        0.467   0.492   6.254   7.212
   12        0.466   0.485   6.292   7.243
   13        0.455   0.355   6.233   7.043
   14        0.473   0.499   6.265   7.236
   15        0.466   0.492   6.251   7.208
   16        0.464   0.490   6.281   7.235
   17        0.455   0.356   6.230   7.042
   18        0.477   0.510   6.271   7.258
   19        0.467   0.494   6.251   7.211
   20        0.461   0.484   6.281   7.226
   21        0.454   0.356   6.232   7.042
   22        0.472   0.505   6.253   7.229
   23        0.465   0.491   6.249   7.206
   24        0.423   0.406   6.287   7.116
   25        0.455   0.356   6.231   7.041
   26        0.470   0.494   6.256   7.221
   27        0.464   0.492   6.248   7.204
   28        0.426   0.503   6.292   7.221
   29        0.454   0.356   6.232   7.042
   30        0.474   0.513   6.260   7.247
   31        0.466   0.494   6.251   7.211
   32        0.465   0.383   6.273   7.121
   33        0.454   0.356   6.231   7.041
   34        0.475   0.512   6.262   7.248
   35        0.467   0.492   6.254   7.212
   36        0.466   0.487   6.292   7.245
   37        0.455   0.355   6.233   7.043
   38        0.473   0.499   6.265   7.237
   39        0.464   0.492   6.249   7.205
   40        0.426   0.503   6.293   7.221
   41        0.454   0.356   6.232   7.042
   42        0.474   0.513   6.260   7.248
   43        0.468   0.493   6.254   7.215
   44        0.436   0.438   6.289   7.163
   45        0.455   0.355   6.233   7.043
   46        0.470   0.499   6.268   7.236
   47        0.466   0.495   6.251   7.212
   48        0.468   0.497   6.289   7.253
   49        0.455   0.357   6.228   7.040
   50        0.477   0.510   6.269   7.256
   51        0.466   0.492   6.251   7.208
   52        0.464   0.490   6.281   7.235
   53        0.454   0.356   6.231   7.041
   54        0.474   0.510   6.261   7.245
   55        0.466   0.494   6.252   7.211
   56        0.465   0.383   6.273   7.121
   57        0.455   0.356   6.231   7.042
   58        0.477   0.510   6.271   7.259
   59        0.466   0.495   6.251   7.212
   60        0.468   0.497   6.289   7.254
   61        0.454   0.356   6.231   7.041
   62        0.475   0.512   6.262   7.248
   63        0.466   0.495   6.253   7.213
   64        0.450   0.370   6.281   7.101
   65        1.581   3.342   0.000   4.923
   66        1.582   3.346   0.000   4.927
   67        1.581   3.336   0.000   4.917
   68        1.582   3.346   0.000   4.928
   69        1.547   3.543   0.000   5.090
   70        0.621   0.130   0.000   0.752
--------------------------------------------------
tot         38.062  46.095 400.485 484.642
 

 total amount of memory used by VASP MPI-rank0    54105. kBytes
=======================================================================

   base      :      30000. kBytes
   nonlr-proj:       4222. kBytes
   fftplans  :       5964. kBytes
   grid      :      11929. kBytes
   one-center:         23. kBytes
   wavefun   :       1967. kBytes
 
  
  
 General timing and accounting informations for this job:
 ========================================================
  
                  Total CPU time used (sec):      848.380
                            User time (sec):      845.453
                          System time (sec):        2.927
                         Elapsed time (sec):      854.623
  
                   Maximum memory used (kb):      294808.
                   Average memory used (kb):           0.
  
                          Minor page faults:       615092
                          Major page faults:            4
                 Voluntary context switches:         1944
