       N       E                     dE             d eps       ncg     rms          rms(c)
DAV:   1     0.462178551953E+04    0.46218E+04   -0.26717E+05 33120   0.162E+03
DAV:   2     0.829159692239E+02   -0.45389E+04   -0.42740E+04 33120   0.359E+02
DAV:   3    -0.354103484258E+03   -0.43702E+03   -0.37629E+03 34083   0.150E+02
DAV:   4    -0.372623832722E+03   -0.18520E+02   -0.18158E+02 35352   0.340E+01
DAV:   5    -0.372985312530E+03   -0.36148E+00   -0.36121E+00 39330   0.366E+00
RMM:   6    -0.372997603502E+03   -0.12291E-01   -0.12285E-01 34459   0.690E-01
RMM:   7    -0.373001446625E+03   -0.38431E-02   -0.38333E-02 50572   0.269E-01
RMM:   8    -0.373001538641E+03   -0.92016E-04   -0.10090E-03 45335   0.304E-02
RMM:   9    -0.373001557711E+03   -0.19070E-04   -0.18668E-04 36424   0.919E-03
RMM:  10    -0.373001559814E+03   -0.21036E-05   -0.17943E-05 23456   0.346E-03
RMM:  11    -0.373001560439E+03   -0.62503E-06   -0.57010E-06 21426   0.204E-03
   1 F= -.37300156E+03 E0= -.37300156E+03  d E =0.000000E+00  mag=    73.8992
