 vasp.5.4.4.18Apr17-6-g9f103f2a35 (build Sep 06 2021 19:49:22) complex          
  
 executed on             LinuxIFC date 2022.01.05  06:58:02
 running on   72 total cores
 distrk:  each k-point on   72 cores,    1 groups
 distr:  one band on NCORES_PER_BAND=  24 cores,    3 groups


--------------------------------------------------------------------------------------------------------


 INCAR:
 POTCAR:    PAW_PBE Ni 02Aug2007                  
 POTCAR:    PAW_PBE Fe 06Sep2000                  

 ----------------------------------------------------------------------------- 
|                                                                             |
|           W    W    AA    RRRRR   N    N  II  N    N   GGGG   !!!           |
|           W    W   A  A   R    R  NN   N  II  NN   N  G    G  !!!           |
|           W    W  A    A  R    R  N N  N  II  N N  N  G       !!!           |
|           W WW W  AAAAAA  RRRRR   N  N N  II  N  N N  G  GGG   !            |
|           WW  WW  A    A  R   R   N   NN  II  N   NN  G    G                |
|           W    W  A    A  R    R  N    N  II  N    N   GGGG   !!!           |
|                                                                             |
|      For optimal performance we recommend to set                            |
|        NCORE= 4 - approx SQRT( number of cores)                             |
|      NCORE specifies how many cores store one orbital (NPAR=cpu/NCORE).     |
|      This setting can  greatly improve the performance of VASP for DFT.     |
|      The default,   NCORE=1            might be grossly inefficient         |
|      on modern multi-core architectures or massively parallel machines.     |
|      Do your own testing !!!!                                               |
|      Unfortunately you need to use the default for GW and RPA calculations. |
|      (for HF NCORE is supported but not extensively tested yet)             |
|                                                                             |
 ----------------------------------------------------------------------------- 

 POTCAR:    PAW_PBE Ni 02Aug2007                  
   VRHFIN =Ni:                                                                  
   LEXCH  = PE                                                                  
   EATOM  =  1077.6739 eV,   79.2068 Ry                                         
                                                                                
   TITEL  = PAW_PBE Ni 02Aug2007                                                
   LULTRA =        F    use ultrasoft PP ?                                      
   IUNSCR =        1    unscreen: 0-lin 1-nonlin 2-no                           
   RPACOR =    2.000    partial core radius                                     
   POMASS =   58.690; ZVAL   =   10.000    mass and valenz                      
   RCORE  =    2.300    outmost cutoff radius                                   
   RWIGS  =    2.430; RWIGS  =    1.286    wigner-seitz radius (au A)           
   ENMAX  =  269.532; ENMIN  =  202.149 eV                                      
   RCLOC  =    1.201    cutoff for local pot                                    
   LCOR   =        T    correct aug charges                                     
   LPAW   =        T    paw PP                                                  
   EAUG   =  544.565                                                            
   DEXC   =    0.000                                                            
   RMAX   =    2.357    core radius for proj-oper                               
   RAUG   =    1.300    factor for augmentation sphere                          
   RDEP   =    2.390    radius for radial grids                                 
   RDEPT  =    1.838    core radius for aug-charge                              
                                                                                
   Atomic configuration                                                         
    9 entries                                                                   
     n  l   j            E        occ.                                          
     1  0  0.50     -8206.4253   2.0000                                         
     2  0  0.50      -976.1748   2.0000                                         
     2  1  1.50      -839.0571   6.0000                                         
     3  0  0.50      -105.9991   2.0000                                         
     3  1  1.50       -66.4603   6.0000                                         
     3  2  2.50        -4.6458   9.0000                                         
     4  0  0.50        -4.4926   1.0000                                         
     4  1  1.50        -4.0817   0.0000                                         
     4  3  2.50        -1.3606   0.0000                                         
   Description                                                                  
     l       E           TYP  RCUT    TYP  RCUT                                 
     2     -4.6457903     23  2.300                                             
     2     -6.0063729     23  2.300                                             
     0     -4.4925590     23  2.300                                             
     0      5.0102601     23  2.300                                             
     1     -2.7211652     23  2.300                                             
     1     16.5183231     23  2.300                                             
  local pseudopotential read in
  partial core-charges read in
  partial kinetic energy density read in
  atomic valenz-charges read in
  non local Contribution for L=           2  read in
    real space projection operators read in
  non local Contribution for L=           2  read in
    real space projection operators read in
  non local Contribution for L=           0  read in
    real space projection operators read in
  non local Contribution for L=           0  read in
    real space projection operators read in
  non local Contribution for L=           1  read in
    real space projection operators read in
  non local Contribution for L=           1  read in
    real space projection operators read in
    PAW grid and wavefunctions read in
 
   number of l-projection  operators is LMAX  =           6
   number of lm-projection operators is LMMAX =          18
 
 POTCAR:    PAW_PBE Fe 06Sep2000                  
   VRHFIN =Fe:  d7 s1                                                           
   LEXCH  = PE                                                                  
   EATOM  =   594.3153 eV,   43.6809 Ry                                         
                                                                                
   TITEL  = PAW_PBE Fe 06Sep2000                                                
   LULTRA =        F    use ultrasoft PP ?                                      
   IUNSCR =        1    unscreen: 0-lin 1-nonlin 2-no                           
   RPACOR =    2.000    partial core radius                                     
   POMASS =   55.847; ZVAL   =    8.000    mass and valenz                      
   RCORE  =    2.300    outmost cutoff radius                                   
   RWIGS  =    2.460; RWIGS  =    1.302    wigner-seitz radius (au A)           
   ENMAX  =  267.882; ENMIN  =  200.911 eV                                      
   RCLOC  =    1.701    cutoff for local pot                                    
   LCOR   =        T    correct aug charges                                     
   LPAW   =        T    paw PP                                                  
   EAUG   =  511.368                                                            
   DEXC   =    0.000                                                            
   RMAX   =    2.356    core radius for proj-oper                               
   RAUG   =    1.300    factor for augmentation sphere                          
   RDEP   =    2.442    radius for radial grids                                 
   RDEPT  =    1.890    core radius for aug-charge                              
                                                                                
   Atomic configuration                                                         
    9 entries                                                                   
     n  l   j            E        occ.                                          
     1  0  0.50     -6993.8440   2.0000                                         
     2  0  0.50      -814.6047   2.0000                                         
     2  1  1.50      -693.3689   6.0000                                         
     3  0  0.50       -89.4732   2.0000                                         
     3  1  1.50       -55.6373   6.0000                                         
     3  2  2.50        -3.8151   7.0000                                         
     4  0  0.50        -4.2551   1.0000                                         
     4  1  1.50        -3.4015   0.0000                                         
     4  3  2.50        -1.3606   0.0000                                         
   Description                                                                  
     l       E           TYP  RCUT    TYP  RCUT                                 
     2     -3.8151135     23  2.300                                             
     2     -5.1756961     23  2.300                                             
     0     -4.2550963     23  2.300                                             
     0      7.2035603     23  2.300                                             
     1     -2.7211652     23  2.300                                             
     1     18.4316424     23  2.300                                             
  local pseudopotential read in
  partial core-charges read in
  partial kinetic energy density read in
  atomic valenz-charges read in
  non local Contribution for L=           2  read in
    real space projection operators read in
  non local Contribution for L=           2  read in
    real space projection operators read in
  non local Contribution for L=           0  read in
    real space projection operators read in
  non local Contribution for L=           0  read in
    real space projection operators read in
  non local Contribution for L=           1  read in
    real space projection operators read in
  non local Contribution for L=           1  read in
    real space projection operators read in
    PAW grid and wavefunctions read in
 
   number of l-projection  operators is LMAX  =           6
   number of lm-projection operators is LMMAX =          18
 
 Optimization of the real space projectors (new method)

 maximal supplied QI-value         = 16.25
 optimisation between [QCUT,QGAM] = [ 11.54, 23.24] = [ 37.28,151.24] Ry 
 Optimized for a Real-space Cutoff    1.45 Angstroem

   l    n(q)    QCUT    max X(q) W(low)/X(q) W(high)/X(q)  e(spline) 
   2      9    11.539    60.317    0.19E-03    0.47E-04    0.16E-06
   2      9    11.539    55.921    0.19E-03    0.48E-04    0.16E-06
   0     10    11.539    51.690    0.80E-04    0.50E-04    0.24E-06
   0     10    11.539    30.015    0.73E-04    0.45E-04    0.22E-06
   1     10    11.539    18.849    0.87E-04    0.16E-03    0.71E-07
   1     10    11.539    14.624    0.73E-04    0.13E-03    0.64E-07
 Optimization of the real space projectors (new method)

 maximal supplied QI-value         = 16.25
 optimisation between [QCUT,QGAM] = [ 11.54, 23.24] = [ 37.28,151.24] Ry 
 Optimized for a Real-space Cutoff    1.53 Angstroem

   l    n(q)    QCUT    max X(q) W(low)/X(q) W(high)/X(q)  e(spline) 
   2     10    11.539    80.901    0.11E-03    0.14E-03    0.21E-06
   2     10    11.539    75.754    0.11E-03    0.14E-03    0.22E-06
   0     11    11.539    58.752    0.52E-04    0.18E-04    0.33E-06
   0     11    11.539    30.679    0.44E-04    0.16E-04    0.30E-06
   1     10    11.539    17.977    0.53E-04    0.29E-04    0.13E-06
   1     10    11.539    13.559    0.44E-04    0.25E-04    0.11E-06
  PAW_PBE Ni 02Aug2007                  :
 energy of atom  1       EATOM=-1077.6739
 kinetic energy error for atom=    0.0030 (will be added to EATOM!!)
  PAW_PBE Fe 06Sep2000                  :
 energy of atom  2       EATOM= -594.3153
 kinetic energy error for atom=    0.0026 (will be added to EATOM!!)
 
 
 POSCAR: POSCAR                                  
  positions in direct lattice
  velocities in cartesian coordinates
 exchange correlation table for  LEXCH =        8
   RHO(1)=    0.500       N(1)  =     2000
   RHO(2)=  100.500       N(2)  =     4000
 


--------------------------------------------------------------------------------------------------------


 ion  position               nearest neighbor table
   1  0.001  0.001  0.288-  41 2.47  50 2.47   8 2.48  18 2.48  47 2.49  49 2.49   5 2.50  26 2.50
                             2 2.51  33 2.51   4 2.52   6 2.52
   2  0.251  0.002  0.287-  51 2.47  11 2.48  44 2.49  41 2.49  43 2.49   9 2.50  50 2.50   1 2.51
                             3 2.51  26 2.51   6 2.51  27 2.52
   3  0.500  0.999  0.289-  43 2.46  14 2.47  64 2.48  51 2.49  17 2.50   4 2.50   2 2.51  30 2.51
                            27 2.51  45 2.51   9 2.52  12 2.52
   4  0.749  0.999  0.288-  64 2.47  16 2.47  47 2.48  48 2.50  17 2.50  30 2.50   3 2.50  33 2.51
                            18 2.51   5 2.51   1 2.52  12 2.52
   5  0.000  0.250  0.289-  60 2.45  21 2.46  16 2.47   8 2.47   1 2.50  22 2.50  52 2.51   6 2.51
                            18 2.51  12 2.51  19 2.51   4 2.51
   6  0.251  0.252  0.289-  11 2.46   8 2.48  52 2.49  56 2.50   9 2.51   5 2.51   2 2.51  22 2.51
                            55 2.52   1 2.52  53 2.53  50 2.55
   7  0.083  0.166  0.096-  50 2.47  15 2.50  40 2.50  18 2.50  54 2.50  10 2.50  46 2.51  22 2.51
                            20 2.51
   8  0.082  0.166  0.383-   5 2.47  16 2.47   1 2.48   6 2.48  21 2.49  47 2.50  41 2.50  55 2.52
                            11 2.52
   9  0.500  0.251  0.288-  59 2.46  11 2.47  56 2.48  25 2.48  14 2.49   2 2.50  53 2.50  12 2.50
                             6 2.51   3 2.52  23 2.52  51 2.54
  10  0.333  0.167  0.096-  13 2.50  56 2.50   7 2.50  24 2.51  40 2.51  42 2.51  50 2.51  54 2.52
                            51 2.52
  11  0.333  0.166  0.382-   6 2.46   9 2.47   2 2.48  14 2.49  25 2.49  41 2.50  43 2.50  55 2.52
                             8 2.52
  12  0.751  0.252  0.290-  58 2.45  16 2.47  14 2.47  59 2.48  60 2.49  23 2.50   9 2.50  19 2.51
                             5 2.51   4 2.52   3 2.52  17 2.53
  13  0.582  0.167  0.097-  51 2.48  24 2.49  42 2.50  17 2.50  10 2.50  63 2.52  59 2.52  57 2.52
                            15 2.53
  14  0.581  0.164  0.384-  12 2.47   3 2.47   9 2.49  11 2.49  43 2.49  25 2.50  64 2.50  58 2.53
                            16 2.54
  15  0.834  0.167  0.096-  20 2.49  60 2.49  18 2.49  46 2.49   7 2.50  17 2.51  63 2.51  57 2.53
                            13 2.53
  16  0.835  0.165  0.383-   5 2.47  12 2.47   4 2.47   8 2.47  47 2.49  21 2.50  64 2.51  58 2.52
                            14 2.54
  17  0.666  0.083  0.193-  60 2.47  51 2.48  59 2.49   3 2.50   4 2.50  13 2.50  45 2.50  48 2.51
                            15 2.51  63 2.51  18 2.52  12 2.53
  18  0.916  0.082  0.192-  50 2.46  60 2.47  46 2.48   1 2.48  15 2.49  49 2.50  48 2.50   7 2.50
                             4 2.51   5 2.51  22 2.51  17 2.52
  19  0.001  0.501  0.287-  29 2.48  60 2.48  27 2.49  52 2.50  39 2.50  21 2.51  12 2.51  23 2.51
                             5 2.51  26 2.51  58 2.52  61 2.53
  20  0.081  0.416  0.096-  61 2.48  15 2.49  57 2.49  22 2.50  54 2.51  28 2.51   7 2.51  31 2.52
                            60 2.53
  21  0.083  0.415  0.383-   5 2.46  52 2.47   8 2.49  16 2.50  55 2.50  32 2.51  19 2.51  58 2.51
                            29 2.52
  22  0.166  0.334  0.192-  60 2.49  54 2.49  36 2.50  20 2.50   5 2.50  50 2.50  52 2.50   7 2.51
                             6 2.51  18 2.51  56 2.52  61 2.54
  23  0.752  0.502  0.288-  38 2.47  59 2.47  53 2.48  33 2.50  58 2.50  12 2.50  26 2.50  19 2.51
                            39 2.51   9 2.52  25 2.52  62 2.54
  24  0.584  0.416  0.096-  13 2.49  62 2.49  57 2.50  10 2.51  56 2.51  34 2.51  37 2.52  54 2.53
                            59 2.54
  25  0.582  0.415  0.384-  53 2.45   9 2.48  11 2.49  14 2.50  55 2.51  58 2.51  35 2.51  23 2.52
                            38 2.53
  26  0.001  0.752  0.288-  41 2.45  29 2.46  38 2.47  49 2.50  27 2.50  23 2.50   1 2.50  33 2.51
                             2 2.51  44 2.51  19 2.51  39 2.53
  27  0.249  0.749  0.287-  32 2.47  29 2.47  43 2.48  45 2.49  19 2.49  61 2.50  26 2.50  52 2.50
                            44 2.50   3 2.51  30 2.51   2 2.52
  28  0.084  0.668  0.095-  61 2.47  39 2.50  40 2.50  37 2.50  31 2.50  42 2.50  57 2.51  44 2.51
                            20 2.51
  29  0.083  0.666  0.382-  26 2.46  27 2.47  19 2.48  32 2.49  43 2.50  38 2.50  58 2.51  41 2.52
                            21 2.52
  30  0.500  0.750  0.288-  32 2.47  64 2.48  35 2.48  48 2.49  45 2.50   4 2.50  53 2.50   3 2.51
                            52 2.51  33 2.51  27 2.51  36 2.53
  31  0.333  0.667  0.094-  61 2.47  42 2.50  54 2.50  28 2.50  63 2.50  34 2.51  36 2.52  45 2.52
                            20 2.52
  32  0.331  0.667  0.382-  52 2.45  27 2.47  30 2.47  29 2.49  43 2.49  21 2.51  55 2.52  64 2.52
                            35 2.55
  33  0.751  0.750  0.288-  53 2.47  38 2.47  35 2.48  49 2.49  47 2.49  48 2.49  23 2.50  62 2.50
                            26 2.51   4 2.51  30 2.51   1 2.51
  34  0.583  0.667  0.095-  62 2.47  36 2.50  63 2.50  46 2.51  31 2.51  37 2.51  54 2.51  24 2.51
                            48 2.53
  35  0.586  0.667  0.383-  53 2.42  33 2.48  30 2.48  38 2.49  47 2.49  64 2.51  25 2.51  55 2.52
                            32 2.55
  36  0.417  0.582  0.191-  54 2.47  22 2.50  34 2.50  62 2.50  45 2.51  56 2.51  48 2.51  61 2.51
                            31 2.52  30 2.53  52 2.53  53 2.57
  37  0.834  0.668  0.095-  62 2.47  40 2.50  57 2.50  39 2.50  28 2.50  46 2.51  49 2.51  34 2.51
                            24 2.52
  38  0.834  0.667  0.382-  23 2.47  26 2.47  33 2.47  35 2.49  29 2.50  41 2.50  47 2.51  58 2.51
                            25 2.53
  39  0.917  0.583  0.191-  57 2.49  28 2.50  19 2.50  37 2.50  61 2.50  49 2.51  23 2.51  59 2.51
                            62 2.51  44 2.51  26 2.53  60 2.56
  40  0.083  0.917  0.095-  50 2.49  44 2.49  37 2.50  28 2.50   7 2.50  10 2.51  49 2.51  46 2.51
                            42 2.52
  41  0.083  0.917  0.382-  26 2.45   1 2.47   2 2.49   8 2.50  47 2.50  11 2.50  38 2.50  43 2.51
                            29 2.52
  42  0.334  0.917  0.095-  51 2.48  13 2.50  63 2.50  31 2.50  44 2.50  28 2.50  10 2.51  45 2.51
                            40 2.52
  43  0.333  0.916  0.382-   3 2.46  27 2.48  14 2.49  32 2.49   2 2.49  29 2.50  11 2.50  41 2.51
                            64 2.52
  44  0.167  0.835  0.191-  51 2.47   2 2.49  61 2.49  49 2.49  40 2.49  42 2.50  50 2.50  27 2.50
                            26 2.51  28 2.51  39 2.51  45 2.53
  45  0.417  0.832  0.192-  61 2.47  51 2.47  27 2.49  48 2.49  30 2.50  63 2.50  17 2.50  36 2.51
                             3 2.51  42 2.51  31 2.52  44 2.53
  46  0.832  0.917  0.096-  18 2.48  48 2.49  15 2.49  63 2.50  49 2.50   7 2.51  34 2.51  37 2.51
                            40 2.51
  47  0.833  0.916  0.383-   4 2.48  16 2.49  33 2.49  35 2.49   1 2.49   8 2.50  64 2.50  41 2.50
                            38 2.51
  48  0.666  0.833  0.192-  62 2.47  33 2.49  45 2.49  46 2.49  30 2.49   4 2.50  18 2.50  63 2.50
                            17 2.51  36 2.51  49 2.52  34 2.53
  49  0.917  0.833  0.192-  62 2.46  50 2.47  33 2.49  44 2.49   1 2.49  26 2.50  18 2.50  46 2.50
                            39 2.51  40 2.51  37 2.51  48 2.52
  50  0.162  0.082  0.191-  18 2.46   7 2.47  49 2.47   1 2.47  40 2.49  44 2.50  22 2.50   2 2.50
                            10 2.51  56 2.53   6 2.55  51 2.57
  51  0.416  0.078  0.192-  44 2.47  45 2.47   2 2.47  42 2.48  17 2.48  13 2.48   3 2.49  10 2.52
                            59 2.54   9 2.54  56 2.54  50 2.57
  52  0.250  0.500  0.289-  32 2.45  21 2.47   6 2.49  19 2.50  27 2.50  22 2.50   5 2.51  30 2.51
                            36 2.53  55 2.53  53 2.55  61 2.56
  53  0.505  0.503  0.291-  35 2.42  25 2.45  33 2.47  23 2.48  30 2.50   9 2.50  55 2.52   6 2.53
                            52 2.55  56 2.56  62 2.57  36 2.57
  54  0.331  0.417  0.096-  36 2.47  22 2.49  31 2.50   7 2.50  20 2.51  34 2.51  10 2.52  56 2.53
                            24 2.53
  55  0.333  0.417  0.387-  21 2.50  25 2.51   6 2.52  11 2.52  32 2.52   8 2.52  35 2.52  53 2.52
                            52 2.53
  56  0.416  0.331  0.193-   9 2.48   6 2.50  10 2.50  24 2.51  36 2.51  59 2.51  22 2.52  50 2.53
                            54 2.53  51 2.54  53 2.56  62 2.56
  57  0.834  0.418  0.094-  20 2.49  39 2.49  24 2.50  37 2.50  28 2.51  13 2.52  15 2.53  59 2.56
                            60 2.59
  58  0.833  0.416  0.384-  12 2.45  23 2.50  29 2.51  21 2.51  25 2.51  38 2.51  19 2.52  16 2.52
                            14 2.53
  59  0.667  0.332  0.194-   9 2.46  23 2.47  12 2.48  17 2.49  60 2.51  39 2.51  56 2.51  13 2.52
                            51 2.54  24 2.54  57 2.56  62 2.57
  60  0.914  0.327  0.194-   5 2.45  18 2.47  17 2.47  19 2.48  12 2.49  22 2.49  15 2.49  59 2.51
                            20 2.53  39 2.56  57 2.59  61 2.59
  61  0.169  0.588  0.189-  45 2.47  28 2.47  31 2.47  20 2.48  44 2.49  27 2.50  39 2.50  36 2.51
                            19 2.53  22 2.54  52 2.56  60 2.59
  62  0.670  0.589  0.190-  49 2.46  48 2.47  37 2.47  34 2.47  24 2.49  33 2.50  36 2.50  39 2.51
                            23 2.54  56 2.56  59 2.57  53 2.57
  63  0.583  0.917  0.096-  46 2.50  45 2.50  42 2.50  48 2.50  31 2.50  34 2.50  17 2.51  15 2.51
                            13 2.52
  64  0.584  0.916  0.383-   4 2.47   3 2.48  30 2.48  47 2.50  14 2.50  16 2.51  35 2.51  43 2.52
                            32 2.52
 

IMPORTANT INFORMATION: All symmetrisations will be switched off!
NOSYMM: (Re-)initialisation of all symmetry stuff for point group C_1.

 
 

Automatic generation of k-mesh.
 generate k-points for:    4    4    2
Space group operators:
 irot       det(A)        alpha          n_x          n_y          n_z        tau_x        tau_y        tau_z
    1     1.000000     0.000000     1.000000     0.000000     0.000000     0.000000     0.000000     0.000000
 
 Subroutine IBZKPT returns following result:
 ===========================================
 
 Found     20 irreducible k-points:
 
 Following reciprocal coordinates:
            Coordinates               Weight
  0.000000  0.000000  0.000000      1.000000
  0.250000  0.000000  0.000000      2.000000
  0.500000  0.000000  0.000000      1.000000
  0.000000  0.250000  0.000000      2.000000
  0.250000  0.250000  0.000000      2.000000
  0.500000  0.250000  0.000000      2.000000
 -0.250000  0.250000  0.000000      2.000000
  0.000000  0.500000  0.000000      1.000000
  0.250000  0.500000  0.000000      2.000000
  0.500000  0.500000  0.000000      1.000000
  0.000000  0.000000  0.500000      1.000000
  0.250000  0.000000  0.500000      2.000000
  0.500000  0.000000  0.500000      1.000000
  0.000000  0.250000  0.500000      2.000000
  0.250000  0.250000  0.500000      2.000000
  0.500000  0.250000  0.500000      2.000000
 -0.250000  0.250000  0.500000      2.000000
  0.000000  0.500000  0.500000      1.000000
  0.250000  0.500000  0.500000      2.000000
  0.500000  0.500000  0.500000      1.000000
 
 Following cartesian coordinates:
            Coordinates               Weight
  0.000000  0.000000  0.000000      1.000000
  0.024933  0.014395  0.000000      2.000000
  0.049867  0.028790  0.000000      1.000000
  0.000000  0.028790  0.000000      2.000000
  0.024933  0.043186  0.000000      2.000000
  0.049867  0.057581  0.000000      2.000000
 -0.024933  0.014395  0.000000      2.000000
  0.000000  0.057581  0.000000      1.000000
  0.024933  0.071976  0.000000      2.000000
  0.049867  0.086371  0.000000      1.000000
  0.000000  0.000000  0.023597      1.000000
  0.024933  0.014395  0.023597      2.000000
  0.049867  0.028790  0.023597      1.000000
  0.000000  0.028790  0.023597      2.000000
  0.024933  0.043186  0.023597      2.000000
  0.049867  0.057581  0.023597      2.000000
 -0.024933  0.014395  0.023597      2.000000
  0.000000  0.057581  0.023597      1.000000
  0.024933  0.071976  0.023597      2.000000
  0.049867  0.086371  0.023597      1.000000
 
 TETIRR: Found     96 inequivalent tetrahedra from      192


--------------------------------------------------------------------------------------------------------




 Dimension of arrays:
   k-points           NKPTS =     20   k-points in BZ     NKDIM =     20   number of bands    NBANDS=    414
   number of dos      NEDOS =    301   number of ions     NIONS =     64
   non local maximal  LDIM  =      6   non local SUM 2l+1 LMDIM =     18
   total plane-waves  NPLWV = ******
   max r-space proj   IRMAX =   8439   max aug-charges    IRDMAX=  19969
   dimension x,y,z NGX =    80 NGY =   80 NGZ =  160
   dimension x,y,z NGXF=   160 NGYF=  160 NGZF=  320
   support grid    NGXF=   160 NGYF=  160 NGZF=  320
   ions per type =              49  15
   NGX,Y,Z   is equivalent  to a cutoff of  13.26, 13.26, 12.55 a.u.
   NGXF,Y,Z  is equivalent  to a cutoff of  26.53, 26.53, 25.11 a.u.

 SYSTEM =  SQS-NiFe                                
 POSCAR =  POSCAR                                  

 Startparameter for this run:
   NWRITE =      2    write-flag & timer
   PREC   = accura    normal or accurate (medium, high low for compatibility)
   ISTART =      0    job   : 0-new  1-cont  2-samecut
   ICHARG =     11    charge: 1-file 2-atom 10-const
   ISPIN  =      2    spin polarized calculation?
   LNONCOLLINEAR =      F non collinear calculations
   LSORBIT =      F    spin-orbit coupling
   INIWAV =      1    electr: 0-lowe 1-rand  2-diag
   LASPH  =      F    aspherical Exc in radial PAW
   METAGGA=      F    non-selfconsistent MetaGGA calc.

 Electronic Relaxation 1
   ENCUT  =  520.0 eV  38.22 Ry    6.18 a.u.  18.64 18.64 39.40*2*pi/ulx,y,z
   ENINI  =  520.0     initial cutoff
   ENAUG  =  544.6 eV  augmentation charge cutoff
   NELM   =    200;   NELMIN=  2; NELMDL= -5     # of ELM steps 
   EDIFF  = 0.1E-05   stopping-criterion for ELM
   LREAL  =      T    real-space projection
   NLSPLINE    = F    spline interpolate recip. space projectors
   LCOMPAT=      F    compatible to vasp.4.4
   GGA_COMPAT  = T    GGA compatible to vasp.4.4-vasp.4.6
   LMAXPAW     = -100 max onsite density
   LMAXMIX     =    2 max onsite mixed and CHGCAR
   VOSKOWN=      0    Vosko Wilk Nusair interpolation
   ROPT   =   -0.00025  -0.00025
 Ionic relaxation
   EDIFFG = -.2E-01   stopping-criterion for IOM
   NSW    =      0    number of steps for IOM
   NBLOCK =      1;   KBLOCK =      1    inner block; outer block 
   IBRION =     -1    ionic relax: 0-MD 1-quasi-New 2-CG
   NFREE  =      0    steps in history (QN), initial steepest desc. (CG)
   ISIF   =      2    stress and relaxation
   IWAVPR =     10    prediction:  0-non 1-charg 2-wave 3-comb
   ISYM   =      0    0-nonsym 1-usesym 2-fastsym
   LCORR  =      T    Harris-Foulkes like correction to forces

   POTIM  = 0.5000    time-step for ionic-motion
   TEIN   =    0.0    initial temperature
   TEBEG  =    0.0;   TEEND  =   0.0 temperature during run
   SMASS  =  -3.00    Nose mass-parameter (am)
   estimated Nose-frequenzy (Omega)   =  0.10E-29 period in steps =****** mass=  -0.230E-26a.u.
   SCALEE = 1.0000    scale energy and forces
   NPACO  =    256;   APACO  = 16.0  distance and # of slots for P.C.
   PSTRESS=    0.0 pullay stress

  Mass of Ions in am
   POMASS =  58.69 55.85
  Ionic Valenz
   ZVAL   =  10.00  8.00
  Atomic Wigner-Seitz radii
   RWIGS  =  -1.00 -1.00
  virtual crystal weights 
   VCA    =   1.00  1.00
   NELECT =     610.0000    total number of electrons
   NUPDOWN=      -1.0000    fix difference up-down

 DOS related values:
   EMIN   =  10.00;   EMAX   =-10.00  energy-range for DOS
   EFERMI =   0.00
   ISMEAR =    -5;   SIGMA  =   0.20  broadening in eV -4-tet -1-fermi 0-gaus

 Electronic relaxation 2 (details)
   IALGO  =     68    algorithm
   LDIAG  =      T    sub-space diagonalisation (order eigenvalues)
   LSUBROT=      F    optimize rotation matrix (better conditioning)
   TURBO    =      0    0=normal 1=particle mesh
   IRESTART =      0    0=no restart 2=restart with 2 vectors
   NREBOOT  =      0    no. of reboots
   NMIN     =      0    reboot dimension
   EREF     =   0.00    reference energy to select bands
   IMIX   =      4    mixing-type and parameters
     AMIX     =   0.40;   BMIX     =  1.00
     AMIX_MAG =   1.60;   BMIX_MAG =  1.00
     AMIN     =   0.10
     WC   =   100.;   INIMIX=   1;  MIXPRE=   1;  MAXMIX= -45

 Intra band minimization:
   WEIMIN = 0.0000     energy-eigenvalue tresh-hold
   EBREAK =  0.60E-09  absolut break condition
   DEPER  =   0.30     relativ break condition  

   TIME   =   0.40     timestep for ELM

  volume/ion in A,a.u.               =      28.83       194.53
  Fermi-wavevector in a.u.,A,eV,Ry     =   1.132042  2.139249 17.436121  1.281519
  Thomas-Fermi vector in A             =   2.268742
 
 Write flags
   LWAVE        =      F    write WAVECAR
   LDOWNSAMPLE  =      F    k-point downsampling of WAVECAR
   LCHARG       =      F    write CHGCAR
   LVTOT        =      F    write LOCPOT, total local potential
   LVHAR        =      F    write LOCPOT, Hartree potential only
   LELF         =      F    write electronic localiz. function (ELF)
   LORBIT       =     11    0 simple, 1 ext, 2 COOP (PROOUT), +10 PAW based schemes


 Dipole corrections
   LMONO  =      F    monopole corrections only (constant potential shift)
   LDIPOL =      T    correct potential (dipole corrections)
   IDIPOL =      3    1-x, 2-y, 3-z, 4-all directions 
   EPSILON=  1.0000000 bulk dielectric constant

 Exchange correlation treatment:
   GGA     =    --    GGA type
   LEXCH   =     8    internal setting for exchange type
   VOSKOWN=      0    Vosko Wilk Nusair interpolation
   LHFCALC =     F    Hartree Fock is set to
   LHFONE  =     F    Hartree Fock one center treatment
   AEXX    =    0.0000 exact exchange contribution

 Linear response parameters
   LEPSILON=     F    determine dielectric tensor
   LRPA    =     F    only Hartree local field effects (RPA)
   LNABLA  =     F    use nabla operator in PAW spheres
   LVEL    =     F    velocity operator in full k-point grid
   LINTERFAST=   F  fast interpolation
   KINTER  =     0    interpolate to denser k-point grid
   CSHIFT  =0.1000    complex shift for real part using Kramers Kronig
   OMEGAMAX=  -1.0    maximum frequency
   DEG_THRESHOLD= 0.2000000E-02 threshold for treating states as degnerate
   RTIME   =   -0.100 relaxation time in fs
  (WPLASMAI=    0.000 imaginary part of plasma frequency in eV, 0.658/RTIME)
   DFIELD  = 0.0000000 0.0000000 0.0000000 field for delta impulse in time
 
 Orbital magnetization related:
   ORBITALMAG=     F  switch on orbital magnetization
   LCHIMAG   =     F  perturbation theory with respect to B field
   DQ        =  0.001000  dq finite difference perturbation B field
   LLRAUG    =     F  two centre corrections for induced B field



--------------------------------------------------------------------------------------------------------


 Static calculation
 charge density and potential remain constant during run
 spin polarized calculation
 RMM-DIIS sequential band-by-band and
  variant of blocked Davidson during initial phase
 perform sub-space diagonalisation
    before iterative eigenvector-optimisation
 no mixing
 using additional bands          109
 real space projection scheme for non local part
 use partial core corrections
 calculate Harris-corrections to forces 
   (improved forces if not selfconsistent)
 use gradient corrections 
 WARNING: stress and forces are not correct
  (second derivative of E(xc) not defined)
 use of overlap-Matrix (Vanderbilt PP)
 Fermi weights with tetrahedron method with Bloechl corrections


--------------------------------------------------------------------------------------------------------


  energy-cutoff  :      520.00
  volume of cell :     1844.87
      direct lattice vectors                 reciprocal lattice vectors
    10.026770000  0.000000000  0.000000000     0.099733015  0.057580883  0.000000000
    -5.013385000  8.683437540  0.000000000     0.000000000  0.115161766  0.000000000
     0.000000000  0.000000000 21.189179560     0.000000000  0.000000000  0.047193899

  length of vectors
    10.026770000 10.026770002 21.189179560     0.115161766  0.115161766  0.047193899


 
 k-points in units of 2pi/SCALE and weight: read from INCAR                         
   0.00000000  0.00000000  0.00000000       0.031
   0.02493325  0.01439522  0.00000000       0.062
   0.04986651  0.02879044  0.00000000       0.031
   0.00000000  0.02879044  0.00000000       0.062
   0.02493325  0.04318566  0.00000000       0.062
   0.04986651  0.05758088  0.00000000       0.062
  -0.02493325  0.01439522  0.00000000       0.062
   0.00000000  0.05758088  0.00000000       0.031
   0.02493325  0.07197610  0.00000000       0.062
   0.04986651  0.08637132  0.00000000       0.031
   0.00000000  0.00000000  0.02359695       0.031
   0.02493325  0.01439522  0.02359695       0.062
   0.04986651  0.02879044  0.02359695       0.031
   0.00000000  0.02879044  0.02359695       0.062
   0.02493325  0.04318566  0.02359695       0.062
   0.04986651  0.05758088  0.02359695       0.062
  -0.02493325  0.01439522  0.02359695       0.062
   0.00000000  0.05758088  0.02359695       0.031
   0.02493325  0.07197610  0.02359695       0.062
   0.04986651  0.08637132  0.02359695       0.031
 
 k-points in reciprocal lattice and weights: read from INCAR                         
   0.00000000  0.00000000  0.00000000       0.031
   0.25000000  0.00000000  0.00000000       0.062
   0.50000000  0.00000000  0.00000000       0.031
   0.00000000  0.25000000  0.00000000       0.062
   0.25000000  0.25000000  0.00000000       0.062
   0.50000000  0.25000000  0.00000000       0.062
  -0.25000000  0.25000000  0.00000000       0.062
   0.00000000  0.50000000  0.00000000       0.031
   0.25000000  0.50000000  0.00000000       0.062
   0.50000000  0.50000000  0.00000000       0.031
   0.00000000  0.00000000  0.50000000       0.031
   0.25000000  0.00000000  0.50000000       0.062
   0.50000000  0.00000000  0.50000000       0.031
   0.00000000  0.25000000  0.50000000       0.062
   0.25000000  0.25000000  0.50000000       0.062
   0.50000000  0.25000000  0.50000000       0.062
  -0.25000000  0.25000000  0.50000000       0.062
   0.00000000  0.50000000  0.50000000       0.031
   0.25000000  0.50000000  0.50000000       0.062
   0.50000000  0.50000000  0.50000000       0.031
 
 position of ions in fractional coordinates (direct lattice) 
   0.00072815  0.00110125  0.28770147
   0.25088737  0.00172871  0.28686513
   0.49957130  0.99942970  0.28869328
   0.74881921  0.99936863  0.28847241
   0.00000202  0.24964383  0.28858645
   0.25146814  0.25248466  0.28909481
   0.08288200  0.16633200  0.09567643
   0.08181352  0.16565754  0.38326043
   0.50045141  0.25078939  0.28829107
   0.33293900  0.16685800  0.09574221
   0.33338363  0.16601675  0.38246619
   0.75054107  0.25158483  0.29021856
   0.58230700  0.16720100  0.09670311
   0.58066631  0.16433569  0.38372142
   0.83403200  0.16672400  0.09645071
   0.83491639  0.16524186  0.38334221
   0.66558100  0.08305500  0.19258252
   0.91639700  0.08203100  0.19204933
   0.00119720  0.50071651  0.28685804
   0.08092200  0.41609700  0.09594766
   0.08320722  0.41485200  0.38304061
   0.16611800  0.33395200  0.19207541
   0.75171707  0.50175752  0.28778736
   0.58357300  0.41617200  0.09593346
   0.58221613  0.41459128  0.38432912
   0.00125454  0.75154366  0.28831387
   0.24933650  0.74915958  0.28711970
   0.08375800  0.66810400  0.09479725
   0.08314218  0.66642538  0.38191469
   0.50010953  0.74960967  0.28836950
   0.33297400  0.66727700  0.09438780
   0.33111036  0.66661682  0.38221988
   0.75078076  0.75024851  0.28763850
   0.58298100  0.66668200  0.09450950
   0.58569293  0.66704488  0.38321334
   0.41661000  0.58200200  0.19081663
   0.83395900  0.66770600  0.09497894
   0.83360493  0.66684022  0.38243035
   0.91708300  0.58323900  0.19079431
   0.08291700  0.91685800  0.09518613
   0.08288266  0.91713884  0.38219339
   0.33420600  0.91705400  0.09538173
   0.33256195  0.91584539  0.38243669
   0.16670900  0.83524200  0.19136546
   0.41703500  0.83214900  0.19205861
   0.83233100  0.91715000  0.09633654
   0.83316701  0.91645368  0.38321989
   0.66623900  0.83337000  0.19234085
   0.91705900  0.83319500  0.19216177
   0.16168500  0.08211500  0.19130606
   0.41607500  0.07807100  0.19177260
   0.24963826  0.49980291  0.28871465
   0.50520421  0.50268721  0.29087731
   0.33134100  0.41714300  0.09577612
   0.33316698  0.41663164  0.38691571
   0.41638400  0.33144300  0.19252196
   0.83354800  0.41839000  0.09448777
   0.83340103  0.41599012  0.38391818
   0.66732400  0.33240600  0.19435479
   0.91446400  0.32695500  0.19396504
   0.16914200  0.58833400  0.18947786
   0.66961600  0.58928900  0.18986007
   0.58310400  0.91651500  0.09583494
   0.58399433  0.91624227  0.38334752
 
 position of ions in cartesian coordinates  (Angst):
   0.00178003  0.00956267  6.09615801
   2.50692323  0.01501118  6.07843668
  -0.00143936  8.67848534  6.11717372
   2.49801826  8.67795508  6.11249377
  -1.25154034  2.16776658  6.11491017
   1.25561043  2.19243478  6.12568187
  -0.00284760  1.44433353  2.02730505
  -0.01017966  1.43847692  8.12097411
   3.76060743  2.17771401  6.10865118
   2.50177938  1.44890102  2.02869888
   2.51045509  1.44159611  8.10414480
   6.26421108  2.18462119  6.14949326
   5.00041537  1.45187944  2.04905956
   4.99832945  1.42699871  8.13074201
   7.52679544  1.44773744  2.04371141
   7.54309355  1.43486737  8.12270700
   6.25724091  0.72120290  4.08066560
   8.77724896  0.71231106  4.06936774
  -2.49828061  4.34794056  6.07828650
  -1.27466818  3.61315231  2.03305220
  -1.24551318  3.60234145  8.11631635
  -0.00860297  2.89985133  4.06992035
   5.02179056  4.35698006  6.09797802
   3.76492179  3.61380357  2.03275131
   3.75924153  3.60007753  8.14361866
  -3.75519871  6.52598245  6.10913442
  -1.25578566  6.50528046  6.08383098
  -2.50964037  5.80143935  2.00867595
  -2.50739948  5.78686315  8.09245890
   1.25640137  6.50918874  6.11031311
  -0.00666279  5.79425815  2.00000004
  -0.02203931  5.78852550  8.09892574
   3.76662141  6.51473609  6.09482387
   2.50308286  5.78909151  2.00257877
   2.52845551  5.79224258  8.11997628
   1.25945255  5.05377802  4.04324784
   5.01444784  5.79798335  2.01252581
   5.01523812  5.79046544  8.10338536
   6.27137866  5.06451943  4.04277489
  -3.76517246  7.96147918  2.01691600
  -3.76692473  7.96391780  8.09836432
  -1.24653807  7.96318113  2.02106060
  -1.25696339  7.95268626  8.10351960
  -2.51583691  7.25277174  4.05487709
   0.00963071  7.22591387  4.06956437
   3.74756545  7.96401474  2.04129224
   3.75943885  7.95796830  8.12011505
   2.50222056  7.23651634  4.07554481
   5.01801235  7.23499674  4.07175025
   1.20950420  0.71304047  4.05361846
   3.78048835  0.67792465  4.06350406
  -0.00263900  4.34000733  6.11762649
   2.54540194  4.36505298  6.16345148
   1.23098154  3.62223519  2.02941740
   1.25185391  3.61779484  8.19842649
   2.51333524  2.87806459  4.07938238
   6.26024393  3.63306343  2.00211832
   6.27080181  3.61222424  8.13491125
   5.02462501  2.88642674  4.11821854
   7.52996891  2.83909332  4.10996006
  -1.25359692  5.10876154  4.01488040
   3.75975299  5.11705422  4.02297911
   1.25180714  7.95850076  2.03066375
   1.26210161  7.95613254  8.12281938
 


--------------------------------------------------------------------------------------------------------


 k-point  1 :   0.0000 0.0000 0.0000  plane waves:   49741
 k-point  2 :   0.2500 0.0000 0.0000  plane waves:   49710
 k-point  3 :   0.5000 0.0000 0.0000  plane waves:   49654
 k-point  4 :   0.0000 0.2500 0.0000  plane waves:   49710
 k-point  5 :   0.2500 0.2500 0.0000  plane waves:   49671
 k-point  6 :   0.5000 0.2500 0.0000  plane waves:   49671
 k-point  7 :  -0.2500 0.2500 0.0000  plane waves:   49710
 k-point  8 :   0.0000 0.5000 0.0000  plane waves:   49654
 k-point  9 :   0.2500 0.5000 0.0000  plane waves:   49671
 k-point 10 :   0.5000 0.5000 0.0000  plane waves:   49654
 k-point 11 :   0.0000 0.0000 0.5000  plane waves:   49782
 k-point 12 :   0.2500 0.0000 0.5000  plane waves:   49684
 k-point 13 :   0.5000 0.0000 0.5000  plane waves:   49664
 k-point 14 :   0.0000 0.2500 0.5000  plane waves:   49684
 k-point 15 :   0.2500 0.2500 0.5000  plane waves:   49684
 k-point 16 :   0.5000 0.2500 0.5000  plane waves:   49684
 k-point 17 :  -0.2500 0.2500 0.5000  plane waves:   49684
 k-point 18 :   0.0000 0.5000 0.5000  plane waves:   49664
 k-point 19 :   0.2500 0.5000 0.5000  plane waves:   49684
 k-point 20 :   0.5000 0.5000 0.5000  plane waves:   49664

 maximum and minimum number of plane-waves per node :      2119     2042

 maximum number of plane-waves:     49782
 maximum index in each direction: 
   IXMAX=   18   IYMAX=   18   IZMAX=   39
   IXMIN=  -19   IYMIN=  -19   IZMIN=  -39


 real space projection operators:
  total allocation   :      64108.27 KBytes
  max/ min on nodes  :       3239.02       2344.22


 parallel 3D FFT for wavefunctions:
    minimum data exchange during FFTs selected (reduces bandwidth)
 parallel 3D FFT for charge:
    minimum data exchange during FFTs selected (reduces bandwidth)


 total amount of memory used by VASP MPI-rank0   254456. kBytes
=======================================================================

   base      :      30000. kBytes
   nonlr-proj:      13119. kBytes
   fftplans  :       6403. kBytes
   grid      :      16455. kBytes
   one-center:         93. kBytes
   wavefun   :     188386. kBytes
 
     INWAV:  cpu time    0.0000: real time    0.0002
 initial charge density was supplied:
 number of electron     610.0000107 magnetization      73.8992170
 keeping initial charge density in first step


--------------------------------------------------------------------------------------------------------


 Maximum index for non-local projection operator          764
 Maximum index for augmentation-charges         1117 (set IRDMAX)


--------------------------------------------------------------------------------------------------------


 First call to EWALD:  gamma=   0.145
 Maximum number of real-space cells 4x 4x 2
 Maximum number of reciprocal cells 2x 2x 4

    FEWALD:  cpu time    0.0040: real time    0.0041


--------------------------------------- Iteration      1(   1)  ---------------------------------------


    POTLOK:  cpu time    0.2490: real time    0.2519
    SETDIJ:  cpu time    0.0170: real time    0.0196
     EDDAV:  cpu time  100.0548: real time  101.0250
 BZINTS: Fermi energy: 11.419758;610.000000 electrons
         Band energy:3811.283547;  BLOECHL correction: -0.018324
       DOS:  cpu time    0.1960: real time    0.1966
    --------------------------------------------
      LOOP:  cpu time  100.5167: real time  101.4931

 eigenvalue-minimisations  : 33120
 total energy-change (2. order) : 0.4621786E+04  (-0.2671683E+05)
 number of electron     610.0000107 magnetization      73.8992170
 augmentation part      610.0000107 magnetization      73.8992170

 DIPCOR: dipole corrections for dipol
 direction  3 min pos   248,
 dipolmoment           0.000000      0.000000      0.009041 electrons x Angstroem
 Tr[quadrupol]     -9970.290537

 energy correction for charged system         0.000000 eV
 dipol+quadrupol energy correction           -0.000004 eV
 added-field ion interaction          0.359608 eV  (added to PSCEN)


 Free energy of the ion-electron system (eV)
  ---------------------------------------------------
  alpha Z        PSCENC =      1255.11196642
  Ewald energy   TEWEN  =    213907.57603660
  -Hartree energ DENC   =   -274150.56906982
  -exchange      EXHF   =         0.00000000
  -V(xc)+E(xc)   XCENC  =      1565.47748454
  PAW double counting   =     65355.47764915   -68843.13735549
  entropy T*S    EENTRO =         0.00000000
  eigenvalues    EBANDS =      3811.28354685
  atomic energy  EATOM  =     61720.56526127
  Solvation  Ediel_sol  =         0.00000000
  ---------------------------------------------------
  free energy    TOTEN  =      4621.78551953 eV

  energy without entropy =     4621.78551953  energy(sigma->0) =     4621.78551953


--------------------------------------------------------------------------------------------------------




--------------------------------------- Iteration      1(   2)  ---------------------------------------


     EDDAV:  cpu time   99.7578: real time  100.0495
 BZINTS: Fermi energy:  1.550959;610.000000 electrons
         Band energy:-727.586003;  BLOECHL correction: -0.006214
       DOS:  cpu time    0.2000: real time    0.1995
    --------------------------------------------
      LOOP:  cpu time   99.9578: real time  100.2490

 eigenvalue-minimisations  : 33120
 total energy-change (2. order) :-0.4538870E+04  (-0.4273959E+04)
 number of electron     610.0000107 magnetization      73.8992170
 augmentation part      610.0000107 magnetization      73.8992170

 DIPCOR: dipole corrections for dipol
 direction  3 min pos   248,
 dipolmoment           0.000000      0.000000      0.009041 electrons x Angstroem
 Tr[quadrupol]     -9970.290537

 energy correction for charged system         0.000000 eV
 dipol+quadrupol energy correction           -0.000004 eV
 added-field ion interaction          0.359608 eV  (added to PSCEN)


 Free energy of the ion-electron system (eV)
  ---------------------------------------------------
  alpha Z        PSCENC =      1255.11196642
  Ewald energy   TEWEN  =    213907.57603660
  -Hartree energ DENC   =   -274150.56906982
  -exchange      EXHF   =         0.00000000
  -V(xc)+E(xc)   XCENC  =      1565.47748454
  PAW double counting   =     65355.47764915   -68843.13735549
  entropy T*S    EENTRO =         0.00000000
  eigenvalues    EBANDS =      -727.58600345
  atomic energy  EATOM  =     61720.56526127
  Solvation  Ediel_sol  =         0.00000000
  ---------------------------------------------------
  free energy    TOTEN  =        82.91596922 eV

  energy without entropy =       82.91596922  energy(sigma->0) =       82.91596922


--------------------------------------------------------------------------------------------------------




--------------------------------------- Iteration      1(   3)  ---------------------------------------


     EDDAV:  cpu time  101.8295: real time  102.1473
 BZINTS: Fermi energy:  0.321797;610.000000 electrons
         Band energy:***********;  BLOECHL correction: -0.119987
       DOS:  cpu time    0.1930: real time    0.1931
    --------------------------------------------
      LOOP:  cpu time  102.0225: real time  102.3403

 eigenvalue-minimisations  : 34083
 total energy-change (2. order) :-0.4370195E+03  (-0.3762941E+03)
 number of electron     610.0000107 magnetization      73.8992170
 augmentation part      610.0000107 magnetization      73.8992170

 DIPCOR: dipole corrections for dipol
 direction  3 min pos   248,
 dipolmoment           0.000000      0.000000      0.009041 electrons x Angstroem
 Tr[quadrupol]     -9970.290537

 energy correction for charged system         0.000000 eV
 dipol+quadrupol energy correction           -0.000004 eV
 added-field ion interaction          0.359608 eV  (added to PSCEN)


 Free energy of the ion-electron system (eV)
  ---------------------------------------------------
  alpha Z        PSCENC =      1255.11196642
  Ewald energy   TEWEN  =    213907.57603660
  -Hartree energ DENC   =   -274150.56906982
  -exchange      EXHF   =         0.00000000
  -V(xc)+E(xc)   XCENC  =      1565.47748454
  PAW double counting   =     65355.47764915   -68843.13735549
  entropy T*S    EENTRO =         0.00000000
  eigenvalues    EBANDS =     -1164.60545694
  atomic energy  EATOM  =     61720.56526127
  Solvation  Ediel_sol  =         0.00000000
  ---------------------------------------------------
  free energy    TOTEN  =      -354.10348426 eV

  energy without entropy =     -354.10348426  energy(sigma->0) =     -354.10348426


--------------------------------------------------------------------------------------------------------




--------------------------------------- Iteration      1(   4)  ---------------------------------------


     EDDAV:  cpu time  103.1993: real time  103.4212
 BZINTS: Fermi energy:  0.289750;610.000000 electrons
         Band energy:***********;  BLOECHL correction: -0.120531
       DOS:  cpu time    0.1850: real time    0.1857
    --------------------------------------------
      LOOP:  cpu time  103.3843: real time  103.6069

 eigenvalue-minimisations  : 35352
 total energy-change (2. order) :-0.1852035E+02  (-0.1815813E+02)
 number of electron     610.0000107 magnetization      73.8992170
 augmentation part      610.0000107 magnetization      73.8992170

 DIPCOR: dipole corrections for dipol
 direction  3 min pos   248,
 dipolmoment           0.000000      0.000000      0.009041 electrons x Angstroem
 Tr[quadrupol]     -9970.290537

 energy correction for charged system         0.000000 eV
 dipol+quadrupol energy correction           -0.000004 eV
 added-field ion interaction          0.359608 eV  (added to PSCEN)


 Free energy of the ion-electron system (eV)
  ---------------------------------------------------
  alpha Z        PSCENC =      1255.11196642
  Ewald energy   TEWEN  =    213907.57603660
  -Hartree energ DENC   =   -274150.56906982
  -exchange      EXHF   =         0.00000000
  -V(xc)+E(xc)   XCENC  =      1565.47748454
  PAW double counting   =     65355.47764915   -68843.13735549
  entropy T*S    EENTRO =         0.00000000
  eigenvalues    EBANDS =     -1183.12580540
  atomic energy  EATOM  =     61720.56526127
  Solvation  Ediel_sol  =         0.00000000
  ---------------------------------------------------
  free energy    TOTEN  =      -372.62383272 eV

  energy without entropy =     -372.62383272  energy(sigma->0) =     -372.62383272


--------------------------------------------------------------------------------------------------------




--------------------------------------- Iteration      1(   5)  ---------------------------------------


     EDDAV:  cpu time  112.2849: real time  112.4740
 BZINTS: Fermi energy:  0.289289;610.000000 electrons
         Band energy:***********;  BLOECHL correction: -0.120572
       DOS:  cpu time    0.1870: real time    0.1855
    --------------------------------------------
      LOOP:  cpu time  112.4719: real time  112.6595

 eigenvalue-minimisations  : 39330
 total energy-change (2. order) :-0.3614798E+00  (-0.3612139E+00)
 number of electron     610.0000107 magnetization      73.8992170
 augmentation part      610.0000107 magnetization      73.8992170

 DIPCOR: dipole corrections for dipol
 direction  3 min pos   248,
 dipolmoment           0.000000      0.000000      0.009041 electrons x Angstroem
 Tr[quadrupol]     -9970.290537

 energy correction for charged system         0.000000 eV
 dipol+quadrupol energy correction           -0.000004 eV
 added-field ion interaction          0.359608 eV  (added to PSCEN)


 Free energy of the ion-electron system (eV)
  ---------------------------------------------------
  alpha Z        PSCENC =      1255.11196642
  Ewald energy   TEWEN  =    213907.57603660
  -Hartree energ DENC   =   -274150.56906982
  -exchange      EXHF   =         0.00000000
  -V(xc)+E(xc)   XCENC  =      1565.47748454
  PAW double counting   =     65355.47764915   -68843.13735549
  entropy T*S    EENTRO =         0.00000000
  eigenvalues    EBANDS =     -1183.48728521
  atomic energy  EATOM  =     61720.56526127
  Solvation  Ediel_sol  =         0.00000000
  ---------------------------------------------------
  free energy    TOTEN  =      -372.98531253 eV

  energy without entropy =     -372.98531253  energy(sigma->0) =     -372.98531253


--------------------------------------------------------------------------------------------------------




--------------------------------------- Iteration      1(   6)  ---------------------------------------


    EDDIAG:  cpu time   14.8797: real time   14.8916
  RMM-DIIS:  cpu time   63.1284: real time   63.2593
    ORTHCH:  cpu time    2.6376: real time    2.6441
 BZINTS: Fermi energy:  0.289263;610.000000 electrons
         Band energy:***********;  BLOECHL correction: -0.120566
       DOS:  cpu time    0.1940: real time    0.1939
    --------------------------------------------
      LOOP:  cpu time   80.8397: real time   80.9889

 eigenvalue-minimisations  : 34459
 total energy-change (2. order) :-0.1229097E-01  (-0.1228507E-01)
 number of electron     610.0000107 magnetization      73.8992170
 augmentation part      610.0000107 magnetization      73.8992170

 DIPCOR: dipole corrections for dipol
 direction  3 min pos   248,
 dipolmoment           0.000000      0.000000      0.009041 electrons x Angstroem
 Tr[quadrupol]     -9970.290537

 energy correction for charged system         0.000000 eV
 dipol+quadrupol energy correction           -0.000004 eV
 added-field ion interaction          0.359608 eV  (added to PSCEN)


 Free energy of the ion-electron system (eV)
  ---------------------------------------------------
  alpha Z        PSCENC =      1255.11196642
  Ewald energy   TEWEN  =    213907.57603660
  -Hartree energ DENC   =   -274150.56906982
  -exchange      EXHF   =         0.00000000
  -V(xc)+E(xc)   XCENC  =      1565.47748454
  PAW double counting   =     65355.47764915   -68843.13735549
  entropy T*S    EENTRO =         0.00000000
  eigenvalues    EBANDS =     -1183.49957618
  atomic energy  EATOM  =     61720.56526127
  Solvation  Ediel_sol  =         0.00000000
  ---------------------------------------------------
  free energy    TOTEN  =      -372.99760350 eV

  energy without entropy =     -372.99760350  energy(sigma->0) =     -372.99760350


--------------------------------------------------------------------------------------------------------




--------------------------------------- Iteration      1(   7)  ---------------------------------------


    EDDIAG:  cpu time   15.0197: real time   15.0531
  RMM-DIIS:  cpu time   90.8892: real time   91.1754
    ORTHCH:  cpu time    2.6126: real time    2.6194
 BZINTS: Fermi energy:  0.289256;610.000000 electrons
         Band energy:***********;  BLOECHL correction: -0.120563
       DOS:  cpu time    0.1860: real time    0.1865
    --------------------------------------------
      LOOP:  cpu time  108.7075: real time  109.0344

 eigenvalue-minimisations  : 50572
 total energy-change (2. order) :-0.3843123E-02  (-0.3833251E-02)
 number of electron     610.0000107 magnetization      73.8992170
 augmentation part      610.0000107 magnetization      73.8992170

 DIPCOR: dipole corrections for dipol
 direction  3 min pos   248,
 dipolmoment           0.000000      0.000000      0.009041 electrons x Angstroem
 Tr[quadrupol]     -9970.290537

 energy correction for charged system         0.000000 eV
 dipol+quadrupol energy correction           -0.000004 eV
 added-field ion interaction          0.359608 eV  (added to PSCEN)


 Free energy of the ion-electron system (eV)
  ---------------------------------------------------
  alpha Z        PSCENC =      1255.11196642
  Ewald energy   TEWEN  =    213907.57603660
  -Hartree energ DENC   =   -274150.56906982
  -exchange      EXHF   =         0.00000000
  -V(xc)+E(xc)   XCENC  =      1565.47748454
  PAW double counting   =     65355.47764915   -68843.13735549
  entropy T*S    EENTRO =         0.00000000
  eigenvalues    EBANDS =     -1183.50341930
  atomic energy  EATOM  =     61720.56526127
  Solvation  Ediel_sol  =         0.00000000
  ---------------------------------------------------
  free energy    TOTEN  =      -373.00144662 eV

  energy without entropy =     -373.00144662  energy(sigma->0) =     -373.00144662


--------------------------------------------------------------------------------------------------------




--------------------------------------- Iteration      1(   8)  ---------------------------------------


    EDDIAG:  cpu time   15.2017: real time   15.2259
  RMM-DIIS:  cpu time   80.7937: real time   80.9348
    ORTHCH:  cpu time    2.5896: real time    2.5911
 BZINTS: Fermi energy:  0.289256;610.000000 electrons
         Band energy:***********;  BLOECHL correction: -0.120563
       DOS:  cpu time    0.1910: real time    0.1906
    --------------------------------------------
      LOOP:  cpu time   98.7760: real time   98.9425

 eigenvalue-minimisations  : 45335
 total energy-change (2. order) :-0.9201583E-04  (-0.1009017E-03)
 number of electron     610.0000107 magnetization      73.8992170
 augmentation part      610.0000107 magnetization      73.8992170

 DIPCOR: dipole corrections for dipol
 direction  3 min pos   248,
 dipolmoment           0.000000      0.000000      0.009041 electrons x Angstroem
 Tr[quadrupol]     -9970.290537

 energy correction for charged system         0.000000 eV
 dipol+quadrupol energy correction           -0.000004 eV
 added-field ion interaction          0.359608 eV  (added to PSCEN)


 Free energy of the ion-electron system (eV)
  ---------------------------------------------------
  alpha Z        PSCENC =      1255.11196642
  Ewald energy   TEWEN  =    213907.57603660
  -Hartree energ DENC   =   -274150.56906982
  -exchange      EXHF   =         0.00000000
  -V(xc)+E(xc)   XCENC  =      1565.47748454
  PAW double counting   =     65355.47764915   -68843.13735549
  entropy T*S    EENTRO =         0.00000000
  eigenvalues    EBANDS =     -1183.50351132
  atomic energy  EATOM  =     61720.56526127
  Solvation  Ediel_sol  =         0.00000000
  ---------------------------------------------------
  free energy    TOTEN  =      -373.00153864 eV

  energy without entropy =     -373.00153864  energy(sigma->0) =     -373.00153864


--------------------------------------------------------------------------------------------------------




--------------------------------------- Iteration      1(   9)  ---------------------------------------


    EDDIAG:  cpu time   15.4587: real time   15.4733
  RMM-DIIS:  cpu time   67.1938: real time   67.2952
    ORTHCH:  cpu time    2.5996: real time    2.6020
 BZINTS: Fermi energy:  0.289256;610.000000 electrons
         Band energy:***********;  BLOECHL correction: -0.120563
       DOS:  cpu time    0.1910: real time    0.1910
    --------------------------------------------
      LOOP:  cpu time   85.4430: real time   85.5616

 eigenvalue-minimisations  : 36424
 total energy-change (2. order) :-0.1906982E-04  (-0.1866801E-04)
 number of electron     610.0000107 magnetization      73.8992170
 augmentation part      610.0000107 magnetization      73.8992170

 DIPCOR: dipole corrections for dipol
 direction  3 min pos   248,
 dipolmoment           0.000000      0.000000      0.009041 electrons x Angstroem
 Tr[quadrupol]     -9970.290537

 energy correction for charged system         0.000000 eV
 dipol+quadrupol energy correction           -0.000004 eV
 added-field ion interaction          0.359608 eV  (added to PSCEN)


 Free energy of the ion-electron system (eV)
  ---------------------------------------------------
  alpha Z        PSCENC =      1255.11196642
  Ewald energy   TEWEN  =    213907.57603660
  -Hartree energ DENC   =   -274150.56906982
  -exchange      EXHF   =         0.00000000
  -V(xc)+E(xc)   XCENC  =      1565.47748454
  PAW double counting   =     65355.47764915   -68843.13735549
  entropy T*S    EENTRO =         0.00000000
  eigenvalues    EBANDS =     -1183.50353039
  atomic energy  EATOM  =     61720.56526127
  Solvation  Ediel_sol  =         0.00000000
  ---------------------------------------------------
  free energy    TOTEN  =      -373.00155771 eV

  energy without entropy =     -373.00155771  energy(sigma->0) =     -373.00155771


--------------------------------------------------------------------------------------------------------




--------------------------------------- Iteration      1(  10)  ---------------------------------------


    EDDIAG:  cpu time   15.0447: real time   15.0604
  RMM-DIIS:  cpu time   44.6692: real time   44.9528
    ORTHCH:  cpu time    2.5866: real time    2.5896
 BZINTS: Fermi energy:  0.289256;610.000000 electrons
         Band energy:***********;  BLOECHL correction: -0.120563
       DOS:  cpu time    0.1900: real time    0.1905
    --------------------------------------------
      LOOP:  cpu time   62.4905: real time   62.7932

 eigenvalue-minimisations  : 23456
 total energy-change (2. order) :-0.2103625E-05  (-0.1794303E-05)
 number of electron     610.0000107 magnetization      73.8992170
 augmentation part      610.0000107 magnetization      73.8992170

 DIPCOR: dipole corrections for dipol
 direction  3 min pos   248,
 dipolmoment           0.000000      0.000000      0.009041 electrons x Angstroem
 Tr[quadrupol]     -9970.290537

 energy correction for charged system         0.000000 eV
 dipol+quadrupol energy correction           -0.000004 eV
 added-field ion interaction          0.359608 eV  (added to PSCEN)


 Free energy of the ion-electron system (eV)
  ---------------------------------------------------
  alpha Z        PSCENC =      1255.11196642
  Ewald energy   TEWEN  =    213907.57603660
  -Hartree energ DENC   =   -274150.56906982
  -exchange      EXHF   =         0.00000000
  -V(xc)+E(xc)   XCENC  =      1565.47748454
  PAW double counting   =     65355.47764915   -68843.13735549
  entropy T*S    EENTRO =         0.00000000
  eigenvalues    EBANDS =     -1183.50353249
  atomic energy  EATOM  =     61720.56526127
  Solvation  Ediel_sol  =         0.00000000
  ---------------------------------------------------
  free energy    TOTEN  =      -373.00155981 eV

  energy without entropy =     -373.00155981  energy(sigma->0) =     -373.00155981


--------------------------------------------------------------------------------------------------------




--------------------------------------- Iteration      1(  11)  ---------------------------------------


    EDDIAG:  cpu time   14.9457: real time   14.9684
  RMM-DIIS:  cpu time   40.8238: real time   40.9177
    ORTHCH:  cpu time    2.5986: real time    2.6019
 BZINTS: Fermi energy:  0.289256;610.000000 electrons
         Band energy:***********;  BLOECHL correction: -0.120563
       DOS:  cpu time    0.1880: real time    0.1878
    --------------------------------------------
      LOOP:  cpu time   58.5561: real time   58.6758

 eigenvalue-minimisations  : 21426
 total energy-change (2. order) :-0.6250339E-06  (-0.5701004E-06)
 number of electron     610.0000107 magnetization      73.8992170
 augmentation part      610.0000107 magnetization      73.8992170

 DIPCOR: dipole corrections for dipol
 direction  3 min pos   248,
 dipolmoment           0.000000      0.000000      0.009041 electrons x Angstroem
 Tr[quadrupol]     -9970.290537

 energy correction for charged system         0.000000 eV
 dipol+quadrupol energy correction           -0.000004 eV
 added-field ion interaction          0.359608 eV  (added to PSCEN)


 Free energy of the ion-electron system (eV)
  ---------------------------------------------------
  alpha Z        PSCENC =      1255.11196642
  Ewald energy   TEWEN  =    213907.57603660
  -Hartree energ DENC   =   -274150.56906982
  -exchange      EXHF   =         0.00000000
  -V(xc)+E(xc)   XCENC  =      1565.47748454
  PAW double counting   =     65355.47764915   -68843.13735549
  entropy T*S    EENTRO =         0.00000000
  eigenvalues    EBANDS =     -1183.50353312
  atomic energy  EATOM  =     61720.56526127
  Solvation  Ediel_sol  =         0.00000000
  ---------------------------------------------------
  free energy    TOTEN  =      -373.00156044 eV

  energy without entropy =     -373.00156044  energy(sigma->0) =     -373.00156044


--------------------------------------------------------------------------------------------------------




 average (electrostatic) potential at core
  the test charge radii are     0.9791  1.0103
  (the norm of the test charge is              1.0000)
       1 -91.0420       2 -91.0205       3 -91.1116       4 -91.0856       5 -91.0952
       6 -91.1708       7 -90.7907       8 -90.7954       9 -91.1213      10 -90.9216
      11 -90.8294      12 -91.1003      13 -90.9121      14 -90.8096      15 -90.8569
      16 -90.8388      17 -91.0903      18 -91.0244      19 -91.1165      20 -90.9315
      21 -90.8867      22 -91.1624      23 -91.1205      24 -90.9553      25 -90.8747
      26 -91.1225      27 -91.0939      28 -90.8635      29 -90.8360      30 -91.1420
      31 -90.8578      32 -90.8875      33 -91.1029      34 -90.8384      35 -90.9089
      36 -91.1218      37 -90.8533      38 -90.8368      39 -91.1747      40 -90.8056
      41 -90.7972      42 -90.8161      43 -90.8111      44 -91.1034      45 -91.1020
      46 -90.8294      47 -90.7892      48 -91.0973      49 -91.0692      50 -49.3487
      51 -49.2582      52 -49.2530      53 -49.2176      54 -49.3396      55 -49.3201
      56 -49.0856      57 -49.3471      58 -49.5098      59 -49.1080      60 -49.2635
      61 -49.4123      62 -49.3431      63 -49.4374      64 -49.4809
 
 
 
 E-fermi :   0.2893     XC(G=0):  -5.9468     alpha+bet : -6.0170


 spin component 1

 k-point     1 :       0.0000    0.0000    0.0000
  band No.  band energies     occupation 
      1      -8.1909      1.00000
      2      -6.8784      1.00000
      3      -6.2936      1.00000
      4      -6.2860      1.00000
      5      -6.2796      1.00000
      6      -6.2553      1.00000
      7      -6.2493      1.00000
      8      -6.2247      1.00000
      9      -5.2995      1.00000
     10      -5.2201      1.00000
     11      -5.2143      1.00000
     12      -5.2058      1.00000
     13      -5.1947      1.00000
     14      -5.1886      1.00000
     15      -5.1701      1.00000
     16      -4.7223      1.00000
     17      -4.5469      1.00000
     18      -4.5173      1.00000
     19      -4.4959      1.00000
     20      -4.4651      1.00000
     21      -4.4198      1.00000
     22      -4.4165      1.00000
     23      -4.1734      1.00000
     24      -4.1296      1.00000
     25      -4.1198      1.00000
     26      -4.0943      1.00000
     27      -4.0739      1.00000
     28      -4.0660      1.00000
     29      -4.0456      1.00000
     30      -4.0339      1.00000
     31      -4.0232      1.00000
     32      -4.0210      1.00000
     33      -4.0010      1.00000
     34      -3.9887      1.00000
     35      -3.9808      1.00000
     36      -3.9727      1.00000
     37      -3.9498      1.00000
     38      -3.9185      1.00000
     39      -3.9166      1.00000
     40      -3.9024      1.00000
     41      -3.8856      1.00000
     42      -3.8570      1.00000
     43      -3.8503      1.00000
     44      -3.8278      1.00000
     45      -3.8186      1.00000
     46      -3.8007      1.00000
     47      -3.7966      1.00000
     48      -3.7732      1.00000
     49      -3.7622      1.00000
     50      -3.7550      1.00000
     51      -3.7377      1.00000
     52      -3.7253      1.00000
     53      -3.7148      1.00000
     54      -3.6998      1.00000
     55      -3.6692      1.00000
     56      -3.6550      1.00000
     57      -3.6427      1.00000
     58      -3.6353      1.00000
     59      -3.6143      1.00000
     60      -3.5861      1.00000
     61      -3.5565      1.00000
     62      -3.4812      1.00000
     63      -3.4502      1.00000
     64      -3.4394      1.00000
     65      -3.4209      1.00000
     66      -3.3925      1.00000
     67      -3.3798      1.00000
     68      -3.3638      1.00000
     69      -3.3256      1.00000
     70      -3.3046      1.00000
     71      -3.2949      1.00000
     72      -3.2705      1.00000
     73      -3.2536      1.00000
     74      -3.2432      1.00000
     75      -3.2417      1.00000
     76      -3.2236      1.00000
     77      -3.2098      1.00000
     78      -3.2024      1.00000
     79      -3.1978      1.00000
     80      -3.1835      1.00000
     81      -3.1633      1.00000
     82      -3.1617      1.00000
     83      -3.0935      1.00000
     84      -3.0595      1.00000
     85      -3.0507      1.00000
     86      -3.0362      1.00000
     87      -3.0055      1.00000
     88      -2.9921      1.00000
     89      -2.9885      1.00000
     90      -2.9422      1.00000
     91      -2.9178      1.00000
     92      -2.9119      1.00000
     93      -2.9082      1.00000
     94      -2.8859      1.00000
     95      -2.8840      1.00000
     96      -2.8753      1.00000
     97      -2.8381      1.00000
     98      -2.8242      1.00000
     99      -2.8173      1.00000
    100      -2.7940      1.00000
    101      -2.7817      1.00000
    102      -2.7791      1.00000
    103      -2.7635      1.00000
    104      -2.7529      1.00000
    105      -2.7253      1.00000
    106      -2.7197      1.00000
    107      -2.6998      1.00000
    108      -2.6864      1.00000
    109      -2.6639      1.00000
    110      -2.6462      1.00000
    111      -2.6165      1.00000
    112      -2.5948      1.00000
    113      -2.5866      1.00000
    114      -2.5721      1.00000
    115      -2.5549      1.00000
    116      -2.5366      1.00000
    117      -2.5342      1.00000
    118      -2.4835      1.00000
    119      -2.4774      1.00000
    120      -2.4744      1.00000
    121      -2.4527      1.00000
    122      -2.4414      1.00000
    123      -2.4338      1.00000
    124      -2.4199      1.00000
    125      -2.4037      1.00000
    126      -2.3943      1.00000
    127      -2.3874      1.00000
    128      -2.3722      1.00000
    129      -2.3492      1.00000
    130      -2.3342      1.00000
    131      -2.3183      1.00000
    132      -2.2951      1.00000
    133      -2.2907      1.00000
    134      -2.2796      1.00000
    135      -2.2569      1.00000
    136      -2.2546      1.00000
    137      -2.2368      1.00000
    138      -2.2232      1.00000
    139      -2.2210      1.00000
    140      -2.2109      1.00000
    141      -2.2050      1.00000
    142      -2.1981      1.00000
    143      -2.1888      1.00000
    144      -2.1854      1.00000
    145      -2.1645      1.00000
    146      -2.1579      1.00000
    147      -2.1504      1.00000
    148      -2.1482      1.00000
    149      -2.1362      1.00000
    150      -2.1176      1.00000
    151      -2.1130      1.00000
    152      -2.1030      1.00000
    153      -2.0990      1.00000
    154      -2.0778      1.00000
    155      -2.0609      1.00000
    156      -2.0561      1.00000
    157      -2.0457      1.00000
    158      -2.0407      1.00000
    159      -2.0230      1.00000
    160      -2.0092      1.00000
    161      -1.9830      1.00000
    162      -1.9782      1.00000
    163      -1.9763      1.00000
    164      -1.9574      1.00000
    165      -1.9538      1.00000
    166      -1.9491      1.00000
    167      -1.9381      1.00000
    168      -1.9364      1.00000
    169      -1.9230      1.00000
    170      -1.9125      1.00000
    171      -1.9059      1.00000
    172      -1.9047      1.00000
    173      -1.8922      1.00000
    174      -1.8876      1.00000
    175      -1.8804      1.00000
    176      -1.8777      1.00000
    177      -1.8666      1.00000
    178      -1.8594      1.00000
    179      -1.8552      1.00000
    180      -1.8486      1.00000
    181      -1.8382      1.00000
    182      -1.8320      1.00000
    183      -1.8287      1.00000
    184      -1.8238      1.00000
    185      -1.8211      1.00000
    186      -1.8090      1.00000
    187      -1.8077      1.00000
    188      -1.7999      1.00000
    189      -1.7931      1.00000
    190      -1.7862      1.00000
    191      -1.7786      1.00000
    192      -1.7754      1.00000
    193      -1.7684      1.00000
    194      -1.7595      1.00000
    195      -1.7512      1.00000
    196      -1.7500      1.00000
    197      -1.7350      1.00000
    198      -1.7289      1.00000
    199      -1.7117      1.00000
    200      -1.7010      1.00000
    201      -1.6938      1.00000
    202      -1.6171      1.00000
    203      -1.6052      1.00000
    204      -1.5793      1.00000
    205      -1.5767      1.00000
    206      -1.5530      1.00000
    207      -1.5451      1.00000
    208      -1.5399      1.00000
    209      -1.5189      1.00000
    210      -1.5111      1.00000
    211      -1.4985      1.00000
    212      -1.4912      1.00000
    213      -1.4809      1.00000
    214      -1.4793      1.00000
    215      -1.4720      1.00000
    216      -1.4515      1.00000
    217      -1.4206      1.00000
    218      -1.4023      1.00000
    219      -1.3975      1.00000
    220      -1.3926      1.00000
    221      -1.3774      1.00000
    222      -1.3698      1.00000
    223      -1.3634      1.00000
    224      -1.3471      1.00000
    225      -1.3397      1.00000
    226      -1.3360      1.00000
    227      -1.3290      1.00000
    228      -1.3226      1.00000
    229      -1.3113      1.00000
    230      -1.2959      1.00000
    231      -1.2754      1.00000
    232      -1.2324      1.00000
    233      -1.2208      1.00000
    234      -1.1964      1.00000
    235      -1.1921      1.00000
    236      -1.1820      1.00000
    237      -1.1764      1.00000
    238      -1.1707      1.00000
    239      -1.1599      1.00000
    240      -1.1374      1.00000
    241      -1.1317      1.00000
    242      -1.1257      1.00000
    243      -1.1153      1.00000
    244      -1.1100      1.00000
    245      -1.0995      1.00000
    246      -1.0955      1.00000
    247      -1.0896      1.00000
    248      -1.0831      1.00000
    249      -1.0614      1.00000
    250      -1.0543      1.00000
    251      -1.0507      1.00000
    252      -1.0444      1.00000
    253      -1.0252      1.00000
    254      -1.0184      1.00000
    255      -1.0138      1.00000
    256      -1.0083      1.00000
    257      -0.9978      1.00000
    258      -0.9933      1.00000
    259      -0.9737      1.00000
    260      -0.9717      1.00000
    261      -0.9653      1.00000
    262      -0.9625      1.00000
    263      -0.9516      1.00000
    264      -0.9484      1.00000
    265      -0.9442      1.00000
    266      -0.9362      1.00000
    267      -0.9301      1.00000
    268      -0.9188      1.00000
    269      -0.9131      1.00000
    270      -0.9030      1.00000
    271      -0.8926      1.00000
    272      -0.8885      1.00000
    273      -0.8816      1.00000
    274      -0.8751      1.00000
    275      -0.8584      1.00000
    276      -0.8550      1.00000
    277      -0.8470      1.00000
    278      -0.8340      1.00000
    279      -0.8288      1.00000
    280      -0.8028      1.00000
    281      -0.7895      1.00000
    282      -0.7764      1.00000
    283      -0.7321      1.00000
    284      -0.6929      1.00000
    285      -0.6817      1.00000
    286      -0.6619      1.00000
    287      -0.6514      1.00000
    288      -0.6296      1.00000
    289      -0.6173      1.00000
    290      -0.6023      1.00000
    291      -0.6010      1.00000
    292      -0.5917      1.00000
    293      -0.5751      1.00000
    294      -0.5559      1.00000
    295      -0.5413      1.00000
    296      -0.5266      1.00000
    297      -0.5182      1.00000
    298      -0.5139      1.00000
    299      -0.5008      1.00000
    300      -0.4950      1.00000
    301      -0.4877      1.00000
    302      -0.4654      1.00000
    303      -0.4548      1.00000
    304      -0.4409      1.00000
    305      -0.4297      1.00000
    306      -0.4242      1.00000
    307      -0.4172      1.00000
    308      -0.4144      1.00000
    309      -0.4075      1.00000
    310      -0.4024      1.00000
    311      -0.3845      1.00000
    312      -0.3800      1.00000
    313      -0.3776      1.00000
    314      -0.3710      1.00000
    315      -0.3662      1.00000
    316      -0.3600      1.00000
    317      -0.3563      1.00000
    318      -0.3499      1.00000
    319      -0.3436      1.00000
    320      -0.3383      1.00000
    321      -0.3308      1.00000
    322      -0.3251      1.00000
    323      -0.2996      1.00000
    324      -0.2954      1.00000
    325      -0.2822      1.00000
    326      -0.2705      1.00000
    327      -0.2609      1.00000
    328      -0.2548      1.00000
    329      -0.2518      1.00000
    330      -0.2264      1.00000
    331      -0.2057      1.00000
    332      -0.1880      1.00000
    333      -0.1815      1.00000
    334      -0.1662      1.00000
    335      -0.1593      1.00000
    336      -0.1432      1.00000
    337       0.0702      1.00000
    338       0.0841      1.00000
    339       0.1272      1.00000
    340       0.1333      1.00000
    341       0.1402      0.85732
    342       0.1630      0.74195
    343       0.4948      0.00000
    344       0.8454      0.00000
    345       0.8709      0.00000
    346       0.8769      0.00000
    347       1.3223      0.00000
    348       1.3267      0.00000
    349       1.3340      0.00000
    350       1.3687      0.00000
    351       1.3711      0.00000
    352       1.3796      0.00000
    353       1.8988      0.00000
    354       1.9096      0.00000
    355       1.9170      0.00000
    356       1.9434      0.00000
    357       1.9461      0.00000
    358       1.9568      0.00000
    359       1.9885      0.00000
    360       2.0402      0.00000
    361       2.0713      0.00000
    362       2.0983      0.00000
    363       2.1159      0.00000
    364       2.1238      0.00000
    365       2.1391      0.00000
    366       2.1485      0.00000
    367       2.1555      0.00000
    368       2.7346      0.00000
    369       2.7614      0.00000
    370       2.7713      0.00000
    371       2.8304      0.00000
    372       2.8375      0.00000
    373       2.8748      0.00000
    374       3.3324      0.00000
    375       3.3431      0.00000
    376       3.3471      0.00000
    377       3.3726      0.00000
    378       3.3798      0.00000
    379       3.3958      0.00000
    380       3.9019      0.00000
    381       3.9152      0.00000
    382       4.0150      0.00000
    383       4.0249      0.00000
    384       4.0341      0.00000
    385       4.0485      0.00000
    386       4.9701      0.00000
    387       5.0314      0.00000
    388       5.5185      0.00000
    389       5.5426      0.00000
    390       5.5507      0.00000
    391       5.5884      0.00000
    392       5.6013      0.00000
    393       5.6373      0.00000
    394       6.3055      0.00000
    395       6.3193      0.00000
    396       6.3723      0.00000
    397       6.3806      0.00000
    398       6.7066      0.00000
    399       6.7256      0.00000
    400       6.7632      0.00000
[...]
   0.489E+02 -.719E+02 0.102E+04   -.488E+02 0.714E+02 -.102E+04   -.233E-01 -.268E-01 -.410E+00   -.583E-01 0.448E+00 0.691E+00
   -.257E+01 -.621E+02 0.100E+04   0.236E+01 0.616E+02 -.100E+04   0.781E-02 0.109E+00 -.295E+00   0.188E+00 0.397E+00 0.959E+00
   -.291E+02 0.384E+02 -.876E+03   0.292E+02 -.374E+02 0.877E+03   -.831E-02 -.412E-01 0.232E+00   -.130E+00 -.963E+00 -.141E+01
   0.122E+02 -.388E+01 0.286E+04   -.124E+02 0.422E+01 -.286E+04   0.107E+00 0.735E-01 -.110E+01   0.777E-01 -.265E+00 0.271E+00
   -.214E+02 -.264E+02 -.289E+04   0.215E+02 0.272E+02 0.289E+04   -.657E-01 -.242E-01 0.103E+01   -.147E-02 -.699E+00 -.691E+00
   -.477E+02 -.598E+02 0.980E+03   0.477E+02 0.602E+02 -.981E+03   -.522E-01 -.138E-01 -.332E+00   0.142E+00 -.452E+00 0.908E+00
   0.477E+02 0.560E+02 -.883E+03   -.476E+02 -.552E+02 0.884E+03   -.833E-02 -.375E-01 0.259E+00   -.695E-01 -.767E+00 -.151E+01
   0.648E+01 0.234E+02 0.282E+04   -.657E+01 -.231E+02 -.282E+04   0.149E-01 0.319E-01 -.148E+01   0.992E-02 -.241E+00 0.378E+00
   0.206E+02 -.129E+02 -.290E+04   -.206E+02 0.134E+02 0.290E+04   0.734E-01 -.123E-01 0.108E+01   -.601E-01 -.420E+00 -.805E+00
   -.686E+01 0.413E+02 -.925E+03   0.717E+01 -.413E+02 0.927E+03   -.196E-01 -.677E-01 0.183E+00   -.286E+00 0.887E-01 -.178E+01
   -.387E+02 0.599E+02 -.894E+03   0.385E+02 -.599E+02 0.895E+03   0.935E-01 -.177E-01 0.140E+00   0.394E-01 0.435E-01 -.175E+01
   -.440E+01 0.646E+02 0.291E+04   0.441E+01 -.644E+02 -.291E+04   0.736E-01 0.958E-02 -.133E+01   0.531E-01 -.296E+00 0.164E+00
   -.434E+01 0.541E+02 -.291E+04   0.452E+01 -.535E+02 0.291E+04   0.104E-01 0.180E-01 0.106E+01   -.191E+00 -.640E+00 -.358E+00
   0.451E+01 0.914E+02 -.964E+03   -.486E+01 -.914E+02 0.965E+03   0.289E-01 0.524E-01 0.403E+00   0.307E+00 -.545E-01 -.139E+01
   -.269E+02 0.334E+02 0.292E+04   0.267E+02 -.333E+02 -.292E+04   -.208E+00 -.350E-01 -.129E+01   0.230E+00 -.154E+00 0.534E-01
   -.550E+02 0.421E+02 -.288E+04   0.546E+02 -.418E+02 0.288E+04   -.697E-01 0.134E+00 0.102E+01   0.516E+00 -.502E+00 -.290E+00
   0.407E+02 0.848E+02 -.910E+03   -.405E+02 -.847E+02 0.912E+03   -.907E-01 -.794E-01 0.169E+00   -.891E-01 -.103E-01 -.165E+01
   0.207E+02 0.514E+02 0.291E+04   -.205E+02 -.513E+02 -.291E+04   0.202E+00 0.343E-01 -.111E+01   -.147E+00 -.192E+00 0.156E+00
   0.584E+02 0.471E+02 -.290E+04   -.584E+02 -.469E+02 0.290E+04   0.784E-01 0.116E+00 0.104E+01   -.165E+00 -.279E+00 -.411E+00
   -.268E+02 0.101E+03 0.973E+03   0.269E+02 -.101E+03 -.973E+03   -.111E+00 0.147E+00 -.588E+00   0.113E+00 -.452E+00 0.572E+00
   0.108E+02 0.786E+02 0.291E+04   -.108E+02 -.783E+02 -.291E+04   -.670E-01 -.115E-02 -.129E+01   -.144E+00 -.322E+00 0.214E+00
   0.755E+00 0.599E+02 -.292E+04   -.572E+00 -.596E+02 0.292E+04   -.385E-01 0.400E-01 0.114E+01   -.140E+00 -.404E+00 -.461E+00
   0.646E+01 0.118E+03 0.104E+04   -.632E+01 -.117E+03 -.104E+04   -.790E-02 0.212E+00 -.394E+00   -.134E+00 -.449E+00 0.673E+00
   -.159E+02 -.319E+02 0.292E+04   0.159E+02 0.316E+02 -.292E+04   0.143E-01 -.163E-01 -.154E+01   -.334E-01 0.413E+00 0.280E+00
   -.119E+02 -.447E+01 -.293E+04   0.120E+02 0.380E+01 0.293E+04   0.297E-01 -.250E-01 0.151E+01   -.202E+00 0.692E+00 -.546E+00
   -.321E+02 -.356E+02 0.291E+04   0.321E+02 0.353E+02 -.291E+04   -.168E+00 -.506E-01 -.116E+01   0.146E+00 0.397E+00 0.177E+00
   -.380E+02 0.452E+01 -.292E+04   0.381E+02 -.509E+01 0.292E+04   -.163E+00 -.148E+00 0.138E+01   0.114E+00 0.724E+00 -.586E+00
   -.276E+02 -.168E+02 0.101E+04   0.277E+02 0.163E+02 -.101E+04   0.284E-01 -.407E-01 -.300E+00   -.160E+00 0.502E+00 0.682E+00
   0.610E+01 0.126E+02 0.101E+04   -.611E+01 -.129E+02 -.102E+04   -.120E+00 -.661E-02 -.319E+00   0.173E+00 0.354E+00 0.389E+00
   0.347E+02 0.269E+01 0.293E+04   -.348E+02 -.294E+01 -.293E+04   0.166E+00 -.698E-01 -.110E+01   -.782E-01 0.285E+00 0.298E+00
   0.400E+02 0.117E+02 -.294E+04   -.401E+02 -.120E+02 0.294E+04   0.154E+00 -.490E-01 0.137E+01   -.153E+00 0.447E+00 -.579E+00
   0.235E+02 0.523E+02 0.101E+04   -.236E+02 -.523E+02 -.101E+04   0.490E-01 -.154E+00 -.291E+00   0.654E-01 0.230E+00 0.592E+00
   -.163E+01 0.274E+02 0.100E+04   0.171E+01 -.278E+02 -.100E+04   -.164E-01 0.286E-02 -.249E+00   -.699E-01 0.378E+00 0.748E+00
   -.667E+02 -.771E+02 0.808E+03   0.669E+02 0.768E+02 -.809E+03   -.200E+00 -.123E+00 -.311E+00   -.836E-02 0.423E+00 0.818E+00
   0.261E+02 -.903E+02 0.808E+03   -.263E+02 0.902E+02 -.808E+03   0.227E+00 -.293E+00 -.338E+00   -.890E-01 0.481E+00 0.729E+00
   -.519E+02 0.136E+02 -.741E+03   0.520E+02 -.128E+02 0.742E+03   -.265E+00 -.178E-01 0.112E+00   0.215E+00 -.744E+00 -.119E+01
   0.429E+02 0.436E+02 -.743E+03   -.431E+02 -.431E+02 0.744E+03   0.269E+00 0.343E-01 0.246E+00   -.434E-01 -.552E+00 -.123E+01
   -.293E+02 0.128E+02 0.230E+04   0.293E+02 -.126E+02 -.229E+04   0.120E-01 -.228E-01 -.259E+01   -.639E-03 -.166E+00 0.371E+00
   -.326E+01 -.264E+02 -.233E+04   0.327E+01 0.269E+02 0.232E+04   -.195E-01 -.142E+00 0.314E+01   0.171E-02 -.336E+00 -.551E+00
   -.249E+02 -.220E+02 0.779E+03   0.252E+02 0.222E+02 -.780E+03   -.293E+00 0.123E+00 -.327E+00   -.827E-03 -.326E+00 0.754E+00
   0.115E+02 0.326E+02 0.230E+04   -.113E+02 -.325E+02 -.229E+04   -.614E-01 0.600E-01 -.290E+01   -.785E-01 -.228E+00 0.268E+00
   0.246E+01 0.147E+01 -.234E+04   -.255E+01 -.105E+01 0.234E+04   0.323E-01 0.528E-01 0.279E+01   0.469E-01 -.465E+00 -.625E+00
   0.359E+02 -.213E+02 0.795E+03   -.358E+02 0.215E+02 -.795E+03   0.166E-01 0.103E+00 -.290E+00   -.105E+00 -.253E+00 0.672E+00
   0.329E+02 -.595E+02 0.797E+03   -.332E+02 0.598E+02 -.798E+03   0.302E+00 -.815E-04 -.251E+00   -.145E-02 -.271E+00 0.709E+00
   -.126E+02 0.685E+02 0.810E+03   0.126E+02 -.680E+02 -.810E+03   -.554E-02 -.844E-01 -.343E+00   0.265E-01 -.424E+00 0.395E+00
   0.267E+02 0.115E+03 0.804E+03   -.269E+02 -.115E+03 -.805E+03   0.148E+00 0.268E+00 -.408E+00   -.245E-01 -.335E+00 0.541E+00
   0.104E+02 -.122E+02 0.235E+04   -.104E+02 0.120E+02 -.234E+04   -.149E-01 0.871E-01 -.267E+01   -.141E-01 0.196E+00 0.187E+00
   0.881E+01 0.139E+02 -.236E+04   -.895E+01 -.141E+02 0.235E+04   -.300E-01 -.967E-01 0.277E+01   0.180E+00 0.378E+00 -.483E+00
 -----------------------------------------------------------------------------------------------
   0.688E-01 -.609E+00 0.216E+02   -.551E-13 0.970E-12 -.273E-11   -.101E+00 -.892E-01 -.245E+01   0.362E-01 0.706E+00 -.191E+02
 
 
 POSITION                                       TOTAL-FORCE (eV/Angst)
 -----------------------------------------------------------------------------------
      0.00178      0.00956      6.09616         0.007031     -0.017001      0.036374
      2.50692      0.01501      6.07844         0.018806     -0.019113      0.023549
     -0.00144      8.67849      6.11717        -0.002420     -0.004188      0.030624
      2.49802      8.67796      6.11249         0.002429     -0.006737      0.037191
     -1.25154      2.16777      6.11491         0.008297      0.002237      0.012547
      1.25561      2.19243      6.12568         0.000362      0.004555      0.042269
     -0.00285      1.44433      2.02731        -0.084912      0.005988      0.139536
     -0.01018      1.43848      8.12097         0.007058     -0.009045      0.014616
      3.76061      2.17771      6.10865        -0.009122     -0.028256      0.005229
      2.50178      1.44890      2.02870         0.121828     -0.068305      0.144082
      2.51046      1.44160      8.10414        -0.010296     -0.004656     -0.002221
      6.26421      2.18462      6.14949        -0.004551     -0.008900      0.014812
      5.00042      1.45188      2.04906        -0.059289      0.061169      0.149618
      4.99833      1.42700      8.13074         0.001964      0.001820     -0.015818
      7.52680      1.44774      2.04371        -0.012610      0.005469      0.257035
      7.54309      1.43487      8.12271         0.009989     -0.019696      0.009545
      6.25724      0.72120      4.08067         0.032604     -0.062547     -0.143899
      8.77725      0.71231      4.06937        -0.018598     -0.006495     -0.127783
     -2.49828      4.34794      6.07829         0.006948      0.012538      0.018677
     -1.27467      3.61315      2.03305        -0.031145      0.147284      0.161390
     -1.24551      3.60234      8.11632        -0.003004      0.024166      0.000752
     -0.00860      2.89985      4.06992         0.103935     -0.000922     -0.121167
      5.02179      4.35698      6.09798         0.008526      0.002873      0.025669
      3.76492      3.61380      2.03275        -0.063018      0.104061      0.064600
      3.75924      3.60008      8.14362         0.019525      0.026370      0.022677
     -3.75520      6.52598      6.10913         0.005098      0.004449      0.047974
     -1.25579      6.50528      6.08383         0.002521     -0.000489      0.021260
     -2.50964      5.80144      2.00868         0.137453     -0.069807      0.267944
     -2.50740      5.78686      8.09246         0.001235     -0.011599      0.012256
      1.25640      6.50919      6.11031        -0.014564     -0.017242      0.054500
     -0.00666      5.79426      2.00000        -0.134554     -0.081240      0.207011
     -0.02204      5.78853      8.09893         0.019215     -0.004854      0.013468
      3.76662      6.51474      6.09482         0.012077     -0.005480      0.009816
      2.50308      5.78909      2.00258         0.206776     -0.073102      0.226808
      2.52846      5.79224      8.11998        -0.017566     -0.002029      0.002325
      1.25945      5.05378      4.04325         0.015945     -0.050666     -0.155953
      5.01445      5.79798      2.01253        -0.192964     -0.039170      0.239946
      5.01524      5.79047      8.10339         0.004918     -0.008751      0.007990
      6.27138      5.06452      4.04277        -0.007618     -0.055444     -0.122149
     -3.76517      7.96148      2.01692         0.035119      0.059218      0.206051
     -3.76692      7.96392      8.09836        -0.005651     -0.002503      0.024737
     -1.24654      7.96318      2.02106        -0.049107      0.003087      0.127472
     -1.25696      7.95269      8.10352         0.008278     -0.000416      0.004165
     -2.51584      7.25277      4.05488        -0.042225     -0.031015     -0.097235
      0.00963      7.22591      4.06956         0.046151      0.019194     -0.142770
      3.74757      7.96401      2.04129         0.078901     -0.029455      0.128186
      3.75944      7.95797      8.12012        -0.030991      0.012664      0.002130
      2.50222      7.23652      4.07554        -0.023839      0.007797     -0.151109
      5.01801      7.23500      4.07175        -0.000238      0.008886     -0.112412
      1.20950      0.71304      4.05362         0.005118      0.019856     -0.259600
      3.78049      0.67792      4.06350        -0.072833      0.017596     -0.329169
     -0.00264      4.34001      6.11763        -0.014009      0.013590      0.042733
      2.54540      4.36505      6.16345         0.014183      0.003260      0.040289
      1.23098      3.62224      2.02942        -0.000280      0.058785      0.059561
      1.25185      3.61779      8.19843        -0.008537     -0.015809     -0.013368
      2.51334      2.87806      4.07938        -0.009197     -0.021030     -0.185538
      6.26024      3.63306      2.00212         0.018964     -0.036562      0.089811
      6.27080      3.61222      8.13491        -0.007840      0.006280     -0.011604
      5.02463      2.88643      4.11822         0.039193      0.055934     -0.341631
      7.52997      2.83909      4.10996        -0.033851      0.014717     -0.285018
     -1.25360      5.10876      4.01488         0.051370     -0.028372     -0.360728
      3.75975      5.11705      4.02298        -0.055845      0.028520     -0.287001
      1.25181      7.95850      2.03066        -0.036480      0.083902      0.222931
      1.26210      7.95613      8.12282         0.005337      0.024631     -0.003983
 -----------------------------------------------------------------------------------
    total drift:                                0.004108      0.007611      0.057848


--------------------------------------------------------------------------------------------------------



  FREE ENERGIE OF THE ION-ELECTRON SYSTEM (eV)
  ---------------------------------------------------
  free  energy   TOTEN  =      -373.00156044 eV

  energy  without entropy=     -373.00156044  energy(sigma->0) =     -373.00156044
 


--------------------------------------------------------------------------------------------------------


    POTLOK:  cpu time    0.2660: real time    0.2660


--------------------------------------------------------------------------------------------------------


     LOOP+:  cpu time 1108.6305: real time 1111.9884
    4ORBIT:  cpu time    0.0000: real time    0.0000
 


 total charge     
 
# of ion       s       p       d       tot
------------------------------------------
    1        0.493   0.492   8.312   9.297
    2        0.494   0.494   8.315   9.303
    3        0.497   0.499   8.312   9.307
    4        0.492   0.493   8.309   9.294
    5        0.498   0.502   8.312   9.312
    6        0.504   0.511   8.303   9.319
    7        0.490   0.381   8.322   9.193
    8        0.491   0.382   8.323   9.196
    9        0.504   0.510   8.310   9.324
   10        0.498   0.389   8.311   9.198
   11        0.490   0.385   8.317   9.192
   12        0.501   0.508   8.316   9.325
   13        0.498   0.395   8.317   9.210
   14        0.492   0.386   8.325   9.204
   15        0.494   0.388   8.323   9.206
   16        0.494   0.391   8.323   9.208
   17        0.504   0.504   8.323   9.331
   18        0.498   0.496   8.325   9.319
   19        0.500   0.506   8.320   9.326
   20        0.502   0.392   8.319   9.214
   21        0.500   0.394   8.326   9.220
   22        0.507   0.516   8.317   9.340
   23        0.501   0.508   8.321   9.330
   24        0.504   0.393   8.316   9.213
   25        0.499   0.389   8.334   9.221
   26        0.488   0.490   8.309   9.287
   27        0.497   0.499   8.329   9.325
   28        0.493   0.384   8.322   9.198
   29        0.490   0.385   8.323   9.198
   30        0.499   0.504   8.316   9.319
   31        0.496   0.387   8.323   9.206
   32        0.498   0.396   8.329   9.223
   33        0.499   0.501   8.320   9.321
   34        0.493   0.385   8.324   9.203
   35        0.499   0.397   8.325   9.221
   36        0.505   0.508   8.317   9.330
   37        0.492   0.382   8.324   9.198
   38        0.489   0.384   8.321   9.194
   39        0.503   0.507   8.309   9.318
   40        0.485   0.371   8.327   9.184
   41        0.486   0.373   8.321   9.180
   42        0.492   0.380   8.327   9.199
   43        0.491   0.378   8.339   9.208
   44        0.500   0.502   8.320   9.322
   45        0.500   0.504   8.328   9.333
   46        0.487   0.377   8.320   9.185
   47        0.492   0.379   8.337   9.207
   48        0.496   0.498   8.315   9.309
   49        0.498   0.496   8.320   9.314
   50        0.474   0.505   6.152   7.130
   51        0.476   0.508   6.170   7.155
   52        0.470   0.505   6.174   7.149
   53        0.474   0.510   6.179   7.162
   54        0.465   0.393   6.120   6.977
   55        0.464   0.387   6.118   6.969
   56        0.473   0.507   6.201   7.181
   57        0.464   0.389   6.115   6.968
   58        0.464   0.392   6.089   6.945
   59        0.475   0.508   6.198   7.182
   60        0.473   0.506   6.173   7.152
   61        0.472   0.501   6.150   7.124
   62        0.474   0.504   6.160   7.138
   63        0.462   0.394   6.099   6.955
   64        0.467   0.398   6.099   6.964
--------------------------------------------------
tot         31.362  28.476 499.896 559.734
 


 magnetization (x)
 
# of ion       s       p       d       tot
------------------------------------------
    1       -0.010  -0.027   0.679   0.641
    2       -0.012  -0.031   0.670   0.628
    3       -0.013  -0.032   0.713   0.668
    4       -0.010  -0.032   0.707   0.665
    5       -0.010  -0.030   0.697   0.657
    6       -0.020  -0.043   0.752   0.689
    7       -0.013  -0.029   0.657   0.616
    8       -0.010  -0.025   0.652   0.617
    9       -0.015  -0.036   0.712   0.661
   10       -0.018  -0.033   0.734   0.683
   11       -0.010  -0.027   0.673   0.636
   12       -0.015  -0.038   0.698   0.646
   13       -0.017  -0.035   0.715   0.664
   14       -0.014  -0.031   0.662   0.617
   15       -0.015  -0.032   0.682   0.635
   16       -0.012  -0.030   0.671   0.629
   17       -0.019  -0.036   0.691   0.636
   18       -0.013  -0.028   0.651   0.609
   19       -0.016  -0.039   0.712   0.657
   20       -0.020  -0.031   0.721   0.670
   21       -0.017  -0.029   0.692   0.646
   22       -0.021  -0.047   0.734   0.665
   23       -0.016  -0.038   0.711   0.657
   24       -0.022  -0.032   0.737   0.684
   25       -0.018  -0.029   0.686   0.639
   26       -0.005  -0.026   0.713   0.682
   27       -0.012  -0.030   0.682   0.640
   28       -0.011  -0.028   0.688   0.649
   29       -0.011  -0.028   0.672   0.633
   30       -0.014  -0.037   0.719   0.669
   31       -0.016  -0.031   0.688   0.641
   32       -0.016  -0.034   0.691   0.642
   33       -0.012  -0.031   0.695   0.652
   34       -0.016  -0.033   0.681   0.632
   35       -0.015  -0.033   0.706   0.658
   36       -0.023  -0.045   0.718   0.650
   37       -0.012  -0.028   0.683   0.643
   38       -0.010  -0.029   0.677   0.639
   39       -0.021  -0.043   0.750   0.686
   40       -0.009  -0.022   0.664   0.633
   41       -0.007  -0.020   0.660   0.633
   42       -0.015  -0.025   0.663   0.623
   43       -0.011  -0.022   0.648   0.614
   44       -0.015  -0.033   0.698   0.650
   45       -0.015  -0.037   0.692   0.640
   46       -0.011  -0.025   0.673   0.637
   47       -0.012  -0.021   0.637   0.604
   48       -0.013  -0.036   0.704   0.655
   49       -0.012  -0.028   0.682   0.642
   50        0.004  -0.009   2.793   2.788
   51        0.002  -0.014   2.742   2.729
   52        0.003  -0.018   2.745   2.729
   53        0.000  -0.021   2.726   2.704
   54        0.016  -0.006   2.894   2.905
   55        0.012  -0.009   2.907   2.910
   56       -0.005  -0.031   2.659   2.623
   57        0.014  -0.007   2.907   2.913
   58        0.021  -0.002   2.973   2.992
   59       -0.003  -0.025   2.664   2.636
   60        0.003  -0.018   2.747   2.732
   61        0.005  -0.008   2.819   2.817
   62        0.002  -0.011   2.786   2.777
   63        0.021  -0.005   2.936   2.952
   64        0.021  -0.004   2.949   2.966
--------------------------------------------------
tot         -0.578  -1.732  76.143  73.833
 
 BZINTS: Fermi energy:  0.289256;610.000000 electrons
         Band energy:***********;  BLOECHL correction: -0.120563

 total amount of memory used by VASP MPI-rank0   254456. kBytes
=======================================================================

   base      :      30000. kBytes
   nonlr-proj:      13119. kBytes
   fftplans  :       6403. kBytes
   grid      :      16455. kBytes
   one-center:         93. kBytes
   wavefun   :     188386. kBytes
 
  
  
 General timing and accounting informations for this job:
 ========================================================
  
                  Total CPU time used (sec):     1221.197
                            User time (sec):     1204.657
                          System time (sec):       16.540
                         Elapsed time (sec):     1235.188
  
                   Maximum memory used (kb):      352096.
                   Average memory used (kb):           0.
  
                          Minor page faults:        24388
                          Major page faults:            0
                 Voluntary context switches:         7994
