  70  70   1   0
  0.2593906E+02  0.9967380E-09  0.9967380E-09  0.2110375E-08  0.5000000E-15
  1.000000000000000E-004
  CAR 
 SQS-NiFe                                
     10.84615671    -21.89230616  301      0.63315425      1.00000000
    -21.892  0.0000E+00  0.0000E+00  0.0000E+00  0.0000E+00
    -21.783  0.0000E+00  0.0000E+00  0.0000E+00  0.0000E+00
    -21.674  0.0000E+00  0.0000E+00  0.0000E+00  0.0000E+00
    -21.565 -0.9187E-31  0.0000E+00 -0.1003E-31  0.0000E+00
    -21.456 -0.5863E-27  0.0000E+00 -0.6400E-28  0.0000E+00
    -21.347 -0.2053E-23  0.0000E+00 -0.2241E-24  0.0000E+00
    -21.238 -0.3941E-20 -0.3017E-28 -0.4303E-21 -0.3293E-29
    -21.128 -0.4142E-17 -0.1301E-24 -0.4524E-18 -0.1420E-25
    -21.019 -0.2309E-14 -0.3075E-21 -0.2524E-15 -0.3357E-22
    -20.910 -0.7184E-12 -0.3982E-18 -0.7865E-13 -0.4349E-19
    -20.801 -0.1214E-09 -0.2719E-15 -0.1333E-10 -0.2971E-16
    -20.692 -0.1108E-07 -0.1053E-12 -0.1223E-08 -0.1152E-13
    -20.583 -0.5407E-06 -0.2202E-10 -0.6023E-07 -0.2414E-11
    -20.474 -0.1387E-04 -0.2489E-08 -0.1573E-05 -0.2741E-09
    -20.365 -0.1804E-03 -0.1511E-06 -0.2126E-04 -0.1676E-07
    -20.255 -0.1086E-02 -0.4855E-05 -0.1398E-03 -0.5466E-06
    -20.146 -0.1973E-02 -0.8040E-04 -0.3552E-03 -0.9320E-05
    -20.037  0.6212E-02 -0.6438E-03  0.3227E-03 -0.7958E-04
    -19.928  0.2958E-01 -0.1996E-02  0.3550E-02 -0.2974E-03
    -19.819  0.4046E-01  0.1464E-02  0.7966E-02 -0.1376E-03
    -19.710  0.2082E-01  0.2079E-01  0.1024E-01  0.2131E-02
    -19.601  0.1475E-02  0.4046E-01  0.1040E-01  0.6546E-02
    -19.491 -0.1997E-02  0.2960E-01  0.1018E-01  0.9776E-02
    -19.382 -0.6449E-03  0.6230E-02  0.1011E-01  0.1046E-01
    -19.273 -0.8061E-04 -0.1972E-02  0.1010E-01  0.1024E-01
    -19.164 -0.4913E-05 -0.1088E-02  0.1010E-01  0.1012E-01
    -19.055 -0.2206E-05 -0.1808E-03  0.1010E-01  0.1010E-01
    -18.946 -0.5288E-04 -0.1392E-04  0.1010E-01  0.1010E-01
    -18.837 -0.6927E-03 -0.1367E-05  0.1002E-01  0.1010E-01
    -18.728 -0.4218E-02 -0.2444E-04  0.9559E-02  0.1010E-01
    -18.618 -0.7915E-02 -0.3757E-03  0.8695E-02  0.1006E-01
    -18.509  0.2346E-01 -0.2800E-02  0.1126E-01  0.9752E-02
    -18.400  0.1159E+00 -0.7898E-02  0.2390E-01  0.8890E-02
    -18.291  0.1620E+00  0.8376E-02  0.4159E-01  0.9804E-02
    -18.182  0.8572E-01  0.8722E-01  0.5094E-01  0.1932E-01
    -18.073  0.7092E-02  0.1611E+00  0.5171E-01  0.3691E-01
    -17.964 -0.8020E-02  0.1142E+00  0.5084E-01  0.4937E-01
    -17.855 -0.2695E-02  0.2310E-01  0.5055E-01  0.5189E-01
    -17.745 -0.3462E-03 -0.7748E-02  0.5051E-01  0.5104E-01
    -17.636 -0.2147E-04 -0.4165E-02  0.5051E-01  0.5059E-01
    -17.527 -0.6862E-06 -0.6907E-03  0.5051E-01  0.5051E-01
    -17.418 -0.1163E-07 -0.5337E-04  0.5051E-01  0.5051E-01
    -17.309 -0.1059E-09 -0.2103E-05  0.5051E-01  0.5051E-01
    -17.200 -0.5220E-12 -0.4373E-07  0.5051E-01  0.5051E-01
    -17.091 -0.1400E-14 -0.4877E-09  0.5051E-01  0.5051E-01
    -16.982  0.0000E+00 -0.2945E-11  0.5051E-01  0.5051E-01
    -16.872  0.0000E+00 -0.9699E-14  0.5051E-01  0.5051E-01
    -16.763  0.0000E+00  0.0000E+00  0.5051E-01  0.5051E-01
    -16.654  0.0000E+00  0.0000E+00  0.5051E-01  0.5051E-01
    -16.545  0.0000E+00  0.0000E+00  0.5051E-01  0.5051E-01
    -16.436  0.0000E+00  0.0000E+00  0.5051E-01  0.5051E-01
    -16.327  0.0000E+00  0.0000E+00  0.5051E-01  0.5051E-01
    -16.218  0.0000E+00  0.0000E+00  0.5051E-01  0.5051E-01
    -16.109  0.0000E+00  0.0000E+00  0.5051E-01  0.5051E-01
    -15.999  0.0000E+00  0.0000E+00  0.5051E-01  0.5051E-01
    -15.890  0.0000E+00  0.0000E+00  0.5051E-01  0.5051E-01
    -15.781  0.0000E+00  0.0000E+00  0.5051E-01  0.5051E-01
    -15.672  0.0000E+00  0.0000E+00  0.5051E-01  0.5051E-01
    -15.563  0.0000E+00  0.0000E+00  0.5051E-01  0.5051E-01
    -15.454  0.0000E+00  0.0000E+00  0.5051E-01  0.5051E-01
    -15.345  0.0000E+00  0.0000E+00  0.5051E-01  0.5051E-01
    -15.235  0.0000E+00  0.0000E+00  0.5051E-01  0.5051E-01
    -15.126  0.0000E+00  0.0000E+00  0.5051E-01  0.5051E-01
    -15.017  0.0000E+00  0.0000E+00  0.5051E-01  0.5051E-01
    -14.908  0.0000E+00  0.0000E+00  0.5051E-01  0.5051E-01
    -14.799  0.0000E+00  0.0000E+00  0.5051E-01  0.5051E-01
    -14.690  0.0000E+00  0.0000E+00  0.5051E-01  0.5051E-01
    -14.581  0.0000E+00  0.0000E+00  0.5051E-01  0.5051E-01
    -14.472  0.0000E+00  0.0000E+00  0.5051E-01  0.5051E-01
    -14.362  0.0000E+00  0.0000E+00  0.5051E-01  0.5051E-01
    -14.253  0.0000E+00  0.0000E+00  0.5051E-01  0.5051E-01
    -14.144  0.0000E+00  0.0000E+00  0.5051E-01  0.5051E-01
    -14.035  0.0000E+00  0.0000E+00  0.5051E-01  0.5051E-01
    -13.926  0.0000E+00  0.0000E+00  0.5051E-01  0.5051E-01
    -13.817  0.0000E+00  0.0000E+00  0.5051E-01  0.5051E-01
    -13.708  0.0000E+00  0.0000E+00  0.5051E-01  0.5051E-01
    -13.599  0.0000E+00  0.0000E+00  0.5051E-01  0.5051E-01
    -13.489  0.0000E+00  0.0000E+00  0.5051E-01  0.5051E-01
    -13.380  0.0000E+00  0.0000E+00  0.5051E-01  0.5051E-01
    -13.271  0.0000E+00  0.0000E+00  0.5051E-01  0.5051E-01
    -13.162  0.0000E+00  0.0000E+00  0.5051E-01  0.5051E-01
    -13.053  0.0000E+00  0.0000E+00  0.5051E-01  0.5051E-01
    -12.944  0.0000E+00  0.0000E+00  0.5051E-01  0.5051E-01
    -12.835  0.0000E+00  0.0000E+00  0.5051E-01  0.5051E-01
    -12.726  0.0000E+00  0.0000E+00  0.5051E-01  0.5051E-01
    -12.616  0.0000E+00  0.0000E+00  0.5051E-01  0.5051E-01
    -12.507  0.0000E+00  0.0000E+00  0.5051E-01  0.5051E-01
    -12.398  0.0000E+00  0.0000E+00  0.5051E-01  0.5051E-01
    -12.289  0.0000E+00  0.0000E+00  0.5051E-01  0.5051E-01
    -12.180  0.0000E+00  0.0000E+00  0.5051E-01  0.5051E-01
    -12.071  0.0000E+00  0.0000E+00  0.5051E-01  0.5051E-01
    -11.962  0.0000E+00  0.0000E+00  0.5051E-01  0.5051E-01
    -11.853  0.0000E+00  0.0000E+00  0.5051E-01  0.5051E-01
    -11.743  0.0000E+00  0.0000E+00  0.5051E-01  0.5051E-01
    -11.634  0.0000E+00  0.0000E+00  0.5051E-01  0.5051E-01
    -11.525  0.0000E+00  0.0000E+00  0.5051E-01  0.5051E-01
    -11.416  0.0000E+00  0.0000E+00  0.5051E-01  0.5051E-01
    -11.307  0.0000E+00  0.0000E+00  0.5051E-01  0.5051E-01
    -11.198  0.0000E+00  0.0000E+00  0.5051E-01  0.5051E-01
    -11.089  0.0000E+00  0.0000E+00  0.5051E-01  0.5051E-01
    -10.979  0.0000E+00  0.0000E+00  0.5051E-01  0.5051E-01
    -10.870  0.0000E+00  0.0000E+00  0.5051E-01  0.5051E-01
    -10.761  0.0000E+00  0.0000E+00  0.5051E-01  0.5051E-01
    -10.652  0.0000E+00  0.0000E+00  0.5051E-01  0.5051E-01
    -10.543  0.0000E+00  0.0000E+00  0.5051E-01  0.5051E-01
    -10.434  0.0000E+00  0.0000E+00  0.5051E-01  0.5051E-01
    -10.325  0.0000E+00  0.0000E+00  0.5051E-01  0.5051E-01
    -10.216  0.0000E+00  0.0000E+00  0.5051E-01  0.5051E-01
    -10.106 -0.1058E-30  0.0000E+00  0.5051E-01  0.5051E-01
     -9.997 -0.6670E-27 -0.1026E-31  0.5051E-01  0.5051E-01
     -9.888 -0.2307E-23 -0.7464E-28  0.5051E-01  0.5051E-01
     -9.779 -0.4376E-20 -0.2986E-24  0.5051E-01  0.5051E-01
     -9.670 -0.4548E-17 -0.6563E-21  0.5051E-01  0.5051E-01
     -9.561 -0.2506E-14 -0.7917E-18  0.5051E-01  0.5051E-01
     -9.452 -0.7722E-12 -0.5069E-15  0.5051E-01  0.5051E-01
     -9.343 -0.1293E-09 -0.1825E-12  0.5051E-01  0.5051E-01
     -9.233 -0.1168E-07 -0.3569E-10  0.5051E-01  0.5051E-01
     -9.124 -0.5647E-06 -0.3780E-08  0.5050E-01  0.5051E-01
     -9.015 -0.1435E-04 -0.2151E-06  0.5050E-01  0.5051E-01
     -8.906 -0.1850E-03 -0.6477E-05  0.5048E-01  0.5050E-01
     -8.797 -0.1102E-02 -0.1003E-03  0.5036E-01  0.5049E-01
     -8.688 -0.1955E-02 -0.7448E-03  0.5015E-01  0.5041E-01
     -8.579  0.6399E-02 -0.2046E-02  0.5085E-01  0.5019E-01
     -8.470  0.2982E-01  0.2475E-02  0.5410E-01  0.5046E-01
     -8.360  0.4036E-01  0.2303E-01  0.5851E-01  0.5297E-01
     -8.251  0.2046E-01  0.4072E-01  0.6074E-01  0.5742E-01
     -8.142  0.1078E-02  0.2710E-01  0.6086E-01  0.6037E-01
     -8.033 -0.2211E-02  0.4627E-02  0.6062E-01  0.6088E-01
     -7.924  0.5919E-03 -0.4515E-03  0.6068E-01  0.6083E-01
     -7.815  0.6307E-02  0.7164E-02  0.6137E-01  0.6161E-01
     -7.706  0.1874E-01  0.2130E-01  0.6341E-01  0.6393E-01
     -7.597  0.2726E-01  0.2675E-01  0.6639E-01  0.6685E-01
     -7.487  0.1634E-01  0.1333E-01  0.6817E-01  0.6831E-01
     -7.378  0.4753E-02  0.4918E-02  0.6869E-01  0.6885E-01
     -7.269  0.1292E-01  0.1582E-01  0.7010E-01  0.7057E-01
     -7.160  0.2751E-01  0.2900E-01  0.7310E-01  0.7374E-01
     -7.051  0.3413E-01  0.3403E-01  0.7683E-01  0.7745E-01
     -6.942  0.3108E-01  0.2922E-01  0.8022E-01  0.8064E-01
     -6.833  0.1549E-01  0.1254E-01  0.8191E-01  0.8201E-01
     -6.723 -0.4676E-03 -0.1779E-02  0.8186E-01  0.8182E-01
     -6.614 -0.3450E-02 -0.3049E-02  0.8148E-01  0.8148E-01
     -6.505  0.1560E-01  0.1722E-01  0.8318E-01  0.8336E-01
     -6.396  0.5290E-01  0.5419E-01  0.8896E-01  0.8927E-01
     -6.287  0.6858E-01  0.6738E-01  0.9644E-01  0.9663E-01
     -6.178  0.5036E-01  0.4751E-01  0.1019E+00  0.1018E+00
     -6.069  0.3506E-01  0.3229E-01  0.1058E+00  0.1053E+00
     -5.960  0.3957E-01  0.3733E-01  0.1101E+00  0.1094E+00
     -5.850  0.4565E-01  0.4364E-01  0.1151E+00  0.1142E+00
     -5.741  0.4147E-01  0.4059E-01  0.1196E+00  0.1186E+00
     -5.632  0.3792E-01  0.3054E-01  0.1237E+00  0.1219E+00
     -5.523  0.5603E-01  0.3095E-01  0.1298E+00  0.1253E+00
     -5.414  0.8412E-01  0.6018E-01  0.1390E+00  0.1319E+00
     -5.305  0.9784E-01  0.9005E-01  0.1497E+00  0.1417E+00
     -5.196  0.1063E+00  0.9142E-01  0.1613E+00  0.1517E+00
     -5.087  0.1330E+00  0.6882E-01  0.1758E+00  0.1592E+00
     -4.977  0.1943E+00  0.5682E-01  0.1970E+00  0.1654E+00
     -4.868  0.2447E+00  0.9216E-01  0.2237E+00  0.1755E+00
     -4.759  0.2206E+00  0.1684E+00  0.2478E+00  0.1938E+00
     -4.650  0.1651E+00  0.2415E+00  0.2658E+00  0.2202E+00
     -4.541  0.1563E+00  0.2460E+00  0.2829E+00  0.2470E+00
     -4.432  0.1653E+00  0.1663E+00  0.3009E+00  0.2652E+00
     -4.323  0.1639E+00  0.1101E+00  0.3188E+00  0.2772E+00
     -4.214  0.1718E+00  0.1453E+00  0.3375E+00  0.2930E+00
     -4.104  0.1829E+00  0.2056E+00  0.3575E+00  0.3155E+00
     -3.995  0.2089E+00  0.2022E+00  0.3803E+00  0.3375E+00
     -3.886  0.2430E+00  0.1627E+00  0.4068E+00  0.3553E+00
     -3.777  0.2772E+00  0.1525E+00  0.4371E+00  0.3719E+00
     -3.668  0.3105E+00  0.1296E+00  0.4710E+00  0.3861E+00
     -3.559  0.3211E+00  0.1349E+00  0.5060E+00  0.4008E+00
     -3.450  0.3207E+00  0.2425E+00  0.5410E+00  0.4273E+00
     -3.341  0.4104E+00  0.3400E+00  0.5858E+00  0.4644E+00
     -3.231  0.5990E+00  0.3140E+00  0.6512E+00  0.4986E+00
     -3.122  0.6750E+00  0.2313E+00  0.7248E+00  0.5239E+00
     -3.013  0.5903E+00  0.1931E+00  0.7892E+00  0.5449E+00
     -2.904  0.5037E+00  0.2713E+00  0.8442E+00  0.5746E+00
     -2.795  0.4928E+00  0.4471E+00  0.8980E+00  0.6234E+00
     -2.686  0.5520E+00  0.5419E+00  0.9582E+00  0.6825E+00
     -2.577  0.5901E+00  0.5044E+00  0.1023E+01  0.7375E+00
     -2.467  0.5761E+00  0.4739E+00  0.1086E+01  0.7892E+00
     -2.358  0.5882E+00  0.4805E+00  0.1150E+01  0.8417E+00
     -2.249  0.6105E+00  0.4873E+00  0.1216E+01  0.8949E+00
     -2.140  0.6398E+00  0.5004E+00  0.1286E+01  0.9495E+00
     -2.031  0.6995E+00  0.5189E+00  0.1362E+01  0.1006E+01
     -1.922  0.7570E+00  0.5369E+00  0.1445E+01  0.1065E+01
     -1.813  0.8475E+00  0.5706E+00  0.1538E+01  0.1127E+01
     -1.704  0.1001E+01  0.5965E+00  0.1647E+01  0.1192E+01
     -1.594  0.1128E+01  0.5856E+00  0.1770E+01  0.1256E+01
     -1.485  0.1127E+01  0.5887E+00  0.1893E+01  0.1320E+01
     -1.376  0.1014E+01  0.6413E+00  0.2003E+01  0.1390E+01
     -1.267  0.8151E+00  0.7079E+00  0.2092E+01  0.1467E+01
     -1.158  0.6697E+00  0.7925E+00  0.2166E+01  0.1554E+01
     -1.049  0.7399E+00  0.9299E+00  0.2246E+01  0.1655E+01
     -0.940  0.8856E+00  0.1070E+01  0.2343E+01  0.1772E+01
     -0.831  0.9246E+00  0.1116E+01  0.2444E+01  0.1894E+01
     -0.721  0.8837E+00  0.1031E+01  0.2540E+01  0.2006E+01
     -0.612  0.9135E+00  0.8197E+00  0.2640E+01  0.2096E+01
     -0.503  0.1018E+01  0.6662E+00  0.2751E+01  0.2169E+01
     -0.394  0.1043E+01  0.7189E+00  0.2865E+01  0.2247E+01
     -0.285  0.1066E+01  0.8249E+00  0.2981E+01  0.2337E+01
     -0.176  0.1268E+01  0.8516E+00  0.3120E+01  0.2430E+01
     -0.067  0.1425E+01  0.8373E+00  0.3275E+01  0.2521E+01
      0.042  0.1205E+01  0.8506E+00  0.3407E+01  0.2614E+01
      0.152  0.7197E+00  0.8983E+00  0.3485E+01  0.2712E+01
      0.261  0.3481E+00  0.9240E+00  0.3523E+01  0.2813E+01
      0.370  0.2380E+00  0.9058E+00  0.3549E+01  0.2912E+01
      0.479  0.2524E+00  0.9126E+00  0.3577E+01  0.3011E+01
      0.588  0.2275E+00  0.9960E+00  0.3602E+01  0.3120E+01
      0.697  0.1478E+00  0.1096E+01  0.3618E+01  0.3240E+01
      0.806  0.1037E+00  0.1083E+01  0.3629E+01  0.3358E+01
      0.915  0.1051E+00  0.8943E+00  0.3640E+01  0.3455E+01
      1.025  0.9056E-01  0.6154E+00  0.3650E+01  0.3523E+01
      1.134  0.8016E-01  0.3942E+00  0.3659E+01  0.3566E+01
      1.243  0.1031E+00  0.2873E+00  0.3670E+01  0.3597E+01
      1.352  0.1067E+00  0.2339E+00  0.3682E+01  0.3622E+01
      1.461  0.7898E-01  0.1775E+00  0.3691E+01  0.3642E+01
      1.570  0.9479E-01  0.1175E+00  0.3701E+01  0.3655E+01
      1.679  0.1548E+00  0.1013E+00  0.3718E+01  0.3666E+01
      1.789  0.1756E+00  0.1206E+00  0.3737E+01  0.3679E+01
      1.898  0.1331E+00  0.1068E+00  0.3751E+01  0.3691E+01
      2.007  0.7328E-01  0.8877E-01  0.3759E+01  0.3700E+01
      2.116  0.3477E-01  0.1184E+00  0.3763E+01  0.3713E+01
      2.225  0.3135E-01  0.1667E+00  0.3767E+01  0.3731E+01
      2.334  0.7535E-01  0.1651E+00  0.3775E+01  0.3749E+01
      2.443  0.1280E+00  0.1007E+00  0.3789E+01  0.3760E+01
      2.552  0.1359E+00  0.5200E-01  0.3804E+01  0.3766E+01
      2.662  0.1119E+00  0.7311E-01  0.3816E+01  0.3774E+01
      2.771  0.1022E+00  0.1169E+00  0.3827E+01  0.3787E+01
      2.880  0.1218E+00  0.1333E+00  0.3840E+01  0.3801E+01
      2.989  0.1261E+00  0.1300E+00  0.3854E+01  0.3816E+01
      3.098  0.9147E-01  0.1284E+00  0.3864E+01  0.3830E+01
      3.207  0.5516E-01  0.1300E+00  0.3870E+01  0.3844E+01
      3.316  0.6042E-01  0.1207E+00  0.3877E+01  0.3857E+01
      3.425  0.1104E+00  0.9301E-01  0.3889E+01  0.3867E+01
      3.535  0.1285E+00  0.6781E-01  0.3903E+01  0.3874E+01
      3.644  0.7649E-01  0.7798E-01  0.3911E+01  0.3883E+01
      3.753  0.4885E-01  0.1071E+00  0.3916E+01  0.3895E+01
      3.862  0.8998E-01  0.1008E+00  0.3926E+01  0.3906E+01
      3.971  0.1248E+00  0.6381E-01  0.3940E+01  0.3913E+01
      4.080  0.1042E+00  0.8019E-01  0.3951E+01  0.3921E+01
      4.189  0.7098E-01  0.1334E+00  0.3959E+01  0.3936E+01
      4.298  0.7935E-01  0.1224E+00  0.3968E+01  0.3949E+01
      4.408  0.1098E+00  0.7396E-01  0.3980E+01  0.3957E+01
      4.517  0.1160E+00  0.7424E-01  0.3992E+01  0.3965E+01
      4.626  0.9815E-01  0.1101E+00  0.4003E+01  0.3977E+01
      4.735  0.8046E-01  0.1226E+00  0.4012E+01  0.3991E+01
      4.844  0.7158E-01  0.1070E+00  0.4020E+01  0.4002E+01
      4.953  0.6183E-01  0.8901E-01  0.4026E+01  0.4012E+01
      5.062  0.5672E-01  0.7507E-01  0.4033E+01  0.4020E+01
      5.171  0.6656E-01  0.6123E-01  0.4040E+01  0.4027E+01
      5.281  0.6096E-01  0.5876E-01  0.4046E+01  0.4033E+01
      5.390  0.4479E-01  0.6995E-01  0.4051E+01  0.4041E+01
      5.499  0.6449E-01  0.6134E-01  0.4058E+01  0.4048E+01
      5.608  0.1105E+00  0.5208E-01  0.4070E+01  0.4054E+01
      5.717  0.1331E+00  0.8465E-01  0.4085E+01  0.4063E+01
      5.826  0.1134E+00  0.1226E+00  0.4097E+01  0.4076E+01
      5.935  0.9268E-01  0.1240E+00  0.4107E+01  0.4090E+01
      6.045  0.9822E-01  0.1061E+00  0.4118E+01  0.4101E+01
      6.154  0.9788E-01  0.1011E+00  0.4129E+01  0.4112E+01
      6.263  0.8144E-01  0.1086E+00  0.4138E+01  0.4124E+01
      6.372  0.6667E-01  0.1084E+00  0.4145E+01  0.4136E+01
      6.481  0.5694E-01  0.8820E-01  0.4151E+01  0.4146E+01
      6.590  0.7585E-01  0.6151E-01  0.4160E+01  0.4152E+01
      6.699  0.1029E+00  0.5889E-01  0.4171E+01  0.4159E+01
      6.808  0.1058E+00  0.7407E-01  0.4182E+01  0.4167E+01
      6.918  0.1297E+00  0.9286E-01  0.4196E+01  0.4177E+01
      7.027  0.1636E+00  0.1088E+00  0.4214E+01  0.4189E+01
      7.136  0.1580E+00  0.1207E+00  0.4232E+01  0.4202E+01
      7.245  0.1442E+00  0.1464E+00  0.4247E+01  0.4218E+01
      7.354  0.1413E+00  0.1825E+00  0.4263E+01  0.4238E+01
      7.463  0.1383E+00  0.1763E+00  0.4278E+01  0.4257E+01
      7.572  0.1361E+00  0.1327E+00  0.4293E+01  0.4272E+01
      7.681  0.1411E+00  0.1111E+00  0.4308E+01  0.4284E+01
      7.791  0.1711E+00  0.1285E+00  0.4327E+01  0.4298E+01
      7.900  0.1945E+00  0.1659E+00  0.4348E+01  0.4316E+01
      8.009  0.1695E+00  0.2082E+00  0.4366E+01  0.4339E+01
      8.118  0.1477E+00  0.2194E+00  0.4383E+01  0.4363E+01
      8.227  0.1421E+00  0.1817E+00  0.4398E+01  0.4382E+01
      8.336  0.1126E+00  0.1319E+00  0.4410E+01  0.4397E+01
      8.445  0.6572E-01  0.9866E-01  0.4418E+01  0.4408E+01
      8.554  0.3019E-01  0.7164E-01  0.4421E+01  0.4415E+01
      8.664  0.1794E-01  0.4027E-01  0.4423E+01  0.4420E+01
      8.773  0.1145E-01  0.2197E-01  0.4424E+01  0.4422E+01
      8.882  0.2942E-02  0.1497E-01  0.4424E+01  0.4424E+01
      8.991 -0.7398E-03  0.5787E-02  0.4424E+01  0.4424E+01
      9.100 -0.5713E-03 -0.1718E-03  0.4424E+01  0.4424E+01
      9.209 -0.1215E-03 -0.7879E-03  0.4424E+01  0.4424E+01
      9.318 -0.1207E-04 -0.2310E-03  0.4424E+01  0.4424E+01
      9.427 -0.6156E-06 -0.2993E-04  0.4424E+01  0.4424E+01
      9.537 -0.1666E-07 -0.1992E-05  0.4424E+01  0.4424E+01
      9.646 -0.2428E-09 -0.7095E-07  0.4424E+01  0.4424E+01
      9.755 -0.1920E-11 -0.1373E-08  0.4424E+01  0.4424E+01
      9.864 -0.8269E-14 -0.1449E-10  0.4424E+01  0.4424E+01
      9.973 -0.2055E-16 -0.8368E-13  0.4424E+01  0.4424E+01
     10.082  0.0000E+00 -0.2672E-15  0.4424E+01  0.4424E+01
     10.191  0.0000E+00  0.0000E+00  0.4424E+01  0.4424E+01
     10.301  0.0000E+00  0.0000E+00  0.4424E+01  0.4424E+01
     10.410  0.0000E+00  0.0000E+00  0.4424E+01  0.4424E+01
     10.519  0.0000E+00  0.0000E+00  0.4424E+01  0.4424E+01
     10.628  0.0000E+00  0.0000E+00  0.4424E+01  0.4424E+01
     10.737  0.0000E+00  0.0000E+00  0.4424E+01  0.4424E+01
     10.846  0.0000E+00  0.0000E+00  0.4424E+01  0.4424E+01
     10.84615671    -21.89230616  301      0.63315425      1.00000000
    -21.892  0.0000E+00  0.0000E+00  0.0000E+00  0.0000E+00  0.0000E+00  0.0000E+00
    -21.783  0.0000E+00  0.0000E+00  0.0000E+00  0.0000E+00  0.0000E+00  0.0000E+00
    -21.674  0.0000E+00  0.0000E+00  0.0000E+00  0.0000E+00  0.0000E+00  0.0000E+00
    -21.565 -0.1153E-40  0.0000E+00 -0.2357E-40  0.0000E+00 -0.2460E-41  0.0000E+00
    -21.456 -0.7360E-37  0.0000E+00 -0.1504E-36  0.0000E+00 -0.1570E-37  0.0000E+00
    -21.347 -0.2577E-33  0.0000E+00 -0.5267E-33  0.0000E+00 -0.5497E-34  0.0000E+00
    -21.238 -0.4946E-30 -0.3911E-38 -0.1011E-29 -0.7931E-38 -0.1055E-30 -0.8706E-39
    -21.128 -0.5199E-27 -0.1686E-34 -0.1062E-26 -0.3419E-34 -0.1109E-27 -0.3753E-35
    -21.019 -0.2898E-24 -0.3986E-31 -0.5922E-24 -0.8082E-31 -0.6181E-25 -0.8872E-32
    -20.910 -0.9017E-22 -0.5162E-28 -0.1843E-21 -0.1047E-27 -0.1923E-22 -0.1149E-28
    -20.801 -0.1524E-19 -0.3524E-25 -0.3115E-19 -0.7145E-25 -0.3251E-20 -0.7844E-26
    -20.692 -0.1391E-17 -0.1365E-22 -0.2842E-17 -0.2768E-22 -0.2967E-18 -0.3039E-23
    -20.583 -0.6786E-16 -0.2854E-20 -0.1387E-15 -0.5786E-20 -0.1448E-16 -0.6352E-21
    -20.474 -0.1740E-14 -0.3227E-18 -0.3556E-14 -0.6542E-18 -0.3712E-15 -0.7182E-19
    -20.365 -0.2264E-13 -0.1958E-16 -0.4627E-13 -0.3970E-16 -0.4830E-14 -0.4359E-17
    -20.255 -0.1363E-12 -0.6292E-15 -0.2786E-12 -0.1276E-14 -0.2908E-13 -0.1401E-15
    -20.146 -0.2477E-12 -0.1042E-13 -0.5061E-12 -0.2113E-13 -0.5283E-13 -0.2319E-14
    -20.037  0.7796E-12 -0.8344E-13  0.1593E-11 -0.1692E-12  0.1663E-12 -0.1857E-13
    -19.928  0.3712E-11 -0.2586E-12  0.7585E-11 -0.5243E-12  0.7918E-12 -0.5757E-13
    -19.819  0.5078E-11  0.1897E-12  0.1038E-10  0.3847E-12  0.1083E-11  0.4223E-13
    -19.710  0.2612E-11  0.2694E-11  0.5338E-11  0.5462E-11  0.5573E-12  0.5997E-12
    -19.601  0.1850E-12  0.5243E-11  0.3781E-12  0.1063E-10  0.3947E-13  0.1167E-11
    -19.491 -0.2506E-12  0.3836E-11 -0.5120E-12  0.7777E-11 -0.5345E-13  0.8540E-12
    -19.382 -0.8094E-13  0.8073E-12 -0.1654E-12  0.1637E-11 -0.1726E-13  0.1797E-12
    -19.273 -0.1012E-13 -0.2556E-12 -0.2067E-13 -0.5182E-12 -0.2158E-14 -0.5689E-13
    -19.164 -0.6996E-15 -0.1410E-12 -0.1330E-14 -0.2858E-12 -0.1478E-15 -0.3138E-13
    -19.055 -0.4253E-14 -0.2343E-13 -0.3927E-14 -0.4751E-13 -0.8458E-15 -0.5217E-14
    -18.946 -0.1068E-12 -0.1838E-14 -0.9799E-13 -0.3688E-14 -0.2147E-13 -0.4081E-15
    -18.837 -0.1369E-11 -0.2065E-14 -0.1254E-11 -0.2005E-14 -0.2783E-12 -0.4011E-15
    -18.728 -0.8103E-11 -0.5911E-13 -0.7414E-11 -0.5435E-13 -0.1672E-11 -0.1151E-13
    -18.618 -0.1424E-10 -0.9069E-12 -0.1299E-10 -0.8202E-12 -0.3044E-11 -0.1781E-12
    -18.509  0.4729E-10 -0.6724E-11  0.4333E-10 -0.5969E-11  0.9522E-11 -0.1335E-11
    -18.400  0.2188E-09 -0.1871E-10  0.2000E-09 -0.1611E-10  0.4558E-10 -0.3785E-11
    -18.291  0.2958E-09  0.2106E-10  0.2702E-09  0.2007E-10  0.6271E-10  0.3963E-11
    -18.182  0.1507E-09  0.2086E-09  0.1376E-09  0.1832E-09  0.3258E-10  0.4168E-10
    -18.073  0.1028E-10  0.3794E-09  0.9349E-11  0.3264E-09  0.2469E-11  0.7699E-10
    -17.964 -0.1453E-10  0.2641E-09 -0.1326E-10  0.2233E-09 -0.3093E-11  0.5439E-10
    -17.855 -0.4666E-11  0.5122E-10 -0.4257E-11  0.4186E-10 -0.1017E-11  0.1088E-10
    -17.745 -0.5824E-12 -0.1848E-10 -0.5314E-12 -0.1593E-10 -0.1288E-12 -0.3726E-11
    -17.636 -0.3523E-13 -0.9526E-11 -0.3215E-13 -0.7992E-11 -0.7893E-14 -0.1977E-11
    -17.527 -0.1100E-14 -0.1547E-11 -0.1004E-14 -0.1284E-11 -0.2495E-15 -0.3255E-12
    -17.418 -0.1821E-16 -0.1174E-12 -0.1663E-16 -0.9669E-13 -0.4181E-17 -0.2497E-13
    -17.309 -0.1621E-18 -0.4545E-14 -0.1482E-18 -0.3721E-14 -0.3765E-19 -0.9766E-15
    -17.200 -0.7816E-21 -0.9285E-16 -0.7153E-21 -0.7565E-16 -0.1837E-21 -0.2015E-16
    -17.091 -0.2055E-23 -0.1017E-17 -0.1885E-23 -0.8258E-18 -0.4880E-24 -0.2229E-18
    -16.982  0.0000E+00 -0.6034E-20  0.0000E+00 -0.4884E-20  0.0000E+00 -0.1334E-20
    -16.872  0.0000E+00 -0.1953E-22  0.0000E+00 -0.1578E-22  0.0000E+00 -0.4358E-23
    -16.763  0.0000E+00  0.0000E+00  0.0000E+00  0.0000E+00  0.0000E+00  0.0000E+00
    -16.654  0.0000E+00  0.0000E+00  0.0000E+00  0.0000E+00  0.0000E+00  0.0000E+00
    -16.545  0.0000E+00  0.0000E+00  0.0000E+00  0.0000E+00  0.0000E+00  0.0000E+00
    -16.436  0.0000E+00  0.0000E+00  0.0000E+00  0.0000E+00  0.0000E+00  0.0000E+00
    -16.327  0.0000E+00  0.0000E+00  0.0000E+00  0.0000E+00  0.0000E+00  0.0000E+00
    -16.218  0.0000E+00  0.0000E+00  0.0000E+00  0.0000E+00  0.0000E+00  0.0000E+00
    -16.109  0.0000E+00  0.0000E+00  0.0000E+00  0.0000E+00  0.0000E+00  0.0000E+00
    -15.999  0.0000E+00  0.0000E+00  0.0000E+00  0.0000E+00  0.0000E+00  0.0000E+00
    -15.890  0.0000E+00  0.0000E+00  0.0000E+00  0.0000E+00  0.0000E+00  0.0000E+00
    -15.781  0.0000E+00  0.0000E+00  0.0000E+00  0.0000E+00  0.0000E+00  0.0000E+00
    -15.672  0.0000E+00  0.0000E+00  0.0000E+00  0.0000E+00  0.0000E+00  0.0000E+00
    -15.563  0.0000E+00  0.0000E+00  0.0000E+00  0.0000E+00  0.0000E+00  0.0000E+00
    -15.454  0.0000E+00  0.0000E+00  0.0000E+00  0.0000E+00  0.0000E+00  0.0000E+00
    -15.345  0.0000E+00  0.0000E+00  0.0000E+00  0.0000E+00  0.0000E+00  0.0000E+00
    -15.235  0.0000E+00  0.0000E+00  0.0000E+00  0.0000E+00  0.0000E+00  0.0000E+00
    -15.126  0.0000E+00  0.0000E+00  0.0000E+00  0.0000E+00  0.0000E+00  0.0000E+00
    -15.017  0.0000E+00  0.0000E+00  0.0000E+00  0.0000E+00  0.0000E+00  0.0000E+00
    -14.908  0.0000E+00  0.0000E+00  0.0000E+00  0.0000E+00  0.0000E+00  0.0000E+00
    -14.799  0.0000E+00  0.0000E+00  0.0000E+00  0.0000E+00  0.0000E+00  0.0000E+00
    -14.690  0.0000E+00  0.0000E+00  0.0000E+00  0.0000E+00  0.0000E+00  0.0000E+00
    -14.581  0.0000E+00  0.0000E+00  0.0000E+00  0.0000E+00  0.0000E+00  0.0000E+00
    -14.472  0.0000E+00  0.0000E+00  0.0000E+00  0.0000E+00  0.0000E+00  0.0000E+00
    -14.362  0.0000E+00  0.0000E+00  0.0000E+00  0.0000E+00  0.0000E+00  0.0000E+00
    -14.253  0.0000E+00  0.0000E+00  0.0000E+00  0.0000E+00  0.0000E+00  0.0000E+00
    -14.144  0.0000E+00  0.0000E+00  0.0000E+00  0.0000E+00  0.0000E+00  0.0000E+00
    -14.035  0.0000E+00  0.0000E+00  0.0000E+00  0.0000E+00  0.0000E+00  0.0000E+00
    -13.926  0.0000E+00  0.0000E+00  0.0000E+00  0.0000E+00  0.0000E+00  0.0000E+00
    -13.817  0.0000E+00  0.0000E+00  0.0000E+00  0.0000E+00  0.0000E+00  0.0000E+00
    -13.708  0.0000E+00  0.0000E+00  0.0000E+00  0.0000E+00  0.0000E+00  0.0000E+00
    -13.599  0.0000E+00  0.0000E+00  0.0000E+00  0.0000E+00  0.0000E+00  0.0000E+00
    -13.489  0.0000E+00  0.0000E+00  0.0000E+00  0.0000E+00  0.0000E+00  0.0000E+00
    -13.380  0.0000E+00  0.0000E+00  0.0000E+00  0.0000E+00  0.0000E+00  0.0000E+00
    -13.271  0.0000E+00  0.0000E+00  0.0000E+00  0.0000E+00  0.0000E+00  0.0000E+00
    -13.162  0.0000E+00  0.0000E+00  0.0000E+00  0.0000E+00  0.0000E+00  0.0000E+00
    -13.053  0.0000E+00  0.0000E+00  0.0000E+00  0.0000E+00  0.0000E+00  0.0000E+00
    -12.944  0.0000E+00  0.0000E+00  0.0000E+00  0.0000E+00  0.0000E+00  0.0000E+00
    -12.835  0.0000E+00  0.0000E+00  0.0000E+00  0.0000E+00  0.0000E+00  0.0000E+00
    -12.726  0.0000E+00  0.0000E+00  0.0000E+00  0.0000E+00  0.0000E+00  0.0000E+00
    -12.616  0.0000E+00  0.0000E+00  0.0000E+00  0.0000E+00  0.0000E+00  0.0000E+00
    -12.507  0.0000E+00  0.0000E+00  0.0000E+00  0.0000E+00  0.0000E+00  0.0000E+00
    -12.398  0.0000E+00  0.0000E+00  0.0000E+00  0.0000E+00  0.0000E+00  0.0000E+00
    -12.289  0.0000E+00  0.0000E+00  0.0000E+00  0.0000E+00  0.0000E+00  0.0000E+00
    -12.180  0.0000E+00  0.0000E+00  0.0000E+00  0.0000E+00  0.0000E+00  0.0000E+00
    -12.071  0.0000E+00  0.0000E+00  0.0000E+00  0.0000E+00  0.0000E+00  0.0000E+00
    -11.962  0.0000E+00  0.0000E+00  0.0000E+00  0.0000E+00  0.0000E+00  0.0000E+00
    -11.853  0.0000E+00  0.0000E+00  0.0000E+00  0.0000E+00  0.0000E+00  0.0000E+00
    -11.743  0.0000E+00  0.0000E+00  0.0000E+00  0.0000E+00  0.0000E+00  0.0000E+00
    -11.634  0.0000E+00  0.0000E+00  0.0000E+00  0.0000E+00  0.0000E+00  0.0000E+00
    -11.525  0.0000E+00  0.0000E+00  0.0000E+00  0.0000E+00  0.0000E+00  0.0000E+00
    -11.416  0.0000E+00  0.0000E+00  0.0000E+00  0.0000E+00  0.0000E+00  0.0000E+00
    -11.307  0.0000E+00  0.0000E+00  0.0000E+00  0.0000E+00  0.0000E+00  0.0000E+00
    -11.198  0.0000E+00  0.0000E+00  0.0000E+00  0.0000E+00  0.0000E+00  0.0000E+00
    -11.089  0.0000E+00  0.0000E+00  0.0000E+00  0.0000E+00  0.0000E+00  0.0000E+00
    -10.979  0.0000E+00  0.0000E+00  0.0000E+00  0.0000E+00  0.0000E+00  0.0000E+00
    -10.870  0.0000E+00  0.0000E+00  0.0000E+00  0.0000E+00  0.0000E+00  0.0000E+00
    -10.761  0.0000E+00  0.0000E+00  0.0000E+00  0.0000E+00  0.0000E+00  0.0000E+00
    -10.652  0.0000E+00  0.0000E+00  0.0000E+00  0.0000E+00  0.0000E+00  0.0000E+00
    -10.543  0.0000E+00  0.0000E+00  0.0000E+00  0.0000E+00  0.0000E+00  0.0000E+00
    -10.434  0.0000E+00  0.0000E+00  0.0000E+00  0.0000E+00  0.0000E+00  0.0000E+00
    -10.325  0.0000E+00  0.0000E+00  0.0000E+00  0.0000E+00  0.0000E+00  0.0000E+00
    -10.216  0.0000E+00  0.0000E+00  0.0000E+00  0.0000E+00  0.0000E+00  0.0000E+00
    -10.106 -0.3405E-33  0.0000E+00 -0.6379E-34  0.0000E+00 -0.3858E-35  0.0000E+00
     -9.997 -0.2107E-29 -0.1057E-33 -0.3964E-30 -0.1752E-34 -0.2452E-31 -0.5132E-36
     -9.888 -0.7154E-26 -0.7412E-30 -0.1352E-26 -0.1237E-30 -0.8549E-28 -0.3833E-32
     -9.779 -0.1333E-22 -0.2857E-26 -0.2530E-23 -0.4801E-27 -0.1634E-24 -0.1572E-28
     -9.670 -0.1360E-19 -0.6050E-23 -0.2594E-20 -0.1023E-23 -0.1711E-21 -0.3538E-25
     -9.561 -0.7360E-17 -0.7029E-20 -0.1410E-17 -0.1198E-20 -0.9502E-19 -0.4364E-22
     -9.452 -0.2227E-14 -0.4336E-17 -0.4287E-15 -0.7441E-18 -0.2948E-16 -0.2851E-19
     -9.343 -0.3662E-12 -0.1502E-14 -0.7082E-13 -0.2597E-15 -0.4968E-14 -0.1048E-16
     -9.233 -0.3251E-10 -0.2828E-12 -0.6317E-11 -0.4928E-13 -0.4520E-12 -0.2087E-14
     -9.124 -0.1543E-08 -0.2884E-10 -0.3013E-09 -0.5066E-11 -0.2199E-10 -0.2249E-12
     -9.015 -0.3850E-07 -0.1579E-08 -0.7555E-08 -0.2797E-09 -0.5625E-09 -0.1301E-10
     -8.906 -0.4867E-06 -0.4576E-07 -0.9600E-07 -0.8174E-08 -0.7300E-08 -0.3980E-09
     -8.797 -0.2831E-05 -0.6804E-06 -0.5621E-06 -0.1227E-06 -0.4382E-07 -0.6258E-08
     -8.688 -0.4752E-05 -0.4823E-05 -0.9584E-06 -0.8789E-06 -0.7912E-07 -0.4723E-07
     -8.579  0.1702E-04 -0.1226E-04  0.3348E-05 -0.2276E-05  0.2516E-06 -0.1331E-06
     -8.470  0.7519E-04  0.1830E-04  0.1501E-04  0.3245E-05  0.1191E-05  0.1478E-06
     -8.360  0.9416E-04  0.1379E-03  0.1931E-04  0.2570E-04  0.1624E-05  0.1472E-05
     -8.251  0.6654E-05  0.1911E-03  0.4504E-05  0.3853E-04  0.8127E-06  0.2621E-05
     -8.142 -0.1398E-03 -0.5918E-05 -0.1841E-04  0.7452E-05 -0.1924E-06  0.1461E-05
     -8.033 -0.1034E-03 -0.7004E-04 -0.1999E-04 -0.1603E-04 -0.1768E-05 -0.1639E-05
     -7.924  0.6137E-03  0.7632E-03  0.6052E-04  0.7819E-04 -0.4392E-05 -0.3818E-05
     -7.815  0.3035E-02  0.3874E-02  0.4085E-03  0.5361E-03  0.6370E-05  0.1113E-04
     -7.706  0.8717E-02  0.1016E-01  0.1304E-02  0.1527E-02  0.5163E-04  0.5561E-04
     -7.597  0.1262E-01  0.1267E-01  0.1928E-02  0.1932E-02  0.8406E-04  0.7399E-04
     -7.487  0.7610E-02  0.6366E-02  0.1147E-02  0.9537E-03  0.4332E-04  0.3070E-04
     -7.378  0.2250E-02  0.2366E-02  0.3753E-03  0.4287E-03  0.2593E-04  0.3496E-04
     -7.269  0.5576E-02  0.6999E-02  0.1152E-02  0.1450E-02  0.1515E-03  0.1660E-03
     -7.160  0.1119E-01  0.1204E-01  0.2402E-02  0.2617E-02  0.3490E-03  0.3372E-03
     -7.051  0.1308E-01  0.1337E-01  0.3017E-02  0.3131E-02  0.5179E-03  0.4755E-03
     -6.942  0.1164E-01  0.1133E-01  0.2820E-02  0.2762E-02  0.5379E-03  0.4558E-03