       N       E                     dE             d eps       ncg     rms          rms(c)
DAV:   1    -0.354440673968E+03   -0.35444E+03   -0.15785E+03  9630   0.467E+01    0.693E+00
RMM:   2    -0.372918027881E+03   -0.18477E+02   -0.14639E+02  8833   0.221E+01    0.370E+01
RMM:   3    -0.371295843316E+03    0.16222E+01   -0.62884E+00  8851   0.472E+00    0.316E+01
RMM:   4    -0.369492014556E+03    0.18038E+01   -0.20120E+00  8914   0.331E+00    0.173E+01
RMM:   5    -0.368542165279E+03    0.94985E+00   -0.84935E-01  8845   0.233E+00    0.502E+00
RMM:   6    -0.368696131611E+03   -0.15397E+00   -0.22575E-01  8859   0.112E+00    0.855E+00
RMM:   7    -0.368544846347E+03    0.15129E+00   -0.10039E-01  8857   0.816E-01    0.439E+00
RMM:   8    -0.368538375738E+03    0.64706E-02   -0.22337E-02  8871   0.349E-01    0.411E+00
RMM:   9    -0.368541656119E+03   -0.32804E-02   -0.99968E-03  8851   0.224E-01    0.425E+00
RMM:  10    -0.368532265935E+03    0.93902E-02   -0.61138E-03  8847   0.184E-01    0.399E+00
RMM:  11    -0.368503191714E+03    0.29074E-01   -0.12497E-02  8820   0.254E-01    0.319E+00
RMM:  12    -0.368432667992E+03    0.70524E-01   -0.13062E-02  8818   0.255E-01    0.146E+00
RMM:  13    -0.368407570103E+03    0.25098E-01   -0.50410E-03  8856   0.166E-01    0.108E+00
RMM:  14    -0.368376004359E+03    0.31566E-01   -0.39483E-03  8845   0.142E-01    0.116E+00
RMM:  15    -0.368353040716E+03    0.22964E-01   -0.25888E-03  8854   0.126E-01    0.830E-01
RMM:  16    -0.368350593401E+03    0.24473E-02   -0.18572E-03  8802   0.101E-01    0.923E-01
RMM:  17    -0.368342837640E+03    0.77558E-02   -0.14196E-03  8828   0.922E-02    0.731E-01
RMM:  18    -0.368344786458E+03   -0.19488E-02   -0.71285E-04  8732   0.653E-02    0.661E-01
RMM:  19    -0.368362512122E+03   -0.17726E-01   -0.11516E-03  8807   0.766E-02    0.733E-01
RMM:  20    -0.368382005411E+03   -0.19493E-01   -0.97173E-04  8839   0.699E-02    0.596E-01
RMM:  21    -0.368399554822E+03   -0.17549E-01   -0.37204E-04  8721   0.400E-02    0.549E-01
RMM:  22    -0.368472894556E+03   -0.73340E-01   -0.23663E-03  8769   0.568E-02    0.250E-01
RMM:  23    -0.368490247772E+03   -0.17353E-01   -0.52947E-04  8746   0.405E-02    0.204E-01
RMM:  24    -0.368517007375E+03   -0.26760E-01   -0.79730E-04  8771   0.354E-02    0.308E-01
RMM:  25    -0.368522786841E+03   -0.57795E-02   -0.16356E-04  8638   0.250E-02    0.278E-01
RMM:  26    -0.368532079784E+03   -0.92929E-02   -0.33838E-04  8714   0.310E-02    0.294E-01
RMM:  27    -0.368544245649E+03   -0.12166E-01   -0.78068E-04  8752   0.372E-02    0.128E-01
RMM:  28    -0.368547100568E+03   -0.28549E-02   -0.15270E-04  8574   0.223E-02    0.145E-01
RMM:  29    -0.368551090379E+03   -0.39898E-02   -0.21854E-04  8480   0.212E-02    0.115E-01
RMM:  30    -0.368552030130E+03   -0.93975E-03   -0.52544E-05  6926   0.143E-02    0.557E-02
RMM:  31    -0.368552709523E+03   -0.67939E-03   -0.34622E-05  5942   0.111E-02    0.855E-02
RMM:  32    -0.368553201815E+03   -0.49229E-03   -0.53396E-05  6531   0.121E-02    0.498E-02
RMM:  33    -0.368553257286E+03   -0.55471E-04   -0.10915E-05  5206   0.726E-03    0.459E-02
RMM:  34    -0.368553375556E+03   -0.11827E-03   -0.15868E-05  5335   0.766E-03    0.111E-01
RMM:  35    -0.368553412717E+03   -0.37160E-04   -0.93837E-06  5155   0.717E-03    0.885E-02
RMM:  36    -0.368553436666E+03   -0.23949E-04   -0.46734E-06  5027   0.400E-03    0.461E-02
RMM:  37    -0.368553574546E+03   -0.13788E-03   -0.58576E-06  5097   0.472E-03    0.127E-01
RMM:  38    -0.368553636449E+03   -0.61903E-04   -0.26319E-06  5030   0.372E-03    0.566E-02
RMM:  39    -0.368553665537E+03   -0.29088E-04   -0.10001E-06  4827   0.233E-03    0.324E-02
RMM:  40    -0.368553735211E+03   -0.69674E-04   -0.11305E-06  4830   0.210E-03    0.394E-02
RMM:  41    -0.368553807031E+03   -0.71820E-04   -0.11934E-06  4913   0.215E-03    0.533E-02
RMM:  42    -0.368553849702E+03   -0.42672E-04   -0.43665E-07  3599   0.129E-03    0.506E-02
RMM:  43    -0.368553915908E+03   -0.66205E-04   -0.73755E-07  3585   0.130E-03    0.351E-02
RMM:  44    -0.368553937729E+03   -0.21821E-04   -0.20043E-07  2381   0.106E-03    0.283E-02
RMM:  45    -0.368554016644E+03   -0.78916E-04   -0.20334E-06  4463   0.156E-03    0.107E-02
RMM:  46    -0.368554049500E+03   -0.32856E-04   -0.59217E-07  3432   0.125E-03    0.225E-03
RMM:  47    -0.368554078234E+03   -0.28734E-04   -0.73065E-07  2612   0.112E-03    0.317E-03
RMM:  48    -0.368554083010E+03   -0.47764E-05   -0.97362E-08  1448   0.887E-04
   1 F= -.38672151E+03 E0= -.38668661E+03  d E =-.386722E+03  mag=    43.5567
       N       E                     dE             d eps       ncg     rms          rms(c)
DAV:   1    -0.368552320296E+03    0.17579E-02   -0.57152E-01  9024   0.117E+00    0.239E-01
RMM:   2    -0.368559567924E+03   -0.72476E-02   -0.21154E-02  9006   0.284E-01    0.147E+00
RMM:   3    -0.368554623229E+03    0.49447E-02   -0.14875E-03  8870   0.902E-02    0.601E-01
RMM:   4    -0.368555087026E+03   -0.46380E-03   -0.15509E-03  8829   0.954E-02    0.736E-01
RMM:   5    -0.368554525091E+03    0.56194E-03   -0.79949E-04  8795   0.712E-02    0.556E-01
RMM:   6    -0.368553800472E+03    0.72462E-03   -0.43431E-04  8748   0.536E-02    0.292E-01
RMM:   7    -0.368553895023E+03   -0.94551E-04   -0.42177E-04  8763   0.486E-02    0.453E-01
RMM:   8    -0.368553108898E+03    0.78613E-03   -0.34456E-04  8778   0.468E-02    0.239E-01
RMM:   9    -0.368552918977E+03    0.18992E-03   -0.17839E-04  8705   0.329E-02    0.137E-01
RMM:  10    -0.368552878228E+03    0.40748E-04   -0.88730E-05  8440   0.231E-02    0.151E-01
RMM:  11    -0.368552808851E+03    0.69377E-04   -0.50256E-05  7537   0.187E-02    0.435E-02
RMM:  12    -0.368552829727E+03   -0.20875E-04   -0.10008E-05  4883   0.797E-03    0.381E-02
RMM:  13    -0.368552908409E+03   -0.78683E-04   -0.72285E-06  4934   0.693E-03    0.430E-02
RMM:  14    -0.368552958773E+03   -0.50364E-04   -0.48772E-06  4885   0.610E-03    0.301E-02
RMM:  15    -0.368553045842E+03   -0.87069E-04   -0.38531E-06  4900   0.474E-03    0.355E-02
RMM:  16    -0.368553196233E+03   -0.15039E-03   -0.47283E-06  5024   0.491E-03    0.239E-02
RMM:  17    -0.368553251640E+03   -0.55407E-04   -0.17530E-06  4871   0.325E-03    0.142E-02
RMM:  18    -0.368553431375E+03   -0.17974E-03   -0.27483E-06  5039   0.280E-03    0.224E-02
RMM:  19    -0.368553529357E+03   -0.97982E-04   -0.16898E-06  4911   0.271E-03    0.170E-02
RMM:  20    -0.368553623313E+03   -0.93955E-04   -0.14272E-06  4886   0.217E-03    0.193E-02
RMM:  21    -0.368553833220E+03   -0.20991E-03   -0.63038E-06  5220   0.295E-03    0.630E-03
RMM:  22    -0.368553883304E+03   -0.50083E-04   -0.16378E-06  4917   0.207E-03    0.915E-03
RMM:  23    -0.368553946991E+03   -0.63687E-04   -0.29942E-06  5097   0.220E-03    0.904E-03
RMM:  24    -0.368553954166E+03   -0.71756E-05   -0.62307E-07  4189   0.147E-03
   2 F= -.38672286E+03 E0= -.38668865E+03  d E =-.135111E-02  mag=    43.6108
       N       E                     dE             d eps       ncg     rms          rms(c)
DAV:   1    -0.368553846882E+03    0.10011E-03   -0.29008E-03  9183   0.836E-02    0.176E-02
RMM:   2    -0.368553879189E+03   -0.32306E-04   -0.10992E-04  7777   0.209E-02    0.104E-01
RMM:   3    -0.368553857479E+03    0.21710E-04   -0.97545E-06  4921   0.832E-03    0.636E-02
RMM:   4    -0.368553856579E+03    0.89989E-06   -0.77465E-06  4898   0.717E-03
   3 F= -.38672287E+03 E0= -.38668870E+03  d E =-.135953E-02  mag=    43.6115
       N       E                     dE             d eps       ncg     rms          rms(c)
DAV:   1    -0.368552965499E+03    0.89198E-03   -0.27375E-01  9096   0.792E-01    0.166E-01
RMM:   2    -0.368557051711E+03   -0.40862E-02   -0.84819E-03  8909   0.197E-01    0.109E+00
RMM:   3    -0.368555557250E+03    0.14945E-02   -0.12088E-03  8840   0.835E-02    0.971E-01
RMM:   4    -0.368553667711E+03    0.18895E-02   -0.99815E-04  8810   0.740E-02    0.284E-01
RMM:   5    -0.368553913608E+03   -0.24590E-03   -0.36050E-04  8719   0.472E-02    0.410E-01
RMM:   6    -0.368553485613E+03    0.42800E-03   -0.21864E-04  8661   0.382E-02    0.118E-01
RMM:   7    -0.368553538804E+03   -0.53192E-04   -0.10139E-04  8552   0.239E-02    0.181E-01
RMM:   8    -0.368553440830E+03    0.97974E-04   -0.79722E-05  8469   0.219E-02    0.117E-01
RMM:   9    -0.368553399634E+03    0.41196E-04   -0.57325E-05  7818   0.191E-02    0.705E-02
RMM:  10    -0.368553402321E+03   -0.26870E-05   -0.36361E-05  6600   0.150E-02
   4 F= -.38672315E+03 E0= -.38668930E+03  d E =-.285815E-03  mag=    43.6197
       N       E                     dE             d eps       ncg     rms          rms(c)
DAV:   1    -0.368553611012E+03   -0.21138E-03   -0.36936E-02  9207   0.300E-01    0.688E-02
RMM:   2    -0.368554588191E+03   -0.97718E-03   -0.13940E-03  8872   0.831E-02    0.608E-01
RMM:   3    -0.368554090542E+03    0.49765E-03   -0.29071E-04  8778   0.418E-02    0.386E-01
RMM:   4    -0.368553753758E+03    0.33678E-03   -0.13633E-04  8638   0.280E-02    0.146E-01
RMM:   5    -0.368553781170E+03   -0.27413E-04   -0.75859E-05  8198   0.212E-02    0.142E-01
RMM:   6    -0.368553740573E+03    0.40597E-04   -0.36281E-05  6726   0.161E-02    0.545E-02
RMM:   7    -0.368553742937E+03   -0.23637E-05   -0.10613E-05  4869   0.851E-03
   5 F= -.38672322E+03 E0= -.38668932E+03  d E =-.354364E-03  mag=    43.6217
