 vasp.5.4.4.18Apr17-6-g9f103f2a35 (build Dec 15 2018 21:27:11) complex          
  
 executed on             LinuxIFC date 2022.03.01  02:40:04
 running on   72 total cores
 distrk:  each k-point on   72 cores,    1 groups
 distr:  one band on NCORES_PER_BAND=  24 cores,    3 groups


--------------------------------------------------------------------------------------------------------


 INCAR:
 POTCAR:    PAW_PBE Ni 02Aug2007                  
 POTCAR:    PAW_PBE O 08Apr2002                   
 POTCAR:    PAW_PBE H 15Jun2001                   

 ----------------------------------------------------------------------------- 
|                                                                             |
|           W    W    AA    RRRRR   N    N  II  N    N   GGGG   !!!           |
|           W    W   A  A   R    R  NN   N  II  NN   N  G    G  !!!           |
|           W    W  A    A  R    R  N N  N  II  N N  N  G       !!!           |
|           W WW W  AAAAAA  RRRRR   N  N N  II  N  N N  G  GGG   !            |
|           WW  WW  A    A  R   R   N   NN  II  N   NN  G    G                |
|           W    W  A    A  R    R  N    N  II  N    N   GGGG   !!!           |
|                                                                             |
|      For optimal performance we recommend to set                            |
|        NCORE= 4 - approx SQRT( number of cores)                             |
|      NCORE specifies how many cores store one orbital (NPAR=cpu/NCORE).     |
|      This setting can  greatly improve the performance of VASP for DFT.     |
|      The default,   NCORE=1            might be grossly inefficient         |
|      on modern multi-core architectures or massively parallel machines.     |
|      Do your own testing !!!!                                               |
|      Unfortunately you need to use the default for GW and RPA calculations. |
|      (for HF NCORE is supported but not extensively tested yet)             |
|                                                                             |
 ----------------------------------------------------------------------------- 

 POTCAR:    PAW_PBE Ni 02Aug2007                  
   VRHFIN =Ni:                                                                  
   LEXCH  = PE                                                                  
   EATOM  =  1077.6739 eV,   79.2068 Ry                                         
                                                                                
   TITEL  = PAW_PBE Ni 02Aug2007                                                
   LULTRA =        F    use ultrasoft PP ?                                      
   IUNSCR =        1    unscreen: 0-lin 1-nonlin 2-no                           
   RPACOR =    2.000    partial core radius                                     
   POMASS =   58.690; ZVAL   =   10.000    mass and valenz                      
   RCORE  =    2.300    outmost cutoff radius                                   
   RWIGS  =    2.430; RWIGS  =    1.286    wigner-seitz radius (au A)           
   ENMAX  =  269.532; ENMIN  =  202.149 eV                                      
   RCLOC  =    1.201    cutoff for local pot                                    
   LCOR   =        T    correct aug charges                                     
   LPAW   =        T    paw PP                                                  
   EAUG   =  544.565                                                            
   DEXC   =    0.000                                                            
   RMAX   =    2.357    core radius for proj-oper                               
   RAUG   =    1.300    factor for augmentation sphere                          
   RDEP   =    2.390    radius for radial grids                                 
   RDEPT  =    1.838    core radius for aug-charge                              
                                                                                
   Atomic configuration                                                         
    9 entries                                                                   
     n  l   j            E        occ.                                          
     1  0  0.50     -8206.4253   2.0000                                         
     2  0  0.50      -976.1748   2.0000                                         
     2  1  1.50      -839.0571   6.0000                                         
     3  0  0.50      -105.9991   2.0000                                         
     3  1  1.50       -66.4603   6.0000                                         
     3  2  2.50        -4.6458   9.0000                                         
     4  0  0.50        -4.4926   1.0000                                         
     4  1  1.50        -4.0817   0.0000                                         
     4  3  2.50        -1.3606   0.0000                                         
   Description                                                                  
     l       E           TYP  RCUT    TYP  RCUT                                 
     2     -4.6457903     23  2.300                                             
     2     -6.0063729     23  2.300                                             
     0     -4.4925590     23  2.300                                             
     0      5.0102601     23  2.300                                             
     1     -2.7211652     23  2.300                                             
     1     16.5183231     23  2.300                                             
  local pseudopotential read in
  partial core-charges read in
  partial kinetic energy density read in
  atomic valenz-charges read in
  non local Contribution for L=           2  read in
    real space projection operators read in
  non local Contribution for L=           2  read in
    real space projection operators read in
  non local Contribution for L=           0  read in
    real space projection operators read in
  non local Contribution for L=           0  read in
    real space projection operators read in
  non local Contribution for L=           1  read in
    real space projection operators read in
  non local Contribution for L=           1  read in
    real space projection operators read in
    PAW grid and wavefunctions read in
 
   number of l-projection  operators is LMAX  =           6
   number of lm-projection operators is LMMAX =          18
 
 POTCAR:    PAW_PBE O 08Apr2002                   
   VRHFIN =O: s2p4                                                              
   LEXCH  = PE                                                                  
   EATOM  =   432.3788 eV,   31.7789 Ry                                         
                                                                                
   TITEL  = PAW_PBE O 08Apr2002                                                 
   LULTRA =        F    use ultrasoft PP ?                                      
   IUNSCR =        1    unscreen: 0-lin 1-nonlin 2-no                           
   RPACOR =    1.200    partial core radius                                     
   POMASS =   16.000; ZVAL   =    6.000    mass and valenz                      
   RCORE  =    1.520    outmost cutoff radius                                   
   RWIGS  =    1.550; RWIGS  =    0.820    wigner-seitz radius (au A)           
   ENMAX  =  400.000; ENMIN  =  300.000 eV                                      
   ICORE  =        2    local potential                                         
   LCOR   =        T    correct aug charges                                     
   LPAW   =        T    paw PP                                                  
   EAUG   =  605.392                                                            
   DEXC   =    0.000                                                            
   RMAX   =    1.553    core radius for proj-oper                               
   RAUG   =    1.300    factor for augmentation sphere                          
   RDEP   =    1.550    radius for radial grids                                 
   RDEPT  =    1.329    core radius for aug-charge                              
                                                                                
   Atomic configuration                                                         
    4 entries                                                                   
     n  l   j            E        occ.                                          
     1  0  0.50      -514.6923   2.0000                                         
     2  0  0.50       -23.9615   2.0000                                         
     2  1  0.50        -9.0305   4.0000                                         
     3  2  1.50        -9.5241   0.0000                                         
   Description                                                                  
     l       E           TYP  RCUT    TYP  RCUT                                 
     0    -23.9615318     23  1.200                                             
     0     -9.5240782     23  1.200                                             
     1     -9.0304911     23  1.520                                             
     1      8.1634956     23  1.520                                             
     2     -9.5240782      7  1.500                                             
  local pseudopotential read in
  partial core-charges read in
  partial kinetic energy density read in
  kinetic energy density of atom read in
  atomic valenz-charges read in
  non local Contribution for L=           0  read in
    real space projection operators read in
  non local Contribution for L=           0  read in
    real space projection operators read in
  non local Contribution for L=           1  read in
    real space projection operators read in
  non local Contribution for L=           1  read in
    real space projection operators read in
    PAW grid and wavefunctions read in
 
   number of l-projection  operators is LMAX  =           4
   number of lm-projection operators is LMMAX =           8
 
 POTCAR:    PAW_PBE H 15Jun2001                   
   VRHFIN =H: ultrasoft test                                                    
   LEXCH  = PE                                                                  
   EATOM  =    12.4884 eV,    0.9179 Ry                                         
                                                                                
   TITEL  = PAW_PBE H 15Jun2001                                                 
   LULTRA =        F    use ultrasoft PP ?                                      
   IUNSCR =        0    unscreen: 0-lin 1-nonlin 2-no                           
   RPACOR =    0.000    partial core radius                                     
   POMASS =    1.000; ZVAL   =    1.000    mass and valenz                      
   RCORE  =    1.100    outmost cutoff radius                                   
   RWIGS  =    0.700; RWIGS  =    0.370    wigner-seitz radius (au A)           
   ENMAX  =  250.000; ENMIN  =  200.000 eV                                      
   RCLOC  =    0.701    cutoff for local pot                                    
   LCOR   =        T    correct aug charges                                     
   LPAW   =        T    paw PP                                                  
   EAUG   =  400.000                                                            
   RMAX   =    1.123    core radius for proj-oper                               
   RAUG   =    1.200    factor for augmentation sphere                          
   RDEP   =    1.112    radius for radial grids                                 
   RDEPT  =    0.926    core radius for aug-charge                              
                                                                                
   Atomic configuration                                                         
    2 entries                                                                   
     n  l   j            E        occ.                                          
     1  0  0.50        -6.4927   1.0000                                         
     2  1  0.50        -3.4015   0.0000                                         
   Description                                                                  
     l       E           TYP  RCUT    TYP  RCUT                                 
     0     -6.4927494     23  1.100                                             
     0      6.8029130     23  1.100                                             
     1     -4.0817478     23  1.100                                             
  local pseudopotential read in
  atomic valenz-charges read in
  non local Contribution for L=           0  read in
    real space projection operators read in
  non local Contribution for L=           0  read in
    real space projection operators read in
  non local Contribution for L=           1  read in
    real space projection operators read in
    PAW grid and wavefunctions read in
 
   number of l-projection  operators is LMAX  =           3
   number of lm-projection operators is LMMAX =           5
 
 Optimization of the real space projectors (new method)

 maximal supplied QI-value         = 16.25
 optimisation between [QCUT,QGAM] = [ 11.54, 23.24] = [ 37.28,151.24] Ry 
 Optimized for a Real-space Cutoff    1.45 Angstroem

   l    n(q)    QCUT    max X(q) W(low)/X(q) W(high)/X(q)  e(spline) 
   2      9    11.539    60.317    0.19E-03    0.47E-04    0.16E-06
   2      9    11.539    55.921    0.19E-03    0.48E-04    0.16E-06
   0     10    11.539    51.690    0.80E-04    0.50E-04    0.24E-06
   0     10    11.539    30.015    0.73E-04    0.45E-04    0.22E-06
   1     10    11.539    18.849    0.87E-04    0.16E-03    0.71E-07
   1     10    11.539    14.624    0.73E-04    0.13E-03    0.64E-07
 Optimization of the real space projectors (new method)

 maximal supplied QI-value         = 24.76
 optimisation between [QCUT,QGAM] = [ 11.64, 23.27] = [ 37.91,151.63] Ry 
 Optimized for a Real-space Cutoff    1.14 Angstroem

   l    n(q)    QCUT    max X(q) W(low)/X(q) W(high)/X(q)  e(spline) 
   0      8    11.635    20.381    0.10E-03    0.33E-03    0.24E-06
   0      8    11.635    15.268    0.11E-03    0.35E-03    0.26E-06
   1      7    11.635     5.964    0.24E-03    0.31E-03    0.30E-06
   1      7    11.635     5.382    0.22E-03    0.25E-03    0.26E-06
 Optimization of the real space projectors (new method)

 maximal supplied QI-value         = 34.20
 optimisation between [QCUT,QGAM] = [ 11.63, 23.26] = [ 37.87,151.49] Ry 
 Optimized for a Real-space Cutoff    1.21 Angstroem

   l    n(q)    QCUT    max X(q) W(low)/X(q) W(high)/X(q)  e(spline) 
   0      8    11.629    19.460    0.17E-03    0.34E-03    0.21E-06
   0      8    11.629    12.209    0.16E-03    0.33E-03    0.21E-06
   1      8    11.629     4.655    0.18E-03    0.16E-03    0.26E-06
  PAW_PBE Ni 02Aug2007                  :
 energy of atom  1       EATOM=-1077.6739
 kinetic energy error for atom=    0.0030 (will be added to EATOM!!)
  PAW_PBE O 08Apr2002                   :
 energy of atom  2       EATOM= -432.3788
 kinetic energy error for atom=    0.0208 (will be added to EATOM!!)
  PAW_PBE H 15Jun2001                   :
 energy of atom  3       EATOM=  -12.4884
 kinetic energy error for atom=    0.0014 (will be added to EATOM!!)
 
 
 POSCAR: POSCAR                                  
  positions in direct lattice
  velocities in cartesian coordinates
 exchange correlation table for  LEXCH =        8
   RHO(1)=    0.500       N(1)  =     2000
   RHO(2)=  100.500       N(2)  =     4000

 VTST: version 3.2, (02/03/18)

 CHAIN: initializing optimizer
 
 OPT: Using VASP Conjugate-Gradient optimizer
 CHAIN: Read ICHAIN            0
 
 POSCAR: POSCAR                                  
  positions in direct lattice
  velocities in cartesian coordinates
 


--------------------------------------------------------------------------------------------------------


 ion  position               nearest neighbor table
   1  0.113  0.226  0.095-  15 2.49  19 2.49   3 2.49   5 2.49  13 2.49  17 2.49  21 2.49  49 2.49
                            61 2.49
   2  0.110  0.227  0.382-  65 1.82  14 2.40  18 2.43  20 2.46  62 2.49  22 2.50  24 2.51   6 2.52
                             4 2.52  50 2.57
   3  0.196  0.142  0.191-   4 2.44  24 2.45   8 2.46   5 2.49  49 2.49   1 2.49   7 2.49  15 2.49
                            19 2.49  23 2.49  51 2.49  63 2.49
   4  0.030  0.059  0.285-  62 2.43   3 2.44  63 2.44  15 2.45  24 2.49   8 2.49  16 2.49  20 2.49
                            64 2.49  52 2.49   2 2.52  50 2.53
   5  0.363  0.226  0.095-   3 2.49  23 2.49   7 2.49   9 2.49   1 2.49  21 2.49  25 2.49  49 2.49
                            53 2.49
   6  0.360  0.223  0.386-  65 1.88  69 1.98  50 2.51   2 2.52  54 2.52  22 2.52  26 2.54  10 2.54
                            28 2.54   8 2.55  24 2.55
   7  0.446  0.142  0.191-   8 2.46  12 2.46  28 2.49   9 2.49  53 2.49   5 2.49  11 2.49   3 2.49
                            23 2.49  51 2.49  27 2.49  55 2.49
   8  0.280  0.060  0.286-  54 2.41   3 2.46   7 2.46  24 2.46  51 2.46  28 2.48   4 2.49  52 2.50
                            12 2.50  56 2.51  50 2.51   6 2.55
   9  0.613  0.226  0.095-   7 2.49  27 2.49  11 2.49  13 2.49   5 2.49  25 2.49  29 2.49  53 2.49
                            57 2.49
  10  0.615  0.223  0.386-  68 1.88  69 1.97  58 2.51  14 2.51  54 2.52  30 2.52  32 2.54  12 2.54
                            26 2.54   6 2.54  28 2.54
  11  0.696  0.142  0.191-  16 2.44  12 2.45  32 2.45  13 2.49  57 2.49   9 2.49  15 2.49   7 2.49
                            27 2.49  55 2.49  31 2.49  59 2.49
  12  0.531  0.060  0.286-  54 2.41  11 2.45   7 2.46  55 2.46  32 2.46  28 2.48  16 2.48  60 2.50
                             8 2.50  56 2.51  58 2.52  10 2.54
  13  0.863  0.226  0.095-  11 2.49  31 2.49  15 2.49   9 2.49   1 2.49  29 2.49  17 2.49  57 2.49
                            61 2.49
  14  0.869  0.227  0.382-  68 1.82   2 2.40  18 2.43  20 2.46  62 2.49  30 2.50  10 2.51  32 2.52
                            16 2.52  58 2.57
  15  0.946  0.142  0.191-  16 2.44   4 2.45  20 2.47   1 2.49  61 2.49  13 2.49   3 2.49  11 2.49
                            31 2.49  59 2.49  19 2.49  63 2.49
  16  0.780  0.059  0.285-  62 2.43  15 2.44  59 2.44  11 2.44  32 2.48  12 2.48   4 2.49  64 2.49
                            60 2.49  20 2.49  58 2.52  14 2.52
  17  0.113  0.476  0.095-  31 2.49  35 2.49  19 2.49  21 2.49  29 2.49  13 2.49  33 2.49   1 2.49
                            37 2.49
  18  0.112  0.472  0.382-  67 1.84  14 2.43   2 2.43  20 2.47  30 2.47  22 2.48  40 2.52  36 2.53
                            34 2.53  38 2.54
  19  0.196  0.392  0.191-  40 2.44  20 2.47  24 2.47  21 2.49   1 2.49  17 2.49  31 2.49  23 2.49
                            15 2.49  35 2.49  39 2.49   3 2.49
  20  0.030  0.309  0.286-  14 2.46   2 2.46  19 2.47  15 2.47  18 2.47  31 2.47  40 2.49  36 2.49
                             4 2.49  16 2.49  24 2.50  32 2.50
  21  0.363  0.476  0.095-  19 2.49  39 2.49  23 2.49  25 2.49  17 2.49   5 2.49  37 2.49   1 2.49
                            41 2.49
  22  0.362  0.476  0.376-  40 2.40  44 2.41  24 2.41  18 2.48  38 2.48   2 2.50  42 2.50  26 2.52
                             6 2.52
  23  0.446  0.392  0.191-  24 2.46  44 2.46  25 2.49   5 2.49  21 2.49  27 2.49  19 2.49   3 2.49
                            39 2.49  43 2.49   7 2.49  28 2.50
  24  0.280  0.307  0.286-  22 2.41   3 2.45  23 2.46   8 2.46  19 2.47  28 2.48   4 2.49  20 2.50
                            44 2.50  40 2.51   2 2.51   6 2.55
  25  0.613  0.476  0.095-  23 2.49  43 2.49  27 2.49  29 2.49  21 2.49   9 2.49  41 2.49   5 2.49
                            45 2.49
  26  0.615  0.478  0.386-  66 1.88  69 1.98  46 2.51  42 2.52  30 2.52  22 2.52   6 2.54  10 2.54
                            28 2.54  48 2.55  44 2.55
  27  0.696  0.392  0.191-  48 2.46  32 2.46  28 2.49  29 2.49   9 2.49  25 2.49  23 2.49  31 2.49
                            11 2.49  43 2.49  47 2.49   7 2.49
  28  0.530  0.309  0.288-  44 2.48  24 2.48   8 2.48  48 2.48  12 2.48  32 2.48  27 2.49   7 2.49
                            23 2.50  10 2.54   6 2.54  26 2.54
  29  0.863  0.476  0.095-  27 2.49  47 2.49  31 2.49  25 2.49  17 2.49  13 2.49  33 2.49  45 2.49
                             9 2.49
  30  0.866  0.476  0.376-  36 2.40  32 2.41  48 2.41  18 2.47  34 2.48  46 2.50  14 2.50  10 2.52
                            26 2.52
  31  0.946  0.392  0.191-  36 2.44  32 2.46  20 2.47  17 2.49  13 2.49  29 2.49  27 2.49  19 2.49
                            15 2.49  35 2.49  11 2.49  47 2.49
  32  0.778  0.307  0.286-  30 2.41  11 2.45  27 2.46  31 2.46  12 2.46  16 2.48  28 2.48  20 2.50
                            48 2.50  36 2.51  14 2.52  10 2.54
  33  0.113  0.726  0.095-  47 2.49  51 2.49  35 2.49  37 2.49  45 2.49  29 2.49  49 2.49  17 2.49
                            53 2.49
  34  0.112  0.727  0.382-  67 1.84  50 2.43  46 2.43  54 2.47  30 2.48  52 2.48  56 2.52  36 2.52
                            18 2.53  38 2.54
  35  0.196  0.642  0.191-  36 2.43  56 2.43  40 2.44  37 2.49  17 2.49  33 2.49  47 2.49  39 2.49
                            31 2.49  51 2.49  55 2.49  19 2.49
  36  0.030  0.559  0.284-  30 2.40  35 2.43  31 2.44  47 2.44  56 2.49  40 2.49  52 2.49  20 2.49
                            48 2.51  32 2.51  34 2.52  18 2.53
  37  0.363  0.726  0.095-  35 2.49  55 2.49  39 2.49  41 2.49  33 2.49  21 2.49  53 2.49  17 2.49
                            57 2.49
  38  0.366  0.727  0.382-  67 1.84  58 2.43  42 2.43  60 2.47  54 2.47  22 2.48  40 2.52  56 2.53
                            34 2.54  18 2.54
  39  0.446  0.642  0.191-  40 2.44  60 2.47  44 2.47  41 2.49  21 2.49  37 2.49  35 2.49  43 2.49
                            23 2.49  55 2.49  59 2.49  19 2.49
  40  0.280  0.559  0.284-  22 2.40  39 2.44  19 2.44  35 2.44  36 2.49  56 2.49  20 2.49  60 2.49
                            44 2.51  24 2.51  18 2.52  38 2.52
  41  0.613  0.726  0.095-  39 2.49  59 2.49  43 2.49  45 2.49  37 2.49  25 2.49  57 2.49  21 2.49
                            61 2.49
  42  0.612  0.729  0.382-  66 1.82  58 2.40  38 2.43  60 2.46  62 2.49  22 2.50  44 2.51  26 2.52
                            64 2.52  46 2.57
  43  0.696  0.642  0.191-  64 2.44  44 2.45  48 2.46  45 2.49  25 2.49  41 2.49  39 2.49  47 2.49
                            27 2.49  59 2.49  63 2.49  23 2.49
  44  0.531  0.559  0.286-  22 2.41  43 2.45  23 2.46  48 2.46  39 2.47  28 2.48  64 2.49  60 2.50
                            24 2.50  40 2.51  42 2.51  26 2.55
  45  0.863  0.726  0.095-  43 2.49  63 2.49  47 2.49  41 2.49  33 2.49  29 2.49  49 2.49  61 2.49
                            25 2.49
  46  0.869  0.729  0.382-  66 1.82  50 2.40  34 2.43  52 2.46  62 2.49  30 2.50  48 2.51  26 2.51
                            64 2.53  42 2.57
  47  0.946  0.642  0.191-  36 2.44  48 2.46  52 2.47  33 2.49  29 2.49  45 2.49  43 2.49  35 2.49
                            31 2.49  51 2.49  27 2.49  63 2.49
  48  0.778  0.559  0.286-  30 2.41  43 2.46  27 2.46  47 2.46  44 2.46  28 2.48  64 2.49  52 2.50
                            32 2.50  36 2.51  46 2.51  26 2.55
  49  0.113  0.976  0.095-  63 2.49   3 2.49  51 2.49  61 2.49  53 2.49   1 2.49   5 2.49  33 2.49
                            45 2.49
  50  0.110  0.970  0.382-  65 1.82  46 2.40  34 2.43  52 2.46  62 2.49  54 2.50   8 2.51   6 2.51
                             4 2.53   2 2.57
  51  0.196  0.892  0.191-  56 2.44   8 2.46  52 2.47  53 2.49  33 2.49  49 2.49  55 2.49  63 2.49
                            35 2.49  47 2.49   3 2.49   7 2.49
  52  0.030  0.809  0.286-  46 2.46  50 2.46  51 2.47  47 2.47  63 2.47  34 2.48  56 2.49  36 2.49
                             4 2.49  64 2.49   8 2.50  48 2.50
  53  0.363  0.976  0.095-  51 2.49   7 2.49  55 2.49  49 2.49  57 2.49   5 2.49   9 2.49  33 2.49
                            37 2.49
  54  0.362  0.972  0.376-  56 2.40  12 2.41   8 2.41  38 2.47  34 2.47  50 2.50  58 2.50  10 2.52
                             6 2.52
  55  0.446  0.892  0.191-  56 2.44  12 2.46  60 2.47  57 2.49  37 2.49  53 2.49  59 2.49  51 2.49
                            11 2.49  39 2.49   7 2.49  35 2.49
  56  0.280  0.808  0.284-  54 2.40  35 2.43  55 2.44  51 2.44  36 2.49  40 2.49  52 2.49  60 2.49
                             8 2.51  12 2.51  34 2.52  38 2.53
  57  0.613  0.976  0.095-  55 2.49  11 2.49  59 2.49  53 2.49  61 2.49   9 2.49  13 2.49  37 2.49
                            41 2.49
  58  0.612  0.969  0.382-  68 1.82  42 2.40  38 2.43  60 2.46  62 2.49  54 2.50  10 2.51  12 2.52
                            16 2.52  14 2.57
  59  0.696  0.892  0.191-  16 2.44  64 2.45  60 2.47  61 2.49  41 2.49  57 2.49  63 2.49  55 2.49
                            15 2.49  43 2.49  11 2.49  39 2.49
  60  0.530  0.808  0.286-  58 2.46  42 2.46  39 2.47  59 2.47  38 2.47  55 2.47  40 2.49  56 2.49
                            64 2.49  16 2.49  44 2.50  12 2.50
  61  0.863  0.976  0.095-  59 2.49  15 2.49  63 2.49  49 2.49  57 2.49  13 2.49   1 2.49  41 2.49
                            45 2.49
  62  0.864  0.975  0.377-   4 2.43  64 2.43  16 2.43  58 2.49  14 2.49  46 2.49  50 2.49  42 2.49
                             2 2.49
  63  0.946  0.892  0.191-  64 2.44   4 2.44  52 2.47  49 2.49  45 2.49  61 2.49  51 2.49  59 2.49
                             3 2.49  47 2.49  15 2.49  43 2.49
  64  0.780  0.809  0.285-  62 2.43  43 2.44  63 2.44  59 2.45  44 2.49  48 2.49  16 2.49  60 2.49
                             4 2.49  52 2.49  42 2.52  46 2.53
  65  0.180  0.133  0.436-  50 1.82   2 1.82   6 1.88
  66  0.705  0.658  0.436-  46 1.82  42 1.82  26 1.88
  67  0.197  0.642  0.435-  38 1.84  34 1.84  18 1.84
  68  0.705  0.133  0.436-  58 1.82  14 1.82  10 1.88
  69  0.531  0.308  0.449-  70 0.97  10 1.97  26 1.98   6 1.98
  70  0.534  0.306  0.495-  69 0.97
 

IMPORTANT INFORMATION: All symmetrisations will be switched off!
NOSYMM: (Re-)initialisation of all symmetry stuff for point group C_1.

 
 

Automatic generation of k-mesh.
 generate k-points for:    3    3    1
Space group operators:
 irot       det(A)        alpha          n_x          n_y          n_z        tau_x        tau_y        tau_z
    1     1.000000     0.000000     1.000000     0.000000     0.000000     0.000000     0.000000     0.000000
 
 Subroutine IBZKPT returns following result:
 ===========================================
 
 Found      5 irreducible k-points:
 
 Following reciprocal coordinates:
            Coordinates               Weight
  0.000000  0.000000  0.000000      1.000000
  0.333333  0.000000  0.000000      2.000000
  0.000000  0.333333  0.000000      2.000000
  0.333333  0.333333  0.000000      2.000000
 -0.333333  0.333333  0.000000      2.000000
 
 Following cartesian coordinates:
            Coordinates               Weight
  0.000000  0.000000  0.000000      1.000000
  0.033442  0.019308  0.000000      2.000000
  0.000000  0.038616  0.000000      2.000000
  0.033442  0.057924  0.000000      2.000000
 -0.033442  0.019308  0.000000      2.000000
 


--------------------------------------------------------------------------------------------------------




 Dimension of arrays:
   k-points           NKPTS =      5   k-points in BZ     NKDIM =      5   number of bands    NBANDS=    438
   number of dos      NEDOS =    301   number of ions     NIONS =     70
   non local maximal  LDIM  =      6   non local SUM 2l+1 LMDIM =     18
   total plane-waves  NPLWV = ******
   max r-space proj   IRMAX =   7188   max aug-charges    IRDMAX=  18478
   dimension x,y,z NGX =    80 NGY =   80 NGZ =  160
   dimension x,y,z NGXF=   160 NGYF=  160 NGZF=  320
   support grid    NGXF=   160 NGYF=  160 NGZF=  320
   ions per type =              64   5   1
   NGX,Y,Z   is equivalent  to a cutoff of  13.34, 13.34, 12.60 a.u.
   NGXF,Y,Z  is equivalent  to a cutoff of  26.69, 26.69, 25.21 a.u.

 SYSTEM =  SQS-NiFe                                
 POSCAR =  POSCAR                                  

 Startparameter for this run:
   NWRITE =      2    write-flag & timer
   PREC   = accura    normal or accurate (medium, high low for compatibility)
   ISTART =      1    job   : 0-new  1-cont  2-samecut
   ICHARG =      1    charge: 1-file 2-atom 10-const
   ISPIN  =      2    spin polarized calculation?
   LNONCOLLINEAR =      F non collinear calculations
   LSORBIT =      F    spin-orbit coupling
   INIWAV =      1    electr: 0-lowe 1-rand  2-diag
   LASPH  =      F    aspherical Exc in radial PAW
   METAGGA=      F    non-selfconsistent MetaGGA calc.

 Electronic Relaxation 1
   ENCUT  =  520.0 eV  38.22 Ry    6.18 a.u.  18.53 18.53 39.24*2*pi/ulx,y,z
   ENINI  =  520.0     initial cutoff
   ENAUG  =  605.4 eV  augmentation charge cutoff
   NELM   =    200;   NELMIN=  2; NELMDL=  0     # of ELM steps 
   EDIFF  = 0.1E-04   stopping-criterion for ELM
   LREAL  =      T    real-space projection
   NLSPLINE    = F    spline interpolate recip. space projectors
   LCOMPAT=      F    compatible to vasp.4.4
   GGA_COMPAT  = T    GGA compatible to vasp.4.4-vasp.4.6
   LMAXPAW     = -100 max onsite density
   LMAXMIX     =    2 max onsite mixed and CHGCAR
   VOSKOWN=      0    Vosko Wilk Nusair interpolation
   ROPT   =   -0.00025  -0.00025  -0.00025
 Ionic relaxation
   EDIFFG = -.5E-01   stopping-criterion for IOM
   NSW    =     99    number of steps for IOM
   NBLOCK =      1;   KBLOCK =     99    inner block; outer block 
   IBRION =      2    ionic relax: 0-MD 1-quasi-New 2-CG
   NFREE  =      1    steps in history (QN), initial steepest desc. (CG)
   ISIF   =      2    stress and relaxation
   IWAVPR =     11    prediction:  0-non 1-charg 2-wave 3-comb
   ISYM   =      0    0-nonsym 1-usesym 2-fastsym
   LCORR  =      T    Harris-Foulkes like correction to forces

   POTIM  = 0.5000    time-step for ionic-motion
   TEIN   =    0.0    initial temperature
   TEBEG  =    0.0;   TEEND  =   0.0 temperature during run
   SMASS  =  -3.00    Nose mass-parameter (am)
   estimated Nose-frequenzy (Omega)   =  0.10E-29 period in steps =****** mass=  -0.227E-26a.u.
   SCALEE = 1.0000    scale energy and forces
   NPACO  =    256;   APACO  = 16.0  distance and # of slots for P.C.
   PSTRESS=    0.0 pullay stress

  Mass of Ions in am
   POMASS =  58.69 16.00  1.00
  Ionic Valenz
   ZVAL   =  10.00  6.00  1.00
  Atomic Wigner-Seitz radii
   RWIGS  =  -1.00 -1.00 -1.00
  virtual crystal weights 
   VCA    =   1.00  1.00  1.00
   NELECT =     671.0000    total number of electrons
   NUPDOWN=      -1.0000    fix difference up-down

 DOS related values:
   EMIN   =  10.00;   EMAX   =-10.00  energy-range for DOS
   EFERMI =   0.00
   ISMEAR =     1;   SIGMA  =   0.20  broadening in eV -4-tet -1-fermi 0-gaus

 Electronic relaxation 2 (details)
   IALGO  =     68    algorithm
   LDIAG  =      T    sub-space diagonalisation (order eigenvalues)
   LSUBROT=      F    optimize rotation matrix (better conditioning)
   TURBO    =      0    0=normal 1=particle mesh
   IRESTART =      0    0=no restart 2=restart with 2 vectors
   NREBOOT  =      0    no. of reboots
   NMIN     =      0    reboot dimension
   EREF     =   0.00    reference energy to select bands
   IMIX   =      4    mixing-type and parameters
     AMIX     =   0.40;   BMIX     =  1.00
     AMIX_MAG =   1.60;   BMIX_MAG =  1.00
     AMIN     =   0.10
     WC   =   100.;   INIMIX=   1;  MIXPRE=   1;  MAXMIX= -45

 Intra band minimization:
   WEIMIN = 0.0010     energy-eigenvalue tresh-hold
   EBREAK =  0.57E-08  absolut break condition
   DEPER  =   0.30     relativ break condition  

   TIME   =   0.40     timestep for ELM

  volume/ion in A,a.u.               =      25.94       175.05
  Fermi-wavevector in a.u.,A,eV,Ry     =   1.174803  2.220055 18.778233  1.380161
  Thomas-Fermi vector in A             =   2.311194
 
 Write flags
   LWAVE        =      T    write WAVECAR
   LDOWNSAMPLE  =      F    k-point downsampling of WAVECAR
   LCHARG       =      T    write CHGCAR
   LVTOT        =      F    write LOCPOT, total local potential
   LVHAR        =      F    write LOCPOT, Hartree potential only
   LELF         =      F    write electronic localiz. function (ELF)
   LORBIT       =     10    0 simple, 1 ext, 2 COOP (PROOUT), +10 PAW based schemes


 Dipole corrections
   LMONO  =      F    monopole corrections only (constant potential shift)
   LDIPOL =      T    correct potential (dipole corrections)
   IDIPOL =      3    1-x, 2-y, 3-z, 4-all directions 
   EPSILON=  1.0000000 bulk dielectric constant

 Exchange correlation treatment:
   GGA     =    --    GGA type
   LEXCH   =     8    internal setting for exchange type
   VOSKOWN=      0    Vosko Wilk Nusair interpolation
   LHFCALC =     F    Hartree Fock is set to
   LHFONE  =     F    Hartree Fock one center treatment
   AEXX    =    0.0000 exact exchange contribution

 Linear response parameters
   LEPSILON=     F    determine dielectric tensor
   LRPA    =     F    only Hartree local field effects (RPA)
   LNABLA  =     F    use nabla operator in PAW spheres
   LVEL    =     F    velocity operator in full k-point grid
   LINTERFAST=   F  fast interpolation
   KINTER  =     0    interpolate to denser k-point grid
   CSHIFT  =0.1000    complex shift for real part using Kramers Kronig
   OMEGAMAX=  -1.0    maximum frequency
   DEG_THRESHOLD= 0.2000000E-02 threshold for treating states as degnerate
   RTIME   =   -0.100 relaxation time in fs
  (WPLASMAI=    0.000 imaginary part of plasma frequency in eV, 0.658/RTIME)
   DFIELD  = 0.0000000 0.0000000 0.0000000 field for delta impulse in time
 
 Orbital magnetization related:
   ORBITALMAG=     F  switch on orbital magnetization
   LCHIMAG   =     F  perturbation theory with respect to B field
   DQ        =  0.001000  dq finite difference perturbation B field
   LLRAUG    =     F  two centre corrections for induced B field



--------------------------------------------------------------------------------------------------------


 conjugate gradient relaxation of ions
   using selective dynamics as specified on POSCAR
 charge density and potential will be updated during run
 spin polarized calculation
 RMM-DIIS sequential band-by-band and
  variant of blocked Davidson during initial phase
 perform sub-space diagonalisation
    before iterative eigenvector-optimisation
 modified Broyden-mixing scheme, WC =      100.0
 initial mixing is a Kerker type mixing with AMIX =  0.4000 and BMIX =      1.0000
 Hartree-type preconditioning will be used
 using additional bands          102
 real space projection scheme for non local part
 use partial core corrections
 calculate Harris-corrections to forces 
   (improved forces if not selfconsistent)
 use gradient corrections 
 use of overlap-Matrix (Vanderbilt PP)
 Methfessel and Paxton  Order N= 1 SIGMA  =   0.20


--------------------------------------------------------------------------------------------------------


  energy-cutoff  :      520.00
  volume of cell :     1815.73
      direct lattice vectors                 reciprocal lattice vectors
     9.967380000  0.000000000  0.000000000     0.100327268  0.057923975  0.000000000
    -4.983690000  8.632004290  0.000000000     0.000000000  0.115847950  0.000000000
     0.000000000  0.000000000 21.103750000     0.000000000  0.000000000  0.047384943

  length of vectors
     9.967380000  9.967380001 21.103750000     0.115847950  0.115847950  0.047384943


 
 old parameters found on file WAVECAR:
  energy-cutoff  :      520.00
  volume of cell :     1815.73
      direct lattice vectors                 reciprocal lattice vectors
     9.967380000  0.000000000  0.000000000     0.100327268  0.057923975  0.000000000
    -4.983690000  8.632004290  0.000000000     0.000000000  0.115847950  0.000000000
     0.000000000  0.000000000 21.103750000     0.000000000  0.000000000  0.047384943

  length of vectors

 
 k-points in units of 2pi/SCALE and weight: read from INCAR                         
   0.00000000  0.00000000  0.00000000       0.111
   0.03344242  0.01930799  0.00000000       0.222
   0.00000000  0.03861598  0.00000000       0.222
   0.03344242  0.05792397  0.00000000       0.222
  -0.03344242  0.01930799  0.00000000       0.222
 
 k-points in reciprocal lattice and weights: read from INCAR                         
   0.00000000  0.00000000  0.00000000       0.111
   0.33333333  0.00000000  0.00000000       0.222
   0.00000000  0.33333333  0.00000000       0.222
   0.33333333  0.33333333  0.00000000       0.222
  -0.33333333  0.33333333  0.00000000       0.222
 
 position of ions in fractional coordinates (direct lattice) 
   0.11283300  0.22566700  0.09477000
   0.11003888  0.22714619  0.38224115
   0.19616700  0.14233300  0.19117800
   0.03000747  0.05880753  0.28469777
   0.36283300  0.22566700  0.09477000
   0.36037681  0.22344148  0.38621007
   0.44616700  0.14233300  0.19117800
   0.28003117  0.06017347  0.28563832
   0.61283300  0.22566700  0.09477000
   0.61534096  0.22329835  0.38579813
   0.69616700  0.14233300  0.19117800
   0.53118480  0.06013456  0.28557502
   0.86283300  0.22566700  0.09477000
   0.86927410  0.22713513  0.38223255
   0.94616700  0.14233300  0.19117800
   0.77979086  0.05879681  0.28470659
   0.11283300  0.47566700  0.09477000
   0.11210336  0.47219849  0.38242005
   0.19616700  0.39233300  0.19117800
   0.03010125  0.30906507  0.28624313
   0.36283300  0.47566700  0.09477000
   0.36219187  0.47645327  0.37631328
   0.44616700  0.39233300  0.19117800
   0.28004962  0.30738465  0.28564272
   0.61283300  0.47566700  0.09477000
   0.61519979  0.47825713  0.38619418
   0.69616700  0.39233300  0.19117800
   0.52986449  0.30870886  0.28760293
   0.86283300  0.47566700  0.09477000
   0.86631198  0.47645861  0.37625614
   0.94616700  0.39233300  0.19117800
   0.77845040  0.30739252  0.28557656
   0.11283300  0.72566700  0.09477000
   0.11213091  0.72653621  0.38241285
   0.19616700  0.64233300  0.19117800
   0.03013242  0.55886460  0.28441491
   0.36283300  0.72566700  0.09477000
   0.36648817  0.72657435  0.38241341
   0.44616700  0.64233300  0.19117800
   0.27973693  0.55883780  0.28444096
   0.61283300  0.72566700  0.09477000
   0.61153693  0.72859489  0.38224403
   0.69616700  0.64233300  0.19117800
   0.53118716  0.55852019  0.28564077
   0.86283300  0.72566700  0.09477000
   0.86913023  0.72866199  0.38227472
   0.94616700  0.64233300  0.19117800
   0.77841037  0.55854845  0.28563856
   0.11283300  0.97566700  0.09477000
   0.10998947  0.96952446  0.38227387
   0.19616700  0.89233300  0.19117800
   0.03004554  0.80854774  0.28623416
   0.36283300  0.97566700  0.09477000
   0.36219125  0.97234480  0.37625342
   0.44616700  0.89233300  0.19117800
   0.27971383  0.80844898  0.28441397
   0.61283300  0.97566700  0.09477000
   0.61154636  0.96941562  0.38223697
   0.69616700  0.89233300  0.19117800
   0.52952647  0.80848853  0.28623455
   0.86283300  0.97566700  0.09477000
   0.86354339  0.97510359  0.37728645
   0.94616700  0.89233300  0.19117800
   0.77977654  0.80857116  0.28469722
   0.18043419  0.13343507  0.43634639
   0.70520550  0.65818708  0.43633659
   0.19696777  0.64180094  0.43528024
   0.70518523  0.13345059  0.43625340
   0.53112830  0.30762740  0.44859998
   0.53359133  0.30567033  0.49473256
 
 position of ions in cartesian coordinates  (Angst):
  -0.00000498  1.94795851  2.00000239
  -0.03522684  1.96072688  8.06672177
   1.24592748  1.22861907  4.03457272
   0.00601735  0.50762684  6.00819062
   2.49184002  1.94795851  2.00000239
   2.47844956  1.92874778  8.15048083
   3.73777248  1.22861907  4.03457272
   2.49129115  0.51941766  6.02803976
   4.98368502  1.94795851  2.00000239
   5.02048746  1.92751227  8.14178738
   6.22961748  1.22861907  4.03457272
   4.99482874  0.51908181  6.02670378
   7.47553002  1.94795851  2.00000239
   7.53241426  1.96063138  8.06654025
   8.72146248  1.22861907  4.03457272
   7.47944679  0.50753429  6.00837674
  -1.24592748  4.10595958  2.00000239
  -1.23591412  4.07601939  8.07049704
   0.00000498  3.38662014  4.03457272
  -1.24025388  2.66785101  6.04080341
   1.24591752  4.10595958  2.00000239
   1.23560856  4.11274671  7.94162131
   2.49184998  3.38662014  4.03457272
   1.25945118  2.65334566  6.02813245
   3.73776252  4.10595958  2.00000239
   3.74844479  4.12831759  8.15014544
   4.98369498  3.38662014  4.03457272
   3.74285148  2.66477621  6.06950029
   6.22960752  4.10595958  2.00000239
   6.26033864  4.11279279  7.94041544
   7.47553998  3.38662014  4.03457272
   6.22716193  2.65341353  6.02673642
  -2.49184998  6.26396066  2.00000239
  -2.50317985  6.27146370  8.07034516
  -1.24591752  5.54462121  4.03457272
  -2.48486661  4.82412166  6.00222117
  -0.00000498  6.26396066  2.00000239
   0.03190553  6.27179291  8.07035695
   1.24592748  5.54462121  4.03457272
   0.00316994  4.82389024  6.00277084
   2.49184002  6.26396066  2.00000239
   2.46432988  6.28923424  8.06678247
   3.73777248  5.54462121  4.03457272
   2.51105278  4.82114865  6.02809148
   4.98368502  6.26396066  2.00000239
   5.03152581  6.28981339  8.06743019
   6.22961748  5.54462121  4.03457272
   4.97507959  4.82139262  6.02804466
  -3.73777248  8.42196173  2.00000239
  -3.73550248  8.36893930  8.06741215
  -2.49184002  7.70262228  4.03457272
  -3.73007593  6.97938757  6.04061424
  -1.24592748  8.42196173  2.00000239
  -1.23576721  8.39328446  7.94035819
   0.00000498  7.70262228  4.03457272
  -1.24104506  6.97853503  6.00220126
   1.24591752  8.42196173  2.00000239
   1.26424798  8.36799981  8.06663344
   2.49184998  7.70262228  4.03457272
   1.24873532  6.97887647  6.04062247
   3.73776252  8.42196173  2.00000239
   3.74765114  8.41709833  7.96215893
   4.98369498  7.70262228  4.03457272
   3.74266105  6.97958970  6.00817890
   1.13345707  1.15181208  9.20854514
   3.74885085  5.68147372  9.20833828
  -1.23528433  5.54002848  9.18604530
   6.36377281  1.15194607  9.20658269
   3.76083800  2.65544104  9.46714181
   3.79514145  2.63854756 10.44071233
 


--------------------------------------------------------------------------------------------------------


 k-point  1 :   0.0000 0.0000 0.0000  plane waves:   48949
 k-point  2 :   0.3333 0.0000 0.0000  plane waves:   48884
 k-point  3 :   0.0000 0.3333 0.0000  plane waves:   48884
 k-point  4 :   0.3333 0.3333 0.0000  plane waves:   48804
 k-point  5 :  -0.3333 0.3333 0.0000  plane waves:   48884

 maximum and minimum number of plane-waves per node :      2058     2018

 maximum number of plane-waves:     48949
 maximum index in each direction: 
   IXMAX=   18   IYMAX=   18   IZMAX=   39
   IXMIN=  -18   IYMIN=  -18   IZMIN=  -39


 real space projection operators:
  total allocation   :      63458.11 KBytes
  max/ min on nodes  :       3214.48       2337.68


 parallel 3D FFT for wavefunctions:
    minimum data exchange during FFTs selected (reduces bandwidth)
 parallel 3D FFT for charge:
    minimum data exchange during FFTs selected (reduces bandwidth)


 total amount of memory used by VASP MPI-rank0   116009. kBytes
=======================================================================

   base      :      30000. kBytes
   nonlr-proj:      12486. kBytes
   fftplans  :       6402. kBytes
   grid      :      17692. kBytes
   one-center:         93. kBytes
   wavefun   :      49336. kBytes
 
     INWAV:  cpu time   11.2323: real time   11.6475
 Broyden mixing: mesh for mixing (old mesh)
   NGX = 37   NGY = 37   NGZ = 79
  (NGX  =160   NGY  =160   NGZ  =320)
  gives a total of 108151 points

 initial charge density was supplied:
 number of electron     671.0000080 magnetization      44.1861981
 keeping initial charge density in first step


--------------------------------------------------------------------------------------------------------


 Maximum index for non-local projection operator          709
 Maximum index for augmentation-charges         1178 (set IRDMAX)


--------------------------------------------------------------------------------------------------------


 First call to EWALD:  gamma=   0.145
 Maximum number of real-space cells 4x 4x 2
 Maximum number of reciprocal cells 2x 2x 4

    FEWALD:  cpu time    0.0037: real time    0.0037


--------------------------------------- Iteration      1(   1)  ---------------------------------------


    POTLOK:  cpu time    0.4157: real time    0.4238
    SETDIJ:  cpu time    0.0235: real time    0.0235
     EDDAV:  cpu time   44.6776: real time   44.7240
       DOS:  cpu time    0.0093: real time    0.0093
    CHARGE:  cpu time    1.3616: real time    1.3617
    MIXING:  cpu time    0.0062: real time    0.0062
    --------------------------------------------
      LOOP:  cpu time   46.4941: real time   46.5487

 eigenvalue-minimisations  :  9630
 total energy-change (2. order) :-0.3544407E+03  (-0.1578462E+03)
 number of electron     671.0000081 magnetization      43.9402529
 augmentation part      399.8454459 magnetization      41.3042209

 DIPCOR: dipole corrections for dipol
 direction  3 min pos   249,
 dipolmoment           0.000000      0.000000      0.093851 electrons x Angstroem
 Tr[quadrupol]    -11037.814446

 energy correction for charged system         0.000000 eV
 dipol+quadrupol energy correction           -0.000439 eV
 added-field ion interaction          3.631430 eV  (added to PSCEN)


 Broyden mixing:
  rms(total) = 0.69266E+00    rms(broyden)= 0.69261E+00
  rms(prec ) = 0.71066E+00
  weight for this iteration     100.00

 Free energy of the ion-electron system (eV)
  ---------------------------------------------------
  alpha Z        PSCENC =      1253.51190681
  Ewald energy   TEWEN  =    248436.64709532
  -Hartree energ DENC   =   -317620.05267215
  -exchange      EXHF   =         0.00000000
  -V(xc)+E(xc)   XCENC  =      2102.11532376
  PAW double counting   =     74912.46332981   -79310.54935889
  entropy T*S    EENTRO =        -0.11364193
  eigenvalues    EBANDS =     -1273.67840197
  atomic energy  EATOM  =     71145.21574525
  Solvation  Ediel_sol  =         0.00000000
  ---------------------------------------------------
  free energy    TOTEN  =      -354.44067397 eV

  energy without entropy =     -354.32703204  energy(sigma->0) =     -354.40279333


--------------------------------------------------------------------------------------------------------




--------------------------------------- Iteration      1(   2)  ---------------------------------------


    POTLOK:  cpu time    0.4175: real time    0.4277
    SETDIJ:  cpu time    0.0236: real time    0.0236
    EDDIAG:  cpu time    6.1343: real time    6.1357
  RMM-DIIS:  cpu time   21.1554: real time   21.1633
    ORTHCH:  cpu time    1.7792: real time    1.7794
       DOS:  cpu time    0.0099: real time    0.0099
    CHARGE:  cpu time    1.3558: real time    1.3559
    MIXING:  cpu time    0.0064: real time    0.0064
    --------------------------------------------
      LOOP:  cpu time   30.8822: real time   30.9020

 eigenvalue-minimisations  :  8833
 total energy-change (2. order) :-0.1847735E+02  (-0.1463863E+02)
 number of electron     671.0000073 magnetization      43.9526127
 augmentation part      395.8932730 magnetization      39.9836997

 DIPCOR: dipole corrections for dipol
 direction  3 min pos   246,
 dipolmoment           0.000000      0.000000     -0.217883 electrons x Angstroem
 Tr[quadrupol]    -11037.623541

 energy correction for charged system         0.000000 eV
 dipol+quadrupol energy correction           -0.002366 eV
 added-field ion interaction         -5.547934 eV  (added to PSCEN)


 Broyden mixing:
  rms(total) = 0.36952E+01    rms(broyden)= 0.36951E+01
  rms(prec ) = 0.48702E+01
  weight for this iteration     100.00

 eigenvalues of (default mixing * dielectric matrix)
  average eigenvalue GAMMA=   0.0817
  0.0817

 Free energy of the ion-electron system (eV)
  ---------------------------------------------------
  alpha Z        PSCENC =      1244.33061635
  Ewald energy   TEWEN  =    248436.64709532
  -Hartree energ DENC   =   -317655.72233617
  -exchange      EXHF   =         0.00000000
  -V(xc)+E(xc)   XCENC  =      2103.39406391
  PAW double counting   =     75402.21459657   -79830.70497326
  entropy T*S    EENTRO =         0.13800847
  eigenvalues    EBANDS =     -1218.43084434
  atomic energy  EATOM  =     71145.21574525
  Solvation  Ediel_sol  =         0.00000000
  ---------------------------------------------------
  free energy    TOTEN  =      -372.91802788 eV

  energy without entropy =     -373.05603635  energy(sigma->0) =     -372.96403070


--------------------------------------------------------------------------------------------------------




--------------------------------------- Iteration      1(   3)  ---------------------------------------


    POTLOK:  cpu time    0.4176: real time    0.4284
    SETDIJ:  cpu time    0.0234: real time    0.0234
    EDDIAG:  cpu time    6.1389: real time    6.1401
  RMM-DIIS:  cpu time   21.1868: real time   21.1940
    ORTHCH:  cpu time    1.7815: real time    1.7817
       DOS:  cpu time    0.0100: real time    0.0100
    CHARGE:  cpu time    1.3618: real time    1.3619
    MIXING:  cpu time    0.0064: real time    0.0064
    --------------------------------------------
      LOOP:  cpu time   30.9263: real time   30.9459

 eigenvalue-minimisations  :  8851
 total energy-change (2. order) : 0.1622185E+01  (-0.6288372E+00)
 number of electron     671.0000086 magnetization      43.9151750
 augmentation part      396.0875184 magnetization      40.8884903

 DIPCOR: dipole corrections for dipol
 direction  3 min pos   245,
 dipolmoment           0.000000      0.000000      0.310666 electrons x Angstroem
 Tr[quadrupol]    -11038.139788

 energy correction for charged system         0.000000 eV
 dipol+quadrupol energy correction           -0.004809 eV
 added-field ion interaction          6.540330 eV  (added to PSCEN)


 Broyden mixing:
  rms(total) = 0.31625E+01    rms(broyden)= 0.31623E+01
  rms(prec ) = 0.41114E+01
  weight for this iteration     100.00

 eigenvalues of (default mixing * dielectric matrix)
  average eigenvalue GAMMA=   0.1968
  0.3580  0.0355

 Free energy of the ion-electron system (eV)
  ---------------------------------------------------
  alpha Z        PSCENC =      1256.41643673
  Ewald energy   TEWEN  =    248436.64709532
  -Hartree energ DENC   =   -317658.80040896
  -exchange      EXHF   =         0.00000000
  -V(xc)+E(xc)   XCENC  =      2103.18974049
  PAW double counting   =     75399.01885369   -79825.10543186
  entropy T*S    EENTRO =        -0.08548266
  eigenvalues    EBANDS =     -1227.79239131
  atomic energy  EATOM  =     71145.21574525
  Solvation  Ediel_sol  =         0.00000000
  ---------------------------------------------------
  free energy    TOTEN  =      -371.29584332 eV

  energy without entropy =     -371.21036065  energy(sigma->0) =     -371.26734909


--------------------------------------------------------------------------------------------------------




--------------------------------------- Iteration      1(   4)  ---------------------------------------


    POTLOK:  cpu time    0.4174: real time    0.4289
    SETDIJ:  cpu time    0.0232: real time    0.0232
    EDDIAG:  cpu time    6.1507: real time    6.1523
  RMM-DIIS:  cpu time   21.3735: real time   21.3832
    ORTHCH:  cpu time    1.7790: real time    1.7795
       DOS:  cpu time    0.0099: real time    0.0099
    CHARGE:  cpu time    1.3650: real time    1.3651
    MIXING:  cpu time    0.0065: real time    0.0065
    --------------------------------------------
      LOOP:  cpu time   31.1252: real time   31.1486

 eigenvalue-minimisations  :  8914
 total energy-change (2. order) : 0.1803829E+01  (-0.2012032E+00)
 number of electron     671.0000086 magnetization      43.8687483
 augmentation part      397.5179315 magnetization      40.9819397

 DIPCOR: dipole corrections for dipol
 direction  3 min pos   238,
 dipolmoment           0.000000      0.000000      0.144159 electrons x Angstroem
 Tr[quadrupol]    -11037.605649

 energy correction for charged system         0.000000 eV
 dipol+quadrupol energy correction           -0.001036 eV
 added-field ion interaction         -1.415505 eV  (added to PSCEN)


 Broyden mixing:
  rms(total) = 0.17321E+01    rms(broyden)= 0.17320E+01
  rms(prec ) = 0.19001E+01
  weight for this iteration     100.00

 eigenvalues of (default mixing * dielectric matrix)
  average eigenvalue GAMMA=   0.2097
  0.4827  0.1090  0.0375

 Free energy of the ion-electron system (eV)
  ---------------------------------------------------
  alpha Z        PSCENC =      1248.46437523
  Ewald energy   TEWEN  =    248436.64709532
  -Hartree energ DENC   =   -317619.25065525
  -exchange      EXHF   =         0.00000000
  -V(xc)+E(xc)   XCENC  =      2101.97465154
  PAW double counting   =     75357.40042947   -79772.14119840
  entropy T*S    EENTRO =        -0.10500783
  eigenvalues    EBANDS =     -1267.69744990
  atomic energy  EATOM  =     71145.21574525
  Solvation  Ediel_sol  =         0.00000000
  ---------------------------------------------------
  free energy    TOTEN  =      -369.49201456 eV

  energy without entropy =     -369.38700672  energy(sigma->0) =     -369.45701195


--------------------------------------------------------------------------------------------------------




--------------------------------------- Iteration      1(   5)  ---------------------------------------


    POTLOK:  cpu time    0.4155: real time    0.4277
    SETDIJ:  cpu time    0.0233: real time    0.0233
    EDDIAG:  cpu time    6.1428: real time    6.1440
  RMM-DIIS:  cpu time   21.2505: real time   21.2576
    ORTHCH:  cpu time    1.7776: real time    1.7779
       DOS:  cpu time    0.0088: real time    0.0088
    CHARGE:  cpu time    1.3541: real time    1.3542
    MIXING:  cpu time    0.0066: real time    0.0066
    --------------------------------------------
      LOOP:  cpu time   30.9793: real time   31.0002

 eigenvalue-minimisations  :  8845
 total energy-change (2. order) : 0.9498493E+00  (-0.8493522E-01)
 number of electron     671.0000080 magnetization      43.8350039
 augmentation part      398.0675218 magnetization      40.6384150

 DIPCOR: dipole corrections for dipol
 direction  3 min pos   234,
 dipolmoment           0.000000      0.000000      0.123489 electrons x Angstroem
 Tr[quadrupol]    -11037.252752

 energy correction for charged system         0.000000 eV
 dipol+quadrupol energy correction           -0.000760 eV
 added-field ion interaction         -3.391022 eV  (added to PSCEN)


 Broyden mixing:
  rms(total) = 0.50153E+00    rms(broyden)= 0.50141E+00
  rms(prec ) = 0.58446E+00
  weight for this iteration     100.00

 eigenvalues of (default mixing * dielectric matrix)
  average eigenvalue GAMMA=   0.2427
  0.4135  0.4135  0.0371  0.1065

 Free energy of the ion-electron system (eV)
  ---------------------------------------------------
  alpha Z        PSCENC =      1246.48913407
  Ewald energy   TEWEN  =    248436.64709532
  -Hartree energ DENC   =   -317598.89033384
  -exchange      EXHF   =         0.00000000
  -V(xc)+E(xc)   XCENC  =      2101.50474241
  PAW double counting   =     75326.20339631   -79736.12582486
  entropy T*S    EENTRO =        -0.14865540
  eigenvalues    EBANDS =     -1289.43746454
  atomic energy  EATOM  =     71145.21574525
  Solvation  Ediel_sol  =         0.00000000
  ---------------------------------------------------
  free energy    TOTEN  =      -368.54216528 eV

  energy without entropy =     -368.39350987  energy(sigma->0) =     -368.49261348


--------------------------------------------------------------------------------------------------------




--------------------------------------- Iteration      1(   6)  ---------------------------------------


    POTLOK:  cpu time    0.4172: real time    0.4291
    SETDIJ:  cpu time    0.0233: real time    0.0233
    EDDIAG:  cpu time    6.1431: real time    6.1442
  RMM-DIIS:  cpu time   21.3471: real time   21.3547
    ORTHCH:  cpu time    1.7754: real time    1.7756
       DOS:  cpu time    0.0097: real time    0.0097
    CHARGE:  cpu time    1.3538: real time    1.3539
    MIXING:  cpu time    0.0069: real time    0.0069
    --------------------------------------------
      LOOP:  cpu time   31.0765: real time   31.0974

 eigenvalue-minimisations  :  8859
 total energy-change (2. order) :-0.1539663E+00  (-0.2257454E-01)
 number of electron     671.0000082 magnetization      43.8167173
 augmentation part      397.9844387 magnetization      40.6151111

 DIPCOR: dipole corrections for dipol
 direction  3 min pos   239,
 dipolmoment           0.000000      0.000000      0.106471 electrons x Angstroem
 Tr[quadrupol]    -11037.665665

 energy correction for charged system         0.000000 eV
 dipol+quadrupol energy correction           -0.000565 eV
 added-field ion interaction         -0.575881 eV  (added to PSCEN)


 Broyden mixing:
  rms(total) = 0.85518E+00    rms(broyden)= 0.85516E+00
  rms(prec ) = 0.96253E+00
  weight for this iteration     100.00

 eigenvalues of (default mixing * dielectric matrix)
  average eigenvalue GAMMA=   0.2514
  0.5080  0.5080  0.0371  0.1217  0.0821

 Free energy of the ion-electron system (eV)
  ---------------------------------------------------
  alpha Z        PSCENC =      1249.30447022
  Ewald energy   TEWEN  =    248436.64709532
  -Hartree energ DENC   =   -317612.30869888
  -exchange      EXHF   =         0.00000000
  -V(xc)+E(xc)   XCENC  =      2101.55132648
  PAW double counting   =     75291.33375963   -79700.13607033
  entropy T*S    EENTRO =        -0.08683639
  eigenvalues    EBANDS =     -1280.21692291
  atomic energy  EATOM  =     71145.21574525
  Solvation  Ediel_sol  =         0.00000000
  ---------------------------------------------------
  free energy    TOTEN  =      -368.69613161 eV

  energy without entropy =     -368.60929522  energy(sigma->0) =     -368.66718615


--------------------------------------------------------------------------------------------------------




--------------------------------------- Iteration      1(   7)  ---------------------------------------


    POTLOK:  cpu time    0.4195: real time    0.4311
    SETDIJ:  cpu time    0.0233: real time    0.0233
    EDDIAG:  cpu time    6.1422: real time    6.1438
  RMM-DIIS:  cpu time   21.2820: real time   21.2903
    ORTHCH:  cpu time    1.7528: real time    1.7531
       DOS:  cpu time    0.0092: real time    0.0092
    CHARGE:  cpu time    1.3458: real time    1.3459
    MIXING:  cpu time    0.0070: real time    0.0069
    --------------------------------------------
      LOOP:  cpu time   30.9818: real time   31.0036

 eigenvalue-minimisations  :  8857
 total energy-change (2. order) : 0.1512853E+00  (-0.1003867E-01)
 number of electron     671.0000081 magnetization      43.8128810
 augmentation part      397.8997067 magnetization      40.6843805

 DIPCOR: dipole corrections for dipol
 direction  3 min pos   241,
 dipolmoment           0.000000      0.000000      0.121241 electrons x Angstroem
 Tr[quadrupol]    -11037.608938

 energy correction for charged system         0.000000 eV
 dipol+quadrupol energy correction           -0.000732 eV
 added-field ion interaction          0.413635 eV  (added to PSCEN)


 Broyden mixing:
  rms(total) = 0.43921E+00    rms(broyden)= 0.43919E+00
  rms(prec ) = 0.52832E+00
  weight for this iteration     100.00

 eigenvalues of (default mixing * dielectric matrix)
  average eigenvalue GAMMA=   0.2345
  0.4978  0.4978  0.1880  0.0371  0.0932  0.0932

 Free energy of the ion-electron system (eV)
  ---------------------------------------------------
  alpha Z        PSCENC =      1250.29381784
  Ewald energy   TEWEN  =    248436.64709532
  -Hartree energ DENC   =   -317613.80267255
  -exchange      EXHF   =         0.00000000
  -V(xc)+E(xc)   XCENC  =      2101.76944364
  PAW double counting   =     75257.26239063   -79665.70691908
  entropy T*S    EENTRO =        -0.11272003
  eigenvalues    EBANDS =     -1280.11102737
  atomic energy  EATOM  =     71145.21574525
  Solvation  Ediel_sol  =         0.00000000
  ---------------------------------------------------
  free energy    TOTEN  =      -368.54484635 eV

  energy without entropy =     -368.43212631  energy(sigma->0) =     -368.50727300


--------------------------------------------------------------------------------------------------------




--------------------------------------- Iteration      1(   8)  ---------------------------------------


    POTLOK:  cpu time    0.4182: real time    0.4302
    SETDIJ:  cpu time    0.0234: real time    0.0234
    EDDIAG:  cpu time    6.1376: real time    6.1392
  RMM-DIIS:  cpu time   21.2671: real time   21.2737
    ORTHCH:  cpu time    1.7486: real time    1.7492
       DOS:  cpu time    0.0083: real time    0.0083
    CHARGE:  cpu time    1.3455: real time    1.3456
    MIXING:  cpu time    0.0072: real time    0.0072
    --------------------------------------------
      LOOP:  cpu time   30.9559: real time   30.9768

 eigenvalue-minimisations  :  8871
 total energy-change (2. order) : 0.6470609E-02  (-0.2233688E-02)
 number of electron     671.0000081 magnetization      43.8072006
 augmentation part      397.8841011 magnetization      40.6806842

 DIPCOR: dipole corrections for dipol
 direction  3 min pos   247,
 dipolmoment           0.000000      0.000000      0.122400 electrons x Angstroem
 Tr[quadrupol]    -11037.731530

 energy correction for charged system         0.000000 eV
 dipol+quadrupol energy correction           -0.000747 eV
 added-field ion interaction          3.656475 eV  (added to PSCEN)


 Broyden mixing:
  rms(total) = 0.41058E+00    rms(broyden)= 0.41058E+00
  rms(prec ) = 0.50122E+00
  weight for this iteration     100.00

 eigenvalues of (default mixing * dielectric matrix)
  average eigenvalue GAMMA=   0.2602
  0.5667  0.5667  0.3602  0.0371  0.1058  0.1058  0.0790

 Free energy of the ion-electron system (eV)
  ---------------------------------------------------
  alpha Z        PSCENC =      1253.53664420
  Ewald energy   TEWEN  =    248436.64709532
  -Hartree energ DENC   =   -317615.07902520
  -exchange      EXHF   =         0.00000000
  -V(xc)+E(xc)   XCENC  =      2101.81155509
  PAW double counting   =     75242.93781460   -79651.07147601
  entropy T*S    EENTRO =        -0.10992061
  eigenvalues    EBANDS =     -1282.42680838
  atomic energy  EATOM  =     71145.21574525
  Solvation  Ediel_sol  =         0.00000000
  ---------------------------------------------------
  free energy    TOTEN  =      -368.53837574 eV

  energy without entropy =     -368.42845513  energy(sigma->0) =     -368.50173553


--------------------------------------------------------------------------------------------------------




--------------------------------------- Iteration      1(   9)  ---------------------------------------


    POTLOK:  cpu time    0.4184: real time    0.4306
    SETDIJ:  cpu time    0.0235: real time    0.0235
    EDDIAG:  cpu time    6.1414: real time    6.1430
  RMM-DIIS:  cpu time   21.2778: real time   21.2841
    ORTHCH:  cpu time    1.7493: real time    1.7495
       DOS:  cpu time    0.0092: real time    0.0092
    CHARGE:  cpu time    1.3491: real time    1.3492
    MIXING:  cpu time    0.0073: real time    0.0073
    --------------------------------------------
      LOOP:  cpu time   30.9761: real time   30.9964

 eigenvalue-minimisations  :  8851
 total energy-change (2. order) :-0.3280381E-02  (-0.9996822E-03)
 number of electron     671.0000081 magnetization      43.8039436
 augmentation part      397.8925151 magnetization      40.7247131

 DIPCOR: dipole corrections for dipol
 direction  3 min pos   247,
 dipolmoment           0.000000      0.000000      0.126117 electrons x Angstroem
 Tr[quadrupol]    -11037.776404

 energy correction for charged system         0.000000 eV
 dipol+quadrupol energy correction           -0.000793 eV
 added-field ion interaction          3.767521 eV  (added to PSCEN)


 Broyden mixing:
  rms(total) = 0.42539E+00    rms(broyden)= 0.42538E+00
  rms(prec ) = 0.52754E+00
  weight for this iteration     100.00

 eigenvalues of (default mixing * dielectric matrix)
  average eigenvalue GAMMA=   0.2509
  0.6091  0.6091  0.3713  0.0371  0.1122  0.1122  0.0782  0.0782

 Free energy of the ion-electron system (eV)
  ---------------------------------------------------
  alpha Z        PSCENC =      1253.64764364
  Ewald energy   TEWEN  =    248436.64709532
  -Hartree energ DENC   =   -317617.63144167
  -exchange      EXHF   =         0.00000000
  -V(xc)+E(xc)   XCENC  =      2101.90085195
  PAW double counting   =     75202.46442083   -79609.56702743
  entropy T*S    EENTRO =        -0.10430941
  eigenvalues    EBANDS =     -1281.11463460
  atomic energy  EATOM  =     71145.21574525
  Solvation  Ediel_sol  =         0.00000000
  ---------------------------------------------------
  free energy    TOTEN  =      -368.54165612 eV

  energy without entropy =     -368.43734671  energy(sigma->0) =     -368.50688632


--------------------------------------------------------------------------------------------------------




--------------------------------------- Iteration      1(  10)  ---------------------------------------


    POTLOK:  cpu time    0.4169: real time    0.4292
    SETDIJ:  cpu time    0.0234: real time    0.0234
    EDDIAG:  cpu time    6.1383: real time    6.1397
  RMM-DIIS:  cpu time   21.2901: real time   21.2986
    ORTHCH:  cpu time    1.7487: real time    1.7489
       DOS:  cpu time    0.0092: real time    0.0092
    CHARGE:  cpu time    1.3548: real time    1.3549
    MIXING:  cpu time    0.0075: real time    0.0075
    --------------------------------------------
      LOOP:  cpu time   30.9897: real time   31.0114

 eigenvalue-minimisations  :  8847
 total energy-change (2. order) : 0.9390185E-02  (-0.6113817E-03)
 number of electron     671.0000081 magnetization      43.7990847
 augmentation part      397.9158422 magnetization      40.7513999

 DIPCOR: dipole corrections for dipol
 direction  3 min pos   247,
 dipolmoment           0.000000      0.000000      0.129329 electrons x Angstroem
 Tr[quadrupol]    -11037.770807

 energy correction for charged system         0.000000 eV
 dipol+quadrupol energy correction           -0.000833 eV
 added-field ion interaction          3.863455 eV  (added to PSCEN)


 Broyden mixing:
  rms(total) = 0.39914E+00    rms(broyden)= 0.39914E+00
  rms(prec ) = 0.51038E+00
  weight for this iteration     100.00

 eigenvalues of (default mixing * dielectric matrix)
  average eigenvalue GAMMA=   0.3490
  0.8737  0.8737  0.4780  0.4780  0.0371  0.1268  0.1044  0.0907  0.0791

 Free energy of the ion-electron system (eV)
  ---------------------------------------------------
  alpha Z        PSCENC =      1253.74353742
  Ewald energy   TEWEN  =    248436.64709532
  -Hartree energ DENC   =   -317618.05286046
  -exchange      EXHF   =         0.00000000
  -V(xc)+E(xc)   XCENC  =      2101.96555842
  PAW double counting   =     75172.73274026   -79579.06681666
  entropy T*S    EENTRO =        -0.11173895
  eigenvalues    EBANDS =     -1281.60552653
  atomic energy  EATOM  =     71145.21574525
  Solvation  Ediel_sol  =         0.00000000
  ---------------------------------------------------
  free energy    TOTEN  =      -368.53226593 eV

  energy without entropy =     -368.42052698  energy(sigma->0) =     -368.49501962


--------------------------------------------------------------------------------------------------------




--------------------------------------- Iteration      1(  11)  ---------------------------------------


    POTLOK:  cpu time    0.4165: real time    0.4273
    SETDIJ:  cpu time    0.0236: real time    0.0236
    EDDIAG:  cpu time    6.1349: real time    6.1361
  RMM-DIIS:  cpu time   21.1865: real time   21.1952
    ORTHCH:  cpu time    1.7508: real time    1.7510
       DOS:  cpu time    0.0095: real time    0.0095
    CHARGE:  cpu time    1.3514: real time    1.3514
    MIXING:  cpu time    0.0077: real time    0.0077
    --------------------------------------------
      LOOP:  cpu time   30.8801: real time   30.9018

 eigenvalue-minimisations  :  8820
 total energy-change (2. order) : 0.2907422E-01  (-0.1249688E-02)
 number of electron     671.0000081 magnetization      43.7936859
 augmentation part      397.9555957 magnetization      40.7553181

 DIPCOR: dipole corrections for dipol
 direction  3 min pos   245,
 dipolmoment           0.000000      0.000000      0.116092 electrons x Angstroem
 Tr[quadrupol]    -11037.792150

 energy correction for charged system         0.000000 eV
 dipol+quadrupol energy correction           -0.000672 eV
 added-field ion interaction          2.444039 eV  (added to PSCEN)


 Broyden mixing:
  rms(total) = 0.31912E+00    rms(broyden)= 0.31912E+00
  rms(prec ) = 0.37975E+00
  weight for this iteration     100.00

 eigenvalues of (default mixing * dielectric matrix)
  average eigenvalue GAMMA=   0.3922
  1.1535  1.1535  0.5378  0.5378  0.0371  0.1301  0.1044  0.1044  0.0848  0.0781

 Free energy of the ion-electron system (eV)
  ---------------------------------------------------
  alpha Z        PSCENC =      1252.32428348
  Ewald energy   TEWEN  =    248436.64709532
  -Hartree energ DENC   =   -317620.84993120
  -exchange      EXHF   =         0.00000000
  -V(xc)+E(xc)   XCENC  =      2102.00657920
  PAW double counting   =     75122.19391090   -79527.06879733
  entropy T*S    EENTRO =        -0.09742356
  eigenvalues    EBANDS =     -1278.87465379
  atomic energy  EATOM  =     71145.21574525
  Solvation  Ediel_sol  =         0.00000000
  ---------------------------------------------------
  free energy    TOTEN  =      -368.50319171 eV

  energy without entropy =     -368.40576816  energy(sigma->0) =     -368.47071720


--------------------------------------------------------------------------------------------------------




--------------------------------------- Iteration      1(  12)  ---------------------------------------


    POTLOK:  cpu time    0.4168: real time    0.4282
    SETDIJ:  cpu time    0.0235: real time    0.0235
    EDDIAG:  cpu time    6.1192: real time    6.1205
  RMM-DIIS:  cpu time   21.1633: real time   21.1715
    ORTHCH:  cpu time    1.7558: real time    1.7560
       DOS:  cpu time    0.0094: real time    0.0094
    CHARGE:  cpu time    1.3518: real time    1.3521
    MIXING:  cpu time    0.0080: real time    0.0080
    --------------------------------------------
      LOOP:  cpu time   30.8477: real time   30.8691

 eigenvalue-minimisations  :  8818
 total energy-change (2. order) : 0.7052372E-01  (-0.1306178E-02)
 number of electron     671.0000080 magnetization      43.7923965
 augmentation part      398.0194591 magnetization      40.7860125

 DIPCOR: dipole corrections for dipol
 direction  3 min pos   245,
 dipolmoment           0.000000      0.000000      0.105832 electrons x Angstroem
 Tr[quadrupol]    -11037.821495

 energy correction for charged system         0.000000 eV
 dipol+quadrupol energy correction           -0.000558 eV
 added-field ion interaction          2.228053 eV  (added to PSCEN)


 Broyden mixing:
  rms(total) = 0.14560E+00    rms(broyden)= 0.14558E+00
  rms(prec ) = 0.16472E+00
  weight for this iteration     100.00

 eigenvalues of (default mixing * dielectric matrix)
  average eigenvalue GAMMA=   0.3859
  1.2265  1.2265  0.5436  0.5436  0.1800  0.0371  0.1157  0.1157  0.0922  0.0865
  0.0782

 Free energy of the ion-electron system (eV)
  ---------------------------------------------------
  alpha Z        PSCENC =      1252.10841025
  Ewald energy   TEWEN  =    248436.64709532
  -Hartree energ DENC   =   -317623.23338831
  -exchange      EXHF   =         0.00000000
  -V(xc)+E(xc)   XCENC  =      2102.11586497
  PAW double counting   =     75050.29599730   -79453.13129994
  entropy T*S    EENTRO =        -0.10149347
  eigenvalues    EBANDS =     -1278.34959937
  atomic energy  EATOM  =     71145.21574525
  Solvation  Ediel_sol  =         0.00000000
  ---------------------------------------------------
  free energy    TOTEN  =      -368.43266799 eV

  energy without entropy =     -368.33117452  energy(sigma->0) =     -368.39883683


--------------------------------------------------------------------------------------------------------




--------------------------------------- Iteration      1(  13)  ---------------------------------------


    POTLOK:  cpu time    0.4165: real time    0.4285
    SETDIJ:  cpu time    0.0233: real time    0.0233
    EDDIAG:  cpu time    6.1190: real time    6.1202
  RMM-DIIS:  cpu time   21.2531: real time   21.2602
    ORTHCH:  cpu time    1.7593: real time    1.7596
       DOS:  cpu time    0.0097: real time    0.0097
    CHARGE:  cpu time    1.3513: real time    1.3515
    MIXING:  cpu time    0.0082: real time    0.0082
    --------------------------------------------
      LOOP:  cpu time   30.9405: real time   30.9611

 eigenvalue-minimisations  :  8856
 total energy-change (2. order) : 0.2509789E-01  (-0.5040965E-03)
 number of electron     671.0000080 magnetization      43.7896596
 augmentation part      398.0353345 magnetization      40.7984778

 DIPCOR: dipole corrections for dipol
 direction  3 min pos   245,
 dipolmoment           0.000000      0.000000      0.105434 electrons x Angstroem
 Tr[quadrupol]    -11037.841003

 energy correction for charged system         0.000000 eV
 dipol+quadrupol energy correction           -0.000554 eV
 added-field ion interaction          2.219668 eV  (added to PSCEN)


 Broyden mixing:
  rms(total) = 0.10766E+00    rms(broyden)= 0.10765E+00
  rms(prec ) = 0.12123E+00
  weight for this iteration     100.00

 eigenvalues of (default mixing * dielectric matrix)
  average eigenvalue GAMMA=   0.4202
  1.3651  1.3651  0.6164  0.6164  0.4405  0.0371  0.1294  0.1198  0.1034  0.0897
  0.0823  0.0776

 Free energy of the ion-electron system (eV)
  ---------------------------------------------------
  alpha Z        PSCENC =      1252.10002997
  Ewald energy   TEWEN  =    248436.64709532
  -Hartree energ DENC   =   -317624.39025037
  -exchange      EXHF   =         0.00000000
  -V(xc)+E(xc)   XCENC  =      2102.16011140
  PAW double counting   =     75029.63316477   -79431.85603437
  entropy T*S    EENTRO =        -0.10340753
  eigenvalues    EBANDS =     -1277.81402454
  atomic energy  EATOM  =     71145.21574525
  Solvation  Ediel_sol  =         0.00000000
  ---------------------------------------------------
  free energy    TOTEN  =      -368.40757010 eV

  energy without entropy =     -368.30416257  energy(sigma->0) =     -368.37310093


--------------------------------------------------------------------------------------------------------




--------------------------------------- Iteration      1(  14)  ---------------------------------------


    POTLOK:  cpu time    0.4170: real time    0.4292
    SETDIJ:  cpu time    0.0236: real time    0.0236
    EDDIAG:  cpu time    6.1096: real time    6.1110
  RMM-DIIS:  cpu time   21.2412: real time   21.2482
    ORTHCH:  cpu time    1.7631: real time    1.7634
       DOS:  cpu time    0.0093: real time    0.0093
    CHARGE:  cpu time    1.3549: real time    1.3550
    MIXING:  cpu time    0.0084: real time    0.0084
    --------------------------------------------
      LOOP:  cpu time   30.9270: real time   30.9480

 eigenvalue-minimisations  :  8845
 total energy-change (2. order) : 0.3156574E-01  (-0.3948328E-03)
 number of electron     671.0000080 magnetization      43.7864066
 augmentation part      398.0581905 magnetization      40.8020670

 DIPCOR: dipole corrections for dipol
 direction  3 min pos   245,
 dipolmoment           0.000000      0.000000      0.109043 electrons x Angstroem
 Tr[quadrupol]    -11037.893113

 energy correction for charged system         0.000000 eV
 dipol+quadrupol energy correction           -0.000593 eV
 added-field ion interaction          2.295637 eV  (added to PSCEN)


 Broyden mixing:
  rms(total) = 0.11650E+00    rms(broyden)= 0.11649E+00
  rms(prec ) = 0.13270E+00
  weight for this iteration     100.00

 eigenvalues of (default mixing * dielectric matrix)
  average eigenvalue GAMMA=   0.4249
  1.4555  1.4555  0.6868  0.6868  0.4659  0.0371  0.1488  0.1270  0.1070  0.1070
  0.0884  0.0803  0.0773

 Free energy of the ion-electron system (eV)
  ---------------------------------------------------
  alpha Z        PSCENC =      1252.17595996
  Ewald energy   TEWEN  =    248436.64709532
  -Hartree energ DENC   =   -317627.07417702
  -exchange      EXHF   =         0.00000000
  -V(xc)+E(xc)   XCENC  =      2102.21870849
  PAW double counting   =     75003.54605949   -79404.89667634
  entropy T*S    EENTRO =        -0.10222874
  eigenvalues    EBANDS =     -1276.10649077
  atomic energy  EATOM  =     71145.21574525
  Solvation  Ediel_sol  =         0.00000000
  ---------------------------------------------------
  free energy    TOTEN  =      -368.37600436 eV

  energy without entropy =     -368.27377562  energy(sigma->0) =     -368.34192811


--------------------------------------------------------------------------------------------------------




--------------------------------------- Iteration      1(  15)  ---------------------------------------


    POTLOK:  cpu time    0.4166: real time    0.4280
    SETDIJ:  cpu time    0.0234: real time    0.0234
    EDDIAG:  cpu time    6.1225: real time    6.1238
  RMM-DIIS:  cpu time   21.2581: real time   21.2662
    ORTHCH:  cpu time    1.7652: real time    1.7654
       DOS:  cpu time    0.0100: real time    0.0100
    CHARGE:  cpu time    1.3547: real time    1.3548
    MIXING:  cpu time    0.0087: real time    0.0087
    --------------------------------------------
      LOOP:  cpu time   30.9591: real time   30.9803

 eigenvalue-minimisations  :  8854
 total energy-change (2. order) : 0.2296364E-01  (-0.2588769E-03)
 number of electron     671.0000080 magnetization      43.7806707
 augmentation part      398.0768206 magnetization      40.7998569

 DIPCOR: dipole corrections for dipol
 direction  3 min pos   245,
 dipolmoment           0.000000      0.000000      0.112301 electrons x Angstroem
 Tr[quadrupol]    -11037.905186

 energy correction for charged system         0.000000 eV
 dipol+quadrupol energy correction           -0.000628 eV
 added-field ion interaction          2.364227 eV  (added to PSCEN)


 Broyden mixing:
  rms(total) = 0.82953E-01    rms(broyden)= 0.82951E-01
  rms(prec ) = 0.10153E+00
  weight for this iteration     100.00

 eigenvalues of (default mixing * dielectric matrix)
  average eigenvalue GAMMA=   0.4387
  1.5692  1.5692  0.7419  0.7419  0.4531  0.3321  0.0371  0.1342  0.1117  0.1117
  0.0947  0.0869  0.0804  0.0773

 Free energy of the ion-electron system (eV)
  ---------------------------------------------------
  alpha Z        PSCENC =      1252.24451455
  Ewald energy   TEWEN  =    248436.64709532
  -Hartree energ DENC   =   -317628.06576531
  -exchange      EXHF   =         0.00000000
  -V(xc)+E(xc)   XCENC  =      2102.26253669
  PAW double counting   =     74985.71819618   -79386.49077257
  entropy T*S    EENTRO =        -0.10568112
  eigenvalues    EBANDS =     -1275.77890972
  atomic energy  EATOM  =     71145.21574525
  Solvation  Ediel_sol  =         0.00000000
  ---------------------------------------------------
  free energy    TOTEN  =      -368.35304072 eV

  energy without entropy =     -368.24735960  energy(sigma->0) =     -368.31781368


[...]
   -.172E+00 0.130E+00 0.122E+04   0.236E+00 -.134E+00 -.122E+04   0.641E-03 -.103E-04 -.302E+00   -.548E-01 0.407E-04 -.259E-01
   -.591E+01 -.342E+01 -.809E+03   0.588E+01 0.338E+01 0.808E+03   0.170E-01 0.904E-02 0.519E+00   0.353E-02 0.228E-01 -.129E+00
   -.365E+00 -.185E+00 0.321E+04   0.398E+00 0.176E+00 -.320E+04   0.395E-02 0.653E-03 -.141E+01   -.314E-01 0.113E-01 0.909E-02
   -.912E+02 -.524E+02 -.288E+04   0.929E+02 0.534E+02 0.288E+04   -.168E+01 -.968E+00 0.414E+00   -.241E-01 -.111E-01 -.627E-01
   -.354E+01 -.106E+01 0.121E+04   0.358E+01 0.112E+01 -.121E+04   0.869E-02 -.579E-01 -.192E+00   -.110E-01 -.176E-02 -.395E-01
   0.549E+01 -.312E+01 -.809E+03   -.540E+01 0.308E+01 0.809E+03   -.173E-01 0.105E-01 0.518E+00   -.623E-01 0.218E-01 -.114E+00
   0.214E-01 0.643E+00 0.321E+04   -.979E-01 -.624E+00 -.320E+04   0.226E-01 0.129E-02 -.143E+01   0.349E-01 -.130E-01 0.188E-03
   0.112E+03 -.589E+02 -.285E+04   -.113E+03 0.597E+02 0.285E+04   0.168E+01 -.859E+00 0.213E+00   -.588E-02 -.177E-02 -.401E-01
   -.925E-01 0.402E+01 0.121E+04   0.447E-01 -.404E+01 -.121E+04   0.288E-03 0.235E-01 -.237E+00   0.541E-01 -.167E-01 -.711E-01
   -.546E+00 -.847E+00 -.820E+03   0.660E+00 0.648E+00 0.820E+03   -.147E+00 0.190E+00 0.230E+00   0.191E-01 0.123E-01 -.121E+00
   -.808E-01 0.622E+00 0.321E+04   0.937E-01 -.581E+00 -.320E+04   -.229E-01 0.114E-02 -.143E+01   0.294E-01 -.346E-01 0.207E-01
   -.111E+03 -.592E+02 -.285E+04   0.113E+03 0.600E+02 0.285E+04   -.168E+01 -.857E+00 0.211E+00   0.403E-01 -.149E-01 -.565E-01
   0.337E+01 -.131E+01 0.121E+04   -.341E+01 0.139E+01 -.121E+04   -.589E-02 -.579E-01 -.193E+00   0.118E-01 -.158E-01 -.550E-01
   0.938E+00 -.117E+01 -.820E+03   -.112E+01 0.968E+00 0.820E+03   0.144E+00 0.189E+00 0.230E+00   0.444E-01 0.125E-01 -.137E+00
   -.553E+00 -.240E+00 0.321E+04   0.549E+00 0.211E+00 -.320E+04   -.126E-01 0.186E-01 -.143E+01   0.195E-01 -.112E-01 0.143E-01
   -.435E+01 0.126E+03 -.285E+04   0.443E+01 -.128E+03 0.285E+04   -.972E-01 0.188E+01 0.214E+00   0.111E-01 -.386E-01 -.498E-01
   0.285E+01 -.226E+01 0.121E+04   -.290E+01 0.227E+01 -.121E+04   0.476E-01 0.346E-01 -.192E+00   -.930E-02 -.281E-01 -.553E-01
   -.211E+01 0.124E+01 -.835E+03   0.208E+01 -.120E+01 0.836E+03   0.617E-02 -.371E-02 -.116E+01   0.252E-01 -.397E-01 -.134E+00
   0.591E-01 -.881E+00 0.321E+04   -.430E-01 0.882E+00 -.320E+04   -.625E-03 -.210E-01 -.124E+01   -.151E-01 0.274E-01 0.891E-02
   0.356E+00 0.304E+02 -.285E+04   -.353E+00 -.308E+02 0.285E+04   0.235E-02 0.403E+00 0.319E+01   -.882E-02 -.359E-01 -.925E-01
   -.287E+01 -.200E+01 0.121E+04   0.298E+01 0.198E+01 -.121E+04   -.456E-01 0.346E-01 -.197E+00   -.344E-01 0.756E-02 -.507E-01
   0.471E-01 0.685E+01 -.809E+03   -.193E-01 -.677E+01 0.808E+03   0.106E-02 -.193E-01 0.520E+00   -.303E-01 -.502E-01 -.126E+00
   0.541E+00 -.242E+00 0.321E+04   -.539E+00 0.157E+00 -.320E+04   0.142E-01 0.192E-01 -.143E+01   -.190E-01 0.441E-01 0.158E-02
   0.452E+01 0.127E+03 -.285E+04   -.461E+01 -.128E+03 0.285E+04   0.974E-01 0.188E+01 0.205E+00   -.635E-02 -.183E-01 -.396E-01
   0.444E+01 0.287E+01 0.121E+04   -.455E+01 -.294E+01 -.121E+04   0.715E-01 0.405E-01 -.191E+00   0.867E-02 0.563E-02 -.565E-01
   0.228E+01 0.173E+01 -.835E+03   -.225E+01 -.172E+01 0.836E+03   -.125E-01 -.195E-02 -.116E+01   -.220E-01 -.104E-01 -.113E+00
   -.484E-01 0.154E-01 0.321E+04   0.350E-01 -.177E-01 -.321E+04   -.112E-02 0.110E-03 -.127E+01   0.146E-01 0.166E-02 0.221E-02
   -.266E+00 0.115E+00 -.288E+04   0.254E+00 -.108E+00 0.288E+04   -.277E-02 0.199E-02 0.342E+01   0.115E-01 -.718E-02 -.789E-01
   -.481E+01 0.277E+01 0.121E+04   0.489E+01 -.281E+01 -.121E+04   -.702E-01 0.409E-01 -.194E+00   0.350E-01 -.297E-01 -.607E-01
   -.151E+00 0.511E+01 -.811E+03   0.117E+00 -.499E+01 0.810E+03   0.365E-03 -.854E-01 0.474E+00   0.313E-01 -.294E-01 -.124E+00
   0.421E+02 0.241E+02 -.230E+04   -.425E+02 -.244E+02 0.233E+04   0.404E+00 0.236E+00 -.284E+02   -.111E-01 -.548E-02 0.276E-01
   0.206E+00 -.486E+02 -.230E+04   -.213E+00 0.490E+02 0.233E+04   0.179E-02 -.463E+00 -.284E+02   0.638E-02 0.821E-02 0.219E-01
   0.254E-01 -.328E-01 -.231E+04   -.214E-01 0.422E-01 0.234E+04   0.368E-02 -.425E-02 -.282E+02   -.119E-01 -.162E-02 0.772E-03
   -.421E+02 0.244E+02 -.230E+04   0.424E+02 -.246E+02 0.233E+04   -.326E+00 0.195E+00 -.284E+02   0.898E-02 0.379E-02 0.303E-01
   0.161E+01 -.774E+00 -.224E+04   -.302E+01 0.146E+01 0.222E+04   0.140E+01 -.690E+00 0.189E+02   0.446E-03 0.713E-02 -.135E-01
   -.271E+01 0.135E+01 -.424E+03   0.298E+01 -.148E+01 0.432E+03   -.284E+00 0.141E+00 -.823E+01   0.335E-03 0.461E-03 0.626E-02
 -----------------------------------------------------------------------------------------------
   -.130E+01 0.627E+00 0.114E+03   0.218E-12 -.446E-12 0.477E-11   0.127E+01 -.623E+00 -.110E+03   0.400E-01 -.140E-01 -.379E+01
 
 
 POSITION                                       TOTAL-FORCE (eV/Angst)
 -----------------------------------------------------------------------------------
     -0.00000      1.94796      2.00000        -0.017017      0.011786      0.251915
     -0.03468      1.96072      8.06479         0.015921     -0.012112     -0.002011
      1.24593      1.22862      4.03457         0.016983      0.003069     -0.232285
      0.00517      0.50721      6.00617        -0.007992     -0.002318     -0.002383
      2.49184      1.94796      2.00000         0.018336      0.010605      0.252014
      2.47812      1.92896      8.14739        -0.020458     -0.008755     -0.002940
      3.73777      1.22862      4.03457         0.005354      0.018067     -0.142098
      2.49122      0.51860      6.02665         0.001163     -0.002808     -0.001416
      4.98369      1.94796      2.00000        -0.018288      0.009917      0.251909
      5.01989      1.92787      8.13874         0.014859     -0.009225      0.001549
      6.22962      1.22862      4.03457        -0.000758      0.001063     -0.236323
      4.99452      0.51819      6.02525        -0.005077     -0.002967     -0.000820
      7.47553      1.94796      2.00000         0.017454      0.012226      0.252059
      7.53173      1.96080      8.06428        -0.025833     -0.014999      0.001039
      8.72146      1.22862      4.03457         0.007245      0.036499     -0.258348
      7.48009      0.50712      6.00626         0.004481     -0.002690     -0.002976
     -1.24593      4.10596      2.00000         0.000138     -0.005990      0.239124
     -1.23618      4.07609      8.06936        -0.002768      0.017351      0.000134
      0.00000      3.38662      4.03457         0.019959     -0.035390     -0.249090
     -1.24050      2.66844      6.04026        -0.001469      0.002741     -0.007213
      1.24592      4.10596      2.00000         0.006281     -0.004011      0.194702
      1.23506      4.11305      7.94582        -0.004122      0.002197      0.020269
      2.49185      3.38662      4.03457         0.023263     -0.012815     -0.142651
      1.25861      2.65399      6.02671        -0.004125      0.005589     -0.001416
      3.73776      4.10596      2.00000        -0.000568     -0.021835      0.252063
      3.74811      4.12845      8.14698        -0.003170      0.023797     -0.003033
      4.98369      3.38662      4.03457        -0.012540     -0.012759     -0.141769
      3.74263      2.66490      6.07006        -0.002030      0.000954     -0.005010
      6.22961      4.10596      2.00000        -0.006205     -0.004190      0.195893
      6.26036      4.11319      7.94467        -0.002116      0.002546      0.020241
      7.47554      3.38662      4.03457        -0.001850     -0.034918     -0.252843
      6.22776      2.65414      6.02529        -0.000011      0.005419     -0.000822
     -2.49185      6.26396      2.00000        -0.004510      0.002323      0.239753
     -2.50396      6.27186      8.06892         0.014613     -0.008359      0.002340
     -1.24592      5.54462      4.03457         0.008841     -0.004134     -0.280615
     -2.48650      4.82333      6.00117        -0.006483     -0.002131      0.002104
     -0.00000      6.26396      2.00000         0.004933      0.002406      0.238889
      0.03189      6.27201      8.06914        -0.018368     -0.007573      0.001144
      1.24593      5.54462      4.03457         0.041167      0.001839     -0.249273
      0.00450      4.82314      6.00175         0.003276     -0.002110      0.002052
      2.49184      6.26396      2.00000        -0.019251      0.008239      0.251835
      2.46423      6.28895      8.06460         0.022239     -0.010569      0.000868
      3.73777      5.54462      4.03457         0.006388     -0.015015     -0.232230
      2.51005      4.82156      6.02667        -0.006947      0.000573     -0.001549
      4.98369      6.26396      2.00000         0.019277      0.008474      0.251856
      5.03164      6.28989      8.06483        -0.034482     -0.013412      0.004958
      6.22962      5.54462      4.03457        -0.027608      0.002565     -0.248936
      4.97578      4.82185      6.02665         0.002601      0.000295     -0.001551
     -3.73777      8.42196      2.00000         0.002028     -0.021499      0.251791
     -3.73555      8.36881      8.06487        -0.005407      0.034645      0.004610
     -2.49184      7.70262      4.03457        -0.015159      0.024068     -0.248924
     -3.72987      6.97922      6.04035         0.000499     -0.000303     -0.009816
     -1.24593      8.42196      2.00000         0.000197      0.006783      0.195631
     -1.23610      8.39305      7.94463        -0.003205      0.000202      0.020716
      0.00000      7.70262      4.03457         0.029991      0.020251     -0.253016
     -1.24116      6.98029      6.00114        -0.001601      0.006656      0.002134
      1.24592      8.42196      2.00000        -0.002383     -0.021958      0.251914
      1.26377      8.36804      8.06413        -0.000479      0.033925      0.003927
      2.49185      7.70262      4.03457        -0.027234     -0.023250     -0.258577
      1.24812      6.97876      6.04022        -0.003560     -0.000552     -0.008625
      3.73776      8.42196      2.00000        -0.000164     -0.000366      0.185089
      3.74739      8.41722      7.96621        -0.003444      0.001581      0.020122
      4.98369      7.70262      4.03457         0.041116     -0.022878     -0.257609
      3.74257      6.98050      6.00617        -0.002108      0.007751     -0.002491
      1.13201      1.15197      9.21253        -0.008461     -0.007288     -0.027079
      3.74812      5.68259      9.21255         0.000473      0.013242     -0.030124
     -1.23544      5.53999      9.18841        -0.004343      0.003643     -0.020441
      6.36480      1.15165      9.21105         0.004779     -0.005457     -0.029518
      3.76015      2.65589      9.46716        -0.005819      0.003167      0.020198
      3.79386      2.63917     10.44100        -0.016446      0.008183     -0.039023
 -----------------------------------------------------------------------------------
    total drift:                                0.013536     -0.010062      0.061328


--------------------------------------------------------------------------------------------------------



  FREE ENERGIE OF THE ION-ELECTRON SYSTEM (eV)
  ---------------------------------------------------
  free  energy   TOTEN  =      -386.72321973 eV

  energy  without entropy=     -386.62151714  energy(sigma->0) =     -386.68931887
 
 d Force = 0.5599287E-04[-0.502E-04, 0.162E-03]  d Energy = 0.6854907E-04-0.126E-04
 d Force = 0.2882587E+01[ 0.288E+01, 0.288E+01]  d Ewald  = 0.2882588E+01-0.105E-05


--------------------------------------------------------------------------------------------------------


    POTLOK:  cpu time    0.4368: real time    0.4369


--------------------------------------------------------------------------------------------------------


 stress matrix after NEB project (eV)
    -32.03084      0.19587     -0.50431
      0.19587    -31.84442      0.24197
     -0.50431      0.24197     -8.56139
  FORCES: max atom, RMS     0.043130    0.015219
  FORCE total and by dimension    0.127328    0.039023
  Stress total and by dimension   45.978711   32.030840


--------------------------------------------------------------------------------------------------------


  
 reached required accuracy - stopping structural energy minimisation
 writing wavefunctions
     LOOP+:  cpu time  273.5419: real time  304.9587
    4ORBIT:  cpu time    0.0000: real time    0.0000
 


 total charge     
 
# of ion       s       p       d       tot
------------------------------------------
    1        0.486   0.377   8.305   9.167
    2        0.502   0.522   8.322   9.346
    3        0.498   0.502   8.314   9.315
    4        0.498   0.505   8.320   9.323
    5        0.486   0.377   8.303   9.167
    6        0.443   0.525   8.321   9.289
    7        0.494   0.498   8.309   9.302
    8        0.498   0.504   8.316   9.318
    9        0.486   0.377   8.303   9.166
   10        0.445   0.530   8.321   9.296
   11        0.499   0.503   8.314   9.316
   12        0.499   0.505   8.316   9.319
   13        0.486   0.377   8.304   9.167
   14        0.502   0.522   8.323   9.347
   15        0.497   0.503   8.312   9.312
   16        0.498   0.505   8.320   9.323
   17        0.486   0.377   8.304   9.167
   18        0.496   0.509   8.322   9.327
   19        0.496   0.501   8.313   9.310
   20        0.504   0.508   8.330   9.342
   21        0.489   0.377   8.298   9.163
   22        0.479   0.378   8.358   9.215
   23        0.494   0.498   8.309   9.302
   24        0.498   0.504   8.316   9.318
   25        0.486   0.377   8.303   9.166
   26        0.443   0.526   8.321   9.290
   27        0.494   0.498   8.309   9.301
   28        0.494   0.488   8.317   9.298
   29        0.489   0.377   8.296   9.162
   30        0.479   0.378   8.358   9.215
   31        0.496   0.501   8.313   9.310
   32        0.499   0.505   8.316   9.319
   33        0.486   0.377   8.304   9.166
   34        0.496   0.509   8.322   9.327
   35        0.500   0.507   8.314   9.321
   36        0.499   0.507   8.319   9.325
   37        0.486   0.377   8.304   9.167
   38        0.496   0.509   8.322   9.328
   39        0.496   0.501   8.313   9.310
   40        0.499   0.507   8.320   9.325
   41        0.486   0.377   8.305   9.167
   42        0.502   0.522   8.322   9.346
   43        0.498   0.502   8.314   9.315
   44        0.498   0.504   8.316   9.318
   45        0.486   0.377   8.304   9.167
   46        0.502   0.522   8.322   9.346
   47        0.496   0.501   8.312   9.310
   48        0.498   0.504   8.316   9.317
   49        0.486   0.377   8.305   9.167
   50        0.502   0.522   8.322   9.346
   51        0.496   0.501   8.313   9.310
   52        0.504   0.508   8.330   9.342
   53        0.489   0.377   8.297   9.163
   54        0.479   0.378   8.358   9.215
   55        0.496   0.501   8.313   9.311
   56        0.499   0.507   8.320   9.325
   57        0.486   0.377   8.305   9.167
   58        0.502   0.522   8.323   9.347
   59        0.497   0.503   8.312   9.312
   60        0.504   0.508   8.330   9.342
   61        0.489   0.376   8.300   9.165
   62        0.469   0.376   8.359   9.204
   63        0.497   0.503   8.312   9.312
   64        0.498   0.505   8.320   9.323
   65        1.583   3.337   0.000   4.920
   66        1.583   3.337   0.000   4.920
   67        1.582   3.336   0.000   4.919
   68        1.583   3.337   0.000   4.920
   69        1.542   3.553   0.000   5.095
   70        0.602   0.119   0.000   0.721
--------------------------------------------------
tot         39.929  46.897 532.254 619.080
 


 magnetization (x)
 
# of ion       s       p       d       tot
------------------------------------------
    1       -0.008  -0.025   0.708   0.674
    2       -0.003  -0.013   0.595   0.579
    3       -0.006  -0.025   0.766   0.735
    4       -0.006  -0.025   0.738   0.707
    5       -0.008  -0.025   0.709   0.676
    6       -0.005  -0.011   0.741   0.725
    7       -0.006  -0.025   0.742   0.711
    8       -0.006  -0.025   0.728   0.697
    9       -0.008  -0.025   0.709   0.676
   10       -0.005  -0.011   0.736   0.720
   11       -0.006  -0.025   0.766   0.735
   12       -0.006  -0.025   0.728   0.696
   13       -0.008  -0.025   0.708   0.674
   14       -0.003  -0.013   0.594   0.578
   15       -0.006  -0.025   0.729   0.699
   16       -0.006  -0.025   0.738   0.707
   17       -0.007  -0.025   0.717   0.685
   18       -0.003  -0.014   0.615   0.598
   19       -0.005  -0.025   0.726   0.696
   20       -0.006  -0.021   0.593   0.567
   21       -0.002  -0.025   0.751   0.725
   22       -0.011  -0.017   0.807   0.779
   23       -0.006  -0.025   0.741   0.711
   24       -0.006  -0.025   0.728   0.697
   25       -0.008  -0.025   0.709   0.676
   26       -0.005  -0.011   0.741   0.725
   27       -0.006  -0.025   0.742   0.712
   28       -0.006  -0.023   0.680   0.651
   29       -0.002  -0.025   0.752   0.725
   30       -0.011  -0.017   0.807   0.779
   31       -0.005  -0.025   0.726   0.696
   32       -0.006  -0.025   0.728   0.697
   33       -0.007  -0.025   0.717   0.685
   34       -0.003  -0.014   0.616   0.599
   35       -0.006  -0.024   0.763   0.733
   36       -0.007  -0.025   0.734   0.703
   37       -0.007  -0.025   0.717   0.685
   38       -0.003  -0.014   0.615   0.598
   39       -0.005  -0.025   0.726   0.696
   40       -0.007  -0.025   0.734   0.703
   41       -0.008  -0.025   0.708   0.674
   42       -0.003  -0.013   0.595   0.579
   43       -0.006  -0.025   0.766   0.735
   44       -0.006  -0.025   0.728   0.697
   45       -0.008  -0.025   0.708   0.675
   46       -0.003  -0.013   0.596   0.580
   47       -0.005  -0.025   0.727   0.697
   48       -0.006  -0.025   0.729   0.697
   49       -0.008  -0.025   0.708   0.675
   50       -0.003  -0.013   0.596   0.580
   51       -0.005  -0.025   0.727   0.697
   52       -0.006  -0.021   0.594   0.567
   53       -0.002  -0.025   0.752   0.725
   54       -0.011  -0.017   0.807   0.779
   55       -0.005  -0.025   0.726   0.696
   56       -0.007  -0.025   0.734   0.703
   57       -0.008  -0.025   0.708   0.674
   58       -0.003  -0.013   0.594   0.578
   59       -0.006  -0.025   0.729   0.699
   60       -0.006  -0.021   0.593   0.567
   61       -0.001  -0.025   0.744   0.718
   62       -0.012  -0.016   0.789   0.760
   63       -0.006  -0.025   0.730   0.700
   64       -0.006  -0.025   0.738   0.707
   65        0.003   0.139   0.000   0.141
   66        0.003   0.139   0.000   0.141
   67        0.002   0.127   0.000   0.130
   68        0.003   0.138   0.000   0.141
   69        0.012   0.140   0.000   0.152
   70        0.002   0.002   0.000   0.004
--------------------------------------------------
tot         -0.356  -0.712  45.446  44.377
 

 total amount of memory used by VASP MPI-rank0   116009. kBytes
=======================================================================

   base      :      30000. kBytes
   nonlr-proj:      12486. kBytes
   fftplans  :       6402. kBytes
   grid      :      17692. kBytes
   one-center:         93. kBytes
   wavefun   :      49336. kBytes
 
  
  
 General timing and accounting informations for this job:
 ========================================================
  
                  Total CPU time used (sec):     2952.386
                            User time (sec):     2815.568
                          System time (sec):      136.818
                         Elapsed time (sec):     2989.575
  
                   Maximum memory used (kb):      353808.
                   Average memory used (kb):           0.
  
                          Minor page faults:     26391554
                          Major page faults:            0
                 Voluntary context switches:         4444
