SQS-NiFe                                
           1
     9.967380    0.000000    0.000000
    -4.983690    8.632004    0.000000
     0.000000    0.000000   21.103750
   Ni   O    H 
  64   5   1
Direct configuration=     1
   0.11283300  0.22566700  0.09477000
   0.11003888  0.22714619  0.38224115
   0.19616700  0.14233300  0.19117800
   0.03000747  0.05880753  0.28469777
   0.36283300  0.22566700  0.09477000
   0.36037681  0.22344148  0.38621007
   0.44616700  0.14233300  0.19117800
   0.28003117  0.06017347  0.28563832
   0.61283300  0.22566700  0.09477000
   0.61534096  0.22329835  0.38579813
   0.69616700  0.14233300  0.19117800
   0.53118480  0.06013456  0.28557502
   0.86283300  0.22566700  0.09477000
   0.86927410  0.22713513  0.38223255
   0.94616700  0.14233300  0.19117800
   0.77979086  0.05879681  0.28470659
   0.11283300  0.47566700  0.09477000
   0.11210336  0.47219849  0.38242005
   0.19616700  0.39233300  0.19117800
   0.03010125  0.30906507  0.28624313
   0.36283300  0.47566700  0.09477000
   0.36219187  0.47645327  0.37631328
   0.44616700  0.39233300  0.19117800
   0.28004962  0.30738465  0.28564272
   0.61283300  0.47566700  0.09477000
   0.61519979  0.47825713  0.38619418
   0.69616700  0.39233300  0.19117800
   0.52986449  0.30870886  0.28760293
   0.86283300  0.47566700  0.09477000
   0.86631198  0.47645861  0.37625614
   0.94616700  0.39233300  0.19117800
   0.77845040  0.30739252  0.28557656
   0.11283300  0.72566700  0.09477000
   0.11213091  0.72653621  0.38241285
   0.19616700  0.64233300  0.19117800
   0.03013242  0.55886460  0.28441491
   0.36283300  0.72566700  0.09477000
   0.36648817  0.72657435  0.38241341
   0.44616700  0.64233300  0.19117800
   0.27973693  0.55883780  0.28444096
   0.61283300  0.72566700  0.09477000
   0.61153693  0.72859489  0.38224403
   0.69616700  0.64233300  0.19117800
   0.53118716  0.55852019  0.28564077
   0.86283300  0.72566700  0.09477000
   0.86913023  0.72866199  0.38227472
   0.94616700  0.64233300  0.19117800
   0.77841037  0.55854845  0.28563856
   0.11283300  0.97566700  0.09477000
   0.10998947  0.96952446  0.38227387
   0.19616700  0.89233300  0.19117800
   0.03004554  0.80854774  0.28623416
   0.36283300  0.97566700  0.09477000
   0.36219125  0.97234480  0.37625342
   0.44616700  0.89233300  0.19117800
   0.27971383  0.80844898  0.28441397
   0.61283300  0.97566700  0.09477000
   0.61154636  0.96941562  0.38223697
   0.69616700  0.89233300  0.19117800
   0.52952647  0.80848853  0.28623455
   0.86283300  0.97566700  0.09477000
   0.86354339  0.97510359  0.37728645
   0.94616700  0.89233300  0.19117800
   0.77977654  0.80857116  0.28469722
   0.18043419  0.13343507  0.43634639
   0.70520550  0.65818708  0.43633659
   0.19696777  0.64180094  0.43528024
   0.70518523  0.13345059  0.43625340
   0.53112830  0.30762740  0.44859998
   0.53359133  0.30567033  0.49473256
Direct configuration=     2
   0.11283300  0.22566700  0.09477000
   0.11006287  0.22716243  0.38217776
   0.19616700  0.14233300  0.19117800
   0.02994145  0.05877693  0.28463457
   0.36283300  0.22566700  0.09477000
   0.36038039  0.22346497  0.38610826
   0.44616700  0.14233300  0.19117800
   0.27999452  0.06011204  0.28559469
   0.61283300  0.22566700  0.09477000
   0.61530787  0.22333352  0.38569573
   0.69616700  0.14233300  0.19117800
   0.53113424  0.06006734  0.28552936
   0.86283300  0.22566700  0.09477000
   0.86927425  0.22716837  0.38215716
   0.94616700  0.14233300  0.19117800
   0.77981530  0.05876718  0.28464057
   0.11283300  0.47566700  0.09477000
   0.11207873  0.47217998  0.38238189
   0.19616700  0.39233300  0.19117800
   0.03010762  0.30910821  0.28622989
   0.36283300  0.47566700  0.09477000
   0.36216863  0.47647490  0.37643926
   0.44616700  0.39233300  0.19117800
   0.28001886  0.30742990  0.28559800
   0.61283300  0.47566700  0.09477000
   0.61517442  0.47824747  0.38609002
   0.69616700  0.39233300  0.19117800
   0.52985535  0.30871795  0.28762289
   0.86283300  0.47566700  0.09477000
   0.86632920  0.47648701  0.37638355
   0.94616700  0.39233300  0.19117800
   0.77851630  0.30744390  0.28553084
   0.11283300  0.72566700  0.09477000
   0.11208145  0.72657942  0.38236469
   0.19616700  0.64233300  0.19117800
   0.02999793  0.55880518  0.28438062
   0.36283300  0.72566700  0.09477000
   0.36652164  0.72660261  0.38237225
   0.44616700  0.64233300  0.19117800
   0.27979580  0.55878135  0.28440772
   0.61283300  0.72566700  0.09477000
   0.61149970  0.72858863  0.38217088
   0.69616700  0.64233300  0.19117800
   0.53114088  0.55855219  0.28559611
   0.86283300  0.72566700  0.09477000
   0.86918867  0.72868801  0.38218632
   0.94616700  0.64233300  0.19117800
   0.77847347  0.55858435  0.28559494
   0.11283300  0.97566700  0.09477000
   0.10996268  0.96946949  0.38218784
   0.19616700  0.89233300  0.19117800
   0.03005220  0.80853571  0.28623093
   0.36283300  0.97566700  0.09477000
   0.36216186  0.97232668  0.37638151
   0.44616700  0.89233300  0.19117800
   0.27977281  0.80857984  0.28437964
   0.61283300  0.97566700  0.09477000
   0.61149391  0.96937457  0.38215241
   0.69616700  0.89233300  0.19117800
   0.52948432  0.80848069  0.28622657
   0.86283300  0.97566700  0.09477000
   0.86353247  0.97511203  0.37740803
   0.94616700  0.89233300  0.19117800
   0.77980373  0.80863507  0.28463428
   0.18035611  0.13345669  0.43648862
   0.70519126  0.65825739  0.43648791
   0.19695758  0.64179437  0.43536665
   0.70524019  0.13343558  0.43641206
   0.53110680  0.30765692  0.44868056
   0.53353402  0.30571516  0.49467842
Direct configuration=     3
   0.11283300  0.22566700  0.09477000
   0.11006458  0.22716359  0.38217324
   0.19616700  0.14233300  0.19117800
   0.02993675  0.05877474  0.28463007
   0.36283300  0.22566700  0.09477000
   0.36038065  0.22346664  0.38610100
   0.44616700  0.14233300  0.19117800
   0.27999191  0.06010766  0.28559158
   0.61283300  0.22566700  0.09477000
   0.61530552  0.22333602  0.38568843
   0.69616700  0.14233300  0.19117800
   0.53113064  0.06006255  0.28552610
   0.86283300  0.22566700  0.09477000
   0.86927426  0.22717074  0.38215179
   0.94616700  0.14233300  0.19117800
   0.77981704  0.05876507  0.28463586
   0.11283300  0.47566700  0.09477000
   0.11207697  0.47217866  0.38237917
   0.19616700  0.39233300  0.19117800
   0.03010807  0.30911129  0.28622895
   0.36283300  0.47566700  0.09477000
   0.36216697  0.47647644  0.37644824
   0.44616700  0.39233300  0.19117800
   0.28001667  0.30743312  0.28559481
   0.61283300  0.47566700  0.09477000
   0.61517261  0.47824678  0.38608260
   0.69616700  0.39233300  0.19117800
   0.52985470  0.30871860  0.28762431
   0.86283300  0.47566700  0.09477000
   0.86633042  0.47648904  0.37639264
   0.94616700  0.39233300  0.19117800
   0.77852100  0.30744756  0.28552758
   0.11283300  0.72566700  0.09477000
   0.11207793  0.72658251  0.38236125
   0.19616700  0.64233300  0.19117800
   0.02998834  0.55880095  0.28437817
   0.36283300  0.72566700  0.09477000
   0.36652403  0.72660462  0.38236931
   0.44616700  0.64233300  0.19117800
   0.27979999  0.55877733  0.28440535
   0.61283300  0.72566700  0.09477000
   0.61149704  0.72858818  0.38216567
   0.69616700  0.64233300  0.19117800
   0.53113758  0.55855448  0.28559292
   0.86283300  0.72566700  0.09477000
   0.86919284  0.72868987  0.38218002
   0.94616700  0.64233300  0.19117800
   0.77847797  0.55858691  0.28559183
   0.11283300  0.97566700  0.09477000
   0.10996077  0.96946557  0.38218171
   0.19616700  0.89233300  0.19117800
   0.03005267  0.80853486  0.28623070
   0.36283300  0.97566700  0.09477000
   0.36215977  0.97232539  0.37639064
   0.44616700  0.89233300  0.19117800
   0.27977701  0.80858917  0.28437720
   0.61283300  0.97566700  0.09477000
   0.61149017  0.96937165  0.38214638
   0.69616700  0.89233300  0.19117800
   0.52948131  0.80848013  0.28622601
   0.86283300  0.97566700  0.09477000
   0.86353169  0.97511264  0.37741670
   0.94616700  0.89233300  0.19117800
   0.77980567  0.80863962  0.28462979
   0.18035055  0.13345823  0.43649876
   0.70519025  0.65826240  0.43649870
   0.19695685  0.64179391  0.43537281
   0.70524411  0.13343451  0.43642337
   0.53110527  0.30765902  0.44868631
   0.53352994  0.30571836  0.49467456
Direct configuration=     4
   0.11283300  0.22566700  0.09477000
   0.11010972  0.22713519  0.38213615
   0.19616700  0.14233300  0.19117800
   0.02987544  0.05874940  0.28458573
   0.36283300  0.22566700  0.09477000
   0.36034091  0.22346495  0.38604170
   0.44616700  0.14233300  0.19117800
   0.27996751  0.06006112  0.28556115
   0.61283300  0.22566700  0.09477000
   0.61529971  0.22334131  0.38563331
   0.69616700  0.14233300  0.19117800
   0.53108458  0.06001233  0.28549482
   0.86283300  0.22566700  0.09477000
   0.86918200  0.22714614  0.38211036
   0.94616700  0.14233300  0.19117800
   0.77983930  0.05873961  0.28458922
   0.11283300  0.47566700  0.09477000
   0.11208330  0.47222210  0.38235837
   0.19616700  0.39233300  0.19117800
   0.03011307  0.30914655  0.28621067
   0.36283300  0.47566700  0.09477000
   0.36214665  0.47649526  0.37654954
   0.44616700  0.39233300  0.19117800
   0.27999510  0.30747496  0.28556370
   0.61283300  0.47566700  0.09477000
   0.61517443  0.47828760  0.38602182
   0.69616700  0.39233300  0.19117800
   0.52984646  0.30872662  0.28763212
   0.86283300  0.47566700  0.09477000
   0.86634058  0.47651301  0.37649512
   0.94616700  0.39233300  0.19117800
   0.77857011  0.30749342  0.28549634
   0.11283300  0.72566700  0.09477000
   0.11207407  0.72658245  0.38233608
   0.19616700  0.64233300  0.19117800
   0.02988579  0.55875740  0.28435723
   0.36283300  0.72566700  0.09477000
   0.36648436  0.72659715  0.38234759
   0.44616700  0.64233300  0.19117800
   0.27984226  0.55873583  0.28438497
   0.61283300  0.72566700  0.09477000
   0.61151789  0.72854635  0.38212574
   0.69616700  0.64233300  0.19117800
   0.53109532  0.55857633  0.28556188
   0.86283300  0.72566700  0.09477000
   0.86911887  0.72866073  0.38213475
   0.94616700  0.64233300  0.19117800
   0.77852462  0.55861059  0.28556140
   0.11283300  0.97566700  0.09477000
   0.10998649  0.96953525  0.38213704
   0.19616700  0.89233300  0.19117800
   0.03005826  0.80852520  0.28621610
   0.36283300  0.97566700  0.09477000
   0.36213490  0.97231374  0.37649372
   0.44616700  0.89233300  0.19117800
   0.27981972  0.80868916  0.28435617
   0.61283300  0.97566700  0.09477000
   0.61150726  0.96944926  0.38210227
   0.69616700  0.89233300  0.19117800
   0.52944547  0.80847294  0.28620971
   0.86283300  0.97566700  0.09477000
   0.86351983  0.97512114  0.37751421
   0.94616700  0.89233300  0.19117800
   0.77982830  0.80869842  0.28458576
   0.18026786  0.13345090  0.43655632
   0.70520129  0.65834744  0.43655807
   0.19694676  0.64179844  0.43540323
   0.70528642  0.13340609  0.43648929
   0.53107332  0.30769098  0.44855103
   0.53348147  0.30575670  0.49478762
Direct configuration=     5
   0.11283300  0.22566700  0.09477000
   0.11009316  0.22714561  0.38214975
   0.19616700  0.14233300  0.19117800
   0.02989793  0.05875870  0.28460199
   0.36283300  0.22566700  0.09477000
   0.36035549  0.22346557  0.38606345
   0.44616700  0.14233300  0.19117800
   0.27997646  0.06007819  0.28557232
   0.61283300  0.22566700  0.09477000
   0.61530184  0.22333937  0.38565353
   0.69616700  0.14233300  0.19117800
   0.53110148  0.06003075  0.28550629
   0.86283300  0.22566700  0.09477000
   0.86921584  0.22715517  0.38212556
   0.94616700  0.14233300  0.19117800
   0.77983113  0.05874895  0.28460633
   0.11283300  0.47566700  0.09477000
   0.11208098  0.47220616  0.38236600
   0.19616700  0.39233300  0.19117800
   0.03011124  0.30913361  0.28621738
   0.36283300  0.47566700  0.09477000
   0.36215410  0.47648836  0.37651238
   0.44616700  0.39233300  0.19117800
   0.28000301  0.30745961  0.28557511
   0.61283300  0.47566700  0.09477000
   0.61517376  0.47827263  0.38604411
   0.69616700  0.39233300  0.19117800
   0.52984948  0.30872368  0.28762925
   0.86283300  0.47566700  0.09477000
   0.86633686  0.47650422  0.37645752
   0.94616700  0.39233300  0.19117800
   0.77855209  0.30747660  0.28550780
   0.11283300  0.72566700  0.09477000
   0.11207548  0.72658247  0.38234532
   0.19616700  0.64233300  0.19117800
   0.02992341  0.55877337  0.28436491
   0.36283300  0.72566700  0.09477000
   0.36649891  0.72659989  0.38235556
   0.44616700  0.64233300  0.19117800
   0.27982676  0.55875105  0.28439245
   0.61283300  0.72566700  0.09477000
   0.61151024  0.72856170  0.38214039
   0.69616700  0.64233300  0.19117800
   0.53111082  0.55856832  0.28557327
   0.86283300  0.72566700  0.09477000
   0.86914601  0.72867142  0.38215135
   0.94616700  0.64233300  0.19117800
   0.77850751  0.55860190  0.28557256
   0.11283300  0.97566700  0.09477000
   0.10997706  0.96950969  0.38215343
   0.19616700  0.89233300  0.19117800
   0.03005621  0.80852874  0.28622146
   0.36283300  0.97566700  0.09477000
   0.36214402  0.97231801  0.37645590
   0.44616700  0.89233300  0.19117800
   0.27980405  0.80865248  0.28436388
   0.61283300  0.97566700  0.09477000
   0.61150099  0.96942079  0.38211845
   0.69616700  0.89233300  0.19117800
   0.52945862  0.80847558  0.28621569
   0.86283300  0.97566700  0.09477000
   0.86352418  0.97511802  0.37747844
   0.94616700  0.89233300  0.19117800
   0.77982000  0.80867685  0.28460191
   0.18029820  0.13345359  0.43653520
   0.70519724  0.65831624  0.43653629
   0.19695046  0.64179678  0.43539207
   0.70527090  0.13341652  0.43646511
   0.53108504  0.30767926  0.44860065
   0.53349925  0.30574264  0.49474615
