  70  70   1   0
  0.2690107E+02  0.1011163E-08  0.1011163E-08  0.2126643E-08  0.1500000E-16
  1.000000000000000E-004
  CAR 
 SQS-NiFe                                
      2.53247947    -22.94858001  301     -0.31787219      1.00000000
    -22.949  0.0000E+00  0.0000E+00
    -22.864  0.0000E+00  0.0000E+00
    -22.779  0.0000E+00  0.0000E+00
    -22.694  0.0000E+00  0.0000E+00
    -22.609  0.0000E+00  0.0000E+00
    -22.524  0.0000E+00  0.0000E+00
    -22.439  0.0000E+00  0.0000E+00
    -22.354  0.0000E+00  0.0000E+00
    -22.269  0.0000E+00  0.0000E+00
    -22.184  0.0000E+00  0.0000E+00
    -22.099  0.5962E-17  0.5064E-18
    -22.014  0.6469E-15  0.5545E-16
    -21.929  0.5388E-13  0.4632E-14
    -21.844  0.3144E-11  0.2717E-12
    -21.759  0.1286E-09  0.1120E-10
    -21.675  0.3692E-08  0.3248E-09
    -21.590  0.7438E-07  0.6643E-08
    -21.505  0.1053E-05  0.9604E-07
    -21.420  0.1047E-04  0.9852E-06
    -21.335  0.7321E-04  0.7203E-05
    -21.250  0.3602E-03  0.3780E-04
    -21.165  0.1248E-02  0.1438E-03
    -21.080  0.3044E-02  0.4023E-03
    -20.995  0.5232E-02  0.8467E-03
    -20.910  0.6335E-02  0.1385E-02
    -20.825  0.5406E-02  0.1844E-02
    -20.740  0.3251E-02  0.2120E-02
    -20.655  0.1377E-02  0.2237E-02
    -20.570  0.4108E-03  0.2272E-02
    -20.485  0.8629E-04  0.2279E-02
    -20.400  0.1275E-04  0.2280E-02
    -20.316  0.1326E-05  0.2280E-02
    -20.231  0.1089E-06  0.2281E-02
    -20.146  0.2259E-06  0.2281E-02
    -20.061  0.2858E-05  0.2281E-02
    -19.976  0.2624E-04  0.2283E-02
    -19.891  0.1716E-03  0.2298E-02
    -19.806  0.8045E-03  0.2366E-02
    -19.721  0.2727E-02  0.2598E-02
    -19.636  0.6781E-02  0.3173E-02
    -19.551  0.1265E-01  0.4248E-02
    -19.466  0.1825E-01  0.5798E-02
    -19.381  0.2089E-01  0.7572E-02
    -19.296  0.1916E-01  0.9199E-02
    -19.211  0.1387E-01  0.1038E-01
    -19.126  0.7695E-02  0.1103E-01
    -19.041  0.3176E-02  0.1130E-01
    -18.957  0.9551E-03  0.1138E-01
    -18.872  0.2065E-03  0.1140E-01
    -18.787  0.3183E-04  0.1140E-01
    -18.702  0.3484E-05  0.1140E-01
    -18.617  0.2699E-06  0.1140E-01
    -18.532  0.1477E-07  0.1140E-01
    -18.447  0.5702E-09  0.1140E-01
    -18.362  0.1550E-10  0.1140E-01
    -18.277  0.2966E-12  0.1140E-01
    -18.192  0.3988E-14  0.1140E-01
    -18.107  0.4173E-16  0.1140E-01
    -18.022  0.0000E+00  0.1140E-01
    -17.937  0.0000E+00  0.1140E-01
    -17.852  0.0000E+00  0.1140E-01
    -17.767  0.0000E+00  0.1140E-01
    -17.682  0.0000E+00  0.1140E-01
    -17.598  0.0000E+00  0.1140E-01
    -17.513  0.0000E+00  0.1140E-01
    -17.428  0.0000E+00  0.1140E-01
    -17.343  0.0000E+00  0.1140E-01
    -17.258  0.0000E+00  0.1140E-01
    -17.173  0.0000E+00  0.1140E-01
    -17.088  0.0000E+00  0.1140E-01
    -17.003  0.0000E+00  0.1140E-01
    -16.918  0.0000E+00  0.1140E-01
    -16.833  0.0000E+00  0.1140E-01
    -16.748  0.0000E+00  0.1140E-01
    -16.663  0.0000E+00  0.1140E-01
    -16.578  0.0000E+00  0.1140E-01
    -16.493  0.0000E+00  0.1140E-01
    -16.408  0.0000E+00  0.1140E-01
    -16.324  0.0000E+00  0.1140E-01
    -16.239  0.0000E+00  0.1140E-01
    -16.154  0.0000E+00  0.1140E-01
    -16.069  0.0000E+00  0.1140E-01
    -15.984  0.0000E+00  0.1140E-01
    -15.899  0.0000E+00  0.1140E-01
    -15.814  0.0000E+00  0.1140E-01
    -15.729  0.0000E+00  0.1140E-01
    -15.644  0.0000E+00  0.1140E-01
    -15.559  0.0000E+00  0.1140E-01
    -15.474  0.0000E+00  0.1140E-01
    -15.389  0.0000E+00  0.1140E-01
    -15.304  0.0000E+00  0.1140E-01
    -15.219  0.0000E+00  0.1140E-01
    -15.134  0.0000E+00  0.1140E-01
    -15.049  0.0000E+00  0.1140E-01
    -14.965  0.0000E+00  0.1140E-01
    -14.880  0.0000E+00  0.1140E-01
    -14.795  0.0000E+00  0.1140E-01
    -14.710  0.0000E+00  0.1140E-01
    -14.625  0.0000E+00  0.1140E-01
    -14.540  0.0000E+00  0.1140E-01
    -14.455  0.0000E+00  0.1140E-01
    -14.370  0.0000E+00  0.1140E-01
    -14.285  0.0000E+00  0.1140E-01
    -14.200  0.0000E+00  0.1140E-01
    -14.115  0.0000E+00  0.1140E-01
    -14.030  0.0000E+00  0.1140E-01
    -13.945  0.0000E+00  0.1140E-01
    -13.860  0.0000E+00  0.1140E-01
    -13.775  0.0000E+00  0.1140E-01
    -13.690  0.0000E+00  0.1140E-01
    -13.606  0.0000E+00  0.1140E-01
    -13.521  0.0000E+00  0.1140E-01
    -13.436  0.0000E+00  0.1140E-01
    -13.351  0.0000E+00  0.1140E-01
    -13.266  0.0000E+00  0.1140E-01
    -13.181  0.0000E+00  0.1140E-01
    -13.096  0.0000E+00  0.1140E-01
    -13.011  0.0000E+00  0.1140E-01
    -12.926  0.0000E+00  0.1140E-01
    -12.841  0.0000E+00  0.1140E-01
    -12.756  0.0000E+00  0.1140E-01
    -12.671  0.0000E+00  0.1140E-01
    -12.586  0.0000E+00  0.1140E-01
    -12.501  0.0000E+00  0.1140E-01
    -12.416  0.0000E+00  0.1140E-01
    -12.331  0.0000E+00  0.1140E-01
    -12.247  0.0000E+00  0.1140E-01
    -12.162  0.0000E+00  0.1140E-01
    -12.077  0.0000E+00  0.1140E-01
    -11.992  0.0000E+00  0.1140E-01
    -11.907  0.0000E+00  0.1140E-01
    -11.822  0.0000E+00  0.1140E-01
    -11.737  0.0000E+00  0.1140E-01
    -11.652  0.0000E+00  0.1140E-01
    -11.567  0.0000E+00  0.1140E-01
    -11.482  0.0000E+00  0.1140E-01
    -11.397  0.0000E+00  0.1140E-01
    -11.312  0.0000E+00  0.1140E-01
    -11.227  0.0000E+00  0.1140E-01
    -11.142  0.0000E+00  0.1140E-01
    -11.057  0.0000E+00  0.1140E-01
    -10.972  0.0000E+00  0.1140E-01
    -10.888  0.0000E+00  0.1140E-01
    -10.803  0.0000E+00  0.1140E-01
    -10.718  0.0000E+00  0.1140E-01
    -10.633  0.0000E+00  0.1140E-01
    -10.548  0.5962E-17  0.1140E-01
    -10.463  0.7169E-15  0.1140E-01
    -10.378  0.5922E-13  0.1140E-01
    -10.293  0.3428E-11  0.1140E-01
    -10.208  0.1392E-09  0.1140E-01
    -10.123  0.3963E-08  0.1140E-01
    -10.038  0.7921E-07  0.1140E-01
     -9.953  0.1112E-05  0.1140E-01
     -9.868  0.1097E-04  0.1140E-01
     -9.783  0.7614E-04  0.1141E-01
     -9.698  0.3718E-03  0.1144E-01
     -9.613  0.1278E-02  0.1155E-01
     -9.529  0.3093E-02  0.1181E-01
     -9.444  0.5274E-02  0.1226E-01
     -9.359  0.6337E-02  0.1280E-01
     -9.274  0.5366E-02  0.1325E-01
     -9.189  0.3201E-02  0.1353E-01
     -9.104  0.1346E-02  0.1364E-01
     -9.019  0.3983E-03  0.1367E-01
     -8.934  0.8302E-04  0.1368E-01
     -8.849  0.1235E-04  0.1368E-01
     -8.764  0.3489E-05  0.1368E-01
     -8.679  0.2000E-04  0.1368E-01
     -8.594  0.1248E-03  0.1370E-01
     -8.509  0.5506E-03  0.1374E-01
     -8.424  0.1710E-02  0.1389E-01
     -8.339  0.3741E-02  0.1421E-01
     -8.255  0.5765E-02  0.1469E-01
     -8.170  0.6261E-02  0.1523E-01
     -8.085  0.4791E-02  0.1563E-01
     -8.000  0.2583E-02  0.1585E-01
     -7.915  0.9813E-03  0.1594E-01
     -7.830  0.2625E-03  0.1596E-01
     -7.745  0.4942E-04  0.1596E-01
     -7.660  0.6548E-05  0.1596E-01
     -7.575  0.6472E-06  0.1596E-01
     -7.490  0.6183E-06  0.1596E-01
     -7.405  0.6258E-05  0.1596E-01
     -7.320  0.4758E-04  0.1597E-01
     -7.235  0.2548E-03  0.1599E-01
     -7.150  0.9618E-03  0.1607E-01
     -7.065  0.2571E-02  0.1629E-01
     -6.980  0.4932E-02  0.1671E-01
     -6.896  0.7083E-02  0.1731E-01
     -6.811  0.8583E-02  0.1804E-01
     -6.726  0.1085E-01  0.1896E-01
     -6.641  0.1571E-01  0.2030E-01
     -6.556  0.2268E-01  0.2222E-01
     -6.471  0.2859E-01  0.2465E-01
     -6.386  0.2991E-01  0.2719E-01
     -6.301  0.2576E-01  0.2938E-01
     -6.216  0.1933E-01  0.3102E-01
     -6.131  0.1641E-01  0.3241E-01
     -6.046  0.2119E-01  0.3421E-01
     -5.961  0.3240E-01  0.3697E-01
     -5.876  0.4381E-01  0.4069E-01
     -5.791  0.4975E-01  0.4491E-01
     -5.706  0.4936E-01  0.4910E-01
     -5.621  0.4474E-01  0.5290E-01
     -5.537  0.3773E-01  0.5611E-01
     -5.452  0.3010E-01  0.5867E-01
     -5.367  0.2402E-01  0.6071E-01
     -5.282  0.2097E-01  0.6249E-01
     -5.197  0.2182E-01  0.6434E-01
     -5.112  0.2692E-01  0.6663E-01
     -5.027  0.3367E-01  0.6949E-01
     -4.942  0.3697E-01  0.7263E-01
     -4.857  0.3416E-01  0.7553E-01
     -4.772  0.2724E-01  0.7784E-01
     -4.687  0.2094E-01  0.7962E-01
     -4.602  0.1986E-01  0.8131E-01
     -4.517  0.2569E-01  0.8349E-01
     -4.432  0.3504E-01  0.8646E-01
     -4.347  0.4092E-01  0.8994E-01
     -4.262  0.4006E-01  0.9334E-01
     -4.178  0.3896E-01  0.9665E-01
     -4.093  0.4792E-01  0.1007E+00
     -4.008  0.6936E-01  0.1066E+00
     -3.923  0.9682E-01  0.1148E+00
     -3.838  0.1224E+00  0.1252E+00
     -3.753  0.1397E+00  0.1371E+00
     -3.668  0.1430E+00  0.1492E+00
     -3.583  0.1310E+00  0.1604E+00
     -3.498  0.1102E+00  0.1697E+00
     -3.413  0.9202E-01  0.1775E+00
     -3.328  0.8672E-01  0.1849E+00
     -3.243  0.9625E-01  0.1931E+00
     -3.158  0.1115E+00  0.2026E+00
     -3.073  0.1196E+00  0.2127E+00
     -2.988  0.1163E+00  0.2226E+00
     -2.903  0.1103E+00  0.2320E+00
     -2.819  0.1128E+00  0.2416E+00
     -2.734  0.1241E+00  0.2521E+00
     -2.649  0.1344E+00  0.2635E+00
     -2.564  0.1371E+00  0.2751E+00
     -2.479  0.1361E+00  0.2867E+00
     -2.394  0.1380E+00  0.2984E+00
     -2.309  0.1431E+00  0.3106E+00
     -2.224  0.1484E+00  0.3232E+00
     -2.139  0.1548E+00  0.3363E+00
     -2.054  0.1657E+00  0.3504E+00
     -1.969  0.1813E+00  0.3658E+00
     -1.884  0.1961E+00  0.3825E+00
     -1.799  0.2042E+00  0.3998E+00
     -1.714  0.2052E+00  0.4172E+00
     -1.629  0.2013E+00  0.4343E+00
     -1.544  0.1922E+00  0.4507E+00
     -1.460  0.1773E+00  0.4657E+00
     -1.375  0.1601E+00  0.4793E+00
     -1.290  0.1465E+00  0.4918E+00
     -1.205  0.1399E+00  0.5037E+00
     -1.120  0.1402E+00  0.5156E+00
     -1.035  0.1452E+00  0.5279E+00
     -0.950  0.1525E+00  0.5409E+00
     -0.865  0.1600E+00  0.5544E+00
     -0.780  0.1673E+00  0.5687E+00
     -0.695  0.1745E+00  0.5835E+00
     -0.610  0.1821E+00  0.5989E+00
     -0.525  0.1900E+00  0.6151E+00
     -0.440  0.1961E+00  0.6317E+00
     -0.355  0.1967E+00  0.6484E+00
     -0.270  0.1887E+00  0.6645E+00
     -0.186  0.1735E+00  0.6792E+00
     -0.101  0.1570E+00  0.6925E+00
     -0.016  0.1451E+00  0.7049E+00
      0.069  0.1395E+00  0.7167E+00
      0.154  0.1400E+00  0.7286E+00
      0.239  0.1442E+00  0.7408E+00
      0.324  0.1459E+00  0.7532E+00
      0.409  0.1368E+00  0.7649E+00
      0.494  0.1123E+00  0.7744E+00
      0.579  0.7711E-01  0.7809E+00
      0.664  0.4258E-01  0.7846E+00
      0.749  0.1830E-01  0.7861E+00
      0.834  0.5965E-02  0.7866E+00
      0.919  0.1444E-02  0.7867E+00
      1.004  0.2556E-03  0.7868E+00
      1.089  0.3274E-04  0.7868E+00
      1.173  0.3009E-05  0.7868E+00
      1.258  0.1974E-06  0.7868E+00
      1.343  0.9195E-08  0.7868E+00
      1.428  0.3033E-09  0.7868E+00
      1.513  0.7068E-11  0.7868E+00
      1.598  0.1161E-12  0.7868E+00
      1.683  0.1347E-14  0.7868E+00
      1.768  0.8943E-17  0.7868E+00
      1.853  0.0000E+00  0.7868E+00
      1.938  0.0000E+00  0.7868E+00
      2.023  0.0000E+00  0.7868E+00
      2.108  0.0000E+00  0.7868E+00
      2.193  0.0000E+00  0.7868E+00
      2.278  0.0000E+00  0.7868E+00
      2.363  0.0000E+00  0.7868E+00
      2.448  0.0000E+00  0.7868E+00
      2.532  0.0000E+00  0.7868E+00
      2.53247947    -22.94858001  301     -0.31787219      1.00000000
    -22.949  0.0000E+00  0.0000E+00  0.0000E+00
    -22.864  0.0000E+00  0.0000E+00  0.0000E+00
    -22.779  0.0000E+00  0.0000E+00  0.0000E+00
    -22.694  0.0000E+00  0.0000E+00  0.0000E+00
    -22.609  0.0000E+00  0.0000E+00  0.0000E+00
    -22.524  0.0000E+00  0.0000E+00  0.0000E+00
    -22.439  0.0000E+00  0.0000E+00  0.0000E+00
    -22.354  0.0000E+00  0.0000E+00  0.0000E+00
    -22.269  0.0000E+00  0.0000E+00  0.0000E+00
    -22.184  0.0000E+00  0.0000E+00  0.0000E+00
    -22.099  0.1278E-26  0.5786E-27  0.1395E-25
    -22.014  0.1387E-24  0.6277E-25  0.1514E-23
    -21.929  0.1155E-22  0.5229E-23  0.1261E-21
    -21.844  0.6742E-21  0.3051E-21  0.7357E-20
    -21.759  0.2758E-19  0.1248E-19  0.3010E-18
    -21.675  0.7917E-18  0.3583E-18  0.8639E-17
    -21.590  0.1595E-16  0.7219E-17  0.1740E-15
    -21.505  0.2257E-15  0.1021E-15  0.2463E-14
    -21.420  0.2245E-14  0.1016E-14  0.2449E-13
    -21.335  0.1570E-13  0.7105E-14  0.1713E-12
    -21.250  0.7725E-13  0.3496E-13  0.8429E-12
    -21.165  0.2676E-12  0.1211E-12  0.2920E-11
    -21.080  0.6528E-12  0.2954E-12  0.7123E-11
    -20.995  0.1122E-11  0.5077E-12  0.1224E-10
    -20.910  0.1359E-11  0.6148E-12  0.1482E-10
    -20.825  0.1159E-11  0.5247E-12  0.1265E-10
    -20.740  0.6971E-12  0.3155E-12  0.7607E-11
    -20.655  0.2953E-12  0.1336E-12  0.3222E-11
    -20.570  0.8810E-13  0.3987E-13  0.9614E-12
    -20.485  0.1850E-13  0.8374E-14  0.2019E-12
    -20.400  0.2735E-14  0.1238E-14  0.2984E-13
    -20.316  0.2891E-15  0.1321E-15  0.3102E-14
    -20.231  0.1464E-15  0.1004E-15  0.2578E-15
    -20.146  0.2288E-14  0.1656E-14  0.5833E-15
    -20.061  0.2946E-13  0.2131E-13  0.7410E-14
    -19.976  0.2692E-12  0.1946E-12  0.6820E-13
    -19.891  0.1753E-11  0.1267E-11  0.4477E-12
    -19.806  0.8198E-11  0.5920E-11  0.2108E-11
    -19.721  0.2785E-10  0.2012E-10  0.7196E-11
    -19.636  0.7009E-10  0.5070E-10  0.1808E-10
    -19.551  0.1344E-09  0.9757E-10  0.3420E-10
    -19.466  0.2027E-09  0.1480E-09  0.5016E-10
    -19.381  0.2454E-09  0.1806E-09  0.5842E-10
    -19.296  0.2375E-09  0.1761E-09  0.5432E-10
    -19.211  0.1789E-09  0.1335E-09  0.3961E-10
    -19.126  0.1015E-09  0.7613E-10  0.2200E-10
    -19.041  0.4236E-10  0.3186E-10  0.9060E-11
    -18.957  0.1277E-10  0.9626E-11  0.2712E-11
    -18.872  0.2755E-11  0.2080E-11  0.5830E-12
    -18.787  0.4230E-12  0.3199E-12  0.8938E-13
    -18.702  0.4606E-13  0.3487E-13  0.9728E-14
    -18.617  0.3549E-14  0.2689E-14  0.7496E-15
    -18.532  0.1932E-15  0.1465E-15  0.4082E-16
    -18.447  0.7418E-17  0.5631E-17  0.1568E-17
    -18.362  0.2007E-18  0.1525E-18  0.4246E-19
    -18.277  0.3824E-20  0.2907E-20  0.8094E-21
    -18.192  0.5123E-22  0.3897E-22  0.1085E-22
    -18.107  0.5393E-24  0.4099E-24  0.1141E-24
    -18.022  0.0000E+00  0.0000E+00  0.0000E+00
    -17.937  0.0000E+00  0.0000E+00  0.0000E+00
    -17.852  0.0000E+00  0.0000E+00  0.0000E+00
    -17.767  0.0000E+00  0.0000E+00  0.0000E+00
    -17.682  0.0000E+00  0.0000E+00  0.0000E+00
    -17.598  0.0000E+00  0.0000E+00  0.0000E+00
    -17.513  0.0000E+00  0.0000E+00  0.0000E+00
    -17.428  0.0000E+00  0.0000E+00  0.0000E+00
    -17.343  0.0000E+00  0.0000E+00  0.0000E+00
    -17.258  0.0000E+00  0.0000E+00  0.0000E+00
    -17.173  0.0000E+00  0.0000E+00  0.0000E+00
    -17.088  0.0000E+00  0.0000E+00  0.0000E+00
    -17.003  0.0000E+00  0.0000E+00  0.0000E+00
    -16.918  0.0000E+00  0.0000E+00  0.0000E+00
    -16.833  0.0000E+00  0.0000E+00  0.0000E+00
    -16.748  0.0000E+00  0.0000E+00  0.0000E+00
    -16.663  0.0000E+00  0.0000E+00  0.0000E+00
    -16.578  0.0000E+00  0.0000E+00  0.0000E+00
    -16.493  0.0000E+00  0.0000E+00  0.0000E+00
    -16.408  0.0000E+00  0.0000E+00  0.0000E+00
    -16.324  0.0000E+00  0.0000E+00  0.0000E+00
    -16.239  0.0000E+00  0.0000E+00  0.0000E+00
    -16.154  0.0000E+00  0.0000E+00  0.0000E+00
    -16.069  0.0000E+00  0.0000E+00  0.0000E+00
    -15.984  0.0000E+00  0.0000E+00  0.0000E+00
    -15.899  0.0000E+00  0.0000E+00  0.0000E+00
    -15.814  0.0000E+00  0.0000E+00  0.0000E+00
    -15.729  0.0000E+00  0.0000E+00  0.0000E+00
    -15.644  0.0000E+00  0.0000E+00  0.0000E+00
    -15.559  0.0000E+00  0.0000E+00  0.0000E+00
    -15.474  0.0000E+00  0.0000E+00  0.0000E+00
    -15.389  0.0000E+00  0.0000E+00  0.0000E+00
    -15.304  0.0000E+00  0.0000E+00  0.0000E+00
    -15.219  0.0000E+00  0.0000E+00  0.0000E+00
    -15.134  0.0000E+00  0.0000E+00  0.0000E+00
    -15.049  0.0000E+00  0.0000E+00  0.0000E+00
    -14.965  0.0000E+00  0.0000E+00  0.0000E+00
    -14.880  0.0000E+00  0.0000E+00  0.0000E+00
    -14.795  0.0000E+00  0.0000E+00  0.0000E+00
    -14.710  0.0000E+00  0.0000E+00  0.0000E+00
    -14.625  0.0000E+00  0.0000E+00  0.0000E+00
    -14.540  0.0000E+00  0.0000E+00  0.0000E+00
    -14.455  0.0000E+00  0.0000E+00  0.0000E+00
    -14.370  0.0000E+00  0.0000E+00  0.0000E+00
    -14.285  0.0000E+00  0.0000E+00  0.0000E+00
    -14.200  0.0000E+00  0.0000E+00  0.0000E+00
    -14.115  0.0000E+00  0.0000E+00  0.0000E+00
    -14.030  0.0000E+00  0.0000E+00  0.0000E+00
    -13.945  0.0000E+00  0.0000E+00  0.0000E+00
    -13.860  0.0000E+00  0.0000E+00  0.0000E+00
    -13.775  0.0000E+00  0.0000E+00  0.0000E+00
    -13.690  0.0000E+00  0.0000E+00  0.0000E+00
    -13.606  0.0000E+00  0.0000E+00  0.0000E+00
    -13.521  0.0000E+00  0.0000E+00  0.0000E+00
    -13.436  0.0000E+00  0.0000E+00  0.0000E+00
    -13.351  0.0000E+00  0.0000E+00  0.0000E+00
    -13.266  0.0000E+00  0.0000E+00  0.0000E+00
    -13.181  0.0000E+00  0.0000E+00  0.0000E+00
    -13.096  0.0000E+00  0.0000E+00  0.0000E+00
    -13.011  0.0000E+00  0.0000E+00  0.0000E+00
    -12.926  0.0000E+00  0.0000E+00  0.0000E+00
    -12.841  0.0000E+00  0.0000E+00  0.0000E+00
    -12.756  0.0000E+00  0.0000E+00  0.0000E+00
    -12.671  0.0000E+00  0.0000E+00  0.0000E+00
    -12.586  0.0000E+00  0.0000E+00  0.0000E+00
    -12.501  0.0000E+00  0.0000E+00  0.0000E+00
    -12.416  0.0000E+00  0.0000E+00  0.0000E+00
    -12.331  0.0000E+00  0.0000E+00  0.0000E+00
    -12.247  0.0000E+00  0.0000E+00  0.0000E+00
    -12.162  0.0000E+00  0.0000E+00  0.0000E+00
    -12.077  0.0000E+00  0.0000E+00  0.0000E+00
    -11.992  0.0000E+00  0.0000E+00  0.0000E+00
    -11.907  0.0000E+00  0.0000E+00  0.0000E+00
    -11.822  0.0000E+00  0.0000E+00  0.0000E+00
    -11.737  0.0000E+00  0.0000E+00  0.0000E+00
    -11.652  0.0000E+00  0.0000E+00  0.0000E+00
    -11.567  0.0000E+00  0.0000E+00  0.0000E+00
    -11.482  0.0000E+00  0.0000E+00  0.0000E+00
    -11.397  0.0000E+00  0.0000E+00  0.0000E+00
    -11.312  0.0000E+00  0.0000E+00  0.0000E+00
    -11.227  0.0000E+00  0.0000E+00  0.0000E+00
    -11.142  0.0000E+00  0.0000E+00  0.0000E+00
    -11.057  0.0000E+00  0.0000E+00  0.0000E+00
    -10.972  0.0000E+00  0.0000E+00  0.0000E+00
    -10.888  0.0000E+00  0.0000E+00  0.0000E+00
    -10.803  0.0000E+00  0.0000E+00  0.0000E+00
    -10.718  0.0000E+00  0.0000E+00  0.0000E+00
    -10.633  0.0000E+00  0.0000E+00  0.0000E+00
    -10.548  0.2438E-19  0.4385E-20  0.6050E-22
    -10.463  0.2932E-17  0.5273E-18  0.7275E-20
    -10.378  0.2422E-15  0.4356E-16  0.6009E-18
    -10.293  0.1402E-13  0.2522E-14  0.3479E-16
    -10.208  0.5691E-12  0.1024E-12  0.1412E-14
    -10.123  0.1621E-10  0.2915E-11  0.4021E-13
    -10.038  0.3240E-09  0.5826E-10  0.8038E-12
     -9.953  0.4548E-08  0.8180E-09  0.1129E-10
     -9.868  0.4488E-07  0.8071E-08  0.1114E-09
     -9.783  0.3114E-06  0.5601E-07  0.7727E-09
     -9.698  0.1520E-05  0.2734E-06  0.3773E-08
     -9.613  0.5226E-05  0.9398E-06  0.1297E-07
     -9.529  0.1265E-04  0.2275E-05  0.3139E-07
     -9.444  0.2157E-04  0.3879E-05  0.5352E-07
     -9.359  0.2592E-04  0.4661E-05  0.6431E-07
     -9.274  0.2195E-04  0.3947E-05  0.5445E-07
     -9.189  0.1309E-04  0.2355E-05  0.3249E-07
     -9.104  0.5503E-05  0.9898E-06  0.1366E-07
     -9.019  0.1631E-05  0.2932E-06  0.4043E-08
     -8.934  0.3828E-06  0.6654E-07  0.8555E-09
     -8.849  0.8314E-06  0.1080E-06  0.3608E-09
     -8.764  0.9915E-05  0.1257E-05  0.3022E-08
     -8.679  0.8832E-04  0.1119E-04  0.2682E-07
     -8.594  0.5537E-03  0.7015E-04  0.1681E-06
     -8.509  0.2442E-02  0.3094E-03  0.7415E-06
     -8.424  0.7585E-02  0.9610E-03  0.2303E-05
     -8.339  0.1659E-01  0.2102E-02  0.5038E-05
     -8.255  0.2557E-01  0.3240E-02  0.7764E-05
     -8.170  0.2777E-01  0.3519E-02  0.8431E-05
     -8.085  0.2125E-01  0.2693E-02  0.6452E-05
     -8.000  0.1146E-01  0.1452E-02  0.3479E-05
     -7.915  0.4353E-02  0.5515E-03  0.1322E-05
     -7.830  0.1164E-02  0.1475E-03  0.3535E-06
     -7.745  0.2192E-03  0.2777E-04  0.6658E-07
     -7.660  0.2905E-04  0.3679E-05  0.9498E-08
     -7.575  0.3061E-05  0.3568E-06  0.1579E-07
     -7.490  0.5665E-05  0.2403E-06  0.2304E-06
     -7.405  0.5936E-04  0.2358E-05  0.2492E-05
     -7.320  0.4514E-03  0.1793E-04  0.1895E-04
     -7.235  0.2415E-02  0.9599E-04  0.1015E-03
     -7.150  0.9095E-02  0.3625E-03  0.3831E-03
     -7.065  0.2413E-01  0.9699E-03  0.1024E-02
     -6.980  0.4516E-01  0.1868E-02  0.1965E-02
     -6.896  0.5993E-01  0.2731E-02  0.2819E-02
     -6.811  0.5783E-01  0.3548E-02  0.3384E-02
     -6.726  0.4578E-01  0.5295E-02  0.4141E-02
     -6.641  0.4261E-01  0.9374E-02  0.5670E-02
     -6.556  0.5694E-01  0.1575E-01  0.7715E-02
     -6.471  0.7606E-01  0.2164E-01  0.9286E-02
     -6.386  0.7888E-01  0.2317E-01  0.9565E-02
     -6.301  0.5986E-01  0.1944E-01  0.8564E-02
     -6.216  0.3437E-01  0.1403E-01  0.7354E-02
     -6.131  0.2067E-01  0.1218E-01  0.7943E-02
     -6.046  0.2572E-01  0.1691E-01  0.1193E-01
     -5.961  0.4489E-01  0.2605E-01  0.1817E-01
     -5.876  0.6572E-01  0.3282E-01  0.2282E-01
     -5.791  0.7662E-01  0.3239E-01  0.2305E-01
     -5.706  0.7716E-01  0.2715E-01  0.1982E-01
     -5.621  0.7400E-01  0.2238E-01  0.1577E-01
     -5.537  0.6767E-01  0.1922E-01  0.1215E-01
     -5.452  0.5473E-01  0.1580E-01  0.9295E-02
     -5.367  0.4264E-01  0.1212E-01  0.8879E-02
     -5.282  0.5317E-01  0.1048E-01  0.1447E-01
     -5.197  0.1063E+00  0.1322E-01  0.2938E-01
     -5.112  0.1915E+00  0.2135E-01  0.5080E-01
     -5.027  0.2553E+00  0.3366E-01  0.6687E-01
     -4.942  0.2450E+00  0.4667E-01  0.6675E-01
     -4.857  0.1698E+00  0.5492E-01  0.5288E-01
     -4.772  0.8669E-01  0.5254E-01  0.3684E-01
     -4.687  0.3508E-01  0.3942E-01  0.2841E-01
     -4.602  0.1516E-01  0.2401E-01  0.3435E-01
     -4.517  0.1150E-01  0.1540E-01  0.5958E-01
     -4.432  0.1268E-01  0.1515E-01  0.9943E-01
     -4.347  0.1512E-01  0.1851E-01  0.1343E+00
     -4.262  0.2352E-01  0.2120E-01  0.1502E+00
     -4.178  0.4866E-01  0.2440E-01  0.1681E+00
     -4.093  0.9673E-01  0.3270E-01  0.2284E+00
     -4.008  0.1572E+00  0.4874E-01  0.3446E+00
     -3.923  0.2083E+00  0.7309E-01  0.5015E+00
     -3.838  0.2367E+00  0.1041E+00  0.6831E+00
     -3.753  0.2419E+00  0.1316E+00  0.8526E+00
     -3.668  0.2260E+00  0.1396E+00  0.9236E+00
     -3.583  0.1917E+00  0.1212E+00  0.8317E+00
     -3.498  0.1456E+00  0.8775E-01  0.6339E+00
     -3.413  0.9864E-01  0.5775E-01  0.4760E+00
     -3.328  0.6292E-01  0.4245E-01  0.4642E+00
     -3.243  0.4338E-01  0.4120E-01  0.5840E+00
     -3.158  0.3465E-01  0.4550E-01  0.7242E+00
     -3.073  0.2920E-01  0.4750E-01  0.7851E+00
     -2.988  0.2412E-01  0.4696E-01  0.7715E+00
     -2.903  0.1957E-01  0.5022E-01  0.7733E+00
     -2.819  0.1610E-01  0.6141E-01  0.8632E+00
     -2.734  0.1408E-01  0.7536E-01  0.1021E+01
     -2.649  0.1354E-01  0.8221E-01  0.1151E+01
     -2.564  0.1449E-01  0.7868E-01  0.1183E+01
     -2.479  0.1733E-01  0.7049E-01  0.1153E+01
     -2.394  0.2155E-01  0.6410E-01  0.1149E+01
     -2.309  0.2504E-01  0.6126E-01  0.1188E+01
     -2.224  0.2672E-01  0.6386E-01  0.1205E+01
     -2.139  0.2896E-01  0.8003E-01  0.1200E+01
     -2.054  0.3607E-01  0.1180E+00  0.1288E+01
     -1.969  0.5173E-01  0.1703E+00  0.1573E+01
     -1.884  0.7645E-01  0.2093E+00  0.2017E+01
     -1.799  0.1035E+00  0.2109E+00  0.2485E+01
     -1.714  0.1198E+00  0.1793E+00  0.2898E+01
     -1.629  0.1171E+00  0.1379E+00  0.3230E+01
     -1.544  0.9894E-01  0.1035E+00  0.3390E+01
     -1.460  0.7432E-01  0.7809E-01  0.3265E+01
     -1.375  0.5010E-01  0.5928E-01  0.2857E+01
     -1.290  0.3094E-01  0.4578E-01  0.2325E+01
     -1.205  0.1971E-01  0.3653E-01  0.1877E+01
     -1.120  0.1599E-01  0.3002E-01  0.1639E+01
     -1.035  0.1660E-01  0.2527E-01  0.1595E+01
     -0.950  0.1779E-01  0.2245E-01  0.1662E+01
     -0.865  0.1738E-01  0.2246E-01  0.1801E+01
     -0.780  0.1596E-01  0.2599E-01  0.2033E+01
     -0.695  0.1548E-01  0.3264E-01  0.2381E+01
     -0.610  0.1672E-01  0.4123E-01  0.2811E+01
     -0.525  0.1906E-01  0.5105E-01  0.3220E+01
     -0.440  0.2187E-01  0.6211E-01  0.3475E+01
     -0.355  0.2443E-01  0.7450E-01  0.3472E+01
     -0.270  0.2506E-01  0.8770E-01  0.3196E+01
     -0.186  0.2241E-01  0.9860E-01  0.2754E+01
     -0.101  0.1771E-01  0.1016E+00  0.2359E+01
     -0.016  0.1376E-01  0.9454E-01  0.2181E+01
      0.069  0.1201E-01  0.8205E-01  0.2213E+01
      0.154  0.1208E-01  0.7011E-01  0.2328E+01
      0.239  0.1348E-01  0.6061E-01  0.2377E+01
      0.324  0.1678E-01  0.5313E-01  0.2216E+01
      0.409  0.2230E-01  0.4703E-01  0.1795E+01
      0.494  0.2732E-01  0.4050E-01  0.1236E+01
      0.579  0.2692E-01  0.3122E-01  0.7238E+00
      0.664  0.1983E-01  0.1970E-01  0.3598E+00
      0.749  0.1059E-01  0.9549E-02  0.1474E+00
      0.834  0.4039E-02  0.3426E-02  0.4761E-01
      0.919  0.1095E-02  0.8917E-03  0.1162E-01
      1.004  0.2102E-03  0.1664E-03  0.2084E-02
      1.089  0.2852E-04  0.2214E-04  0.2699E-03
      1.173  0.2732E-05  0.2090E-05  0.2498E-04
      1.258  0.1845E-06  0.1397E-06  0.1644E-05
      1.343  0.8778E-08  0.6592E-08  0.7662E-07
      1.428  0.2939E-09  0.2194E-09  0.2523E-08
      1.513  0.6922E-11  0.5142E-11  0.5858E-10
      1.598  0.1146E-12  0.8477E-13  0.9577E-12
      1.683  0.1337E-14  0.9858E-15  0.1107E-13
      1.768  0.8082E-17  0.6321E-17  0.6202E-16
      1.853  0.0000E+00  0.0000E+00  0.0000E+00
      1.938  0.0000E+00  0.0000E+00  0.0000E+00
      2.023  0.0000E+00  0.0000E+00  0.0000E+00
      2.108  0.0000E+00  0.0000E+00  0.0000E+00
      2.193  0.0000E+00  0.0000E+00  0.0000E+00
      2.278  0.0000E+00  0.0000E+00  0.0000E+00
      2.363  0.0000E+00  0.0000E+00  0.0000E+00
      2.448  0.0000E+00  0.0000E+00  0.0000E+00
      2.532  0.0000E+00  0.0000E+00  0.0000E+00
      2.53247947    -22.94858001  301     -0.31787219      1.00000000
    -22.949  0.0000E+00  0.0000E+00  0.0000E+00
    -22.864  0.0000E+00  0.0000E+00  0.0000E+00
    -22.779  0.0000E+00  0.0000E+00  0.0000E+00
    -22.694  0.0000E+00  0.0000E+00  0.0000E+00
    -22.609  0.0000E+00  0.0000E+00  0.0000E+00
    -22.524  0.0000E+00  0.0000E+00  0.0000E+00
    -22.439  0.0000E+00  0.0000E+00  0.0000E+00
    -22.354  0.0000E+00  0.0000E+00  0.0000E+00
    -22.269  0.0000E+00  0.0000E+00  0.0000E+00
    -22.184  0.0000E+00  0.0000E+00  0.0000E+00
    -22.099  0.1583E-20  0.1934E-21  0.1223E-21
    -22.014  0.1718E-18  0.2099E-19  0.1327E-19
    -21.929  0.1431E-16  0.1748E-17  0.1105E-17
    -21.844  0.8350E-15  0.1020E-15  0.6450E-16
    -21.759  0.3416E-13  0.4173E-14  0.2639E-14
    -21.675  0.9805E-12  0.1198E-12  0.7574E-13
    -21.590  0.1976E-10  0.2413E-11  0.1526E-11
    -21.505  0.2796E-09  0.3415E-10  0.2159E-10
    -21.420  0.2780E-08  0.3396E-09  0.2148E-09
    -21.335  0.1944E-07  0.2375E-08  0.1502E-08
    -21.250  0.9568E-07  0.1169E-07  0.7391E-08
    -21.165  0.3314E-06  0.4049E-07  0.2560E-07
    -21.080  0.8085E-06  0.9876E-07  0.6245E-07
    -20.995  0.1389E-05  0.1697E-06  0.1073E-06
    -20.910  0.1683E-05  0.2055E-06  0.1300E-06
    -20.825  0.1436E-05  0.1754E-06  0.1109E-06
    -20.740  0.8634E-06  0.1055E-06  0.6669E-07
    -20.655  0.3657E-06  0.4468E-07  0.2825E-07
    -20.570  0.1091E-06  0.1333E-07  0.8429E-08
    -20.485  0.2292E-07  0.2800E-08  0.1770E-08
    -20.400  0.3387E-08  0.4142E-09  0.2619E-09
    -20.316  0.3686E-09  0.5992E-10  0.3864E-10
    -20.231  0.4473E-09  0.4323E-09  0.2924E-09
    -20.146  0.7515E-08  0.7650E-08  0.5177E-08
    -20.061  0.9421E-07  0.9595E-07  0.6494E-07
    -19.976  0.8331E-06  0.8490E-06  0.5746E-06
    -19.891  0.5220E-05  0.5325E-05  0.3604E-05
    -19.806  0.2339E-04  0.2391E-04  0.1619E-04
    -19.721  0.7640E-04  0.7837E-04  0.5310E-04
    -19.636  0.1882E-03  0.1945E-03  0.1320E-03
    -19.551  0.3676E-03  0.3847E-03  0.2619E-03
    -19.466  0.5953E-03  0.6339E-03  0.4331E-03
    -19.381  0.8030E-03  0.8702E-03  0.5970E-03
    -19.296  0.8668E-03  0.9537E-03  0.6565E-03
    -19.211  0.7127E-03  0.7934E-03  0.5476E-03
    -19.126  0.4306E-03  0.4840E-03  0.3347E-03
    -19.041  0.1874E-03  0.2125E-03  0.1472E-03
    -18.957  0.5822E-04  0.6648E-04  0.4612E-04
    -18.872  0.1284E-04  0.1476E-04  0.1025E-04
    -18.787  0.2006E-05  0.2319E-05  0.1613E-05
    -18.702  0.2215E-06  0.2576E-06  0.1793E-06
    -18.617  0.1727E-07  0.2019E-07  0.1407E-07
    -18.532  0.9501E-09  0.1116E-08  0.7782E-09
    -18.447  0.3683E-10  0.4342E-10  0.3031E-10
    -18.362  0.1005E-11  0.1189E-11  0.8307E-12
    -18.277  0.1928E-13  0.2290E-13  0.1600E-13
    -18.192  0.2600E-15  0.3096E-15  0.2165E-15
    -18.107  0.2710E-17  0.3212E-17  0.2244E-17
    -18.022  0.0000E+00  0.0000E+00  0.0000E+00
    -17.937  0.0000E+00  0.0000E+00  0.0000E+00
    -17.852  0.0000E+00  0.0000E+00  0.0000E+00
    -17.767  0.0000E+00  0.0000E+00  0.0000E+00
    -17.682  0.0000E+00  0.0000E+00  0.0000E+00
    -17.598  0.0000E+00  0.0000E+00  0.0000E+00
    -17.513  0.0000E+00  0.0000E+00  0.0000E+00
    -17.428  0.0000E+00  0.0000E+00  0.0000E+00
    -17.343  0.0000E+00  0.0000E+00  0.0000E+00
    -17.258  0.0000E+00  0.0000E+00  0.0000E+00
    -17.173  0.0000E+00  0.0000E+00  0.0000E+00
    -17.088  0.0000E+00  0.0000E+00  0.0000E+00
    -17.003  0.0000E+00  0.0000E+00  0.0000E+00
    -16.918  0.0000E+00  0.0000E+00  0.0000E+00
    -16.833  0.0000E+00  0.0000E+00  0.0000E+00
    -16.748  0.0000E+00  0.0000E+00  0.0000E+00
    -16.663  0.0000E+00  0.0000E+00  0.0000E+00
    -16.578  0.0000E+00  0.0000E+00  0.0000E+00
    -16.493  0.0000E+00  0.0000E+00  0.0000E+00
    -16.408  0.0000E+00  0.0000E+00  0.0000E+00
    -16.324  0.0000E+00  0.0000E+00  0.0000E+00
    -16.239  0.0000E+00  0.0000E+00  0.0000E+00
    -16.154  0.0000E+00  0.0000E+00  0.0000E+00
    -16.069  0.0000E+00  0.0000E+00  0.0000E+00
    -15.984  0.0000E+00  0.0000E+00  0.0000E+00
    -15.899  0.0000E+00  0.0000E+00  0.0000E+00
    -15.814  0.0000E+00  0.0000E+00  0.0000E+00
    -15.729  0.0000E+00  0.0000E+00  0.0000E+00
    -15.644  0.0000E+00  0.0000E+00  0.0000E+00
    -15.559  0.0000E+00  0.0000E+00  0.0000E+00
    -15.474  0.0000E+00  0.0000E+00  0.0000E+00
    -15.389  0.0000E+00  0.0000E+00  0.0000E+00