       N       E                     dE             d eps       ncg     rms          rms(c)
DAV:   1     0.544471484674E+04    0.54447E+04   -0.28275E+05   690   0.196E+03
DAV:   2     0.181478119760E+03   -0.52632E+04   -0.51492E+04   690   0.437E+02
DAV:   3    -0.366121803669E+03   -0.54760E+03   -0.48996E+03   768   0.183E+02
DAV:   4    -0.474271215751E+03   -0.10815E+03   -0.10131E+03  1353   0.527E+01
DAV:   5    -0.487682367433E+03   -0.13411E+02   -0.12658E+02  1182   0.188E+01    0.325E+01
RMM:   6    -0.681536902254E+03   -0.19385E+03   -0.35876E+02   859   0.439E+01    0.156E+02
RMM:   7    -0.515578595363E+03    0.16596E+03   -0.19079E+02   691   0.459E+01    0.750E+01
RMM:   8    -0.495160945653E+03    0.20418E+02   -0.46130E+01   708   0.176E+01    0.492E+01
RMM:   9    -0.497899210895E+03   -0.27383E+01   -0.38230E+01   794   0.133E+01    0.524E+01
RMM:  10    -0.507840226675E+03   -0.99410E+01   -0.31203E+01   730   0.139E+01    0.787E+01
RMM:  11    -0.492700228769E+03    0.15140E+02   -0.27062E+01   697   0.155E+01    0.384E+01
RMM:  12    -0.488358370222E+03    0.43419E+01   -0.95063E+00   711   0.858E+00    0.237E+01
RMM:  13    -0.488613694751E+03   -0.25532E+00   -0.74748E+00   715   0.706E+00    0.259E+01
RMM:  14    -0.487854995417E+03    0.75870E+00   -0.48607E+00   712   0.611E+00    0.219E+01
RMM:  15    -0.486509539095E+03    0.13455E+01   -0.24934E+00   732   0.472E+00    0.132E+01
RMM:  16    -0.486274503178E+03    0.23504E+00   -0.10780E+00   745   0.266E+00    0.115E+01
RMM:  17    -0.486228047169E+03    0.46456E-01   -0.90809E-01   748   0.234E+00    0.109E+01
RMM:  18    -0.486112400056E+03    0.11565E+00   -0.62612E-01   737   0.210E+00    0.950E+00
RMM:  19    -0.485984519763E+03    0.12788E+00   -0.47861E-01   727   0.191E+00    0.805E+00
RMM:  20    -0.486016824305E+03   -0.32305E-01   -0.44388E-01   746   0.167E+00    0.823E+00
RMM:  21    -0.486161099152E+03   -0.14427E+00   -0.67903E-01   732   0.212E+00    0.997E+00
RMM:  22    -0.485896706068E+03    0.26439E+00   -0.37103E-01   711   0.184E+00    0.540E+00
RMM:  23    -0.485883654070E+03    0.13052E-01   -0.30512E-01   731   0.147E+00    0.537E+00
RMM:  24    -0.485891385552E+03   -0.77315E-02   -0.25104E-01   722   0.130E+00    0.499E+00
RMM:  25    -0.485852254927E+03    0.39131E-01   -0.16216E-01   727   0.113E+00    0.398E+00
RMM:  26    -0.485805498994E+03    0.46756E-01   -0.80800E-02   741   0.783E-01    0.166E+00
RMM:  27    -0.485815451400E+03   -0.99524E-02   -0.67687E-02   792   0.559E-01    0.229E+00
RMM:  28    -0.485809692088E+03    0.57593E-02   -0.40334E-02   759   0.495E-01    0.174E+00
RMM:  29    -0.485800189255E+03    0.95028E-02   -0.22880E-02   779   0.374E-01    0.863E-01
RMM:  30    -0.485799762418E+03    0.42684E-03   -0.14143E-02   842   0.215E-01    0.678E-01
RMM:  31    -0.485802283680E+03   -0.25213E-02   -0.10091E-02   774   0.233E-01    0.103E+00
RMM:  32    -0.485800057733E+03    0.22259E-02   -0.55391E-03   752   0.200E-01    0.670E-01
RMM:  33    -0.485799308068E+03    0.74966E-03   -0.41735E-03   765   0.162E-01    0.492E-01
RMM:  34    -0.485799612394E+03   -0.30433E-03   -0.34642E-03   767   0.142E-01    0.526E-01
RMM:  35    -0.485799255830E+03    0.35656E-03   -0.24230E-03   750   0.125E-01    0.425E-01
RMM:  36    -0.485798849914E+03    0.40592E-03   -0.13104E-03   808   0.735E-02    0.241E-01
RMM:  37    -0.485798860407E+03   -0.10494E-04   -0.76111E-04   804   0.548E-02    0.237E-01
RMM:  38    -0.485798756362E+03    0.10404E-03   -0.42634E-04   763   0.478E-02    0.138E-01
RMM:  39    -0.485798768674E+03   -0.12311E-04   -0.34260E-04   790   0.391E-02    0.136E-01
RMM:  40    -0.485798785392E+03   -0.16718E-04   -0.23445E-04   772   0.335E-02    0.122E-01
RMM:  41    -0.485798777764E+03    0.76276E-05   -0.15560E-04   748   0.308E-02    0.890E-02
RMM:  42    -0.485798763084E+03    0.14680E-04   -0.91725E-05   790   0.187E-02    0.435E-02
RMM:  43    -0.485798777760E+03   -0.14676E-04   -0.63278E-05   818   0.133E-02    0.502E-02
RMM:  44    -0.485798789497E+03   -0.11737E-04   -0.41009E-05   770   0.121E-02    0.414E-02
RMM:  45    -0.485798793401E+03   -0.39038E-05   -0.26825E-05   761   0.941E-03    0.216E-02
RMM:  46    -0.485798801733E+03   -0.83321E-05   -0.21433E-05   708   0.719E-03    0.286E-02
RMM:  47    -0.485798814534E+03   -0.12800E-04   -0.14832E-05   589   0.664E-03    0.190E-02
RMM:  48    -0.485798818492E+03   -0.39588E-05   -0.10481E-05   494   0.519E-03    0.109E-02
RMM:  49    -0.485798823656E+03   -0.51639E-05   -0.82778E-06   457   0.408E-03    0.108E-02
RMM:  50    -0.485798835336E+03   -0.11680E-04   -0.77766E-06   475   0.442E-03    0.145E-02
RMM:  51    -0.485798837852E+03   -0.25162E-05   -0.60518E-06   433   0.423E-03    0.583E-03
RMM:  52    -0.485798844341E+03   -0.64885E-05   -0.51193E-06   432   0.277E-03    0.879E-03
RMM:  53    -0.485798851903E+03   -0.75623E-05   -0.45636E-06   430   0.313E-03    0.591E-03
RMM:  54    -0.485798857430E+03   -0.55268E-05   -0.39068E-06   422   0.237E-03    0.514E-03
RMM:  55    -0.485798862962E+03   -0.55327E-05   -0.34774E-06   419   0.228E-03    0.698E-03
RMM:  56    -0.485798866896E+03   -0.39339E-05   -0.31595E-06   415   0.250E-03    0.746E-03
RMM:  57    -0.485798869877E+03   -0.29811E-05   -0.26547E-06   409   0.186E-03    0.322E-03
RMM:  58    -0.485798876935E+03   -0.70577E-05   -0.25734E-06   411   0.163E-03    0.588E-03
RMM:  59    -0.485798882092E+03   -0.51573E-05   -0.23161E-06   409   0.200E-03    0.243E-03
RMM:  60    -0.485798884968E+03   -0.28757E-05   -0.19738E-06   401   0.130E-03    0.344E-03
RMM:  61    -0.485798888848E+03   -0.38804E-05   -0.18140E-06   392   0.149E-03    0.396E-03
RMM:  62    -0.485798891940E+03   -0.30917E-05   -0.16120E-06   389   0.129E-03    0.215E-03
RMM:  63    -0.485798893946E+03   -0.20059E-05   -0.13922E-06   365   0.865E-04    0.216E-03
RMM:  64    -0.485798895963E+03   -0.20176E-05   -0.12563E-06   353   0.836E-04    0.154E-03
RMM:  65    -0.485798897226E+03   -0.12621E-05   -0.11235E-06   302   0.701E-04    0.189E-03
RMM:  66    -0.485798898233E+03   -0.10076E-05   -0.10327E-06   358   0.801E-04    0.262E-03
RMM:  67    -0.485798900013E+03   -0.17794E-05   -0.93952E-07   330   0.721E-04    0.129E-03
RMM:  68    -0.485798900817E+03   -0.80398E-06   -0.83660E-07   213   0.526E-04
   1 F= -.50059184E+03 E0= -.49892780E+03  d E =-.332808E+01
       N       E                     dE             d eps       ncg     rms          rms(c)
DAV:   1    -0.485796466946E+03    0.24331E-02   -0.12982E+00   723   0.142E+00    0.137E-01
RMM:   2    -0.485799018566E+03   -0.25516E-02   -0.22817E-02   730   0.277E-01    0.349E-01
RMM:   3    -0.485798575317E+03    0.44325E-03   -0.22577E-03   710   0.108E-01    0.224E-01
RMM:   4    -0.485799109297E+03   -0.53398E-03   -0.72020E-04   771   0.613E-02    0.493E-01
RMM:   5    -0.485799007802E+03    0.10150E-03   -0.61323E-04   730   0.617E-02    0.429E-01
RMM:   6    -0.485798558649E+03    0.44915E-03   -0.43006E-04   690   0.615E-02    0.229E-01
RMM:   7    -0.485798603812E+03   -0.45163E-04   -0.41990E-04   697   0.556E-02    0.257E-01
RMM:   8    -0.485799139519E+03   -0.53571E-03   -0.10212E-03   699   0.823E-02    0.460E-01
RMM:   9    -0.485798677695E+03    0.46182E-03   -0.62490E-04   691   0.760E-02    0.283E-01
RMM:  10    -0.485798463318E+03    0.21438E-03   -0.28891E-04   691   0.509E-02    0.143E-01
RMM:  11    -0.485798420079E+03    0.43239E-04   -0.11943E-04   693   0.284E-02    0.810E-02
RMM:  12    -0.485798442208E+03   -0.22128E-04   -0.98899E-05   699   0.252E-02    0.108E-01
RMM:  13    -0.485798418868E+03    0.23340E-04   -0.50731E-05   688   0.203E-02    0.759E-02
RMM:  14    -0.485798403324E+03    0.15544E-04   -0.21349E-05   693   0.128E-02    0.344E-02
RMM:  15    -0.485798401818E+03    0.15059E-05   -0.11258E-05   704   0.731E-03    0.236E-02
RMM:  16    -0.485798403815E+03   -0.19975E-05   -0.93739E-06   664   0.749E-03    0.322E-02
RMM:  17    -0.485798403558E+03    0.25713E-06   -0.74915E-06   616   0.751E-03
   2 F= -.50059134E+03 E0= -.49892743E+03  d E =-.332782E+01
       N       E                     dE             d eps       ncg     rms          rms(c)
DAV:   1    -0.485789397609E+03    0.90062E-02   -0.51750E+00   705   0.285E+00    0.286E-01
RMM:   2    -0.485801118051E+03   -0.11720E-01   -0.10417E-01   737   0.574E-01    0.758E-01
RMM:   3    -0.485799315927E+03    0.18021E-02   -0.10801E-02   703   0.241E-01    0.535E-01
RMM:   4    -0.485800882020E+03   -0.15661E-02   -0.38955E-03   737   0.149E-01    0.922E-01
RMM:   5    -0.485801424584E+03   -0.54256E-03   -0.23060E-03   728   0.121E-01    0.994E-01
RMM:   6    -0.485798913881E+03    0.25107E-02   -0.15818E-03   696   0.115E-01    0.445E-01
RMM:   7    -0.485799041841E+03   -0.12796E-03   -0.15942E-03   701   0.108E-01    0.504E-01
RMM:   8    -0.485800607238E+03   -0.15654E-02   -0.32487E-03   702   0.146E-01    0.817E-01
RMM:   9    -0.485799380061E+03    0.12272E-02   -0.23451E-03   695   0.144E-01    0.578E-01
RMM:  10    -0.485798526923E+03    0.85314E-03   -0.13903E-03   692   0.113E-01    0.310E-01
RMM:  11    -0.485798556389E+03   -0.29466E-04   -0.92560E-04   696   0.826E-02    0.324E-01
RMM:  12    -0.485798756932E+03   -0.20054E-03   -0.84652E-04   702   0.765E-02    0.409E-01
RMM:  13    -0.485798339485E+03    0.41745E-03   -0.42947E-04   694   0.631E-02    0.184E-01
RMM:  14    -0.485798236421E+03    0.10306E-03   -0.15990E-04   694   0.360E-02    0.910E-02
RMM:  15    -0.485798227433E+03    0.89885E-05   -0.79267E-05   751   0.207E-02    0.708E-02
RMM:  16    -0.485798235777E+03   -0.83438E-05   -0.59712E-05   731   0.192E-02    0.872E-02
RMM:  17    -0.485798215978E+03    0.19799E-04   -0.31201E-05   720   0.159E-02    0.482E-02
RMM:  18    -0.485798213426E+03    0.25515E-05   -0.18839E-05   736   0.110E-02    0.387E-02
RMM:  19    -0.485798222701E+03   -0.92749E-05   -0.26081E-05   705   0.129E-02    0.614E-02
RMM:  20    -0.485798212399E+03    0.10302E-04   -0.14374E-05   689   0.114E-02    0.299E-02
RMM:  21    -0.485798210453E+03    0.19460E-05   -0.68570E-06   642   0.737E-03    0.188E-02
RMM:  22    -0.485798210979E+03   -0.52606E-06   -0.42066E-06   505   0.574E-03
   3 F= -.50059115E+03 E0= -.49892697E+03  d E =-.332836E+01
       N       E                     dE             d eps       ncg     rms          rms(c)
DAV:   1    -0.485800090999E+03   -0.18805E-02   -0.25890E+00   696   0.199E+00    0.200E-01
RMM:   2    -0.485806683983E+03   -0.65930E-02   -0.51316E-02   800   0.410E-01    0.783E-01
RMM:   3    -0.485805190466E+03    0.14935E-02   -0.43712E-03   701   0.156E-01    0.464E-01
RMM:   4    -0.485805604797E+03   -0.41433E-03   -0.16465E-03   756   0.939E-02    0.606E-01
RMM:   5    -0.485805328444E+03    0.27635E-03   -0.98904E-04   706   0.801E-02    0.529E-01
RMM:   6    -0.485805048895E+03    0.27955E-03   -0.94775E-04   696   0.853E-02    0.461E-01
RMM:   7    -0.485804690585E+03    0.35831E-03   -0.66193E-04   693   0.730E-02    0.282E-01
RMM:   8    -0.485805626789E+03   -0.93620E-03   -0.16746E-03   699   0.108E-01    0.566E-01
RMM:   9    -0.485804964129E+03    0.66266E-03   -0.13514E-03   693   0.108E-01    0.363E-01
RMM:  10    -0.485804540665E+03    0.42346E-03   -0.63539E-04   692   0.808E-02    0.182E-01
RMM:  11    -0.485804553489E+03   -0.12824E-04   -0.41431E-04   697   0.544E-02    0.188E-01
RMM:  12    -0.485804581730E+03   -0.28241E-04   -0.31475E-04   705   0.483E-02    0.202E-01
RMM:  13    -0.485804465585E+03    0.11614E-03   -0.15157E-04   692   0.372E-02    0.107E-01
RMM:  14    -0.485804432120E+03    0.33466E-04   -0.55776E-05   724   0.202E-02    0.442E-02
RMM:  15    -0.485804434833E+03   -0.27129E-05   -0.35204E-05   778   0.126E-02    0.502E-02
RMM:  16    -0.485804436046E+03   -0.12134E-05   -0.25769E-05   735   0.125E-02    0.516E-02
RMM:  17    -0.485804430050E+03    0.59961E-05   -0.14238E-05   706   0.104E-02    0.352E-02
RMM:  18    -0.485804427604E+03    0.24458E-05   -0.78729E-06   651   0.766E-03    0.205E-02
RMM:  19    -0.485804431186E+03   -0.35819E-05   -0.94177E-06   679   0.750E-03    0.364E-02
RMM:  20    -0.485804427812E+03    0.33738E-05   -0.46615E-06   522   0.686E-03    0.165E-02
RMM:  21    -0.485804427369E+03    0.44343E-06   -0.19007E-06   405   0.447E-03
   4 F= -.50059740E+03 E0= -.49893359E+03  d E =-.332762E+01
       N       E                     dE             d eps       ncg     rms          rms(c)
DAV:   1    -0.485781685892E+03    0.22742E-01   -0.51481E+00   696   0.275E+00    0.299E-01
RMM:   2    -0.485799145191E+03   -0.17459E-01   -0.12095E-01   768   0.608E-01    0.152E+00
RMM:   3    -0.485793761394E+03    0.53838E-02   -0.97147E-03   710   0.236E-01    0.681E-01
RMM:   4    -0.485795794200E+03   -0.20328E-02   -0.47072E-03   804   0.141E-01    0.111E+00
RMM:   5    -0.485793632161E+03    0.21620E-02   -0.23150E-03   695   0.131E-01    0.703E-01
RMM:   6    -0.485792724742E+03    0.90742E-03   -0.15387E-03   694   0.115E-01    0.498E-01
RMM:   7    -0.485792751474E+03   -0.26732E-04   -0.13852E-03   704   0.100E-01    0.484E-01
RMM:   8    -0.485794847080E+03   -0.20956E-02   -0.40093E-03   694   0.166E-01    0.873E-01
RMM:   9    -0.485793073238E+03    0.17738E-02   -0.31105E-03   693   0.165E-01    0.546E-01
RMM:  10    -0.485792341371E+03    0.73187E-03   -0.13101E-03   694   0.111E-01    0.353E-01
RMM:  11    -0.485792357887E+03   -0.16516E-04   -0.10026E-03   701   0.832E-02    0.345E-01
RMM:  12    -0.485792373258E+03   -0.15371E-04   -0.78336E-04   702   0.778E-02    0.325E-01
RMM:  13    -0.485792063465E+03    0.30979E-03   -0.38599E-04   699   0.600E-02    0.167E-01
RMM:  14    -0.485791972850E+03    0.90615E-04   -0.13715E-04   722   0.323E-02    0.665E-02
RMM:  15    -0.485791995561E+03   -0.22711E-04   -0.10089E-04   779   0.222E-02    0.106E-01
RMM:  16    -0.485791988509E+03    0.70526E-05   -0.63520E-05   741   0.197E-02    0.897E-02
RMM:  17    -0.485791969253E+03    0.19256E-04   -0.37458E-05   731   0.169E-02    0.487E-02
RMM:  18    -0.485791964714E+03    0.45386E-05   -0.19943E-05   755   0.103E-02    0.274E-02
RMM:  19    -0.485791971303E+03   -0.65885E-05   -0.18847E-05   746   0.105E-02    0.483E-02
RMM:  20    -0.485791965087E+03    0.62156E-05   -0.89284E-06   686   0.880E-03    0.217E-02
RMM:  21    -0.485791964708E+03    0.37943E-06   -0.41763E-06   510   0.579E-03
   5 F= -.50058486E+03 E0= -.49892059E+03  d E =-.332856E+01
       N       E                     dE             d eps       ncg     rms          rms(c)
DAV:   1    -0.485784343272E+03    0.76218E-02   -0.25617E+00   696   0.190E+00    0.338E-01
RMM:   2    -0.485810542614E+03   -0.26199E-01   -0.80241E-02   786   0.525E-01    0.250E+00
RMM:   3    -0.485797192470E+03    0.13350E-01   -0.10526E-02   694   0.285E-01    0.164E+00
RMM:   4    -0.485790534084E+03    0.66584E-02   -0.79718E-03   701   0.235E-01    0.736E-01
RMM:   5    -0.485791734150E+03   -0.12001E-02   -0.64019E-03   709   0.205E-01    0.953E-01
RMM:   6    -0.485789756729E+03    0.19774E-02   -0.33460E-03   694   0.179E-01    0.598E-01
RMM:   7    -0.485788951886E+03    0.80484E-03   -0.14608E-03   695   0.115E-01    0.371E-01
RMM:   8    -0.485790140932E+03   -0.11890E-02   -0.24951E-03   699   0.129E-01    0.686E-01
RMM:   9    -0.485790150637E+03   -0.97051E-05   -0.26131E-03   697   0.142E-01    0.640E-01
RMM:  10    -0.485789139687E+03    0.10110E-02   -0.16454E-03   696   0.125E-01    0.404E-01
RMM:  11    -0.485788737649E+03    0.40204E-03   -0.69920E-04   694   0.766E-02    0.236E-01
RMM:  12    -0.485788813725E+03   -0.76076E-04   -0.50056E-04   703   0.578E-02    0.282E-01
RMM:  13    -0.485788689963E+03    0.12376E-03   -0.33382E-04   708   0.508E-02    0.200E-01
RMM:  14    -0.485788588730E+03    0.10123E-03   -0.14478E-04   691   0.348E-02    0.106E-01
RMM:  15    -0.485788565838E+03    0.22892E-04   -0.76614E-05   729   0.212E-02    0.627E-02
RMM:  16    -0.485788580992E+03   -0.15154E-04   -0.63602E-05   752   0.181E-02    0.865E-02
RMM:  17    -0.485788573784E+03    0.72080E-05   -0.38249E-05   731   0.156E-02    0.682E-02
RMM:  18    -0.485788561501E+03    0.12283E-04   -0.17288E-05   704   0.114E-02    0.210E-02
RMM:  19    -0.485788566842E+03   -0.53413E-05   -0.16136E-05   769   0.827E-03    0.359E-02
RMM:  20    -0.485788568742E+03   -0.19000E-05   -0.85026E-06   645   0.784E-03    0.286E-02
RMM:  21    -0.485788568044E+03    0.69848E-06   -0.46850E-06   522   0.649E-03
   6 F= -.50058120E+03 E0= -.49891704E+03  d E =-.332833E+01
       N       E                     dE             d eps       ncg     rms          rms(c)
DAV:   1    -0.485792640577E+03   -0.40718E-02   -0.50893E+00   690   0.251E+00    0.650E-01
RMM:   2    -0.485901810985E+03   -0.10917E+00   -0.21972E-01   784   0.940E-01    0.540E+00
RMM:   3    -0.485833231199E+03    0.68580E-01   -0.42782E-02   693   0.597E-01    0.336E+00
RMM:   4    -0.485806766289E+03    0.26465E-01   -0.34174E-02   706   0.489E-01    0.172E+00
RMM:   5    -0.485806856004E+03   -0.89715E-04   -0.25913E-02   705   0.421E-01    0.164E+00
RMM:   6    -0.485802435849E+03    0.44202E-02   -0.12568E-02   697   0.336E-01    0.138E+00
RMM:   7    -0.485797938198E+03    0.44977E-02   -0.45662E-03   697   0.207E-01    0.723E-01
RMM:   8    -0.485800292579E+03   -0.23544E-02   -0.59611E-03   705   0.205E-01    0.109E+00
RMM:   9    -0.485801145532E+03   -0.85295E-03   -0.78990E-03   696   0.238E-01    0.113E+00
RMM:  10    -0.485798235769E+03    0.29098E-02   -0.48302E-03   695   0.216E-01    0.732E-01
RMM:  11    -0.485797145466E+03    0.10903E-02   -0.26041E-03   695   0.143E-01    0.454E-01
RMM:  12    -0.485797459092E+03   -0.31363E-03   -0.22604E-03   701   0.127E-01    0.511E-01
RMM:  13    -0.485796928783E+03    0.53031E-03   -0.12843E-03   708   0.106E-01    0.342E-01
RMM:  14    -0.485796567316E+03    0.36147E-03   -0.49619E-04   706   0.660E-02    0.160E-01
RMM:  15    -0.485796542031E+03    0.25285E-04   -0.28187E-04   763   0.392E-02    0.139E-01
RMM:  16    -0.485796566563E+03   -0.24532E-04   -0.18862E-04   750   0.334E-02    0.155E-01
RMM:  17    -0.485796530478E+03    0.36085E-04   -0.11612E-04   754   0.274E-02    0.113E-01
RMM:  18    -0.485796497624E+03    0.32854E-04   -0.51910E-05   729   0.196E-02    0.440E-02
RMM:  19    -0.485796517992E+03   -0.20368E-04   -0.57455E-05   770   0.173E-02    0.806E-02
RMM:  20    -0.485796511973E+03    0.60186E-05   -0.30850E-05   718   0.152E-02    0.524E-02
RMM:  21    -0.485796506568E+03    0.54049E-05   -0.18808E-05   746   0.110E-02    0.324E-02
RMM:  22    -0.485796506059E+03    0.50911E-06   -0.10590E-05   719   0.730E-03    0.215E-02
RMM:  23    -0.485796511104E+03   -0.50444E-05   -0.10387E-05   697   0.740E-03    0.339E-02
RMM:  24    -0.485796510375E+03    0.72876E-06   -0.45820E-06   521   0.646E-03
   7 F= -.50058976E+03 E0= -.49892584E+03  d E =-.332784E+01
       N       E                     dE             d eps       ncg     rms          rms(c)
DAV:   1    -0.485797733974E+03   -0.12229E-02   -0.13249E+00   696   0.126E+00    0.312E-01
RMM:   2    -0.485821920122E+03   -0.24186E-01   -0.49738E-02   772   0.437E-01    0.262E+00
RMM:   3    -0.485806042342E+03    0.15878E-01   -0.89694E-03   693   0.274E-01    0.144E+00
RMM:   4    -0.485801267130E+03    0.47752E-02   -0.71965E-03   708   0.220E-01    0.781E-01
RMM:   5    -0.485801747043E+03   -0.47991E-03   -0.57704E-03   707   0.197E-01    0.830E-01
RMM:   6    -0.485800475132E+03    0.12719E-02   -0.28263E-03   695   0.162E-01    0.620E-01
RMM:   7    -0.485799541019E+03    0.93411E-03   -0.10917E-03   697   0.101E-01    0.340E-01
RMM:   8    -0.485800410956E+03   -0.86994E-03   -0.17043E-03   702   0.109E-01    0.606E-01
RMM:   9    -0.485800687229E+03   -0.27627E-03   -0.21874E-03   695   0.126E-01    0.629E-01
RMM:  10    -0.485799810546E+03    0.87668E-03   -0.12604E-03   696   0.110E-01    0.400E-01
RMM:  11    -0.485799462149E+03    0.34840E-03   -0.64862E-04   695   0.726E-02    0.242E-01
RMM:  12    -0.485799484165E+03   -0.22016E-04   -0.49584E-04   697   0.598E-02    0.241E-01
RMM:  13    -0.485799383012E+03    0.10115E-03   -0.30820E-04   705   0.503E-02    0.172E-01
RMM:  14    -0.485799293712E+03    0.89300E-04   -0.12417E-04   701   0.325E-02    0.752E-02
RMM:  15    -0.485799287227E+03    0.64855E-05   -0.71310E-05   782   0.185E-02    0.557E-02
RMM:  16    -0.485799296903E+03   -0.96764E-05   -0.46968E-05   761   0.157E-02    0.723E-02
RMM:  17    -0.485799290329E+03    0.65738E-05   -0.26449E-05   746   0.126E-02    0.527E-02
RMM:  18    -0.485799284367E+03    0.59623E-05   -0.12560E-05   696   0.858E-03    0.192E-02
RMM:  19    -0.485799288506E+03   -0.41392E-05   -0.10896E-05   721   0.729E-03    0.305E-02
RMM:  20    -0.485799289938E+03   -0.14316E-05   -0.55852E-06   544   0.687E-03    0.194E-02
RMM:  21    -0.485799290376E+03   -0.43825E-06   -0.28960E-06   452   0.549E-03
   8 F= -.50059221E+03 E0= -.49892831E+03  d E =-.332779E+01
       N       E                     dE             d eps       ncg     rms          rms(c)
DAV:   1    -0.485797763678E+03    0.15263E-02   -0.26906E-01   723   0.420E-01    0.163E-01
RMM:   2    -0.485799303476E+03   -0.15398E-02   -0.52065E-03   697   0.139E-01    0.535E-01
RMM:   3    -0.485799298656E+03    0.48197E-05   -0.12431E-03   701   0.968E-02    0.606E-01
RMM:   4    -0.485798898052E+03    0.40060E-03   -0.11559E-03   701   0.855E-02    0.454E-01
RMM:   5    -0.485799471383E+03   -0.57333E-03   -0.16288E-03   698   0.103E-01    0.597E-01
RMM:   6    -0.485799542124E+03   -0.70741E-04   -0.16883E-03   693   0.114E-01    0.598E-01
RMM:   7    -0.485798508851E+03    0.10333E-02   -0.71698E-04   690   0.883E-02    0.190E-01
RMM:   8    -0.485798466351E+03    0.42500E-04   -0.31147E-04   693   0.476E-02    0.167E-01
RMM:   9    -0.485798555935E+03   -0.89584E-04   -0.31778E-04   691   0.466E-02    0.221E-01
RMM:  10    -0.485798481366E+03    0.74570E-04   -0.17704E-04   690   0.394E-02    0.163E-01
RMM:  11    -0.485798400295E+03    0.81071E-04   -0.80614E-05   690   0.272E-02    0.597E-02
RMM:  12    -0.485798394698E+03    0.55969E-05   -0.27446E-05   739   0.122E-02    0.409E-02
RMM:  13    -0.485798398539E+03   -0.38416E-05   -0.18014E-05   715   0.104E-02    0.435E-02
RMM:  14    -0.485798398849E+03   -0.30941E-06   -0.10689E-05   658   0.914E-03    0.373E-02
RMM:  15    -0.485798396532E+03    0.23171E-05   -0.46886E-06   519   0.666E-03    0.164E-02
RMM:  16    -0.485798397605E+03   -0.10736E-05   -0.21129E-06   407   0.447E-03    0.157E-02
RMM:  17    -0.485798401667E+03   -0.40619E-05   -0.27214E-06   439   0.491E-03    0.206E-02
RMM:  18    -0.485798403148E+03   -0.14811E-05   -0.17937E-06   369   0.496E-03    0.777E-03
RMM:  19    -0.485798405043E+03   -0.18946E-05   -0.10324E-06   360   0.309E-03    0.101E-02
RMM:  20    -0.485798408349E+03   -0.33061E-05   -0.11763E-06   367   0.348E-03    0.112E-02
RMM:  21    -0.485798410935E+03   -0.25866E-05   -0.84989E-07   358   0.303E-03    0.736E-03
RMM:  22    -0.485798411602E+03   -0.66688E-06   -0.35004E-07   353   0.183E-03
   9 F= -.50059136E+03 E0= -.49892718E+03  d E =-.332836E+01
       N       E                     dE             d eps       ncg     rms          rms(c)
DAV:   1    -0.485799854149E+03   -0.14432E-02   -0.13485E-01   696   0.296E-01    0.110E-01
RMM:   2    -0.485800267219E+03   -0.41307E-03   -0.21301E-03   691   0.798E-02    0.210E-01
RMM:   3    -0.485800419729E+03   -0.15251E-03   -0.68511E-04   697   0.693E-02    0.332E-01
RMM:   4    -0.485800660728E+03   -0.24100E-03   -0.73763E-04   699   0.688E-02    0.391E-01
RMM:   5    -0.485801493917E+03   -0.83319E-03   -0.85770E-04   738   0.706E-02    0.659E-01
RMM:   6    -0.485800559915E+03    0.93400E-03   -0.65219E-04   691   0.731E-02    0.340E-01
RMM:   7    -0.485800201711E+03    0.35820E-03   -0.27910E-04   690   0.517E-02    0.992E-02
RMM:   8    -0.485800242802E+03   -0.41092E-04   -0.18716E-04   719   0.332E-02    0.154E-01
RMM:   9    -0.485800253326E+03   -0.10524E-04   -0.14604E-04   701   0.310E-02    0.150E-01
RMM:  10    -0.485800195772E+03    0.57555E-04   -0.65617E-05   688   0.247E-02    0.691E-02
RMM:  11    -0.485800182206E+03    0.13566E-04   -0.29926E-05   708   0.145E-02    0.350E-02
RMM:  12    -0.485800181497E+03    0.70891E-06   -0.13928E-05   713   0.851E-03    0.269E-02
RMM:  13    -0.485800185172E+03   -0.36752E-05   -0.10110E-05   671   0.794E-03    0.357E-02
RMM:  14    -0.485800182417E+03    0.27550E-05   -0.37062E-06   466   0.632E-03    0.153E-02
RMM:  15    -0.485800182554E+03   -0.13688E-06   -0.14780E-06   376   0.362E-03
  10 F= -.50059303E+03 E0= -.49892908E+03  d E =-.332789E+01
       N       E                     dE             d eps       ncg     rms          rms(c)
DAV:   1    -0.485796765679E+03    0.34167E-02   -0.26971E-01   696   0.415E-01    0.154E-01
RMM:   2    -0.485797952262E+03   -0.11866E-02   -0.46252E-03   736   0.118E-01    0.453E-01
RMM:   3    -0.485797771827E+03    0.18044E-03   -0.10073E-03   699   0.812E-02    0.418E-01
RMM:   4    -0.485798184987E+03   -0.41316E-03   -0.10541E-03   744   0.750E-02    0.540E-01
RMM:   5    -0.485798713591E+03   -0.52860E-03   -0.21744E-03   697   0.121E-01    0.578E-01
RMM:   6    -0.485797965155E+03    0.74844E-03   -0.13072E-03   691   0.111E-01    0.401E-01
RMM:   7    -0.485797452611E+03    0.51254E-03   -0.40004E-04   692   0.632E-02    0.114E-01
RMM:   8    -0.485797551016E+03   -0.98404E-04   -0.28151E-04   706   0.427E-02    0.212E-01
RMM:   9    -0.485797521938E+03    0.29077E-04   -0.21624E-04   693   0.391E-02    0.163E-01
RMM:  10    -0.485797452070E+03    0.69868E-04   -0.10770E-04   688   0.316E-02    0.980E-02
RMM:  11    -0.485797424369E+03    0.27701E-04   -0.38180E-05   694   0.168E-02    0.380E-02
RMM:  12    -0.485797425489E+03   -0.11199E-05   -0.20823E-05   756   0.100E-02    0.372E-02
RMM:  13    -0.485797428592E+03   -0.31030E-05   -0.12397E-05   690   0.877E-03    0.401E-02
RMM:  14    -0.485797425999E+03    0.25930E-05   -0.56070E-06   556   0.695E-03    0.204E-02
RMM:  15    -0.485797426078E+03   -0.79621E-07   -0.23680E-06   422   0.468E-03
  11 F= -.50059045E+03 E0= -.49892631E+03  d E =-.332828E+01
       N       E                     dE             d eps       ncg     rms          rms(c)
DAV:   1    -0.485795596801E+03    0.18292E-02   -0.15291E-01   714   0.308E-01    0.205E-01
RMM:   2    -0.485798345984E+03   -0.27492E-02   -0.71177E-03   792   0.144E-01    0.951E-01
RMM:   3    -0.485797045810E+03    0.13002E-02   -0.21702E-03   693   0.131E-01    0.765E-01
RMM:   4    -0.485797623625E+03   -0.57781E-03   -0.32795E-03   731   0.137E-01    0.870E-01
RMM:   5    -0.485797218584E+03    0.40504E-03   -0.28588E-03   700   0.145E-01    0.721E-01
RMM:   6    -0.485796075642E+03    0.11429E-02   -0.16669E-03   694   0.123E-01    0.497E-01
RMM:   7    -0.485795451848E+03    0.62379E-03   -0.73775E-04   696   0.792E-02    0.178E-01
RMM:   8    -0.485795901471E+03   -0.44962E-03   -0.92773E-04   699   0.805E-02    0.393E-01
RMM:   9    -0.485795621607E+03    0.27986E-03   -0.53634E-04   694   0.695E-02    0.275E-01
RMM:  10    -0.485795415114E+03    0.20649E-03   -0.24624E-04   693   0.490E-02    0.129E-01
RMM:  11    -0.485795403422E+03    0.11692E-04   -0.13311E-04   692   0.306E-02    0.111E-01
RMM:  12    -0.485795408138E+03   -0.47158E-05   -0.96345E-05   695   0.270E-02    0.110E-01
RMM:  13    -0.485795374614E+03    0.33524E-04   -0.49249E-05   703   0.216E-02    0.635E-02
RMM:  14    -0.485795364788E+03    0.98255E-05   -0.17413E-05   693   0.119E-02    0.334E-02
RMM:  15    -0.485795367311E+03   -0.25228E-05   -0.13276E-05   689   0.925E-03    0.396E-02
RMM:  16    -0.485795366917E+03    0.39387E-06   -0.87856E-06   649   0.819E-03
  12 F= -.50058792E+03 E0= -.49892366E+03  d E =-.332851E+01
       N       E                     dE             d eps       ncg     rms          rms(c)
DAV:   1    -0.485793515568E+03    0.18517E-02   -0.35407E-01   714   0.472E-01    0.393E-01
RMM:   2    -0.485809107878E+03   -0.15592E-01   -0.28890E-02   812   0.314E-01    0.231E+00
RMM:   3    -0.485798959908E+03    0.10148E-01   -0.96963E-03   696   0.287E-01    0.153E+00
RMM:   4    -0.485797995137E+03    0.96477E-03   -0.11636E-02   727   0.259E-01    0.141E+00
RMM:   5    -0.485798004861E+03   -0.97245E-05   -0.11590E-02   699   0.286E-01    0.124E+00
RMM:   6    -0.485794185756E+03    0.38191E-02   -0.60852E-03   694   0.242E-01    0.897E-01
RMM:   7    -0.485792107181E+03    0.20786E-02   -0.20925E-03   697   0.136E-01    0.361E-01
RMM:   8    -0.485793005347E+03   -0.89817E-03   -0.23113E-03   704   0.126E-01    0.630E-01
RMM:   9    -0.485792780835E+03    0.22451E-03   -0.19756E-03   694   0.125E-01    0.548E-01
RMM:  10    -0.485792079922E+03    0.70091E-03   -0.99399E-04   698   0.973E-02    0.328E-01
RMM:  11    -0.485791824928E+03    0.25499E-03   -0.50879E-04   695   0.636E-02    0.176E-01
RMM:  12    -0.485791858447E+03   -0.33519E-04   -0.33500E-04   696   0.498E-02    0.194E-01
RMM:  13    -0.485791765324E+03    0.93123E-04   -0.16745E-04   710   0.390E-02    0.119E-01
RMM:  14    -0.485791729612E+03    0.35711E-04   -0.56799E-05   691   0.227E-02    0.688E-02
RMM:  15    -0.485791729411E+03    0.20117E-06   -0.35229E-05   713   0.151E-02    0.628E-02
RMM:  16    -0.485791733883E+03   -0.44720E-05   -0.29653E-05   710   0.142E-02    0.614E-02
RMM:  17    -0.485791726883E+03    0.69998E-05   -0.17156E-05   716   0.116E-02    0.339E-02
RMM:  18    -0.485791724849E+03    0.20347E-05   -0.69962E-06   610   0.691E-03    0.151E-02
RMM:  19    -0.485791730244E+03   -0.53948E-05   -0.77536E-06   659   0.673E-03    0.301E-02
RMM:  20    -0.485791731222E+03   -0.97878E-06   -0.35779E-06   465   0.609E-03
  13 F= -.50058503E+03 E0= -.49892121E+03  d E =-.332764E+01
