 vasp.5.4.4.18Apr17-6-g9f103f2a35 (build Dec 15 2018 21:27:54) gamma-only       
  
 executed on             LinuxIFC date 2022.03.06  07:31:48
 running on   72 total cores
 distrk:  each k-point on   72 cores,    1 groups
 distr:  one band on NCORES_PER_BAND=  24 cores,    3 groups


--------------------------------------------------------------------------------------------------------


 INCAR:
 POTCAR:    PAW_PBE Fe 06Sep2000                  
 POTCAR:    PAW_PBE Ni 02Aug2007                  
 POTCAR:    PAW_PBE O 08Apr2002                   
 POTCAR:    PAW_PBE H 15Jun2001                   

 ----------------------------------------------------------------------------- 
|                                                                             |
|           W    W    AA    RRRRR   N    N  II  N    N   GGGG   !!!           |
|           W    W   A  A   R    R  NN   N  II  NN   N  G    G  !!!           |
|           W    W  A    A  R    R  N N  N  II  N N  N  G       !!!           |
|           W WW W  AAAAAA  RRRRR   N  N N  II  N  N N  G  GGG   !            |
|           WW  WW  A    A  R   R   N   NN  II  N   NN  G    G                |
|           W    W  A    A  R    R  N    N  II  N    N   GGGG   !!!           |
|                                                                             |
|      For optimal performance we recommend to set                            |
|        NCORE= 4 - approx SQRT( number of cores)                             |
|      NCORE specifies how many cores store one orbital (NPAR=cpu/NCORE).     |
|      This setting can  greatly improve the performance of VASP for DFT.     |
|      The default,   NCORE=1            might be grossly inefficient         |
|      on modern multi-core architectures or massively parallel machines.     |
|      Do your own testing !!!!                                               |
|      Unfortunately you need to use the default for GW and RPA calculations. |
|      (for HF NCORE is supported but not extensively tested yet)             |
|                                                                             |
 ----------------------------------------------------------------------------- 

 POTCAR:    PAW_PBE Fe 06Sep2000                  
   VRHFIN =Fe:  d7 s1                                                           
   LEXCH  = PE                                                                  
   EATOM  =   594.3153 eV,   43.6809 Ry                                         
                                                                                
   TITEL  = PAW_PBE Fe 06Sep2000                                                
   LULTRA =        F    use ultrasoft PP ?                                      
   IUNSCR =        1    unscreen: 0-lin 1-nonlin 2-no                           
   RPACOR =    2.000    partial core radius                                     
   POMASS =   55.847; ZVAL   =    8.000    mass and valenz                      
   RCORE  =    2.300    outmost cutoff radius                                   
   RWIGS  =    2.460; RWIGS  =    1.302    wigner-seitz radius (au A)           
   ENMAX  =  267.882; ENMIN  =  200.911 eV                                      
   RCLOC  =    1.701    cutoff for local pot                                    
   LCOR   =        T    correct aug charges                                     
   LPAW   =        T    paw PP                                                  
   EAUG   =  511.368                                                            
   DEXC   =    0.000                                                            
   RMAX   =    2.356    core radius for proj-oper                               
   RAUG   =    1.300    factor for augmentation sphere                          
   RDEP   =    2.442    radius for radial grids                                 
   RDEPT  =    1.890    core radius for aug-charge                              
                                                                                
   Atomic configuration                                                         
    9 entries                                                                   
     n  l   j            E        occ.                                          
     1  0  0.50     -6993.8440   2.0000                                         
     2  0  0.50      -814.6047   2.0000                                         
     2  1  1.50      -693.3689   6.0000                                         
     3  0  0.50       -89.4732   2.0000                                         
     3  1  1.50       -55.6373   6.0000                                         
     3  2  2.50        -3.8151   7.0000                                         
     4  0  0.50        -4.2551   1.0000                                         
     4  1  1.50        -3.4015   0.0000                                         
     4  3  2.50        -1.3606   0.0000                                         
   Description                                                                  
     l       E           TYP  RCUT    TYP  RCUT                                 
     2     -3.8151135     23  2.300                                             
     2     -5.1756961     23  2.300                                             
     0     -4.2550963     23  2.300                                             
     0      7.2035603     23  2.300                                             
     1     -2.7211652     23  2.300                                             
     1     18.4316424     23  2.300                                             
  local pseudopotential read in
  partial core-charges read in
  partial kinetic energy density read in
  atomic valenz-charges read in
  non local Contribution for L=           2  read in
    real space projection operators read in
  non local Contribution for L=           2  read in
    real space projection operators read in
  non local Contribution for L=           0  read in
    real space projection operators read in
  non local Contribution for L=           0  read in
    real space projection operators read in
  non local Contribution for L=           1  read in
    real space projection operators read in
  non local Contribution for L=           1  read in
    real space projection operators read in
    PAW grid and wavefunctions read in
 
   number of l-projection  operators is LMAX  =           6
   number of lm-projection operators is LMMAX =          18
 
 POTCAR:    PAW_PBE Ni 02Aug2007                  
   VRHFIN =Ni:                                                                  
   LEXCH  = PE                                                                  
   EATOM  =  1077.6739 eV,   79.2068 Ry                                         
                                                                                
   TITEL  = PAW_PBE Ni 02Aug2007                                                
   LULTRA =        F    use ultrasoft PP ?                                      
   IUNSCR =        1    unscreen: 0-lin 1-nonlin 2-no                           
   RPACOR =    2.000    partial core radius                                     
   POMASS =   58.690; ZVAL   =   10.000    mass and valenz                      
   RCORE  =    2.300    outmost cutoff radius                                   
   RWIGS  =    2.430; RWIGS  =    1.286    wigner-seitz radius (au A)           
   ENMAX  =  269.532; ENMIN  =  202.149 eV                                      
   RCLOC  =    1.201    cutoff for local pot                                    
   LCOR   =        T    correct aug charges                                     
   LPAW   =        T    paw PP                                                  
   EAUG   =  544.565                                                            
   DEXC   =    0.000                                                            
   RMAX   =    2.357    core radius for proj-oper                               
   RAUG   =    1.300    factor for augmentation sphere                          
   RDEP   =    2.390    radius for radial grids                                 
   RDEPT  =    1.838    core radius for aug-charge                              
                                                                                
   Atomic configuration                                                         
    9 entries                                                                   
     n  l   j            E        occ.                                          
     1  0  0.50     -8206.4253   2.0000                                         
     2  0  0.50      -976.1748   2.0000                                         
     2  1  1.50      -839.0571   6.0000                                         
     3  0  0.50      -105.9991   2.0000                                         
     3  1  1.50       -66.4603   6.0000                                         
     3  2  2.50        -4.6458   9.0000                                         
     4  0  0.50        -4.4926   1.0000                                         
     4  1  1.50        -4.0817   0.0000                                         
     4  3  2.50        -1.3606   0.0000                                         
   Description                                                                  
     l       E           TYP  RCUT    TYP  RCUT                                 
     2     -4.6457903     23  2.300                                             
     2     -6.0063729     23  2.300                                             
     0     -4.4925590     23  2.300                                             
     0      5.0102601     23  2.300                                             
     1     -2.7211652     23  2.300                                             
     1     16.5183231     23  2.300                                             
  local pseudopotential read in
  partial core-charges read in
  partial kinetic energy density read in
  atomic valenz-charges read in
  non local Contribution for L=           2  read in
    real space projection operators read in
  non local Contribution for L=           2  read in
    real space projection operators read in
  non local Contribution for L=           0  read in
    real space projection operators read in
  non local Contribution for L=           0  read in
    real space projection operators read in
  non local Contribution for L=           1  read in
    real space projection operators read in
  non local Contribution for L=           1  read in
    real space projection operators read in
    PAW grid and wavefunctions read in
 
   number of l-projection  operators is LMAX  =           6
   number of lm-projection operators is LMMAX =          18
 
 POTCAR:    PAW_PBE O 08Apr2002                   
   VRHFIN =O: s2p4                                                              
   LEXCH  = PE                                                                  
   EATOM  =   432.3788 eV,   31.7789 Ry                                         
                                                                                
   TITEL  = PAW_PBE O 08Apr2002                                                 
   LULTRA =        F    use ultrasoft PP ?                                      
   IUNSCR =        1    unscreen: 0-lin 1-nonlin 2-no                           
   RPACOR =    1.200    partial core radius                                     
   POMASS =   16.000; ZVAL   =    6.000    mass and valenz                      
   RCORE  =    1.520    outmost cutoff radius                                   
   RWIGS  =    1.550; RWIGS  =    0.820    wigner-seitz radius (au A)           
   ENMAX  =  400.000; ENMIN  =  300.000 eV                                      
   ICORE  =        2    local potential                                         
   LCOR   =        T    correct aug charges                                     
   LPAW   =        T    paw PP                                                  
   EAUG   =  605.392                                                            
   DEXC   =    0.000                                                            
   RMAX   =    1.553    core radius for proj-oper                               
   RAUG   =    1.300    factor for augmentation sphere                          
   RDEP   =    1.550    radius for radial grids                                 
   RDEPT  =    1.329    core radius for aug-charge                              
                                                                                
   Atomic configuration                                                         
    4 entries                                                                   
     n  l   j            E        occ.                                          
     1  0  0.50      -514.6923   2.0000                                         
     2  0  0.50       -23.9615   2.0000                                         
     2  1  0.50        -9.0305   4.0000                                         
     3  2  1.50        -9.5241   0.0000                                         
   Description                                                                  
     l       E           TYP  RCUT    TYP  RCUT                                 
     0    -23.9615318     23  1.200                                             
     0     -9.5240782     23  1.200                                             
     1     -9.0304911     23  1.520                                             
     1      8.1634956     23  1.520                                             
     2     -9.5240782      7  1.500                                             
  local pseudopotential read in
  partial core-charges read in
  partial kinetic energy density read in
  kinetic energy density of atom read in
  atomic valenz-charges read in
  non local Contribution for L=           0  read in
    real space projection operators read in
  non local Contribution for L=           0  read in
    real space projection operators read in
  non local Contribution for L=           1  read in
    real space projection operators read in
  non local Contribution for L=           1  read in
    real space projection operators read in
    PAW grid and wavefunctions read in
 
   number of l-projection  operators is LMAX  =           4
   number of lm-projection operators is LMMAX =           8
 
 POTCAR:    PAW_PBE H 15Jun2001                   
   VRHFIN =H: ultrasoft test                                                    
   LEXCH  = PE                                                                  
   EATOM  =    12.4884 eV,    0.9179 Ry                                         
                                                                                
   TITEL  = PAW_PBE H 15Jun2001                                                 
   LULTRA =        F    use ultrasoft PP ?                                      
   IUNSCR =        0    unscreen: 0-lin 1-nonlin 2-no                           
   RPACOR =    0.000    partial core radius                                     
   POMASS =    1.000; ZVAL   =    1.000    mass and valenz                      
   RCORE  =    1.100    outmost cutoff radius                                   
   RWIGS  =    0.700; RWIGS  =    0.370    wigner-seitz radius (au A)           
   ENMAX  =  250.000; ENMIN  =  200.000 eV                                      
   RCLOC  =    0.701    cutoff for local pot                                    
   LCOR   =        T    correct aug charges                                     
   LPAW   =        T    paw PP                                                  
   EAUG   =  400.000                                                            
   RMAX   =    1.123    core radius for proj-oper                               
   RAUG   =    1.200    factor for augmentation sphere                          
   RDEP   =    1.112    radius for radial grids                                 
   RDEPT  =    0.926    core radius for aug-charge                              
                                                                                
   Atomic configuration                                                         
    2 entries                                                                   
     n  l   j            E        occ.                                          
     1  0  0.50        -6.4927   1.0000                                         
     2  1  0.50        -3.4015   0.0000                                         
   Description                                                                  
     l       E           TYP  RCUT    TYP  RCUT                                 
     0     -6.4927494     23  1.100                                             
     0      6.8029130     23  1.100                                             
     1     -4.0817478     23  1.100                                             
  local pseudopotential read in
  atomic valenz-charges read in
  non local Contribution for L=           0  read in
    real space projection operators read in
  non local Contribution for L=           0  read in
    real space projection operators read in
  non local Contribution for L=           1  read in
    real space projection operators read in
    PAW grid and wavefunctions read in
 
   number of l-projection  operators is LMAX  =           3
   number of lm-projection operators is LMMAX =           5
 
 Optimization of the real space projectors (new method)

 maximal supplied QI-value         = 16.25
 optimisation between [QCUT,QGAM] = [ 11.54, 23.24] = [ 37.28,151.24] Ry 
 Optimized for a Real-space Cutoff    1.53 Angstroem

   l    n(q)    QCUT    max X(q) W(low)/X(q) W(high)/X(q)  e(spline) 
   2     10    11.539    80.901    0.11E-03    0.14E-03    0.21E-06
   2     10    11.539    75.754    0.11E-03    0.14E-03    0.22E-06
   0     11    11.539    58.752    0.52E-04    0.18E-04    0.33E-06
   0     11    11.539    30.679    0.44E-04    0.16E-04    0.30E-06
   1     10    11.539    17.977    0.53E-04    0.29E-04    0.13E-06
   1     10    11.539    13.559    0.44E-04    0.25E-04    0.11E-06
 Optimization of the real space projectors (new method)

 maximal supplied QI-value         = 16.25
 optimisation between [QCUT,QGAM] = [ 11.54, 23.24] = [ 37.28,151.24] Ry 
 Optimized for a Real-space Cutoff    1.45 Angstroem

   l    n(q)    QCUT    max X(q) W(low)/X(q) W(high)/X(q)  e(spline) 
   2      9    11.539    60.317    0.19E-03    0.47E-04    0.16E-06
   2      9    11.539    55.921    0.19E-03    0.48E-04    0.16E-06
   0     10    11.539    51.690    0.80E-04    0.50E-04    0.24E-06
   0     10    11.539    30.015    0.73E-04    0.45E-04    0.22E-06
   1     10    11.539    18.849    0.87E-04    0.16E-03    0.71E-07
   1     10    11.539    14.624    0.73E-04    0.13E-03    0.64E-07
 Optimization of the real space projectors (new method)

 maximal supplied QI-value         = 24.76
 optimisation between [QCUT,QGAM] = [ 11.64, 23.27] = [ 37.91,151.63] Ry 
 Optimized for a Real-space Cutoff    1.14 Angstroem

   l    n(q)    QCUT    max X(q) W(low)/X(q) W(high)/X(q)  e(spline) 
   0      8    11.635    20.381    0.10E-03    0.33E-03    0.24E-06
   0      8    11.635    15.268    0.11E-03    0.35E-03    0.26E-06
   1      7    11.635     5.964    0.24E-03    0.31E-03    0.30E-06
   1      7    11.635     5.382    0.22E-03    0.25E-03    0.26E-06
 Optimization of the real space projectors (new method)

 maximal supplied QI-value         = 34.20
 optimisation between [QCUT,QGAM] = [ 11.63, 23.26] = [ 37.87,151.49] Ry 
 Optimized for a Real-space Cutoff    1.21 Angstroem

   l    n(q)    QCUT    max X(q) W(low)/X(q) W(high)/X(q)  e(spline) 
   0      8    11.629    19.460    0.17E-03    0.34E-03    0.21E-06
   0      8    11.629    12.209    0.16E-03    0.33E-03    0.21E-06
   1      8    11.629     4.655    0.18E-03    0.16E-03    0.26E-06
  PAW_PBE Fe 06Sep2000                  :
 energy of atom  1       EATOM= -594.3153
 kinetic energy error for atom=    0.0026 (will be added to EATOM!!)
  PAW_PBE Ni 02Aug2007                  :
 energy of atom  2       EATOM=-1077.6739
 kinetic energy error for atom=    0.0030 (will be added to EATOM!!)
  PAW_PBE O 08Apr2002                   :
 energy of atom  3       EATOM= -432.3788
 kinetic energy error for atom=    0.0208 (will be added to EATOM!!)
  PAW_PBE H 15Jun2001                   :
 energy of atom  4       EATOM=  -12.4884
 kinetic energy error for atom=    0.0014 (will be added to EATOM!!)
 
 
 POSCAR: POSCAR                                  
  positions in direct lattice
  velocities in cartesian coordinates
 exchange correlation table for  LEXCH =        8
   RHO(1)=    0.500       N(1)  =     2000
   RHO(2)=  100.500       N(2)  =     4000

 VTST: version 3.2, (02/03/18)

 CHAIN: initializing optimizer
 
 OPT: Using VASP Dynamics algorithm
 CHAIN: Read ICHAIN            0
 
 POSCAR: POSCAR                                  
  positions in direct lattice
  velocities in cartesian coordinates
 


--------------------------------------------------------------------------------------------------------


 ion  position               nearest neighbor table
   1  0.002  0.999  0.097-   9 2.45  29 2.50  49 2.51  64 2.51  44 2.53   7 2.53  51 2.54  38 2.55
                             5 2.60
   2  0.002  0.997  0.381-  11 2.42  48 2.47   6 2.49  30 2.50  57 2.50   8 2.51  39 2.52  52 2.52
                            50 2.57
   3  0.499  0.996  0.096-   5 2.47  62 2.50  34 2.52  31 2.52  49 2.53  45 2.55  55 2.55  12 2.56
                            53 2.58
   4  0.504  0.993  0.380-  15 2.40  13 2.44  63 2.46  35 2.50  32 2.51   6 2.53  50 2.54  56 2.55
                            54 2.59
   5  0.743  0.996  0.094-   3 2.47  34 2.47  62 2.52  38 2.53  55 2.54  64 2.58  14 2.58  51 2.59
                             1 2.60
   6  0.756  0.996  0.385-  68 1.80  39 2.45   2 2.49  56 2.51  35 2.52  47 2.53   4 2.53  15 2.54
                            57 2.56  52 2.58
   7  0.249  0.253  0.097-  22 2.43   9 2.44  51 2.49  18 2.52  20 2.53   1 2.53  53 2.54  10 2.55
                            49 2.58
   8  0.252  0.245  0.382-  66 1.79  11 2.46  52 2.47  19 2.48  54 2.51   2 2.51  59 2.53  26 2.53
                            21 2.55  50 2.55
   9  0.089  0.161  0.191-  10 2.41   7 2.44   1 2.45  44 2.47  11 2.51  57 2.51  59 2.52  51 2.52
                            64 2.54  22 2.55  58 2.62  14 2.68
  10  0.330  0.166  0.195-  26 2.41   9 2.41  11 2.46  22 2.48  45 2.48  44 2.49  13 2.54   7 2.55
                            12 2.57  49 2.58  53 2.59  25 2.59
  11  0.165  0.079  0.289-   2 2.42   8 2.46  10 2.46  44 2.47  48 2.48  57 2.50  13 2.51   9 2.51
                            59 2.53  46 2.54  26 2.57  50 2.61
  12  0.583  0.166  0.194-  14 2.45  27 2.50  15 2.51  62 2.52  45 2.54  13 2.55  55 2.55   3 2.56
                            10 2.57  28 2.58  53 2.58  25 2.58
  13  0.415  0.083  0.292-   4 2.44  50 2.49  11 2.51  54 2.52  10 2.54  46 2.54  26 2.54  12 2.55
                            45 2.55  28 2.56  15 2.57  63 2.59
  14  0.827  0.167  0.193-  60 2.44  12 2.45  15 2.47  57 2.51  62 2.51  55 2.51  27 2.53  58 2.56
                            51 2.56   5 2.58  64 2.59   9 2.68
  15  0.668  0.082  0.290-   4 2.40  14 2.47  60 2.50  12 2.51  47 2.52  62 2.53  57 2.54   6 2.54
                            28 2.55  56 2.55  63 2.56  13 2.57
  16  0.003  0.511  0.095-  31 2.44  29 2.45  23 2.48  33 2.51  58 2.57  18 2.58  27 2.59  55 2.60
                            51 2.63
  17  0.005  0.500  0.377-  43 2.38  37 2.41  60 2.43  32 2.53  19 2.54  24 2.55  52 2.55  30 2.55
                            56 2.57
  18  0.256  0.506  0.097-  36 2.40  31 2.45  34 2.47  22 2.47  20 2.48   7 2.52  58 2.53  51 2.58
                            16 2.58
  19  0.250  0.489  0.385-  67 1.87  52 2.41   8 2.48  59 2.52  21 2.54  17 2.54  61 2.57  37 2.59
                            35 2.59  32 2.61
  20  0.500  0.503  0.098-  22 2.41  40 2.43  34 2.48  18 2.48  38 2.50  25 2.53   7 2.53  53 2.54
                            23 2.58
  21  0.504  0.496  0.376-  42 2.38  26 2.40  61 2.43  35 2.53  54 2.53  19 2.54   8 2.55  24 2.55
                            39 2.55
  22  0.339  0.416  0.189-  20 2.41   7 2.43  26 2.46  40 2.46  18 2.47  25 2.48  10 2.48  61 2.51
                            36 2.53  59 2.53   9 2.55  58 2.60
  23  0.757  0.508  0.096-  29 2.40  41 2.46  16 2.48  27 2.48  38 2.48  25 2.56  55 2.57  20 2.58
                            53 2.60
  24  0.752  0.495  0.394-  65 1.89  69 1.96  54 2.54  21 2.55  17 2.55  28 2.55  56 2.56  39 2.61
                            30 2.61  43 2.66  42 2.70
  25  0.586  0.422  0.194-  26 2.43  42 2.45  40 2.45  41 2.46  27 2.46  22 2.48  20 2.53  23 2.56
                            53 2.58  12 2.58  10 2.59  28 2.60
  26  0.417  0.335  0.285-  21 2.40  10 2.41  25 2.43  22 2.46  59 2.49  61 2.49   8 2.53  13 2.54
                            42 2.56  11 2.57  28 2.57  54 2.70
  27  0.827  0.417  0.192-  41 2.45  25 2.46  23 2.48  12 2.50  55 2.51  43 2.53  14 2.53  60 2.53
                            28 2.57  58 2.59  16 2.59  33 2.60
  28  0.670  0.334  0.294-  60 2.50  43 2.51  42 2.52  54 2.53  56 2.54  15 2.55  24 2.55  13 2.56
                            27 2.57  26 2.57  12 2.58  25 2.60
  29  0.992  0.747  0.096-  23 2.40  16 2.45  38 2.48  41 2.50   1 2.50  33 2.54  44 2.56  49 2.57
                            31 2.63
  30  0.010  0.754  0.388-  65 1.86  50 2.45  46 2.47  32 2.49   2 2.50  17 2.55  43 2.59  39 2.60
                            24 2.61  48 2.64
  31  0.251  0.746  0.097-  16 2.44  36 2.44  18 2.45  33 2.49  34 2.52   3 2.52  45 2.55  49 2.56
                            29 2.63
  32  0.253  0.749  0.389-  67 1.87  50 2.48  30 2.49   4 2.51  46 2.52  17 2.53  35 2.56  63 2.60
                            19 2.61  37 2.65
  33  0.086  0.671  0.192-  45 2.48  44 2.48  31 2.49  16 2.51  36 2.52  37 2.52  41 2.52  46 2.53
                            43 2.54  29 2.54  58 2.55  27 2.60
  34  0.502  0.749  0.098-  18 2.47   5 2.47  40 2.48  36 2.48  20 2.48  62 2.49  38 2.49  31 2.52
                             3 2.52
  35  0.506  0.746  0.385-  67 1.87  39 2.46  47 2.50   4 2.50   6 2.52  21 2.53  32 2.56  61 2.56
                            63 2.59  19 2.59
  36  0.330  0.661  0.190-  18 2.40  31 2.44  37 2.47  34 2.48  58 2.49  61 2.51  63 2.51  33 2.52
                            22 2.53  40 2.53  62 2.56  45 2.62
  37  0.170  0.578  0.286-  17 2.41  58 2.44  36 2.47  61 2.48  59 2.49  63 2.50  33 2.52  60 2.55
                            46 2.55  43 2.58  19 2.59  32 2.65
  38  0.748  0.749  0.094-  29 2.48  23 2.48  34 2.49  20 2.50   5 2.53  40 2.54  64 2.55   1 2.55
                            41 2.58
  39  0.751  0.751  0.388-  65 1.84   6 2.45  35 2.46   2 2.52  21 2.55  47 2.56  42 2.58  30 2.60
                            48 2.60  24 2.61
  40  0.580  0.661  0.192-  20 2.43  25 2.45  22 2.46  61 2.47  34 2.48  36 2.53  42 2.53  47 2.53
                            38 2.54  41 2.54  62 2.56  64 2.57
  41  0.832  0.662  0.193-  27 2.45  42 2.45  25 2.46  23 2.46  48 2.49  29 2.50  43 2.50  33 2.52
                            40 2.54  64 2.54  44 2.57  38 2.58
  42  0.673  0.584  0.288-  21 2.38  25 2.45  41 2.45  43 2.48  48 2.50  28 2.52  47 2.53  40 2.53
                            26 2.56  39 2.58  61 2.58  24 2.70
  43  0.917  0.582  0.289-  17 2.38  42 2.48  41 2.50  46 2.51  28 2.51  27 2.53  33 2.54  48 2.54
                            60 2.55  37 2.58  30 2.59  24 2.66
  44  0.086  0.916  0.194-  45 2.43  48 2.46   9 2.47  11 2.47  33 2.48  10 2.49   1 2.53  49 2.53
                            64 2.54  46 2.56  29 2.56  41 2.57
  45  0.327  0.919  0.193-  44 2.43  33 2.48  10 2.48  49 2.49  46 2.53  63 2.54  12 2.54  31 2.55
                            13 2.55   3 2.55  62 2.59  36 2.62
  46  0.167  0.829  0.292-  30 2.47  43 2.51  50 2.52  32 2.52  63 2.53  33 2.53  45 2.53  13 2.54
                            11 2.54  48 2.54  37 2.55  44 2.56
  47  0.665  0.830  0.288-  35 2.50  63 2.51  62 2.51  64 2.51  61 2.52  15 2.52   6 2.53  42 2.53
                            40 2.53  48 2.54  39 2.56  57 2.57
  48  0.918  0.834  0.286-  44 2.46  64 2.47   2 2.47  11 2.48  41 2.49  42 2.50  57 2.52  43 2.54
                            46 2.54  47 2.54  39 2.60  30 2.64
  49  0.249  0.998  0.096-  45 2.49   1 2.51  44 2.53   3 2.53  53 2.55  31 2.56  29 2.57  10 2.58
                             7 2.58
  50  0.254  0.994  0.389-  66 1.87  30 2.45  32 2.48  13 2.49  54 2.51  46 2.52   4 2.54   8 2.55
                             2 2.57  11 2.61
  51  0.001  0.250  0.097-   7 2.49  58 2.51   9 2.52   1 2.54  55 2.55  14 2.56  18 2.58   5 2.59
                            16 2.63
  52  0.011  0.251  0.381-  68 1.87  19 2.41  59 2.46   8 2.47  57 2.50   2 2.52  60 2.53  56 2.54
                            17 2.55   6 2.58
  53  0.499  0.252  0.095-  55 2.53   7 2.54  20 2.54  49 2.55   3 2.58  25 2.58  12 2.58  10 2.59
                            23 2.60
  54  0.499  0.245  0.390-  66 1.95  69 2.04   8 2.51  50 2.51  13 2.52  28 2.53  21 2.53  24 2.54
                             4 2.59  56 2.60  26 2.70
  55  0.749  0.251  0.096-  14 2.51  27 2.51  53 2.53   5 2.54  51 2.55   3 2.55  12 2.55  23 2.57
                            16 2.60
  56  0.756  0.244  0.389-  68 1.94  69 2.02   6 2.51  52 2.54  28 2.54  15 2.55   4 2.55  24 2.56
                            17 2.57  60 2.58  54 2.60
  57  0.920  0.084  0.286-  64 2.48  11 2.50  52 2.50   2 2.50  14 2.51  60 2.51   9 2.51  59 2.51
                            48 2.52  15 2.54   6 2.56  47 2.57
  58  0.083  0.417  0.192-  37 2.44  36 2.49  60 2.49  59 2.50  51 2.51  18 2.53  33 2.55  14 2.56
                            16 2.57  27 2.59  22 2.60   9 2.62
  59  0.170  0.332  0.286-  52 2.46  26 2.49  37 2.49  58 2.50  61 2.51  57 2.51  19 2.52   9 2.52
                             8 2.53  22 2.53  11 2.53  60 2.56
  60  0.915  0.329  0.287-  17 2.43  14 2.44  58 2.49  15 2.50  28 2.50  57 2.51  52 2.53  27 2.53
                            43 2.55  37 2.55  59 2.56  56 2.58
  61  0.416  0.581  0.286-  21 2.43  40 2.47  37 2.48  26 2.49  63 2.50  36 2.51  59 2.51  22 2.51
                            47 2.52  35 2.56  19 2.57  42 2.58
  62  0.582  0.915  0.192-  63 2.47  34 2.49   3 2.50  14 2.51  47 2.51   5 2.52  12 2.52  15 2.53
                            64 2.55  36 2.56  40 2.56  45 2.59
  63  0.416  0.828  0.286-   4 2.46  62 2.47  61 2.50  37 2.50  47 2.51  36 2.51  46 2.53  45 2.54
                            15 2.56  13 2.59  35 2.59  32 2.60
  64  0.834  0.915  0.192-  48 2.47  57 2.48   1 2.51  47 2.51   9 2.54  44 2.54  41 2.54  38 2.55
                            62 2.55  40 2.57   5 2.58  14 2.59
  65  0.842  0.678  0.442-  39 1.84  30 1.86  24 1.89
  66  0.316  0.163  0.441-   8 1.79  50 1.87  54 1.95
  67  0.337  0.658  0.439-  32 1.87  19 1.87  35 1.87
  68  0.851  0.154  0.439-   6 1.80  52 1.87  56 1.94
  69  0.671  0.326  0.455-  70 0.97  24 1.96  56 2.02  54 2.04
  70  0.675  0.326  0.500-  69 0.97
 

IMPORTANT INFORMATION: All symmetrisations will be switched off!
NOSYMM: (Re-)initialisation of all symmetry stuff for point group C_1.

 
 

Automatic generation of k-mesh.
 generate k-points for:    1    1    1
Space group operators:
 irot       det(A)        alpha          n_x          n_y          n_z        tau_x        tau_y        tau_z
    1     1.000000     0.000000     1.000000     0.000000     0.000000     0.000000     0.000000     0.000000
 
 Subroutine IBZKPT returns following result:
 ===========================================
 
 Found      1 irreducible k-points:
 
 Following reciprocal coordinates:
            Coordinates               Weight
  0.000000  0.000000  0.000000      1.000000
 
 Following cartesian coordinates:
            Coordinates               Weight
  0.000000  0.000000  0.000000      1.000000
 
 
 Subroutine IBZKPT_HF returns following result:
 ==============================================
 
 Found      1 k-points in 1st BZ
 the following      1 k-points will be used (e.g. in the exchange kernel)
 Following reciprocal coordinates:   # in IRBZ
  0.000000  0.000000  0.000000    1.00000000   1 t-inv F


--------------------------------------------------------------------------------------------------------




 Dimension of arrays:
   k-points           NKPTS =      1   k-points in BZ     NKDIM =      1   number of bands    NBANDS=    345
   number of dos      NEDOS =    301   number of ions     NIONS =     70
   non local maximal  LDIM  =      6   non local SUM 2l+1 LMDIM =     18
   total plane-waves  NPLWV = ******
   max r-space proj   IRMAX =   8269   max aug-charges    IRDMAX=  19568
   dimension x,y,z NGX =    80 NGY =   80 NGZ =  160
   dimension x,y,z NGXF=   160 NGYF=  160 NGZF=  320
   support grid    NGXF=   160 NGYF=  160 NGZF=  320
   ions per type =              48  16   5   1
   NGX,Y,Z   is equivalent  to a cutoff of  13.15, 13.15, 12.51 a.u.
   NGXF,Y,Z  is equivalent  to a cutoff of  26.31, 26.31, 25.02 a.u.

 SYSTEM =  SQS-NiFe                                
 POSCAR =  POSCAR                                  

 Startparameter for this run:
   NWRITE =      2    write-flag & timer
   PREC   = accura    normal or accurate (medium, high low for compatibility)
   ISTART =      0    job   : 0-new  1-cont  2-samecut
   ICHARG =      1    charge: 1-file 2-atom 10-const
   ISPIN  =      1    spin polarized calculation?
   LNONCOLLINEAR =      F non collinear calculations
   LSORBIT =      F    spin-orbit coupling
   INIWAV =      1    electr: 0-lowe 1-rand  2-diag
   LASPH  =      F    aspherical Exc in radial PAW
   METAGGA=      F    non-selfconsistent MetaGGA calc.

 Electronic Relaxation 1
   ENCUT  =  520.0 eV  38.22 Ry    6.18 a.u.  18.80 18.80 39.54*2*pi/ulx,y,z
   ENINI  =  520.0     initial cutoff
   ENAUG  =  605.4 eV  augmentation charge cutoff
   NELM   =    200;   NELMIN=  2; NELMDL= -5     # of ELM steps 
   EDIFF  = 0.1E-05   stopping-criterion for ELM
   LREAL  =      T    real-space projection
   NLSPLINE    = F    spline interpolate recip. space projectors
   LCOMPAT=      F    compatible to vasp.4.4
   GGA_COMPAT  = T    GGA compatible to vasp.4.4-vasp.4.6
   LMAXPAW     = -100 max onsite density
   LMAXMIX     =    2 max onsite mixed and CHGCAR
   VOSKOWN=      0    Vosko Wilk Nusair interpolation
   ROPT   =   -0.00025  -0.00025  -0.00025  -0.00025
 Ionic relaxation
   EDIFFG = -.2E-01   stopping-criterion for IOM
   NSW    =    877    number of steps for IOM
   NBLOCK =      1;   KBLOCK =    877    inner block; outer block 
   IBRION =      5    ionic relax: 0-MD 1-quasi-New 2-CG
   NFREE  =      2    steps in history (QN), initial steepest desc. (CG)
   ISIF   =      2    stress and relaxation
   IWAVPR =     11    prediction:  0-non 1-charg 2-wave 3-comb
   ISYM   =      0    0-nonsym 1-usesym 2-fastsym
   LCORR  =      T    Harris-Foulkes like correction to forces

   POTIM  = 0.0150    time-step for ionic-motion
   TEIN   =    0.0    initial temperature
   TEBEG  =    0.0;   TEEND  =   0.0 temperature during run
   SMASS  =  -3.00    Nose mass-parameter (am)
   estimated Nose-frequenzy (Omega)   =  0.10E-29 period in steps =****** mass=  -0.234E-26a.u.
   SCALEE = 1.0000    scale energy and forces
   NPACO  =    256;   APACO  = 16.0  distance and # of slots for P.C.
   PSTRESS=    0.0 pullay stress

  Mass of Ions in am
   POMASS =  55.85 58.69 16.00  1.00
  Ionic Valenz
   ZVAL   =   8.00 10.00  6.00  1.00
  Atomic Wigner-Seitz radii
   RWIGS  =  -1.00 -1.00 -1.00 -1.00
  virtual crystal weights 
   VCA    =   1.00  1.00  1.00  1.00
   NELECT =     575.0000    total number of electrons
   NUPDOWN=      -1.0000    fix difference up-down

 DOS related values:
   EMIN   =  10.00;   EMAX   =-10.00  energy-range for DOS
   EFERMI =   0.00
   ISMEAR =     0;   SIGMA  =   0.20  broadening in eV -4-tet -1-fermi 0-gaus

 Electronic relaxation 2 (details)
   IALGO  =     68    algorithm
   LDIAG  =      T    sub-space diagonalisation (order eigenvalues)
   LSUBROT=      F    optimize rotation matrix (better conditioning)
   TURBO    =      0    0=normal 1=particle mesh
   IRESTART =      0    0=no restart 2=restart with 2 vectors
   NREBOOT  =      0    no. of reboots
   NMIN     =      0    reboot dimension
   EREF     =   0.00    reference energy to select bands
   IMIX   =      4    mixing-type and parameters
     AMIX     =   0.40;   BMIX     =  1.00
     AMIX_MAG =   1.60;   BMIX_MAG =  1.00
     AMIN     =   0.10
     WC   =   100.;   INIMIX=   1;  MIXPRE=   1;  MAXMIX= -45

 Intra band minimization:
   WEIMIN = 0.0010     energy-eigenvalue tresh-hold
   EBREAK =  0.72E-09  absolut break condition
   DEPER  =   0.30     relativ break condition  

   TIME   =   0.40     timestep for ELM

  volume/ion in A,a.u.               =      26.90       181.54
  Fermi-wavevector in a.u.,A,eV,Ry     =   1.102406  2.083245 16.535148  1.215299
  Thomas-Fermi vector in A             =   2.238848
 
 Write flags
   LWAVE        =      F    write WAVECAR
   LDOWNSAMPLE  =      F    k-point downsampling of WAVECAR
   LCHARG       =      F    write CHGCAR
   LVTOT        =      F    write LOCPOT, total local potential
   LVHAR        =      F    write LOCPOT, Hartree potential only
   LELF         =      F    write electronic localiz. function (ELF)
   LORBIT       =     10    0 simple, 1 ext, 2 COOP (PROOUT), +10 PAW based schemes


 Dipole corrections
   LMONO  =      F    monopole corrections only (constant potential shift)
   LDIPOL =      F    correct potential (dipole corrections)
   IDIPOL =      0    1-x, 2-y, 3-z, 4-all directions 
   EPSILON=  1.0000000 bulk dielectric constant

 Exchange correlation treatment:
   GGA     =    --    GGA type
   LEXCH   =     8    internal setting for exchange type
   VOSKOWN=      0    Vosko Wilk Nusair interpolation
   LHFCALC =     F    Hartree Fock is set to
   LHFONE  =     F    Hartree Fock one center treatment
   AEXX    =    0.0000 exact exchange contribution

 Linear response parameters
   LEPSILON=     F    determine dielectric tensor
   LRPA    =     F    only Hartree local field effects (RPA)
   LNABLA  =     F    use nabla operator in PAW spheres
   LVEL    =     F    velocity operator in full k-point grid
   LINTERFAST=   F  fast interpolation
   KINTER  =     0    interpolate to denser k-point grid
   CSHIFT  =0.1000    complex shift for real part using Kramers Kronig
   OMEGAMAX=  -1.0    maximum frequency
   DEG_THRESHOLD= 0.2000000E-02 threshold for treating states as degnerate
   RTIME   =   -0.100 relaxation time in fs
  (WPLASMAI=    0.000 imaginary part of plasma frequency in eV, 0.658/RTIME)
   DFIELD  = 0.0000000 0.0000000 0.0000000 field for delta impulse in time
 
 Orbital magnetization related:
   ORBITALMAG=     F  switch on orbital magnetization
   LCHIMAG   =     F  perturbation theory with respect to B field
   DQ        =  0.001000  dq finite difference perturbation B field
   LLRAUG    =     F  two centre corrections for induced B field



--------------------------------------------------------------------------------------------------------


 finite differences
   using selective dynamics as specified on POSCAR
 charge density and potential will be updated during run
 non-spin polarized calculation
 RMM-DIIS sequential band-by-band and
  variant of blocked Davidson during initial phase
 perform sub-space diagonalisation
    before iterative eigenvector-optimisation
 modified Broyden-mixing scheme, WC =      100.0
 initial mixing is a Kerker type mixing with AMIX =  0.4000 and BMIX =      1.0000
 Hartree-type preconditioning will be used
 using additional bands           57
 real space projection scheme for non local part
 use partial core corrections
 calculate Harris-corrections to forces 
   (improved forces if not selfconsistent)
 use gradient corrections 
 use of overlap-Matrix (Vanderbilt PP)
 Gauss-broadening in eV      SIGMA  =   0.20


--------------------------------------------------------------------------------------------------------


  energy-cutoff  :      520.00
  volume of cell :     1883.07
      direct lattice vectors                 reciprocal lattice vectors
    10.111630000  0.000000000  0.000000000     0.098896024  0.057097646  0.000000000
    -5.055815000  8.756928450  0.000000000     0.000000000  0.114195292  0.000000000
     0.000000000  0.000000000 21.266430000     0.000000000  0.000000000  0.047022467

  length of vectors
    10.111630000 10.111629997 21.266430000     0.114195292  0.114195292  0.047022467


 
 k-points in units of 2pi/SCALE and weight: read from INCAR                         
   0.00000000  0.00000000  0.00000000       1.000
 
 k-points in reciprocal lattice and weights: read from INCAR                         
   0.00000000  0.00000000  0.00000000       1.000
 
 position of ions in fractional coordinates (direct lattice) 
   0.00194700  0.99920000  0.09682900
   0.00239520  0.99743360  0.38110470
   0.49880600  0.99647600  0.09614500
   0.50408417  0.99260766  0.37987200
   0.74316000  0.99645900  0.09443100
   0.75573886  0.99555891  0.38548495
   0.24913600  0.25322600  0.09681000
   0.25197968  0.24489887  0.38224190
   0.08873200  0.16149400  0.19059200
   0.32962600  0.16609800  0.19506300
   0.16484507  0.07884891  0.28892327
   0.58333000  0.16550300  0.19443700
   0.41495294  0.08276527  0.29199051
   0.82651500  0.16651000  0.19326300
   0.66836916  0.08156849  0.28967341
   0.00320800  0.51090900  0.09451300
   0.00501183  0.50044886  0.37670758
   0.25586900  0.50577700  0.09734600
   0.24987833  0.48893796  0.38528151
   0.49960200  0.50304900  0.09754100
   0.50397055  0.49617182  0.37557483
   0.33859900  0.41583700  0.18939300
   0.75679100  0.50804300  0.09630900
   0.75244721  0.49462623  0.39422314
   0.58633600  0.42229400  0.19423600
   0.41691978  0.33487749  0.28464790
   0.82677100  0.41676200  0.19199500
   0.67001017  0.33402359  0.29393337
   0.99180600  0.74702800  0.09571300
   0.00957453  0.75407878  0.38830735
   0.25104600  0.74563900  0.09703600
   0.25349490  0.74893127  0.38880810
   0.08604600  0.67086900  0.19220200
   0.50153700  0.74905700  0.09752900
   0.50562361  0.74632165  0.38544027
   0.33005900  0.66135600  0.19018600
   0.16987350  0.57834373  0.28572656
   0.74777500  0.74863100  0.09404500
   0.75122158  0.75147071  0.38760229
   0.58008200  0.66096300  0.19152700
   0.83213700  0.66199500  0.19303500
   0.67278122  0.58426161  0.28790791
   0.91740013  0.58246317  0.28914855
   0.08603600  0.91635500  0.19371200
   0.32743000  0.91932200  0.19293700
   0.16693514  0.82889141  0.29190892
   0.66516964  0.83047002  0.28802353
   0.91846202  0.83395249  0.28634886
   0.24916500  0.99813100  0.09559800
   0.25395395  0.99415545  0.38862501
   0.00129700  0.24974200  0.09658600
   0.01054918  0.25095977  0.38149475
   0.49933100  0.25162700  0.09537300
   0.49943323  0.24523300  0.38981162
   0.74944200  0.25071300  0.09573100
   0.75625020  0.24406771  0.38902278
   0.92020115  0.08405267  0.28609230
   0.08260800  0.41708000  0.19225300
   0.16958545  0.33179732  0.28609344
   0.91477262  0.32927695  0.28658473
   0.41611970  0.58088545  0.28598090
   0.58190700  0.91526900  0.19241300
   0.41575005  0.82763962  0.28630562
   0.83399900  0.91457100  0.19240400
   0.84174336  0.67762392  0.44155364
   0.31582843  0.16340837  0.44134211
   0.33666659  0.65760548  0.43918966
   0.85096961  0.15363135  0.43937594
   0.67133300  0.32623539  0.45470022
   0.67482002  0.32599878  0.50040310
 
 position of ions in cartesian coordinates  (Angst):
  -5.03208300  8.74992291  2.05920715
  -5.01862043  8.73445468  8.10473642
   0.00574341  8.72606903  2.04466091
   0.07867196  8.69219427  8.07852129
   2.47664659  8.72592017  2.00821025
   2.60839008  8.71803818  8.19788862
   1.23890724  2.21748196  2.05880309
   1.30976187  2.14456190  8.12892055
   0.08074137  1.41419140  4.05321143
   2.49329539  1.45450830  4.14829364
   1.26820689  0.69047424  6.14436656
   5.06166458  1.44929793  4.13498085
   3.77740474  0.72476954  6.20959578
   7.51557011  1.45811616  4.11001406
   6.34590640  0.71428945  6.16031940
  -2.55062328  4.47399356  2.00995410
  -2.47949909  4.38239484  8.01122531
   0.03013771  4.42905300  2.07020189
   0.05469740  4.28159473  8.19356229
   2.50846789  4.40516410  2.07434885
   2.58741079  4.34494117  7.98713584
   1.32139286  3.64145486  4.02771298
   5.08381916  4.44889620  2.04814861
   5.10772913  4.33140647  8.38371887
   3.79377235  3.69799834  4.13070630
   2.52265993  2.93249818  6.05344461
   6.25293088  3.64955501  4.08304823
   5.08613341  2.92502070  6.25091337
   6.25193994  6.54167075  2.03547381
  -3.71566874  6.60341396  8.25791101
  -1.23132858  6.52950737  2.06360930
  -1.22321132  6.55833754  8.26856032
  -2.52172424  5.87475183  4.08745038
   1.28426296  6.55943855  2.07409365
   1.33941469  6.53548531  8.19693852
  -0.00625910  5.79144717  4.04457726
  -1.20630094  5.06451469  6.07638379
   3.77628428  6.55570810  2.00000141
   3.79677774  6.58057526  8.24291698
   2.52386790  5.78800570  4.07309554
   5.06733720  5.79704285  4.10516532
   3.84899617  5.11633709  6.12277351
   6.33158462  5.10058829  6.14915740
  -3.76295716  8.02445517  4.11956269
  -1.33707095  8.05043698  4.10308120
  -2.50273531  7.25854278  6.20786054
   2.52724653  7.27236653  6.12523215
   5.07083858  7.30286231  6.08961789
  -2.52690139  8.74056175  2.03302818
  -2.45837767  8.70574815  8.26466650
  -1.24953457  2.18697282  2.05403941
  -1.16213675  2.19763679  8.11303142
   3.77687076  2.20347964  2.02824323
   3.81023139  2.14748780  8.28990147
   6.31052166  2.19547580  2.03585661
   6.41296100  2.13728350  8.27312581
   8.87977878  0.73604321  6.08416186
  -1.27337779  3.65233972  4.08853497
   0.03727939  2.90552542  6.08418601
   7.58507895  2.88345467  6.09463411
   1.27079901  5.08677236  6.08179288
   1.25659754  8.01494515  4.09193760
   0.01951787  7.24758095  6.08869838
   3.80918753  8.00883281  4.09174620
   5.08545628  5.93390414  9.39026949
   2.36737780  1.43095539  9.38577101
   0.07951635  5.75860410  9.33999614
   7.82795815  1.34533876  9.34395771
   5.13888518  2.85681995  9.66985029
   5.17534084  2.85474799 10.64178749
 


--------------------------------------------------------------------------------------------------------


 use parallel FFT for orbitals z direction half grid
 k-point  1 :   0.0000 0.0000 0.0000  plane waves:   25381

 maximum and minimum number of plane-waves per node :      1060     1055

 maximum number of plane-waves:     25381
 maximum index in each direction: 
   IXMAX=   18   IYMAX=   18   IZMAX=   39
   IXMIN=  -18   IYMIN=  -18   IZMIN=    0


 real space projection operators:
  total allocation   :      70058.59 KBytes
  max/ min on nodes  :       3501.51       2625.09


 parallel 3D FFT for wavefunctions:
    minimum data exchange during FFTs selected (reduces bandwidth)
 parallel 3D FFT for charge:
    minimum data exchange during FFTs selected (reduces bandwidth)


 total amount of memory used by VASP MPI-rank0    55433. kBytes
=======================================================================

   base      :      30000. kBytes
   nonlr-proj:       4281. kBytes
   fftplans  :       5965. kBytes
   grid      :      13166. kBytes
   one-center:         23. kBytes
   wavefun   :       1998. kBytes
 
     INWAV:  cpu time    0.0000: real time    0.0002
 Broyden mixing: mesh for mixing (old mesh)
   NGX = 37   NGY = 37   NGZ = 79
  (NGX  =160   NGY  =160   NGZ  =320)
  gives a total of 108151 points

 initial charge density was supplied:
 number of electron     575.0000075 magnetization 
 keeping initial charge density in first step


--------------------------------------------------------------------------------------------------------


 Maximum index for non-local projection operator          765
 Maximum index for augmentation-charges         1131 (set IRDMAX)


--------------------------------------------------------------------------------------------------------


 First call to EWALD:  gamma=   0.144
 Maximum number of real-space cells 4x 4x 2
 Maximum number of reciprocal cells 2x 2x 4

    FEWALD:  cpu time    0.0037: real time    0.0037


--------------------------------------- Iteration      1(   1)  ---------------------------------------


    POTLOK:  cpu time    0.1927: real time    0.2038
    SETDIJ:  cpu time    0.0420: real time    0.0421
     EDDAV:  cpu time    2.0712: real time    2.2104
       DOS:  cpu time    0.0058: real time    0.0058
    --------------------------------------------
      LOOP:  cpu time    2.3118: real time    2.4621

 eigenvalue-minimisations  :   690
 total energy-change (2. order) : 0.5444715E+04  (-0.2827458E+05)
 number of electron     575.0000075 magnetization 
 augmentation part      575.0000075 magnetization 

 Free energy of the ion-electron system (eV)
  ---------------------------------------------------
  alpha Z        PSCENC =      1551.50659219
  Ewald energy   TEWEN  =    174031.92055102
  -Hartree energ DENC   =   -221674.19913507
  -exchange      EXHF   =         0.00000000
  -V(xc)+E(xc)   XCENC  =       774.76090586
  PAW double counting   =     54782.79461542   -56326.44205804
  entropy T*S    EENTRO =        -0.53322696
  eigenvalues    EBANDS =      4360.88631461
  atomic energy  EATOM  =     47944.02028770
  Solvation  Ediel_sol  =         0.00000000
  ---------------------------------------------------
  free energy    TOTEN  =      5444.71484674 eV

  energy without entropy =     5445.24807370  energy(sigma->0) =     5444.98146022


--------------------------------------------------------------------------------------------------------




--------------------------------------- Iteration      1(   2)  ---------------------------------------


     EDDAV:  cpu time    1.9930: real time    2.0075
       DOS:  cpu time    0.0014: real time    0.0014
    --------------------------------------------
      LOOP:  cpu time    1.9944: real time    2.0089

 eigenvalue-minimisations  :   690
 total energy-change (2. order) :-0.5263237E+04  (-0.5149228E+04)
 number of electron     575.0000075 magnetization 
 augmentation part      575.0000075 magnetization 

 Free energy of the ion-electron system (eV)
  ---------------------------------------------------
  alpha Z        PSCENC =      1551.50659219
  Ewald energy   TEWEN  =    174031.92055102
  -Hartree energ DENC   =   -221674.19913507
  -exchange      EXHF   =         0.00000000
  -V(xc)+E(xc)   XCENC  =       774.76090586
  PAW double counting   =     54782.79461542   -56326.44205804
  entropy T*S    EENTRO =        -1.57391892
  eigenvalues    EBANDS =      -901.30972041
  atomic energy  EATOM  =     47944.02028770
  Solvation  Ediel_sol  =         0.00000000
  ---------------------------------------------------
  free energy    TOTEN  =       181.47811976 eV

  energy without entropy =      183.05203868  energy(sigma->0) =      182.26507922


--------------------------------------------------------------------------------------------------------




--------------------------------------- Iteration      1(   3)  ---------------------------------------


     EDDAV:  cpu time    2.1475: real time    2.1750
       DOS:  cpu time    0.0015: real time    0.0015
    --------------------------------------------
      LOOP:  cpu time    2.1490: real time    2.1765

 eigenvalue-minimisations  :   768
 total energy-change (2. order) :-0.5475999E+03  (-0.4899606E+03)
 number of electron     575.0000075 magnetization 
 augmentation part      575.0000075 magnetization 

 Free energy of the ion-electron system (eV)
  ---------------------------------------------------
  alpha Z        PSCENC =      1551.50659219
  Ewald energy   TEWEN  =    174031.92055102
  -Hartree energ DENC   =   -221674.19913507
  -exchange      EXHF   =         0.00000000
  -V(xc)+E(xc)   XCENC  =       774.76090586
  PAW double counting   =     54782.79461542   -56326.44205804
  entropy T*S    EENTRO =        -2.39878417
  eigenvalues    EBANDS =     -1448.08477859
  atomic energy  EATOM  =     47944.02028770
  Solvation  Ediel_sol  =         0.00000000
  ---------------------------------------------------
  free energy    TOTEN  =      -366.12180367 eV

  energy without entropy =     -363.72301950  energy(sigma->0) =     -364.92241159


--------------------------------------------------------------------------------------------------------




--------------------------------------- Iteration      1(   4)  ---------------------------------------


     EDDAV:  cpu time    3.3945: real time    3.4081
       DOS:  cpu time    0.0017: real time    0.0016
    --------------------------------------------
      LOOP:  cpu time    3.3962: real time    3.4098

 eigenvalue-minimisations  :  1353
 total energy-change (2. order) :-0.1081494E+03  (-0.1013056E+03)
 number of electron     575.0000075 magnetization 
 augmentation part      575.0000075 magnetization 

 Free energy of the ion-electron system (eV)
  ---------------------------------------------------
  alpha Z        PSCENC =      1551.50659219
  Ewald energy   TEWEN  =    174031.92055102
  -Hartree energ DENC   =   -221674.19913507
  -exchange      EXHF   =         0.00000000
  -V(xc)+E(xc)   XCENC  =       774.76090586
  PAW double counting   =     54782.79461542   -56326.44205804
  entropy T*S    EENTRO =        -2.88105547
  eigenvalues    EBANDS =     -1555.75191937
  atomic energy  EATOM  =     47944.02028770
  Solvation  Ediel_sol  =         0.00000000
  ---------------------------------------------------
  free energy    TOTEN  =      -474.27121575 eV

  energy without entropy =     -471.39016028  energy(sigma->0) =     -472.83068802


--------------------------------------------------------------------------------------------------------




--------------------------------------- Iteration      1(   5)  ---------------------------------------


     EDDAV:  cpu time    3.0006: real time    3.0153
       DOS:  cpu time    0.0015: real time    0.0015
    CHARGE:  cpu time    0.1187: real time    0.1187
    MIXING:  cpu time    0.0180: real time    0.0181
    --------------------------------------------
      LOOP:  cpu time    3.1389: real time    3.1537

 eigenvalue-minimisations  :  1182
 total energy-change (2. order) :-0.1341115E+02  (-0.1265806E+02)
 number of electron     575.0000074 magnetization 
 augmentation part      298.5226172 magnetization 

 Broyden mixing:
  rms(total) = 0.32503E+01    rms(broyden)= 0.32500E+01
  rms(prec ) = 0.34805E+01
  weight for this iteration     100.00

 Free energy of the ion-electron system (eV)
  ---------------------------------------------------
  alpha Z        PSCENC =      1551.50659219
  Ewald energy   TEWEN  =    174031.92055102
  -Hartree energ DENC   =   -221674.19913507
  -exchange      EXHF   =         0.00000000
  -V(xc)+E(xc)   XCENC  =       774.76090586
  PAW double counting   =     54782.79461542   -56326.44205804
  entropy T*S    EENTRO =        -3.00939081
  eigenvalues    EBANDS =     -1569.03473571
  atomic energy  EATOM  =     47944.02028770
  Solvation  Ediel_sol  =         0.00000000
  ---------------------------------------------------
  free energy    TOTEN  =      -487.68236743 eV

  energy without entropy =     -484.67297663  energy(sigma->0) =     -486.17767203


--------------------------------------------------------------------------------------------------------




--------------------------------------- Iteration      1(   6)  ---------------------------------------


    POTLOK:  cpu time    0.1994: real time    0.2001
    SETDIJ:  cpu time    0.0109: real time    0.0109
    EDDIAG:  cpu time    0.2938: real time    0.2938
  RMM-DIIS:  cpu time    1.7676: real time    1.7681
    ORTHCH:  cpu time    0.0595: real time    0.0595
       DOS:  cpu time    0.0028: real time    0.0028
    CHARGE:  cpu time    0.0999: real time    0.0999
    MIXING:  cpu time    0.0057: real time    0.0057
    --------------------------------------------
      LOOP:  cpu time    2.4395: real time    2.4407

 eigenvalue-minimisations  :   859
 total energy-change (2. order) :-0.1938545E+03  (-0.3587619E+02)
 number of electron     575.0000069 magnetization 
 augmentation part      310.6284356 magnetization 

 Broyden mixing:
  rms(total) = 0.15597E+02    rms(broyden)= 0.15597E+02
  rms(prec ) = 0.18285E+02
  weight for this iteration     100.00

 eigenvalues of (default mixing * dielectric matrix)
  average eigenvalue GAMMA=   0.1397
  0.1397

 Free energy of the ion-electron system (eV)
  ---------------------------------------------------
  alpha Z        PSCENC =      1551.50659219
  Ewald energy   TEWEN  =    174031.92055102
  -Hartree energ DENC   =   -221443.41938545
  -exchange      EXHF   =         0.00000000
  -V(xc)+E(xc)   XCENC  =       770.05977391
  PAW double counting   =     53914.90724963   -55417.47093127
  entropy T*S    EENTRO =        -1.21315181
  eigenvalues    EBANDS =     -2031.84788818
  atomic energy  EATOM  =     47944.02028770
  Solvation  Ediel_sol  =         0.00000000
  ---------------------------------------------------
  free energy    TOTEN  =      -681.53690225 eV

  energy without entropy =     -680.32375044  energy(sigma->0) =     -680.93032635


--------------------------------------------------------------------------------------------------------




--------------------------------------- Iteration      1(   7)  ---------------------------------------


    POTLOK:  cpu time    0.1960: real time    0.1977
    SETDIJ:  cpu time    0.0108: real time    0.0108
    EDDIAG:  cpu time    0.2925: real time    0.2925
  RMM-DIIS:  cpu time    1.4152: real time    1.4154
    ORTHCH:  cpu time    0.0596: real time    0.0596
       DOS:  cpu time    0.0031: real time    0.0031
    CHARGE:  cpu time    0.1048: real time    0.1048
    MIXING:  cpu time    0.0035: real time    0.0035
    --------------------------------------------
      LOOP:  cpu time    2.0855: real time    2.0874

 eigenvalue-minimisations  :   691
 total energy-change (2. order) : 0.1659583E+03  (-0.1907939E+02)
 number of electron     575.0000069 magnetization 
 augmentation part      302.3747672 magnetization 

 Broyden mixing:
  rms(total) = 0.74997E+01    rms(broyden)= 0.74993E+01
  rms(prec ) = 0.92499E+01
  weight for this iteration     100.00

 eigenvalues of (default mixing * dielectric matrix)
  average eigenvalue GAMMA=   0.1287
  0.1753  0.0821

 Free energy of the ion-electron system (eV)
  ---------------------------------------------------
  alpha Z        PSCENC =      1551.50659219
  Ewald energy   TEWEN  =    174031.92055102
  -Hartree energ DENC   =   -221617.92300506
  -exchange      EXHF   =         0.00000000
  -V(xc)+E(xc)   XCENC  =       771.57534922
  PAW double counting   =     54042.62377358   -55559.18648650
  entropy T*S    EENTRO =        -2.28103366
  eigenvalues    EBANDS =     -1677.83462386
  atomic energy  EATOM  =     47944.02028770
  Solvation  Ediel_sol  =         0.00000000
  ---------------------------------------------------
  free energy    TOTEN  =      -515.57859536 eV

  energy without entropy =     -513.29756171  energy(sigma->0) =     -514.43807853


--------------------------------------------------------------------------------------------------------




--------------------------------------- Iteration      1(   8)  ---------------------------------------


    POTLOK:  cpu time    0.1877: real time    0.2009
    SETDIJ:  cpu time    0.0108: real time    0.0108
    EDDIAG:  cpu time    0.2919: real time    0.2919
  RMM-DIIS:  cpu time    1.4426: real time    1.4428
    ORTHCH:  cpu time    0.0597: real time    0.0597
       DOS:  cpu time    0.0026: real time    0.0026
    CHARGE:  cpu time    0.1073: real time    0.1073
    MIXING:  cpu time    0.0037: real time    0.0037
    --------------------------------------------
      LOOP:  cpu time    2.1062: real time    2.1197

 eigenvalue-minimisations  :   708
 total energy-change (2. order) : 0.2041765E+02  (-0.4613007E+01)
 number of electron     575.0000079 magnetization 
 augmentation part      300.2301992 magnetization 

 Broyden mixing:
  rms(total) = 0.49169E+01    rms(broyden)= 0.49166E+01
  rms(prec ) = 0.62935E+01
  weight for this iteration     100.00

 eigenvalues of (default mixing * dielectric matrix)
  average eigenvalue GAMMA=   0.1609
  0.3153  0.0837  0.0837

 Free energy of the ion-electron system (eV)
  ---------------------------------------------------
  alpha Z        PSCENC =      1551.50659219
  Ewald energy   TEWEN  =    174031.92055102
  -Hartree energ DENC   =   -221667.50387197
  -exchange      EXHF   =         0.00000000
  -V(xc)+E(xc)   XCENC  =       772.14598146
  PAW double counting   =     54047.38038862   -55568.27265975
  entropy T*S    EENTRO =        -2.64224915
  eigenvalues    EBANDS =     -1603.71596578
  atomic energy  EATOM  =     47944.02028770
  Solvation  Ediel_sol  =         0.00000000
  ---------------------------------------------------
  free energy    TOTEN  =      -495.16094565 eV

  energy without entropy =     -492.51869650  energy(sigma->0) =     -493.83982108


--------------------------------------------------------------------------------------------------------




--------------------------------------- Iteration      1(   9)  ---------------------------------------


    POTLOK:  cpu time    0.1868: real time    0.2011
    SETDIJ:  cpu time    0.0108: real time    0.0108
    EDDIAG:  cpu time    0.2998: real time    0.2998
  RMM-DIIS:  cpu time    1.6068: real time    1.6071
    ORTHCH:  cpu time    0.0591: real time    0.0591
       DOS:  cpu time    0.0027: real time    0.0027
    CHARGE:  cpu time    0.1089: real time    0.1089
    MIXING:  cpu time    0.0037: real time    0.0037
    --------------------------------------------
      LOOP:  cpu time    2.2787: real time    2.2933

 eigenvalue-minimisations  :   794
 total energy-change (2. order) :-0.2738265E+01  (-0.3823038E+01)
 number of electron     575.0000071 magnetization 
 augmentation part      300.4001516 magnetization 

 Broyden mixing:
  rms(total) = 0.52445E+01    rms(broyden)= 0.52443E+01
  rms(prec ) = 0.72176E+01
  weight for this iteration     100.00

 eigenvalues of (default mixing * dielectric matrix)
  average eigenvalue GAMMA=   0.2540
  0.7533  0.1054  0.1054  0.0516

 Free energy of the ion-electron system (eV)
  ---------------------------------------------------
  alpha Z        PSCENC =      1551.50659219
  Ewald energy   TEWEN  =    174031.92055102
  -Hartree energ DENC   =   -221648.77430631
  -exchange      EXHF   =         0.00000000
  -V(xc)+E(xc)   XCENC  =       772.90882345
  PAW double counting   =     54003.74260455   -55527.55617501
  entropy T*S    EENTRO =        -2.68495555
  eigenvalues    EBANDS =     -1622.98263295
  atomic energy  EATOM  =     47944.02028770
  Solvation  Ediel_sol  =         0.00000000
  ---------------------------------------------------
  free energy    TOTEN  =      -497.89921090 eV

  energy without entropy =     -495.21425535  energy(sigma->0) =     -496.55673312


--------------------------------------------------------------------------------------------------------




--------------------------------------- Iteration      1(  10)  ---------------------------------------


    POTLOK:  cpu time    0.1851: real time    0.1998
    SETDIJ:  cpu time    0.0108: real time    0.0108
    EDDIAG:  cpu time    0.2948: real time    0.2948
  RMM-DIIS:  cpu time    1.4835: real time    1.4837
    ORTHCH:  cpu time    0.0601: real time    0.0601
       DOS:  cpu time    0.0025: real time    0.0025
    CHARGE:  cpu time    0.1069: real time    0.1070
    MIXING:  cpu time    0.0039: real time    0.0039
    --------------------------------------------
      LOOP:  cpu time    2.1475: real time    2.1625

 eigenvalue-minimisations  :   730
 total energy-change (2. order) :-0.9941016E+01  (-0.3120307E+01)
 number of electron     575.0000079 magnetization 
 augmentation part      299.6915585 magnetization 

 Broyden mixing:
  rms(total) = 0.78667E+01    rms(broyden)= 0.78665E+01
  rms(prec ) = 0.96965E+01
  weight for this iteration     100.00

 eigenvalues of (default mixing * dielectric matrix)
  average eigenvalue GAMMA=   0.3773
  1.5428  0.1238  0.0885  0.0885  0.0428

 Free energy of the ion-electron system (eV)
  ---------------------------------------------------
  alpha Z        PSCENC =      1551.50659219
  Ewald energy   TEWEN  =    174031.92055102
  -Hartree energ DENC   =   -221665.01617646
  -exchange      EXHF   =         0.00000000
  -V(xc)+E(xc)   XCENC  =       773.61379715
  PAW double counting   =     53888.26169415   -55412.61663990
  entropy T*S    EENTRO =        -2.62998911
  eigenvalues    EBANDS =     -1616.90034342
  atomic energy  EATOM  =     47944.02028770
  Solvation  Ediel_sol  =         0.00000000
  ---------------------------------------------------
  free energy    TOTEN  =      -507.84022667 eV

  energy without entropy =     -505.21023756  energy(sigma->0) =     -506.52523212


--------------------------------------------------------------------------------------------------------




--------------------------------------- Iteration      1(  11)  ---------------------------------------


    POTLOK:  cpu time    0.1860: real time    0.1995
    SETDIJ:  cpu time    0.0107: real time    0.0107
    EDDIAG:  cpu time    0.2932: real time    0.2936
  RMM-DIIS:  cpu time    1.4176: real time    1.4187
    ORTHCH:  cpu time    0.0592: real time    0.0592
       DOS:  cpu time    0.0033: real time    0.0033
    CHARGE:  cpu time    0.1064: real time    0.1064
    MIXING:  cpu time    0.0039: real time    0.0039
    --------------------------------------------
      LOOP:  cpu time    2.0803: real time    2.0953

 eigenvalue-minimisations  :   697
 total energy-change (2. order) : 0.1514000E+02  (-0.2706191E+01)
 number of electron     575.0000068 magnetization 
 augmentation part      300.0717413 magnetization 

 Broyden mixing:
  rms(total) = 0.38430E+01    rms(broyden)= 0.38426E+01
  rms(prec ) = 0.44742E+01
  weight for this iteration     100.00

 eigenvalues of (default mixing * dielectric matrix)
  average eigenvalue GAMMA=   0.3574
  1.6858  0.1296  0.1296  0.0777  0.0777  0.0443

 Free energy of the ion-electron system (eV)
  ---------------------------------------------------
  alpha Z        PSCENC =      1551.50659219
  Ewald energy   TEWEN  =    174031.92055102
  -Hartree energ DENC   =   -221684.91380270
  -exchange      EXHF   =         0.00000000
  -V(xc)+E(xc)   XCENC  =       773.64625101
  PAW double counting   =     53590.20993397   -55106.79010288
  entropy T*S    EENTRO =        -2.83191200
  eigenvalues    EBANDS =     -1589.46802708
  atomic energy  EATOM  =     47944.02028770
  Solvation  Ediel_sol  =         0.00000000
  ---------------------------------------------------
  free energy    TOTEN  =      -492.70022877 eV

  energy without entropy =     -489.86831676  energy(sigma->0) =     -491.28427277


--------------------------------------------------------------------------------------------------------




--------------------------------------- Iteration      1(  12)  ---------------------------------------


    POTLOK:  cpu time    0.2002: real time    0.2010
    SETDIJ:  cpu time    0.0109: real time    0.0109
    EDDIAG:  cpu time    0.2925: real time    0.2926
  RMM-DIIS:  cpu time    1.4495: real time    1.4497
    ORTHCH:  cpu time    0.0597: real time    0.0597
       DOS:  cpu time    0.0030: real time    0.0030
    CHARGE:  cpu time    0.1068: real time    0.1068
    MIXING:  cpu time    0.0041: real time    0.0041
    --------------------------------------------
      LOOP:  cpu time    2.1267: real time    2.1279

 eigenvalue-minimisations  :   711
 total energy-change (2. order) : 0.4341859E+01  (-0.9506300E+00)
 number of electron     575.0000075 magnetization 
 augmentation part      300.3127543 magnetization 

 Broyden mixing:
  rms(total) = 0.23652E+01    rms(broyden)= 0.23650E+01
  rms(prec ) = 0.26899E+01
  weight for this iteration     100.00

 eigenvalues of (default mixing * dielectric matrix)
  average eigenvalue GAMMA=   0.3778
  1.9454  0.2745  0.1391  0.0435  0.0832  0.0832  0.0760

 Free energy of the ion-electron system (eV)
  ---------------------------------------------------
  alpha Z        PSCENC =      1551.50659219
  Ewald energy   TEWEN  =    174031.92055102
  -Hartree energ DENC   =   -221664.98731440
  -exchange      EXHF   =         0.00000000
  -V(xc)+E(xc)   XCENC  =       773.66915987
  PAW double counting   =     53525.26364670   -55040.39057482
  entropy T*S    EENTRO =        -3.02460193
  eigenvalues    EBANDS =     -1606.33611655
  atomic energy  EATOM  =     47944.02028770
  Solvation  Ediel_sol  =         0.00000000
  ---------------------------------------------------
  free energy    TOTEN  =      -488.35837022 eV

  energy without entropy =     -485.33376829  energy(sigma->0) =     -486.84606925


--------------------------------------------------------------------------------------------------------




--------------------------------------- Iteration      1(  13)  ---------------------------------------


    POTLOK:  cpu time    0.1901: real time    0.2016
    SETDIJ:  cpu time    0.0107: real time    0.0107
    EDDIAG:  cpu time    0.2966: real time    0.2966
  RMM-DIIS:  cpu time    1.4502: real time    1.4508
    ORTHCH:  cpu time    0.0610: real time    0.0610
       DOS:  cpu time    0.0024: real time    0.0024
    CHARGE:  cpu time    0.1064: real time    0.1064
    MIXING:  cpu time    0.0042: real time    0.0042
    --------------------------------------------
      LOOP:  cpu time    2.1216: real time    2.1337

 eigenvalue-minimisations  :   715
 total energy-change (2. order) :-0.2553245E+00  (-0.7474808E+00)
 number of electron     575.0000073 magnetization 
 augmentation part      300.3424677 magnetization 

 Broyden mixing:
  rms(total) = 0.25879E+01    rms(broyden)= 0.25878E+01
  rms(prec ) = 0.29954E+01
  weight for this iteration     100.00

 eigenvalues of (default mixing * dielectric matrix)
  average eigenvalue GAMMA=   0.4156
  2.3275  0.4570  0.1438  0.1131  0.0873  0.0873  0.0436  0.0654

 Free energy of the ion-electron system (eV)
  ---------------------------------------------------
  alpha Z        PSCENC =      1551.50659219
  Ewald energy   TEWEN  =    174031.92055102
  -Hartree energ DENC   =   -221667.06012790
  -exchange      EXHF   =         0.00000000
  -V(xc)+E(xc)   XCENC  =       773.60600085
  PAW double counting   =     53407.57146318   -54920.64430117
  entropy T*S    EENTRO =        -3.13386275
  eigenvalues    EBANDS =     -1606.40029788
  atomic energy  EATOM  =     47944.02028770
  Solvation  Ediel_sol  =         0.00000000
  ---------------------------------------------------
  free energy    TOTEN  =      -488.61369475 eV

  energy without entropy =     -485.47983200  energy(sigma->0) =     -487.04676338


--------------------------------------------------------------------------------------------------------




--------------------------------------- Iteration      1(  14)  ---------------------------------------


    POTLOK:  cpu time    0.1867: real time    0.2013
    SETDIJ:  cpu time    0.0108: real time    0.0108
    EDDIAG:  cpu time    0.2942: real time    0.2942
  RMM-DIIS:  cpu time    1.4419: real time    1.4423
    ORTHCH:  cpu time    0.0587: real time    0.0587
       DOS:  cpu time    0.0037: real time    0.0037
    CHARGE:  cpu time    0.1069: real time    0.1070
    MIXING:  cpu time    0.0043: real time    0.0043
    --------------------------------------------
      LOOP:  cpu time    2.1072: real time    2.1223

 eigenvalue-minimisations  :   712
 total energy-change (2. order) : 0.7586993E+00  (-0.4860711E+00)
 number of electron     575.0000075 magnetization 
 augmentation part      300.4400359 magnetization 

 Broyden mixing:
  rms(total) = 0.21889E+01    rms(broyden)= 0.21887E+01
  rms(prec ) = 0.25563E+01
  weight for this iteration     100.00

 eigenvalues of (default mixing * dielectric matrix)
  average eigenvalue GAMMA=   0.4127
  2.5255  0.5022  0.1946  0.1107  0.1107  0.0824  0.0824  0.0436  0.0620

 Free energy of the ion-electron system (eV)
  ---------------------------------------------------
  alpha Z        PSCENC =      1551.50659219
  Ewald energy   TEWEN  =    174031.92055102
  -Hartree energ DENC   =   -221669.69043861
  -exchange      EXHF   =         0.00000000
  -V(xc)+E(xc)   XCENC  =       773.39851859
  PAW double counting   =     53255.03809559   -54765.08308277
  entropy T*S    EENTRO =        -3.17401956
  eigenvalues    EBANDS =     -1605.79149958
  atomic energy  EATOM  =     47944.02028770
  Solvation  Ediel_sol  =         0.00000000
  ---------------------------------------------------
  free energy    TOTEN  =      -487.85499542 eV

  energy without entropy =     -484.68097586  energy(sigma->0) =     -486.26798564


--------------------------------------------------------------------------------------------------------




--------------------------------------- Iteration      1(  15)  ---------------------------------------


    POTLOK:  cpu time    0.1872: real time    0.1992
    SETDIJ:  cpu time    0.0108: real time    0.0108
    EDDIAG:  cpu time    0.2917: real time    0.2917
  RMM-DIIS:  cpu time    1.4991: real time    1.4993
    ORTHCH:  cpu time    0.0588: real time    0.0587
       DOS:  cpu time    0.0034: real time    0.0034
    CHARGE:  cpu time    0.1067: real time    0.1068
    MIXING:  cpu time    0.0045: real time    0.0045
    --------------------------------------------
      LOOP:  cpu time    2.1630: real time    2.1745

 eigenvalue-minimisations  :   732
 total energy-change (2. order) : 0.1345456E+01  (-0.2493424E+00)
 number of electron     575.0000073 magnetization 
 augmentation part      300.4107760 magnetization 

 Broyden mixing:
  rms(total) = 0.13237E+01    rms(broyden)= 0.13236E+01
  rms(prec ) = 0.15521E+01
  weight for this iteration     100.00

 eigenvalues of (default mixing * dielectric matrix)
  average eigenvalue GAMMA=   0.3913
  2.5823  0.4585  0.2718  0.1258  0.1258  0.0436  0.0828  0.0828  0.0772  0.0625

 Free energy of the ion-electron system (eV)
  ---------------------------------------------------
  alpha Z        PSCENC =      1551.50659219
  Ewald energy   TEWEN  =    174031.92055102
  -Hartree energ DENC   =   -221667.45067130
  -exchange      EXHF   =         0.00000000
  -V(xc)+E(xc)   XCENC  =       773.31065392
  PAW double counting   =     53176.36288788   -54684.81434426
  entropy T*S    EENTRO =        -3.18079240
  eigenvalues    EBANDS =     -1608.18470386
  atomic energy  EATOM  =     47944.02028770
  Solvation  Ediel_sol  =         0.00000000
  ---------------------------------------------------
  free energy    TOTEN  =      -486.50953910 eV

  energy without entropy =     -483.32874670  energy(sigma->0) =     -484.91914290


--------------------------------------------------------------------------------------------------------




--------------------------------------- Iteration      1(  16)  ---------------------------------------


    POTLOK:  cpu time    0.1871: real time    0.2017
    SETDIJ:  cpu time    0.0108: real time    0.0108
    EDDIAG:  cpu time    0.2910: real time    0.2913
  RMM-DIIS:  cpu time    1.5061: real time    1.5078
    ORTHCH:  cpu time    0.0583: real time    0.0583
       DOS:  cpu time    0.0038: real time    0.0038
    CHARGE:  cpu time    0.1074: real time    0.1074
    MIXING:  cpu time    0.0046: real time    0.0046
    --------------------------------------------
      LOOP:  cpu time    2.1683: real time    2.1857

 eigenvalue-minimisations  :   745
 total energy-change (2. order) : 0.2350359E+00  (-0.1077970E+00)
 number of electron     575.0000073 magnetization 
 augmentation part      300.4896500 magnetization 

 Broyden mixing:
  rms(total) = 0.11511E+01    rms(broyden)= 0.11511E+01
  rms(prec ) = 0.13337E+01
  weight for this iteration     100.00

 eigenvalues of (default mixing * dielectric matrix)
  average eigenvalue GAMMA=   0.3947
  2.6549  0.4852  0.4852  0.1433  0.1433  0.0932  0.0842  0.0842  0.0436  0.0655
  0.0591

 Free energy of the ion-electron system (eV)
  ---------------------------------------------------
  alpha Z        PSCENC =      1551.50659219
  Ewald energy   TEWEN  =    174031.92055102
  -Hartree energ DENC   =   -221665.15254993
  -exchange      EXHF   =         0.00000000
  -V(xc)+E(xc)   XCENC  =       773.24911338
  PAW double counting   =     53145.19618035   -54652.62161264
  entropy T*S    EENTRO =        -3.24850369
  eigenvalues    EBANDS =     -1611.14456155
  atomic energy  EATOM  =     47944.02028770
  Solvation  Ediel_sol  =         0.00000000
  ---------------------------------------------------
  free energy    TOTEN  =      -486.27450318 eV

  energy without entropy =     -483.02599948  energy(sigma->0) =     -484.65025133


--------------------------------------------------------------------------------------------------------




--------------------------------------- Iteration      1(  17)  ---------------------------------------


    POTLOK:  cpu time    0.1870: real time    0.1998
    SETDIJ:  cpu time    0.0107: real time    0.0107
    EDDIAG:  cpu time    0.2930: real time    0.2930
  RMM-DIIS:  cpu time    1.5262: real time    1.5264
    ORTHCH:  cpu time    0.0596: real time    0.0596
       DOS:  cpu time    0.0027: real time    0.0027
    CHARGE:  cpu time    0.1065: real time    0.1065
    MIXING:  cpu time    0.0051: real time    0.0051
    --------------------------------------------
      LOOP:  cpu time    2.1906: real time    2.2037

 eigenvalue-minimisations  :   748
 total energy-change (2. order) : 0.4645601E-01  (-0.9080888E-01)
 number of electron     575.0000073 magnetization 
 augmentation part      300.6348851 magnetization 

 Broyden mixing:
  rms(total) = 0.10912E+01    rms(broyden)= 0.10912E+01
  rms(prec ) = 0.12456E+01
  weight for this iteration     100.00

 eigenvalues of (default mixing * dielectric matrix)
  average eigenvalue GAMMA=   0.3969
  2.7199  0.6070  0.6070  0.1523  0.1523  0.1040  0.0851  0.0851  0.0895  0.0436
  0.0623  0.0543

 Free energy of the ion-electron system (eV)
  ---------------------------------------------------
  alpha Z        PSCENC =      1551.50659219
  Ewald energy   TEWEN  =    174031.92055102
  -Hartree energ DENC   =   -221663.22173327
  -exchange      EXHF   =         0.00000000
  -V(xc)+E(xc)   XCENC  =       773.16906633
  PAW double counting   =     53100.59815525   -54606.37240864
  entropy T*S    EENTRO =        -3.25224120
  eigenvalues    EBANDS =     -1614.59631656
  atomic energy  EATOM  =     47944.02028770
  Solvation  Ediel_sol  =         0.00000000
  ---------------------------------------------------
  free energy    TOTEN  =      -486.22804717 eV

  energy without entropy =     -482.97580597  energy(sigma->0) =     -484.60192657


--------------------------------------------------------------------------------------------------------




--------------------------------------- Iteration      1(  18)  ---------------------------------------


    POTLOK:  cpu time    0.1865: real time    0.2005
    SETDIJ:  cpu time    0.0107: real time    0.0107
    EDDIAG:  cpu time    0.2912: real time    0.2912
[...]
      0.078672  8.692194  8.078521            0           0           0  
      2.476647  8.725920  2.008210            0           0           0  
      2.608390  8.718038  8.197889            0           0           0  
      1.238907  2.217482  2.058803            0           0           0  
      1.309762  2.144562  8.128921            0           0           0  
      0.080741  1.414191  4.053211            0           0           0  
      2.493295  1.454508  4.148294            0           0           0  
      1.268207  0.690474  6.144367            0           0           0  
      5.061665  1.449298  4.134981            0           0           0  
      3.777405  0.724770  6.209596            0           0           0  
      7.515570  1.458116  4.110014            0           0           0  
      6.345906  0.714289  6.160319            0           0           0  
     -2.550623  4.473994  2.009954            0           0           0  
     -2.479499  4.382395  8.011225            0           0           0  
      0.030138  4.429053  2.070202            0           0           0  
      0.054697  4.281595  8.193562            0           0           0  
      2.508468  4.405164  2.074349            0           0           0  
      2.587411  4.344941  7.987136            0           0           0  
      1.321393  3.641455  4.027713            0           0           0  
      5.083819  4.448896  2.048149            0           0           0  
      5.107729  4.331406  8.383719            0           0           0  
      3.793772  3.697998  4.130706            0           0           0  
      2.522660  2.932498  6.053445            0           0           0  
      6.252931  3.649555  4.083048            0           0           0  
      5.086133  2.925021  6.250913            0           0           0  
      6.251940  6.541671  2.035474            0           0           0  
     -3.715669  6.603414  8.257911            0           0           0  
     -1.231329  6.529507  2.063609            0           0           0  
     -1.223211  6.558338  8.268560            0           0           0  
     -2.521724  5.874752  4.087450            0           0           0  
      1.284263  6.559439  2.074094            0           0           0  
      1.339415  6.535485  8.196939            0           0           0  
     -0.006259  5.791447  4.044577            0           0           0  
     -1.206301  5.064515  6.076384            0           0           0  
      3.776284  6.555708  2.000001            0           0           0  
      3.796778  6.580575  8.242917            0           0           0  
      2.523868  5.788006  4.073096            0           0           0  
      5.067337  5.797043  4.105165            0           0           0  
      3.848996  5.116337  6.122774            0           0           0  
      6.331585  5.100588  6.149157            0           0           0  
     -3.762957  8.024455  4.119563            0           0           0  
     -1.337071  8.050437  4.103081            0           0           0  
     -2.502735  7.258543  6.207861            0           0           0  
      2.527247  7.272367  6.125232            0           0           0  
      5.070839  7.302862  6.089618            0           0           0  
     -2.526901  8.740562  2.033028            0           0           0  
     -2.458378  8.705748  8.264667            0           0           0  
     -1.249535  2.186973  2.054039            0           0           0  
     -1.162137  2.197637  8.113031            0           0           0  
      3.776871  2.203480  2.028243            0           0           0  
      3.810231  2.147488  8.289901            0           0           0  
      6.310522  2.195476  2.035857            0           0           0  
      6.412961  2.137284  8.273126            0           0           0  
      8.879779  0.736043  6.084162            0           0           0  
     -1.273378  3.652340  4.088535            0           0           0  
      0.037279  2.905525  6.084186            0           0           0  
      7.585079  2.883455  6.094634            0           0           0  
      1.270799  5.086772  6.081793            0           0           0  
      1.256598  8.014945  4.091938            0           0           0  
      0.019518  7.247581  6.088698            0           0           0  
      3.809188  8.008833  4.091746            0           0           0  
      5.085456  5.933904  9.390269            0           0           0  
      2.367378  1.430955  9.385771            0           0           0  
      0.079516  5.758604  9.339996            0           0           0  
      7.827958  1.345339  9.343958            0           0           0  
      5.138885  2.856820  9.669850     0.673676    0.070501   -0.252590  
      5.175341  2.854748 10.641787    -0.690018   -0.016137   -0.031684  
 
   5 f  =    6.610828 THz    41.537058 2PiTHz  220.513481 cm-1    27.340197 meV
             X         Y         Z           dx          dy          dz
     -5.032083  8.749923  2.059207            0           0           0  
     -5.018620  8.734455  8.104736            0           0           0  
      0.005743  8.726069  2.044661            0           0           0  
      0.078672  8.692194  8.078521            0           0           0  
      2.476647  8.725920  2.008210            0           0           0  
      2.608390  8.718038  8.197889            0           0           0  
      1.238907  2.217482  2.058803            0           0           0  
      1.309762  2.144562  8.128921            0           0           0  
      0.080741  1.414191  4.053211            0           0           0  
      2.493295  1.454508  4.148294            0           0           0  
      1.268207  0.690474  6.144367            0           0           0  
      5.061665  1.449298  4.134981            0           0           0  
      3.777405  0.724770  6.209596            0           0           0  
      7.515570  1.458116  4.110014            0           0           0  
      6.345906  0.714289  6.160319            0           0           0  
     -2.550623  4.473994  2.009954            0           0           0  
     -2.479499  4.382395  8.011225            0           0           0  
      0.030138  4.429053  2.070202            0           0           0  
      0.054697  4.281595  8.193562            0           0           0  
      2.508468  4.405164  2.074349            0           0           0  
      2.587411  4.344941  7.987136            0           0           0  
      1.321393  3.641455  4.027713            0           0           0  
      5.083819  4.448896  2.048149            0           0           0  
      5.107729  4.331406  8.383719            0           0           0  
      3.793772  3.697998  4.130706            0           0           0  
      2.522660  2.932498  6.053445            0           0           0  
      6.252931  3.649555  4.083048            0           0           0  
      5.086133  2.925021  6.250913            0           0           0  
      6.251940  6.541671  2.035474            0           0           0  
     -3.715669  6.603414  8.257911            0           0           0  
     -1.231329  6.529507  2.063609            0           0           0  
     -1.223211  6.558338  8.268560            0           0           0  
     -2.521724  5.874752  4.087450            0           0           0  
      1.284263  6.559439  2.074094            0           0           0  
      1.339415  6.535485  8.196939            0           0           0  
     -0.006259  5.791447  4.044577            0           0           0  
     -1.206301  5.064515  6.076384            0           0           0  
      3.776284  6.555708  2.000001            0           0           0  
      3.796778  6.580575  8.242917            0           0           0  
      2.523868  5.788006  4.073096            0           0           0  
      5.067337  5.797043  4.105165            0           0           0  
      3.848996  5.116337  6.122774            0           0           0  
      6.331585  5.100588  6.149157            0           0           0  
     -3.762957  8.024455  4.119563            0           0           0  
     -1.337071  8.050437  4.103081            0           0           0  
     -2.502735  7.258543  6.207861            0           0           0  
      2.527247  7.272367  6.125232            0           0           0  
      5.070839  7.302862  6.089618            0           0           0  
     -2.526901  8.740562  2.033028            0           0           0  
     -2.458378  8.705748  8.264667            0           0           0  
     -1.249535  2.186973  2.054039            0           0           0  
     -1.162137  2.197637  8.113031            0           0           0  
      3.776871  2.203480  2.028243            0           0           0  
      3.810231  2.147488  8.289901            0           0           0  
      6.310522  2.195476  2.035857            0           0           0  
      6.412961  2.137284  8.273126            0           0           0  
      8.879779  0.736043  6.084162            0           0           0  
     -1.273378  3.652340  4.088535            0           0           0  
      0.037279  2.905525  6.084186            0           0           0  
      7.585079  2.883455  6.094634            0           0           0  
      1.270799  5.086772  6.081793            0           0           0  
      1.256598  8.014945  4.091938            0           0           0  
      0.019518  7.247581  6.088698            0           0           0  
      3.809188  8.008833  4.091746            0           0           0  
      5.085456  5.933904  9.390269            0           0           0  
      2.367378  1.430955  9.385771            0           0           0  
      0.079516  5.758604  9.339996            0           0           0  
      7.827958  1.345339  9.343958            0           0           0  
      5.138885  2.856820  9.669850    -0.059811    0.821788    0.259164  
      5.175341  2.854748 10.641787    -0.083958    0.492109    0.068569  
 
   6 f  =    4.376726 THz    27.499778 2PiTHz  145.991849 cm-1    18.100689 meV
             X         Y         Z           dx          dy          dz
     -5.032083  8.749923  2.059207            0           0           0  
     -5.018620  8.734455  8.104736            0           0           0  
      0.005743  8.726069  2.044661            0           0           0  
      0.078672  8.692194  8.078521            0           0           0  
      2.476647  8.725920  2.008210            0           0           0  
      2.608390  8.718038  8.197889            0           0           0  
      1.238907  2.217482  2.058803            0           0           0  
      1.309762  2.144562  8.128921            0           0           0  
      0.080741  1.414191  4.053211            0           0           0  
      2.493295  1.454508  4.148294            0           0           0  
      1.268207  0.690474  6.144367            0           0           0  
      5.061665  1.449298  4.134981            0           0           0  
      3.777405  0.724770  6.209596            0           0           0  
      7.515570  1.458116  4.110014            0           0           0  
      6.345906  0.714289  6.160319            0           0           0  
     -2.550623  4.473994  2.009954            0           0           0  
     -2.479499  4.382395  8.011225            0           0           0  
      0.030138  4.429053  2.070202            0           0           0  
      0.054697  4.281595  8.193562            0           0           0  
      2.508468  4.405164  2.074349            0           0           0  
      2.587411  4.344941  7.987136            0           0           0  
      1.321393  3.641455  4.027713            0           0           0  
      5.083819  4.448896  2.048149            0           0           0  
      5.107729  4.331406  8.383719            0           0           0  
      3.793772  3.697998  4.130706            0           0           0  
      2.522660  2.932498  6.053445            0           0           0  
      6.252931  3.649555  4.083048            0           0           0  
      5.086133  2.925021  6.250913            0           0           0  
      6.251940  6.541671  2.035474            0           0           0  
     -3.715669  6.603414  8.257911            0           0           0  
     -1.231329  6.529507  2.063609            0           0           0  
     -1.223211  6.558338  8.268560            0           0           0  
     -2.521724  5.874752  4.087450            0           0           0  
      1.284263  6.559439  2.074094            0           0           0  
      1.339415  6.535485  8.196939            0           0           0  
     -0.006259  5.791447  4.044577            0           0           0  
     -1.206301  5.064515  6.076384            0           0           0  
      3.776284  6.555708  2.000001            0           0           0  
      3.796778  6.580575  8.242917            0           0           0  
      2.523868  5.788006  4.073096            0           0           0  
      5.067337  5.797043  4.105165            0           0           0  
      3.848996  5.116337  6.122774            0           0           0  
      6.331585  5.100588  6.149157            0           0           0  
     -3.762957  8.024455  4.119563            0           0           0  
     -1.337071  8.050437  4.103081            0           0           0  
     -2.502735  7.258543  6.207861            0           0           0  
      2.527247  7.272367  6.125232            0           0           0  
      5.070839  7.302862  6.089618            0           0           0  
     -2.526901  8.740562  2.033028            0           0           0  
     -2.458378  8.705748  8.264667            0           0           0  
     -1.249535  2.186973  2.054039            0           0           0  
     -1.162137  2.197637  8.113031            0           0           0  
      3.776871  2.203480  2.028243            0           0           0  
      3.810231  2.147488  8.289901            0           0           0  
      6.310522  2.195476  2.035857            0           0           0  
      6.412961  2.137284  8.273126            0           0           0  
      8.879779  0.736043  6.084162            0           0           0  
     -1.273378  3.652340  4.088535            0           0           0  
      0.037279  2.905525  6.084186            0           0           0  
      7.585079  2.883455  6.094634            0           0           0  
      1.270799  5.086772  6.081793            0           0           0  
      1.256598  8.014945  4.091938            0           0           0  
      0.019518  7.247581  6.088698            0           0           0  
      3.809188  8.008833  4.091746            0           0           0  
      5.085456  5.933904  9.390269            0           0           0  
      2.367378  1.430955  9.385771            0           0           0  
      0.079516  5.758604  9.339996            0           0           0  
      7.827958  1.345339  9.343958            0           0           0  
      5.138885  2.856820  9.669850     0.711390    0.086350    0.021001  
      5.175341  2.854748 10.641787     0.695099    0.051711   -0.013755  
 
 Finite differences POTIM=  1.500000000000000E-002
     LOOP+:  cpu time   45.7287: real time   45.9555
    4ORBIT:  cpu time    0.0000: real time    0.0000
 


 total charge     
 
# of ion       s       p       d       tot
------------------------------------------
    1        0.467   0.359   6.255   7.081
    2        0.456   0.364   6.303   7.124
    3        0.459   0.349   6.248   7.056
    4        0.468   0.361   6.296   7.125
    5        0.452   0.347   6.243   7.042
    6        0.486   0.530   6.285   7.300
    7        0.468   0.367   6.265   7.100
    8        0.491   0.538   6.298   7.327
    9        0.476   0.499   6.264   7.238
   10        0.488   0.512   6.273   7.273
   11        0.487   0.520   6.274   7.281
   12        0.467   0.481   6.243   7.192
   13        0.468   0.491   6.252   7.211
   14        0.460   0.466   6.260   7.185
   15        0.474   0.498   6.255   7.226
   16        0.462   0.353   6.250   7.065
   17        0.476   0.370   6.291   7.136
   18        0.482   0.392   6.264   7.139
   19        0.456   0.478   6.279   7.213
   20        0.487   0.396   6.267   7.150
   21        0.480   0.384   6.292   7.156
   22        0.493   0.537   6.281   7.310
   23        0.478   0.381   6.260   7.119
   24        0.421   0.512   6.274   7.207
   25        0.488   0.527   6.270   7.285
   26        0.484   0.523   6.272   7.279
   27        0.473   0.498   6.254   7.225
   28        0.461   0.479   6.246   7.186
   29        0.480   0.385   6.260   7.125
   30        0.463   0.494   6.268   7.226
   31        0.481   0.387   6.258   7.125
   32        0.454   0.479   6.268   7.201
   33        0.482   0.513   6.256   7.252
   34        0.489   0.408   6.261   7.157
   35        0.460   0.493   6.272   7.224
   36        0.483   0.516   6.276   7.276
   37        0.472   0.495   6.262   7.229
   38        0.471   0.380   6.250   7.100
   39        0.472   0.503   6.277   7.253
   40        0.483   0.517   6.273   7.273
   41        0.491   0.525   6.276   7.293
   42        0.489   0.519   6.267   7.275
   43        0.479   0.511   6.255   7.245
   44        0.487   0.525   6.268   7.279
   45        0.472   0.499   6.252   7.223
   46        0.478   0.500   6.264   7.241
   47        0.470   0.482   6.263   7.215
   48        0.478   0.511   6.256   7.246
   49        0.505   0.365   8.298   9.168
   50        0.509   0.514   8.303   9.326
   51        0.499   0.352   8.300   9.151
   52        0.502   0.513   8.315   9.330
   53        0.489   0.340   8.302   9.131
   54        0.445   0.498   8.320   9.262
   55        0.501   0.355   8.300   9.156
   56        0.443   0.503   8.319   9.266
   57        0.507   0.506   8.301   9.314
   58        0.502   0.495   8.294   9.291
   59        0.509   0.507   8.321   9.337
   60        0.508   0.502   8.311   9.321
   61        0.520   0.529   8.297   9.346
   62        0.510   0.514   8.286   9.310
   63        0.507   0.508   8.293   9.308
   64        0.504   0.499   8.292   9.295
   65        1.583   3.351   0.000   4.933
   66        1.585   3.328   0.000   4.913
   67        1.582   3.348   0.000   4.929
   68        1.584   3.327   0.000   4.912
   69        1.544   3.556   0.000   5.100
   70        0.623   0.132   0.000   0.755
--------------------------------------------------
tot         39.199  46.698 433.646 519.543
 

 total amount of memory used by VASP MPI-rank0    55433. kBytes
=======================================================================

   base      :      30000. kBytes
   nonlr-proj:       4281. kBytes
   fftplans  :       5965. kBytes
   grid      :      13166. kBytes
   one-center:         23. kBytes
   wavefun   :       1998. kBytes
 
  
  
 General timing and accounting informations for this job:
 ========================================================
  
                  Total CPU time used (sec):      689.845
                            User time (sec):      678.244
                          System time (sec):       11.600
                         Elapsed time (sec):      694.321
  
                   Maximum memory used (kb):      296300.
                   Average memory used (kb):           0.
  
                          Minor page faults:      3434748
                          Major page faults:            0
                 Voluntary context switches:         1411
