       N       E                     dE             d eps       ncg     rms          rms(c)
DAV:   1    -0.314834545404E+03   -0.31483E+03   -0.21820E+03 38535   0.671E+01
RMM:   2    -0.328817653123E+03   -0.13983E+02   -0.13834E+02 35352   0.264E+01
RMM:   3    -0.329325663943E+03   -0.50801E+00   -0.43113E+00 36215   0.387E+00
RMM:   4    -0.329360958790E+03   -0.35295E-01   -0.33450E-01 39134   0.970E-01
RMM:   5    -0.329365368489E+03   -0.44097E-02   -0.43185E-02 41309   0.246E-01
RMM:   6    -0.329365784551E+03   -0.41606E-03   -0.41997E-03 41102   0.647E-02
RMM:   7    -0.329365830803E+03   -0.46252E-04   -0.41614E-04 33217   0.174E-02
RMM:   8    -0.329365839304E+03   -0.85007E-05   -0.82964E-05 24957   0.643E-03
RMM:   9    -0.329365840609E+03   -0.13054E-05   -0.11205E-05 21066   0.231E-03
RMM:  10    -0.329365840886E+03   -0.27666E-06   -0.26594E-06 17700   0.126E-03
   1 F= -.34706068E+03 E0= -.34706068E+03  d E =0.000000E+00  mag=    42.3180
