 vasp.5.4.4.18Apr17-6-g9f103f2a35 (build Sep 06 2021 19:49:22) complex          
  
 executed on             LinuxIFC date 2022.01.12  05:08:29
 running on   72 total cores
 distrk:  each k-point on   72 cores,    1 groups
 distr:  one band on NCORES_PER_BAND=  24 cores,    3 groups


--------------------------------------------------------------------------------------------------------


 INCAR:
 POTCAR:    PAW_PBE Ni 02Aug2007                  

 ----------------------------------------------------------------------------- 
|                                                                             |
|           W    W    AA    RRRRR   N    N  II  N    N   GGGG   !!!           |
|           W    W   A  A   R    R  NN   N  II  NN   N  G    G  !!!           |
|           W    W  A    A  R    R  N N  N  II  N N  N  G       !!!           |
|           W WW W  AAAAAA  RRRRR   N  N N  II  N  N N  G  GGG   !            |
|           WW  WW  A    A  R   R   N   NN  II  N   NN  G    G                |
|           W    W  A    A  R    R  N    N  II  N    N   GGGG   !!!           |
|                                                                             |
|      For optimal performance we recommend to set                            |
|        NCORE= 4 - approx SQRT( number of cores)                             |
|      NCORE specifies how many cores store one orbital (NPAR=cpu/NCORE).     |
|      This setting can  greatly improve the performance of VASP for DFT.     |
|      The default,   NCORE=1            might be grossly inefficient         |
|      on modern multi-core architectures or massively parallel machines.     |
|      Do your own testing !!!!                                               |
|      Unfortunately you need to use the default for GW and RPA calculations. |
|      (for HF NCORE is supported but not extensively tested yet)             |
|                                                                             |
 ----------------------------------------------------------------------------- 

 POTCAR:    PAW_PBE Ni 02Aug2007                  
   VRHFIN =Ni:                                                                  
   LEXCH  = PE                                                                  
   EATOM  =  1077.6739 eV,   79.2068 Ry                                         
                                                                                
   TITEL  = PAW_PBE Ni 02Aug2007                                                
   LULTRA =        F    use ultrasoft PP ?                                      
   IUNSCR =        1    unscreen: 0-lin 1-nonlin 2-no                           
   RPACOR =    2.000    partial core radius                                     
   POMASS =   58.690; ZVAL   =   10.000    mass and valenz                      
   RCORE  =    2.300    outmost cutoff radius                                   
   RWIGS  =    2.430; RWIGS  =    1.286    wigner-seitz radius (au A)           
   ENMAX  =  269.532; ENMIN  =  202.149 eV                                      
   RCLOC  =    1.201    cutoff for local pot                                    
   LCOR   =        T    correct aug charges                                     
   LPAW   =        T    paw PP                                                  
   EAUG   =  544.565                                                            
   DEXC   =    0.000                                                            
   RMAX   =    2.357    core radius for proj-oper                               
   RAUG   =    1.300    factor for augmentation sphere                          
   RDEP   =    2.390    radius for radial grids                                 
   RDEPT  =    1.838    core radius for aug-charge                              
                                                                                
   Atomic configuration                                                         
    9 entries                                                                   
     n  l   j            E        occ.                                          
     1  0  0.50     -8206.4253   2.0000                                         
     2  0  0.50      -976.1748   2.0000                                         
     2  1  1.50      -839.0571   6.0000                                         
     3  0  0.50      -105.9991   2.0000                                         
     3  1  1.50       -66.4603   6.0000                                         
     3  2  2.50        -4.6458   9.0000                                         
     4  0  0.50        -4.4926   1.0000                                         
     4  1  1.50        -4.0817   0.0000                                         
     4  3  2.50        -1.3606   0.0000                                         
   Description                                                                  
     l       E           TYP  RCUT    TYP  RCUT                                 
     2     -4.6457903     23  2.300                                             
     2     -6.0063729     23  2.300                                             
     0     -4.4925590     23  2.300                                             
     0      5.0102601     23  2.300                                             
     1     -2.7211652     23  2.300                                             
     1     16.5183231     23  2.300                                             
  local pseudopotential read in
  partial core-charges read in
  partial kinetic energy density read in
  atomic valenz-charges read in
  non local Contribution for L=           2  read in
    real space projection operators read in
  non local Contribution for L=           2  read in
    real space projection operators read in
  non local Contribution for L=           0  read in
    real space projection operators read in
  non local Contribution for L=           0  read in
    real space projection operators read in
  non local Contribution for L=           1  read in
    real space projection operators read in
  non local Contribution for L=           1  read in
    real space projection operators read in
    PAW grid and wavefunctions read in
 
   number of l-projection  operators is LMAX  =           6
   number of lm-projection operators is LMMAX =          18
 
 Optimization of the real space projectors (new method)

 maximal supplied QI-value         = 16.25
 optimisation between [QCUT,QGAM] = [ 11.54, 23.24] = [ 37.28,151.24] Ry 
 Optimized for a Real-space Cutoff    1.45 Angstroem

   l    n(q)    QCUT    max X(q) W(low)/X(q) W(high)/X(q)  e(spline) 
   2      9    11.539    60.317    0.19E-03    0.47E-04    0.16E-06
   2      9    11.539    55.921    0.19E-03    0.48E-04    0.16E-06
   0     10    11.539    51.690    0.80E-04    0.50E-04    0.24E-06
   0     10    11.539    30.015    0.73E-04    0.45E-04    0.22E-06
   1     10    11.539    18.849    0.87E-04    0.16E-03    0.71E-07
   1     10    11.539    14.624    0.73E-04    0.13E-03    0.64E-07
  PAW_PBE Ni 02Aug2007                  :
 energy of atom  1       EATOM=-1077.6739
 kinetic energy error for atom=    0.0030 (will be added to EATOM!!)
 
 
 POSCAR: POSCAR                                  
  positions in direct lattice
  velocities in cartesian coordinates
 exchange correlation table for  LEXCH =        8
   RHO(1)=    0.500       N(1)  =     2000
   RHO(2)=  100.500       N(2)  =     4000
 


--------------------------------------------------------------------------------------------------------


 ion  position               nearest neighbor table
   1  0.113  0.226  0.095-  19 2.49   3 2.49  15 2.49  17 2.49  49 2.49  21 2.49  61 2.49   5 2.49
                            13 2.49
   2  0.113  0.226  0.379-   4 2.45  24 2.45  20 2.45  22 2.49  18 2.49   6 2.49  50 2.49  62 2.49
                            14 2.49
   3  0.196  0.142  0.191-   8 2.44   4 2.44  24 2.44  49 2.49   1 2.49   5 2.49  19 2.49  51 2.49
                            23 2.49  63 2.49   7 2.49  15 2.49
   4  0.030  0.059  0.285-  15 2.44   3 2.44  63 2.44   2 2.45  50 2.45  62 2.45  64 2.49  24 2.49
                            20 2.49  16 2.49  52 2.49   8 2.49
   5  0.363  0.226  0.095-  23 2.49   7 2.49   3 2.49  21 2.49  53 2.49  49 2.49  25 2.49   9 2.49
                             1 2.49
   6  0.363  0.226  0.379-   8 2.45  24 2.45  28 2.45  10 2.49  26 2.49  50 2.49  54 2.49   2 2.49
                            22 2.49
   7  0.446  0.142  0.191-  12 2.44   8 2.44  28 2.44  53 2.49   5 2.49   9 2.49  23 2.49  55 2.49
                            27 2.49  51 2.49  11 2.49   3 2.49
   8  0.280  0.059  0.285-   7 2.44   3 2.44  51 2.44   6 2.45  50 2.45  54 2.45  56 2.49  24 2.49
                            52 2.49  12 2.49  28 2.49   4 2.49
   9  0.613  0.226  0.095-  27 2.49  11 2.49   7 2.49  25 2.49  57 2.49  53 2.49  29 2.49  13 2.49
                             5 2.49
  10  0.613  0.226  0.379-  12 2.45  28 2.45  32 2.45   6 2.49  54 2.49  14 2.49  58 2.49  26 2.49
                            30 2.49
  11  0.696  0.142  0.191-  12 2.44  16 2.44  32 2.44  57 2.49   9 2.49  13 2.49  27 2.49  59 2.49
                            31 2.49  55 2.49  15 2.49   7 2.49
  12  0.530  0.059  0.285-  11 2.44   7 2.44  55 2.44  10 2.45  58 2.45  54 2.45  32 2.49  28 2.49
                            16 2.49  60 2.49   8 2.49  56 2.49
  13  0.863  0.226  0.095-  31 2.49  15 2.49  11 2.49  29 2.49  61 2.49  57 2.49  17 2.49   9 2.49
                             1 2.49
  14  0.863  0.226  0.379-  16 2.45  20 2.45  32 2.45  30 2.49  62 2.49  10 2.49  58 2.49   2 2.49
                            18 2.49
  15  0.946  0.142  0.191-  16 2.44   4 2.44  20 2.44  61 2.49  13 2.49   1 2.49  31 2.49  63 2.49
                            19 2.49  59 2.49   3 2.49  11 2.49
  16  0.780  0.059  0.285-  11 2.44  15 2.44  59 2.44  14 2.45  62 2.45  58 2.45  20 2.49  32 2.49
                            12 2.49   4 2.49  64 2.49  60 2.49
  17  0.113  0.476  0.095-  35 2.49  19 2.49  31 2.49  33 2.49   1 2.49  13 2.49  37 2.49  21 2.49
                            29 2.49
  18  0.113  0.476  0.379-  20 2.45  40 2.45  36 2.46  22 2.49  30 2.49  34 2.49  38 2.49   2 2.49
                            14 2.49
  19  0.196  0.392  0.191-  24 2.44  20 2.44  40 2.44   1 2.49  17 2.49  21 2.49  35 2.49   3 2.49
                            39 2.49  15 2.49  31 2.49  23 2.49
  20  0.030  0.309  0.285-  31 2.44  19 2.44  15 2.44  18 2.45   2 2.45  14 2.45  16 2.49  32 2.49
                             4 2.49  36 2.49  40 2.49  24 2.49
  21  0.363  0.476  0.095-  39 2.49  23 2.49  19 2.49  37 2.49   5 2.49   1 2.49  41 2.49  25 2.49
                            17 2.49
  22  0.363  0.476  0.379-  24 2.45  40 2.45  44 2.45  18 2.49  38 2.49  42 2.49   2 2.49  26 2.49
                             6 2.49
  23  0.446  0.392  0.191-  28 2.44  24 2.44  44 2.44   5 2.49  21 2.49  25 2.49  39 2.49   7 2.49
                            43 2.49   3 2.49  19 2.49  27 2.49
  24  0.280  0.309  0.285-  19 2.44  23 2.44   3 2.44  22 2.45   2 2.45   6 2.45   4 2.49  40 2.49
                             8 2.49  44 2.49  20 2.49  28 2.49
  25  0.613  0.476  0.095-  43 2.49  27 2.49  23 2.49  41 2.49   9 2.49   5 2.49  45 2.49  29 2.49
                            21 2.49
  26  0.613  0.476  0.379-  28 2.45  44 2.45  48 2.45   6 2.49  22 2.49  46 2.49  42 2.49  10 2.49
                            30 2.49
  27  0.696  0.392  0.191-  28 2.44  32 2.44  48 2.44   9 2.49  25 2.49  29 2.49  43 2.49  11 2.49
                            47 2.49   7 2.49  23 2.49  31 2.49
  28  0.530  0.309  0.285-  27 2.44  23 2.44   7 2.44  26 2.45  10 2.45   6 2.45  32 2.49  12 2.49
                            48 2.49  44 2.49   8 2.49  24 2.49
  29  0.863  0.476  0.095-  47 2.49  31 2.49  27 2.49  45 2.49  13 2.49   9 2.49  33 2.49  25 2.49
                            17 2.49
  30  0.863  0.476  0.379-  32 2.45  36 2.45  48 2.45  14 2.49  18 2.49  34 2.49  10 2.49  46 2.49
                            26 2.49
  31  0.946  0.392  0.191-  32 2.44  20 2.44  36 2.44  13 2.49  29 2.49  17 2.49  15 2.49  47 2.49
                            11 2.49  35 2.49  27 2.49  19 2.49
  32  0.780  0.309  0.285-  31 2.44  27 2.44  11 2.44  30 2.45  10 2.45  14 2.45  28 2.49  20 2.49
                            12 2.49  36 2.49  16 2.49  48 2.49
  33  0.113  0.726  0.095-  51 2.49  35 2.49  47 2.49  49 2.49  17 2.49  29 2.49  53 2.49  37 2.49
                            45 2.49
  34  0.113  0.726  0.379-  36 2.45  56 2.45  52 2.45  38 2.49  54 2.49  18 2.49  50 2.49  30 2.49
                            46 2.49
  35  0.196  0.642  0.191-  40 2.44  36 2.44  56 2.44  17 2.49  33 2.49  37 2.49  51 2.49  19 2.49
                            55 2.49  31 2.49  47 2.49  39 2.49
  36  0.030  0.559  0.285-  47 2.44  35 2.44  31 2.44  34 2.45  30 2.45  18 2.46  48 2.49  32 2.49
                            20 2.49  40 2.49  52 2.49  56 2.49
  37  0.363  0.726  0.095-  55 2.49  39 2.49  35 2.49  53 2.49  21 2.49  17 2.49  57 2.49  41 2.49
                            33 2.49
  38  0.363  0.726  0.379-  40 2.45  60 2.45  56 2.46  42 2.49  22 2.49  58 2.49  34 2.49  54 2.49
                            18 2.49
  39  0.446  0.642  0.191-  44 2.44  40 2.44  60 2.44  21 2.49  37 2.49  41 2.49  55 2.49  23 2.49
                            59 2.49  19 2.49  35 2.49  43 2.49
  40  0.280  0.559  0.285-  35 2.44  39 2.44  19 2.44  18 2.45  38 2.45  22 2.45  24 2.49  36 2.49
                            20 2.49  56 2.49  60 2.49  44 2.49
  41  0.613  0.726  0.095-  59 2.49  43 2.49  39 2.49  57 2.49  25 2.49  21 2.49  61 2.49  45 2.49
                            37 2.49
  42  0.613  0.726  0.379-  44 2.45  60 2.45  64 2.46  38 2.49  58 2.49  22 2.49  62 2.49  26 2.49
                            46 2.49
  43  0.696  0.642  0.191-  44 2.44  48 2.44  64 2.44  25 2.49  41 2.49  45 2.49  59 2.49  27 2.49
                            63 2.49  23 2.49  39 2.49  47 2.49
  44  0.530  0.559  0.285-  43 2.44  39 2.44  23 2.44  42 2.45  26 2.45  22 2.45  28 2.49  48 2.49
                            24 2.49  64 2.49  60 2.49  40 2.49
  45  0.863  0.726  0.095-  63 2.49  47 2.49  43 2.49  61 2.49  29 2.49  25 2.49  49 2.49  41 2.49
                            33 2.49
  46  0.863  0.726  0.379-  48 2.45  64 2.45  52 2.45  26 2.49  42 2.49  62 2.49  50 2.49  30 2.49
                            34 2.49
  47  0.946  0.642  0.191-  36 2.44  48 2.44  52 2.44  29 2.49  45 2.49  33 2.49  31 2.49  63 2.49
                            27 2.49  51 2.49  43 2.49  35 2.49
  48  0.780  0.559  0.285-  47 2.44  43 2.44  27 2.44  46 2.45  30 2.45  26 2.45  36 2.49  32 2.49
                            28 2.49  44 2.49  52 2.49  64 2.49
  49  0.113  0.976  0.095-   3 2.49  51 2.49  63 2.49   1 2.49  33 2.49   5 2.49  45 2.49  61 2.49
                            53 2.49
  50  0.113  0.976  0.379-  52 2.45   8 2.45   4 2.45   6 2.49  54 2.49  34 2.49   2 2.49  46 2.49
                            62 2.49
  51  0.196  0.892  0.191-  56 2.44  52 2.44   8 2.44  33 2.49  49 2.49  53 2.49   3 2.49  35 2.49
                             7 2.49  47 2.49  55 2.49  63 2.49
  52  0.030  0.809  0.285-  51 2.44  63 2.44  47 2.44  50 2.45  46 2.45  34 2.45  56 2.49   8 2.49
                            64 2.49   4 2.49  36 2.49  48 2.49
  53  0.363  0.976  0.095-   7 2.49  55 2.49  51 2.49   5 2.49  37 2.49  33 2.49   9 2.49  49 2.49
                            57 2.49
  54  0.363  0.976  0.379-  56 2.45   8 2.45  12 2.45  58 2.49  10 2.49  34 2.49  38 2.49  50 2.49
                             6 2.49
  55  0.446  0.892  0.191-  60 2.44  56 2.44  12 2.44  37 2.49  53 2.49  57 2.49   7 2.49  39 2.49
                            11 2.49  35 2.49  59 2.49  51 2.49
  56  0.280  0.809  0.285-  51 2.44  55 2.44  35 2.44  54 2.45  34 2.45  38 2.46  52 2.49   8 2.49
                            40 2.49  60 2.49  36 2.49  12 2.49
  57  0.613  0.976  0.095-  11 2.49  59 2.49  55 2.49   9 2.49  41 2.49  37 2.49  13 2.49  53 2.49
                            61 2.49
  58  0.613  0.976  0.379-  60 2.45  12 2.45  16 2.45  62 2.49  42 2.49  38 2.49  54 2.49  14 2.49
                            10 2.49
  59  0.696  0.892  0.191-  60 2.44  64 2.44  16 2.44  41 2.49  57 2.49  61 2.49  11 2.49  43 2.49
                            15 2.49  39 2.49  63 2.49  55 2.49
  60  0.530  0.809  0.285-  55 2.44  59 2.44  39 2.44  58 2.45  42 2.45  38 2.45  64 2.49  12 2.49
                            56 2.49  16 2.49  44 2.49  40 2.49
  61  0.863  0.976  0.095-  15 2.49  63 2.49  59 2.49  13 2.49  45 2.49  41 2.49   1 2.49  49 2.49
                            57 2.49
  62  0.863  0.976  0.379-  64 2.45  16 2.45   4 2.45  58 2.49  14 2.49  42 2.49   2 2.49  46 2.49
                            50 2.49
  63  0.946  0.892  0.191-  64 2.44  52 2.44   4 2.44  45 2.49  61 2.49  49 2.49  15 2.49  47 2.49
                             3 2.49  43 2.49  51 2.49  59 2.49
  64  0.780  0.809  0.285-  59 2.44  63 2.44  43 2.44  62 2.45  46 2.45  42 2.46   4 2.49  16 2.49
                            60 2.49  52 2.49  44 2.49  48 2.49
 

IMPORTANT INFORMATION: All symmetrisations will be switched off!
NOSYMM: (Re-)initialisation of all symmetry stuff for point group C_1.

 
 

Automatic generation of k-mesh.
 generate k-points for:    4    4    2
Space group operators:
 irot       det(A)        alpha          n_x          n_y          n_z        tau_x        tau_y        tau_z
    1     1.000000     0.000000     1.000000     0.000000     0.000000     0.000000     0.000000     0.000000
 
 Subroutine IBZKPT returns following result:
 ===========================================
 
 Found     20 irreducible k-points:
 
 Following reciprocal coordinates:
            Coordinates               Weight
  0.000000  0.000000  0.000000      1.000000
  0.250000  0.000000  0.000000      2.000000
  0.500000  0.000000  0.000000      1.000000
  0.000000  0.250000  0.000000      2.000000
  0.250000  0.250000  0.000000      2.000000
  0.500000  0.250000  0.000000      2.000000
 -0.250000  0.250000  0.000000      2.000000
  0.000000  0.500000  0.000000      1.000000
  0.250000  0.500000  0.000000      2.000000
  0.500000  0.500000  0.000000      1.000000
  0.000000  0.000000  0.500000      1.000000
  0.250000  0.000000  0.500000      2.000000
  0.500000  0.000000  0.500000      1.000000
  0.000000  0.250000  0.500000      2.000000
  0.250000  0.250000  0.500000      2.000000
  0.500000  0.250000  0.500000      2.000000
 -0.250000  0.250000  0.500000      2.000000
  0.000000  0.500000  0.500000      1.000000
  0.250000  0.500000  0.500000      2.000000
  0.500000  0.500000  0.500000      1.000000
 
 Following cartesian coordinates:
            Coordinates               Weight
  0.000000  0.000000  0.000000      1.000000
  0.025082  0.014481  0.000000      2.000000
  0.050164  0.028962  0.000000      1.000000
  0.000000  0.028962  0.000000      2.000000
  0.025082  0.043443  0.000000      2.000000
  0.050164  0.057924  0.000000      2.000000
 -0.025082  0.014481  0.000000      2.000000
  0.000000  0.057924  0.000000      1.000000
  0.025082  0.072405  0.000000      2.000000
  0.050164  0.086886  0.000000      1.000000
  0.000000  0.000000  0.023692      1.000000
  0.025082  0.014481  0.023692      2.000000
  0.050164  0.028962  0.023692      1.000000
  0.000000  0.028962  0.023692      2.000000
  0.025082  0.043443  0.023692      2.000000
  0.050164  0.057924  0.023692      2.000000
 -0.025082  0.014481  0.023692      2.000000
  0.000000  0.057924  0.023692      1.000000
  0.025082  0.072405  0.023692      2.000000
  0.050164  0.086886  0.023692      1.000000
 
 TETIRR: Found     96 inequivalent tetrahedra from      192


--------------------------------------------------------------------------------------------------------




 Dimension of arrays:
   k-points           NKPTS =     20   k-points in BZ     NKDIM =     20   number of bands    NBANDS=    417
   number of dos      NEDOS =    301   number of ions     NIONS =     64
   non local maximal  LDIM  =      6   non local SUM 2l+1 LMDIM =     18
   total plane-waves  NPLWV = ******
   max r-space proj   IRMAX =   7188   max aug-charges    IRDMAX=  18478
   dimension x,y,z NGX =    80 NGY =   80 NGZ =  160
   dimension x,y,z NGXF=   160 NGYF=  160 NGZF=  320
   support grid    NGXF=   160 NGYF=  160 NGZF=  320
   ions per type =              64
   NGX,Y,Z   is equivalent  to a cutoff of  13.34, 13.34, 12.60 a.u.
   NGXF,Y,Z  is equivalent  to a cutoff of  26.69, 26.69, 25.21 a.u.

 SYSTEM =  SQS-NiFe                                
 POSCAR =  POSCAR                                  

 Startparameter for this run:
   NWRITE =      2    write-flag & timer
   PREC   = accura    normal or accurate (medium, high low for compatibility)
   ISTART =      1    job   : 0-new  1-cont  2-samecut
   ICHARG =     11    charge: 1-file 2-atom 10-const
   ISPIN  =      2    spin polarized calculation?
   LNONCOLLINEAR =      F non collinear calculations
   LSORBIT =      F    spin-orbit coupling
   INIWAV =      1    electr: 0-lowe 1-rand  2-diag
   LASPH  =      F    aspherical Exc in radial PAW
   METAGGA=      F    non-selfconsistent MetaGGA calc.

 Electronic Relaxation 1
   ENCUT  =  520.0 eV  38.22 Ry    6.18 a.u.  18.53 18.53 39.24*2*pi/ulx,y,z
   ENINI  =  520.0     initial cutoff
   ENAUG  =  544.6 eV  augmentation charge cutoff
   NELM   =    200;   NELMIN=  2; NELMDL=  0     # of ELM steps 
   EDIFF  = 0.1E-05   stopping-criterion for ELM
   LREAL  =      T    real-space projection
   NLSPLINE    = F    spline interpolate recip. space projectors
   LCOMPAT=      F    compatible to vasp.4.4
   GGA_COMPAT  = T    GGA compatible to vasp.4.4-vasp.4.6
   LMAXPAW     = -100 max onsite density
   LMAXMIX     =    2 max onsite mixed and CHGCAR
   VOSKOWN=      0    Vosko Wilk Nusair interpolation
   ROPT   =   -0.00025
 Ionic relaxation
   EDIFFG = -.2E-01   stopping-criterion for IOM
   NSW    =      0    number of steps for IOM
   NBLOCK =      1;   KBLOCK =      1    inner block; outer block 
   IBRION =     -1    ionic relax: 0-MD 1-quasi-New 2-CG
   NFREE  =      0    steps in history (QN), initial steepest desc. (CG)
   ISIF   =      2    stress and relaxation
   IWAVPR =     10    prediction:  0-non 1-charg 2-wave 3-comb
   ISYM   =      0    0-nonsym 1-usesym 2-fastsym
   LCORR  =      T    Harris-Foulkes like correction to forces

   POTIM  = 0.5000    time-step for ionic-motion
   TEIN   =    0.0    initial temperature
   TEBEG  =    0.0;   TEEND  =   0.0 temperature during run
   SMASS  =  -3.00    Nose mass-parameter (am)
   estimated Nose-frequenzy (Omega)   =  0.10E-29 period in steps =****** mass=  -0.227E-26a.u.
   SCALEE = 1.0000    scale energy and forces
   NPACO  =    256;   APACO  = 16.0  distance and # of slots for P.C.
   PSTRESS=    0.0 pullay stress

  Mass of Ions in am
   POMASS =  58.69
  Ionic Valenz
   ZVAL   =  10.00
  Atomic Wigner-Seitz radii
   RWIGS  =  -1.00
  virtual crystal weights 
   VCA    =   1.00
   NELECT =     640.0000    total number of electrons
   NUPDOWN=      -1.0000    fix difference up-down

 DOS related values:
   EMIN   =  10.00;   EMAX   =-10.00  energy-range for DOS
   EFERMI =   0.00
   ISMEAR =    -5;   SIGMA  =   0.20  broadening in eV -4-tet -1-fermi 0-gaus

 Electronic relaxation 2 (details)
   IALGO  =     68    algorithm
   LDIAG  =      T    sub-space diagonalisation (order eigenvalues)
   LSUBROT=      F    optimize rotation matrix (better conditioning)
   TURBO    =      0    0=normal 1=particle mesh
   IRESTART =      0    0=no restart 2=restart with 2 vectors
   NREBOOT  =      0    no. of reboots
   NMIN     =      0    reboot dimension
   EREF     =   0.00    reference energy to select bands
   IMIX   =      4    mixing-type and parameters
     AMIX     =   0.40;   BMIX     =  1.00
     AMIX_MAG =   1.60;   BMIX_MAG =  1.00
     AMIN     =   0.10
     WC   =   100.;   INIMIX=   1;  MIXPRE=   1;  MAXMIX= -45

 Intra band minimization:
   WEIMIN = 0.0000     energy-eigenvalue tresh-hold
   EBREAK =  0.60E-09  absolut break condition
   DEPER  =   0.30     relativ break condition  

   TIME   =   0.40     timestep for ELM

  volume/ion in A,a.u.               =      28.37       191.46
  Fermi-wavevector in a.u.,A,eV,Ry     =   1.156425  2.185326 18.195328  1.337319
  Thomas-Fermi vector in A             =   2.293045
 
 Write flags
   LWAVE        =      T    write WAVECAR
   LDOWNSAMPLE  =      F    k-point downsampling of WAVECAR
   LCHARG       =      F    write CHGCAR
   LVTOT        =      F    write LOCPOT, total local potential
   LVHAR        =      F    write LOCPOT, Hartree potential only
   LELF         =      F    write electronic localiz. function (ELF)
   LORBIT       =     11    0 simple, 1 ext, 2 COOP (PROOUT), +10 PAW based schemes


 Dipole corrections
   LMONO  =      F    monopole corrections only (constant potential shift)
   LDIPOL =      T    correct potential (dipole corrections)
   IDIPOL =      3    1-x, 2-y, 3-z, 4-all directions 
   EPSILON=  1.0000000 bulk dielectric constant

 Exchange correlation treatment:
   GGA     =    --    GGA type
   LEXCH   =     8    internal setting for exchange type
   VOSKOWN=      0    Vosko Wilk Nusair interpolation
   LHFCALC =     F    Hartree Fock is set to
   LHFONE  =     F    Hartree Fock one center treatment
   AEXX    =    0.0000 exact exchange contribution

 Linear response parameters
   LEPSILON=     F    determine dielectric tensor
   LRPA    =     F    only Hartree local field effects (RPA)
   LNABLA  =     F    use nabla operator in PAW spheres
   LVEL    =     F    velocity operator in full k-point grid
   LINTERFAST=   F  fast interpolation
   KINTER  =     0    interpolate to denser k-point grid
   CSHIFT  =0.1000    complex shift for real part using Kramers Kronig
   OMEGAMAX=  -1.0    maximum frequency
   DEG_THRESHOLD= 0.2000000E-02 threshold for treating states as degnerate
   RTIME   =   -0.100 relaxation time in fs
  (WPLASMAI=    0.000 imaginary part of plasma frequency in eV, 0.658/RTIME)
   DFIELD  = 0.0000000 0.0000000 0.0000000 field for delta impulse in time
 
 Orbital magnetization related:
   ORBITALMAG=     F  switch on orbital magnetization
   LCHIMAG   =     F  perturbation theory with respect to B field
   DQ        =  0.001000  dq finite difference perturbation B field
   LLRAUG    =     F  two centre corrections for induced B field



--------------------------------------------------------------------------------------------------------


 Static calculation
 charge density and potential remain constant during run
 spin polarized calculation
 RMM-DIIS sequential band-by-band and
  variant of blocked Davidson during initial phase
 perform sub-space diagonalisation
    before iterative eigenvector-optimisation
 no mixing
 using additional bands           97
 real space projection scheme for non local part
 use partial core corrections
 calculate Harris-corrections to forces 
   (improved forces if not selfconsistent)
 use gradient corrections 
 WARNING: stress and forces are not correct
  (second derivative of E(xc) not defined)
 use of overlap-Matrix (Vanderbilt PP)
 Fermi weights with tetrahedron method with Bloechl corrections


--------------------------------------------------------------------------------------------------------


  energy-cutoff  :      520.00
  volume of cell :     1815.73
      direct lattice vectors                 reciprocal lattice vectors
     9.967377190  0.000000000  0.000000000     0.100327296  0.057923991  0.000000000
    -4.983688590  8.632001850  0.000000000     0.000000000  0.115847983  0.000000000
     0.000000000  0.000000000 21.103747050     0.000000000  0.000000000  0.047384950

  length of vectors
     9.967377190  9.967377183 21.103747050     0.115847983  0.115847983  0.047384950


 
 old parameters found on file WAVECAR:
  energy-cutoff  :      520.00
  volume of cell :     1815.73
      direct lattice vectors                 reciprocal lattice vectors
     9.967377190  0.000000000  0.000000000     0.100327296  0.057923991  0.000000000
    -4.983688590  8.632001850  0.000000000     0.000000000  0.115847983  0.000000000
     0.000000000  0.000000000 21.103747050     0.000000000  0.000000000  0.047384950

  length of vectors

 
 k-points in units of 2pi/SCALE and weight: read from INCAR                         
   0.00000000  0.00000000  0.00000000       0.031
   0.02508182  0.01448100  0.00000000       0.062
   0.05016365  0.02896200  0.00000000       0.031
   0.00000000  0.02896200  0.00000000       0.062
   0.02508182  0.04344299  0.00000000       0.062
   0.05016365  0.05792399  0.00000000       0.062
  -0.02508182  0.01448100  0.00000000       0.062
   0.00000000  0.05792399  0.00000000       0.031
   0.02508182  0.07240499  0.00000000       0.062
   0.05016365  0.08688599  0.00000000       0.031
   0.00000000  0.00000000  0.02369248       0.031
   0.02508182  0.01448100  0.02369248       0.062
   0.05016365  0.02896200  0.02369248       0.031
   0.00000000  0.02896200  0.02369248       0.062
   0.02508182  0.04344299  0.02369248       0.062
   0.05016365  0.05792399  0.02369248       0.062
  -0.02508182  0.01448100  0.02369248       0.062
   0.00000000  0.05792399  0.02369248       0.031
   0.02508182  0.07240499  0.02369248       0.062
   0.05016365  0.08688599  0.02369248       0.031
 
 k-points in reciprocal lattice and weights: read from INCAR                         
   0.00000000  0.00000000  0.00000000       0.031
   0.25000000  0.00000000  0.00000000       0.062
   0.50000000  0.00000000  0.00000000       0.031
   0.00000000  0.25000000  0.00000000       0.062
   0.25000000  0.25000000  0.00000000       0.062
   0.50000000  0.25000000  0.00000000       0.062
  -0.25000000  0.25000000  0.00000000       0.062
   0.00000000  0.50000000  0.00000000       0.031
   0.25000000  0.50000000  0.00000000       0.062
   0.50000000  0.50000000  0.00000000       0.031
   0.00000000  0.00000000  0.50000000       0.031
   0.25000000  0.00000000  0.50000000       0.062
   0.50000000  0.00000000  0.50000000       0.031
   0.00000000  0.25000000  0.50000000       0.062
   0.25000000  0.25000000  0.50000000       0.062
   0.50000000  0.25000000  0.50000000       0.062
  -0.25000000  0.25000000  0.50000000       0.062
   0.00000000  0.50000000  0.50000000       0.031
   0.25000000  0.50000000  0.50000000       0.062
   0.50000000  0.50000000  0.50000000       0.031
 
 position of ions in fractional coordinates (direct lattice) 
   0.11283333  0.22566666  0.09476990
   0.11288013  0.22574456  0.37903249
   0.19616666  0.14233332  0.19117848
   0.02956417  0.05914406  0.28480309
   0.36283333  0.22566666  0.09476990
   0.36287696  0.22571543  0.37903414
   0.44616666  0.14233332  0.19117848
   0.27957901  0.05914097  0.28478818
   0.61283333  0.22566666  0.09476990
   0.61284826  0.22571372  0.37902835
   0.69616666  0.14233332  0.19117848
   0.52958965  0.05915604  0.28478390
   0.86283333  0.22566666  0.09476990
   0.86283251  0.22571483  0.37903943
   0.94616666  0.14233332  0.19117848
   0.77957506  0.05915523  0.28478696
   0.11283333  0.47566666  0.09476990
   0.11289920  0.47574856  0.37903671
   0.19616666  0.39233332  0.19117848
   0.02953902  0.30912505  0.28479554
   0.36283333  0.47566666  0.09476990
   0.36284375  0.47575664  0.37903554
   0.44616666  0.39233332  0.19117848
   0.27955781  0.30913156  0.28479731
   0.61283333  0.47566666  0.09476990
   0.61282480  0.47572049  0.37903157
   0.69616666  0.39233332  0.19117848
   0.52959315  0.30913741  0.28479084
   0.86283333  0.47566666  0.09476990
   0.86290714  0.47571226  0.37903162
   0.94616666  0.39233332  0.19117848
   0.77956812  0.30913573  0.28478667
   0.11283333  0.72566666  0.09476990
   0.11290677  0.72574009  0.37903622
   0.19616666  0.64233332  0.19117848
   0.02954231  0.55912176  0.28479232
   0.36283333  0.72566666  0.09476990
   0.36288542  0.72574450  0.37904440
   0.44616666  0.64233332  0.19117848
   0.27954462  0.55912327  0.28479498
   0.61283333  0.72566666  0.09476990
   0.61283033  0.72574030  0.37903891
   0.69616666  0.64233332  0.19117848
   0.52958038  0.55912838  0.28479547
   0.86283333  0.72566666  0.09476990
   0.86284034  0.72572232  0.37902515
   0.94616666  0.64233332  0.19117848
   0.77957794  0.55912532  0.28479580
   0.11283333  0.97566666  0.09476990
   0.11290035  0.97573886  0.37904102
   0.19616666  0.89233332  0.19117848
   0.02957347  0.80914361  0.28480109
   0.36283333  0.97566666  0.09476990
   0.36288167  0.97572286  0.37903128
   0.44616666  0.89233332  0.19117848
   0.27956305  0.80913502  0.28479382
   0.61283333  0.97566666  0.09476990
   0.61285192  0.97572055  0.37902987
   0.69616666  0.89233332  0.19117848
   0.52957269  0.80914575  0.28479253
   0.86283333  0.97566666  0.09476990
   0.86283031  0.97574607  0.37904351
   0.94616666  0.89233332  0.19117848
   0.77958150  0.80916304  0.28479894
 
 position of ions in cartesian coordinates  (Angst):
   0.00000000  1.94795503  2.00000000
   0.00007823  1.94862745  7.99900586
   1.24592215  1.22862148  4.03458228
  -0.00007832  0.51053160  6.01041245
   2.49184430  1.94795503  2.00000000
   2.49203607  1.94837604  7.99904063
   3.73776645  1.22862148  4.03458228
   2.49192929  0.51050496  6.01009775
   4.98368860  1.94795503  2.00000000
   4.98360292  1.94836124  7.99891844
   6.22961074  1.22862148  4.03458228
   4.98380449  0.51063505  6.01000737
   7.47553289  1.94795503  2.00000000
   7.47528461  1.94837087  7.99915225
   8.72145504  1.22862148  4.03458228
   7.47550748  0.51062804  6.01007198
  -1.24592215  4.10595549  2.00000000
  -1.24567381  4.10666245  7.99909476
   0.00000000  3.38662194  4.03458228
  -1.24615644  2.66836796  6.01025312
   1.24592215  4.10595549  2.00000000
   1.24557760  4.10673220  7.99907024
   2.49184430  3.38662194  4.03458228
   1.24584273  2.66842419  6.01029036
   3.73776645  4.10595549  2.00000000
   3.73741315  4.10642012  7.99898639
   4.98368860  3.38662194  4.03458228
   3.73801004  2.66847474  6.01015384
   6.22961075  4.10595549  2.00000000
   6.23011921  4.10634909  7.99898735
   7.47553289  3.38662194  4.03458228
   6.22961330  2.66846016  6.01006592
  -2.49184429  6.26395595  2.00000000
  -2.49147825  6.26458981  7.99908445
  -1.24592215  5.54462241  4.03458228
  -2.49202936  4.82634005  6.01018505
   0.00000000  6.26395595  2.00000000
   0.00013126  6.26462785  7.99925723
   1.24592215  5.54462241  4.03458228
  -0.00016962  4.82635311  6.01024126
   2.49184430  6.26395595  2.00000000
   2.49144745  6.26459160  7.99914123
   3.73776645  5.54462241  4.03458228
   2.49200571  4.82639718  6.01025156
   4.98368860  6.26395595  2.00000000
   4.98348113  6.26443639  7.99885080
   6.22961075  5.54462241  4.03458228
   4.98384088  4.82637081  6.01025848
  -3.73776644  8.42195641  2.00000000
  -3.73745829  8.42257964  7.99918581
  -2.49184429  7.70262287  4.03458228
  -3.73774988  6.98452917  6.01037007
  -1.24592214  8.42195641  2.00000000
  -1.24572042  8.42244157  7.99898028
   0.00000000  7.70262287  4.03458228
  -1.24596660  6.98445499  6.01021665
   1.24592215  8.42195641  2.00000000
   1.24583886  8.42242157  7.99895043
   2.49184430  7.70262287  4.03458228
   1.24592030  6.98454759  6.01018944
   3.73776645  8.42195641  2.00000000
   3.73734060  8.42264192  7.99923835
   4.98368860  7.70262287  4.03458228
   3.73776629  6.98469687  6.01032473
 


--------------------------------------------------------------------------------------------------------


 k-point  1 :   0.0000 0.0000 0.0000  plane waves:   48949
 k-point  2 :   0.2500 0.0000 0.0000  plane waves:   48934
 k-point  3 :   0.5000 0.0000 0.0000  plane waves:   48846
 k-point  4 :   0.0000 0.2500 0.0000  plane waves:   48934
 k-point  5 :   0.2500 0.2500 0.0000  plane waves:   48825
 k-point  6 :   0.5000 0.2500 0.0000  plane waves:   48825
 k-point  7 :  -0.2500 0.2500 0.0000  plane waves:   48934
 k-point  8 :   0.0000 0.5000 0.0000  plane waves:   48846
 k-point  9 :   0.2500 0.5000 0.0000  plane waves:   48825
 k-point 10 :   0.5000 0.5000 0.0000  plane waves:   48846
 k-point 11 :   0.0000 0.0000 0.5000  plane waves:   48954
 k-point 12 :   0.2500 0.0000 0.5000  plane waves:   48916
 k-point 13 :   0.5000 0.0000 0.5000  plane waves:   48860
 k-point 14 :   0.0000 0.2500 0.5000  plane waves:   48916
 k-point 15 :   0.2500 0.2500 0.5000  plane waves:   48882
 k-point 16 :   0.5000 0.2500 0.5000  plane waves:   48882
 k-point 17 :  -0.2500 0.2500 0.5000  plane waves:   48916
 k-point 18 :   0.0000 0.5000 0.5000  plane waves:   48860
 k-point 19 :   0.2500 0.5000 0.5000  plane waves:   48882
 k-point 20 :   0.5000 0.5000 0.5000  plane waves:   48860

 maximum and minimum number of plane-waves per node :      2064     1992

 maximum number of plane-waves:     48954
 maximum index in each direction: 
   IXMAX=   18   IYMAX=   18   IZMAX=   39
   IXMIN=  -19   IYMIN=  -19   IZMIN=  -39


 real space projection operators:
  total allocation   :      62181.14 KBytes
  max/ min on nodes  :       3159.14       2275.31


 parallel 3D FFT for wavefunctions:
    minimum data exchange during FFTs selected (reduces bandwidth)
 parallel 3D FFT for charge:
    minimum data exchange during FFTs selected (reduces bandwidth)


 total amount of memory used by VASP MPI-rank0   250992. kBytes
=======================================================================

   base      :      30000. kBytes
   nonlr-proj:      11662. kBytes
   fftplans  :       6402. kBytes
   grid      :      15219. kBytes
   one-center:         93. kBytes
   wavefun   :     187616. kBytes
 
     INWAV:  cpu time   67.3118: real time   67.8684
 initial charge density was supplied:
 number of electron     640.0000061 magnetization      42.3179608
 keeping initial charge density in first step


--------------------------------------------------------------------------------------------------------


 Maximum index for non-local projection operator          709
 Maximum index for augmentation-charges         1178 (set IRDMAX)


--------------------------------------------------------------------------------------------------------


 First call to EWALD:  gamma=   0.145
 Maximum number of real-space cells 4x 4x 2
 Maximum number of reciprocal cells 2x 2x 4

    FEWALD:  cpu time    0.0090: real time    0.0082


--------------------------------------- Iteration      1(   1)  ---------------------------------------


    POTLOK:  cpu time    0.3160: real time    0.3233
    SETDIJ:  cpu time    0.0210: real time    0.0206
     EDDAV:  cpu time  154.4145: real time  154.9805
 BZINTS: Fermi energy:  0.577776;640.000000 electrons
         Band energy:***********;  BLOECHL correction: -0.089094
       DOS:  cpu time    0.1770: real time    0.1771
    --------------------------------------------
      LOOP:  cpu time  154.9284: real time  155.5016

 eigenvalue-minimisations  : 38535
 total energy-change (2. order) :-0.3148345E+03  (-0.2182014E+03)
 number of electron     640.0000061 magnetization      42.3179608
 augmentation part      640.0000061 magnetization      42.3179608

 DIPCOR: dipole corrections for dipol
 direction  3 min pos   235,
 dipolmoment           0.000000      0.000000     -0.007228 electrons x Angstroem
 Tr[quadrupol]    -10521.001975

 energy correction for charged system         0.000000 eV
 dipol+quadrupol energy correction           -0.000003 eV
 added-field ion interaction          0.060268 eV  (added to PSCEN)


 Free energy of the ion-electron system (eV)
  ---------------------------------------------------
  alpha Z        PSCENC =      1150.52426233
  Ewald energy   TEWEN  =    243438.28718759
  -Hartree energ DENC   =   -310441.19476099
  -exchange      EXHF   =         0.00000000
  -V(xc)+E(xc)   XCENC  =      1955.62825564
  PAW double counting   =     71887.07538433   -76267.07415273
  entropy T*S    EENTRO =         0.00000000
  eigenvalues    EBANDS =     -1009.01956333
  atomic energy  EATOM  =     68970.93884176
  Solvation  Ediel_sol  =         0.00000000
  ---------------------------------------------------
  free energy    TOTEN  =      -314.83454540 eV

  energy without entropy =     -314.83454540  energy(sigma->0) =     -314.83454540


--------------------------------------------------------------------------------------------------------




--------------------------------------- Iteration      1(   2)  ---------------------------------------


    EDDIAG:  cpu time   17.7393: real time   17.9113
  RMM-DIIS:  cpu time   88.0466: real time   88.6722
    ORTHCH:  cpu time    3.1055: real time    3.1089
 BZINTS: Fermi energy:  0.552580;640.000000 electrons
         Band energy:***********;  BLOECHL correction: -0.148760
       DOS:  cpu time    0.1980: real time    0.1980
    --------------------------------------------
      LOOP:  cpu time  109.0894: real time  109.8904

 eigenvalue-minimisations  : 35352
 total energy-change (2. order) :-0.1398311E+02  (-0.1383421E+02)
 number of electron     640.0000061 magnetization      42.3179608
 augmentation part      640.0000061 magnetization      42.3179608

 DIPCOR: dipole corrections for dipol
 direction  3 min pos   235,
 dipolmoment           0.000000      0.000000     -0.007228 electrons x Angstroem
 Tr[quadrupol]    -10521.001975

 energy correction for charged system         0.000000 eV
 dipol+quadrupol energy correction           -0.000003 eV
 added-field ion interaction          0.060268 eV  (added to PSCEN)


 Free energy of the ion-electron system (eV)
  ---------------------------------------------------
  alpha Z        PSCENC =      1150.52426233
  Ewald energy   TEWEN  =    243438.28718759
  -Hartree energ DENC   =   -310441.19476099
  -exchange      EXHF   =         0.00000000
  -V(xc)+E(xc)   XCENC  =      1955.62825564
  PAW double counting   =     71887.07538433   -76267.07415273
  entropy T*S    EENTRO =         0.00000000
  eigenvalues    EBANDS =     -1023.00267104
  atomic energy  EATOM  =     68970.93884176
  Solvation  Ediel_sol  =         0.00000000
  ---------------------------------------------------
  free energy    TOTEN  =      -328.81765312 eV

  energy without entropy =     -328.81765312  energy(sigma->0) =     -328.81765312


--------------------------------------------------------------------------------------------------------




--------------------------------------- Iteration      1(   3)  ---------------------------------------


    EDDIAG:  cpu time   17.6683: real time   17.8828
  RMM-DIIS:  cpu time   90.3413: real time   91.7806
    ORTHCH:  cpu time    3.0225: real time    3.0925
 BZINTS: Fermi energy:  0.552775;640.000000 electrons
         Band energy:***********;  BLOECHL correction: -0.115769
       DOS:  cpu time    0.1850: real time    0.1854
    --------------------------------------------
      LOOP:  cpu time  111.2171: real time  112.9413

 eigenvalue-minimisations  : 36215
 total energy-change (2. order) :-0.5080108E+00  (-0.4311298E+00)
 number of electron     640.0000061 magnetization      42.3179608
 augmentation part      640.0000061 magnetization      42.3179608

 DIPCOR: dipole corrections for dipol
 direction  3 min pos   235,
 dipolmoment           0.000000      0.000000     -0.007228 electrons x Angstroem
 Tr[quadrupol]    -10521.001975

 energy correction for charged system         0.000000 eV
 dipol+quadrupol energy correction           -0.000003 eV
 added-field ion interaction          0.060268 eV  (added to PSCEN)


 Free energy of the ion-electron system (eV)
  ---------------------------------------------------
  alpha Z        PSCENC =      1150.52426233
  Ewald energy   TEWEN  =    243438.28718759
  -Hartree energ DENC   =   -310441.19476099
  -exchange      EXHF   =         0.00000000
  -V(xc)+E(xc)   XCENC  =      1955.62825564
  PAW double counting   =     71887.07538433   -76267.07415273
  entropy T*S    EENTRO =         0.00000000
  eigenvalues    EBANDS =     -1023.51068186
  atomic energy  EATOM  =     68970.93884176
  Solvation  Ediel_sol  =         0.00000000
  ---------------------------------------------------
  free energy    TOTEN  =      -329.32566394 eV

  energy without entropy =     -329.32566394  energy(sigma->0) =     -329.32566394


--------------------------------------------------------------------------------------------------------




--------------------------------------- Iteration      1(   4)  ---------------------------------------


    EDDIAG:  cpu time   17.6463: real time   17.9784
  RMM-DIIS:  cpu time   97.5672: real time   98.3309
    ORTHCH:  cpu time    3.1525: real time    3.1544
 BZINTS: Fermi energy:  0.552758;640.000000 electrons
         Band energy:***********;  BLOECHL correction: -0.115783
       DOS:  cpu time    0.2010: real time    0.2009
    --------------------------------------------
      LOOP:  cpu time  118.5670: real time  119.6646

 eigenvalue-minimisations  : 39134
 total energy-change (2. order) :-0.3529485E-01  (-0.3345003E-01)
 number of electron     640.0000061 magnetization      42.3179608
 augmentation part      640.0000061 magnetization      42.3179608

 DIPCOR: dipole corrections for dipol
 direction  3 min pos   235,
 dipolmoment           0.000000      0.000000     -0.007228 electrons x Angstroem
 Tr[quadrupol]    -10521.001975

 energy correction for charged system         0.000000 eV
 dipol+quadrupol energy correction           -0.000003 eV
 added-field ion interaction          0.060268 eV  (added to PSCEN)


 Free energy of the ion-electron system (eV)
  ---------------------------------------------------
  alpha Z        PSCENC =      1150.52426233
  Ewald energy   TEWEN  =    243438.28718759
  -Hartree energ DENC   =   -310441.19476099
  -exchange      EXHF   =         0.00000000
  -V(xc)+E(xc)   XCENC  =      1955.62825564
  PAW double counting   =     71887.07538433   -76267.07415273
  entropy T*S    EENTRO =         0.00000000
  eigenvalues    EBANDS =     -1023.54597671
  atomic energy  EATOM  =     68970.93884176
  Solvation  Ediel_sol  =         0.00000000
  ---------------------------------------------------
  free energy    TOTEN  =      -329.36095879 eV

  energy without entropy =     -329.36095879  energy(sigma->0) =     -329.36095879


--------------------------------------------------------------------------------------------------------




--------------------------------------- Iteration      1(   5)  ---------------------------------------


    EDDIAG:  cpu time   17.9943: real time   18.0516
  RMM-DIIS:  cpu time  103.9702: real time  104.1721
    ORTHCH:  cpu time    3.1245: real time    3.1272
 BZINTS: Fermi energy:  0.552756;640.000000 electrons
         Band energy:***********;  BLOECHL correction: -0.115782
       DOS:  cpu time    0.1990: real time    0.1993
    --------------------------------------------
      LOOP:  cpu time  125.2880: real time  125.5502

 eigenvalue-minimisations  : 41309
 total energy-change (2. order) :-0.4409698E-02  (-0.4318459E-02)
 number of electron     640.0000061 magnetization      42.3179608
 augmentation part      640.0000061 magnetization      42.3179608

 DIPCOR: dipole corrections for dipol
 direction  3 min pos   235,
 dipolmoment           0.000000      0.000000     -0.007228 electrons x Angstroem
 Tr[quadrupol]    -10521.001975

 energy correction for charged system         0.000000 eV
 dipol+quadrupol energy correction           -0.000003 eV
 added-field ion interaction          0.060268 eV  (added to PSCEN)


 Free energy of the ion-electron system (eV)
  ---------------------------------------------------
  alpha Z        PSCENC =      1150.52426233
  Ewald energy   TEWEN  =    243438.28718759
  -Hartree energ DENC   =   -310441.19476099
  -exchange      EXHF   =         0.00000000
  -V(xc)+E(xc)   XCENC  =      1955.62825564
  PAW double counting   =     71887.07538433   -76267.07415273
  entropy T*S    EENTRO =         0.00000000
  eigenvalues    EBANDS =     -1023.55038641
  atomic energy  EATOM  =     68970.93884176
  Solvation  Ediel_sol  =         0.00000000
  ---------------------------------------------------
  free energy    TOTEN  =      -329.36536849 eV

  energy without entropy =     -329.36536849  energy(sigma->0) =     -329.36536849


--------------------------------------------------------------------------------------------------------




--------------------------------------- Iteration      1(   6)  ---------------------------------------


    EDDIAG:  cpu time   18.5012: real time   18.6923
  RMM-DIIS:  cpu time  102.4994: real time  103.4032
    ORTHCH:  cpu time    3.0515: real time    3.1034
 BZINTS: Fermi energy:  0.552756;640.000000 electrons
         Band energy:***********;  BLOECHL correction: -0.115782
       DOS:  cpu time    0.2000: real time    0.2206
    --------------------------------------------
      LOOP:  cpu time  124.2521: real time  125.4194

 eigenvalue-minimisations  : 41102
 total energy-change (2. order) :-0.4160628E-03  (-0.4199689E-03)
 number of electron     640.0000061 magnetization      42.3179608
 augmentation part      640.0000061 magnetization      42.3179608

 DIPCOR: dipole corrections for dipol
 direction  3 min pos   235,
 dipolmoment           0.000000      0.000000     -0.007228 electrons x Angstroem
 Tr[quadrupol]    -10521.001975

 energy correction for charged system         0.000000 eV
 dipol+quadrupol energy correction           -0.000003 eV
 added-field ion interaction          0.060268 eV  (added to PSCEN)


 Free energy of the ion-electron system (eV)
  ---------------------------------------------------
  alpha Z        PSCENC =      1150.52426233
  Ewald energy   TEWEN  =    243438.28718759
  -Hartree energ DENC   =   -310441.19476099
  -exchange      EXHF   =         0.00000000
  -V(xc)+E(xc)   XCENC  =      1955.62825564
  PAW double counting   =     71887.07538433   -76267.07415273
  entropy T*S    EENTRO =         0.00000000
  eigenvalues    EBANDS =     -1023.55080247
  atomic energy  EATOM  =     68970.93884176
  Solvation  Ediel_sol  =         0.00000000
  ---------------------------------------------------
  free energy    TOTEN  =      -329.36578455 eV

  energy without entropy =     -329.36578455  energy(sigma->0) =     -329.36578455


--------------------------------------------------------------------------------------------------------




--------------------------------------- Iteration      1(   7)  ---------------------------------------


    EDDIAG:  cpu time   17.9073: real time   18.3256
WARNING in EDDRMM: call to ZHEGV failed, returncode =   8  4    138
  RMM-DIIS:  cpu time   83.5553: real time   84.9114
    ORTHCH:  cpu time    3.1195: real time    3.1323
 BZINTS: Fermi energy:  0.552756;640.000000 electrons
         Band energy:***********;  BLOECHL correction: -0.115782
       DOS:  cpu time    0.1990: real time    0.1985
    --------------------------------------------
      LOOP:  cpu time  104.7811: real time  106.5679

 eigenvalue-minimisations  : 33217
 total energy-change (2. order) :-0.4625181E-04  (-0.4161420E-04)
 number of electron     640.0000061 magnetization      42.3179608
 augmentation part      640.0000061 magnetization      42.3179608

 DIPCOR: dipole corrections for dipol
 direction  3 min pos   235,
 dipolmoment           0.000000      0.000000     -0.007228 electrons x Angstroem
 Tr[quadrupol]    -10521.001975

 energy correction for charged system         0.000000 eV
 dipol+quadrupol energy correction           -0.000003 eV
 added-field ion interaction          0.060268 eV  (added to PSCEN)


 Free energy of the ion-electron system (eV)
  ---------------------------------------------------
  alpha Z        PSCENC =      1150.52426233
  Ewald energy   TEWEN  =    243438.28718759
  -Hartree energ DENC   =   -310441.19476099
  -exchange      EXHF   =         0.00000000
  -V(xc)+E(xc)   XCENC  =      1955.62825564
  PAW double counting   =     71887.07538433   -76267.07415273
  entropy T*S    EENTRO =         0.00000000
  eigenvalues    EBANDS =     -1023.55084872
  atomic energy  EATOM  =     68970.93884176
  Solvation  Ediel_sol  =         0.00000000
  ---------------------------------------------------
  free energy    TOTEN  =      -329.36583080 eV

  energy without entropy =     -329.36583080  energy(sigma->0) =     -329.36583080


--------------------------------------------------------------------------------------------------------




--------------------------------------- Iteration      1(   8)  ---------------------------------------


    EDDIAG:  cpu time   18.0233: real time   18.2269
  RMM-DIIS:  cpu time   65.0111: real time   65.8700
    ORTHCH:  cpu time    3.1175: real time    3.1461
 BZINTS: Fermi energy:  0.552756;640.000000 electrons
         Band energy:***********;  BLOECHL correction: -0.115782
       DOS:  cpu time    0.2020: real time    0.2033
    --------------------------------------------
      LOOP:  cpu time   86.3539: real time   87.4464

 eigenvalue-minimisations  : 24957
 total energy-change (2. order) :-0.8500705E-05  (-0.8296423E-05)
 number of electron     640.0000061 magnetization      42.3179608
 augmentation part      640.0000061 magnetization      42.3179608

 DIPCOR: dipole corrections for dipol
 direction  3 min pos   235,
 dipolmoment           0.000000      0.000000     -0.007228 electrons x Angstroem
 Tr[quadrupol]    -10521.001975

 energy correction for charged system         0.000000 eV
 dipol+quadrupol energy correction           -0.000003 eV
 added-field ion interaction          0.060268 eV  (added to PSCEN)


 Free energy of the ion-electron system (eV)
  ---------------------------------------------------
  alpha Z        PSCENC =      1150.52426233
  Ewald energy   TEWEN  =    243438.28718759
  -Hartree energ DENC   =   -310441.19476099
  -exchange      EXHF   =         0.00000000
  -V(xc)+E(xc)   XCENC  =      1955.62825564
  PAW double counting   =     71887.07538433   -76267.07415273
  entropy T*S    EENTRO =         0.00000000
  eigenvalues    EBANDS =     -1023.55085722
  atomic energy  EATOM  =     68970.93884176
  Solvation  Ediel_sol  =         0.00000000
  ---------------------------------------------------
  free energy    TOTEN  =      -329.36583930 eV

  energy without entropy =     -329.36583930  energy(sigma->0) =     -329.36583930


--------------------------------------------------------------------------------------------------------




--------------------------------------- Iteration      1(   9)  ---------------------------------------


    EDDIAG:  cpu time   17.9763: real time   18.1756
  RMM-DIIS:  cpu time   57.5822: real time   58.2167
    ORTHCH:  cpu time    3.1105: real time    3.1389
 BZINTS: Fermi energy:  0.552756;640.000000 electrons
         Band energy:***********;  BLOECHL correction: -0.115782
       DOS:  cpu time    0.1940: real time    0.1947
    --------------------------------------------
      LOOP:  cpu time   78.8630: real time   79.7259

 eigenvalue-minimisations  : 21066
 total energy-change (2. order) :-0.1305365E-05  (-0.1120547E-05)
 number of electron     640.0000061 magnetization      42.3179608
 augmentation part      640.0000061 magnetization      42.3179608

 DIPCOR: dipole corrections for dipol
 direction  3 min pos   235,
 dipolmoment           0.000000      0.000000     -0.007228 electrons x Angstroem
 Tr[quadrupol]    -10521.001975

 energy correction for charged system         0.000000 eV
 dipol+quadrupol energy correction           -0.000003 eV
 added-field ion interaction          0.060268 eV  (added to PSCEN)


 Free energy of the ion-electron system (eV)
  ---------------------------------------------------
  alpha Z        PSCENC =      1150.52426233
  Ewald energy   TEWEN  =    243438.28718759
  -Hartree energ DENC   =   -310441.19476099
  -exchange      EXHF   =         0.00000000
  -V(xc)+E(xc)   XCENC  =      1955.62825564
  PAW double counting   =     71887.07538433   -76267.07415273
  entropy T*S    EENTRO =         0.00000000
  eigenvalues    EBANDS =     -1023.55085853
  atomic energy  EATOM  =     68970.93884176
  Solvation  Ediel_sol  =         0.00000000
  ---------------------------------------------------
  free energy    TOTEN  =      -329.36584061 eV

  energy without entropy =     -329.36584061  energy(sigma->0) =     -329.36584061


--------------------------------------------------------------------------------------------------------




--------------------------------------- Iteration      1(  10)  ---------------------------------------


    EDDIAG:  cpu time   17.8793: real time   18.0699
  RMM-DIIS:  cpu time   50.3223: real time   50.8713
    ORTHCH:  cpu time    3.1065: real time    3.1331
 BZINTS: Fermi energy:  0.552756;640.000000 electrons
         Band energy:***********;  BLOECHL correction: -0.115782
       DOS:  cpu time    0.1940: real time    0.1949
    --------------------------------------------
      LOOP:  cpu time   71.5021: real time   72.2691

 eigenvalue-minimisations  : 17700
 total energy-change (2. order) :-0.2766610E-06  (-0.2659380E-06)
 number of electron     640.0000061 magnetization      42.3179608
 augmentation part      640.0000061 magnetization      42.3179608

 DIPCOR: dipole corrections for dipol
 direction  3 min pos   235,
 dipolmoment           0.000000      0.000000     -0.007228 electrons x Angstroem
 Tr[quadrupol]    -10521.001975

 energy correction for charged system         0.000000 eV
 dipol+quadrupol energy correction           -0.000003 eV
 added-field ion interaction          0.060268 eV  (added to PSCEN)


 Free energy of the ion-electron system (eV)
  ---------------------------------------------------
  alpha Z        PSCENC =      1150.52426233
  Ewald energy   TEWEN  =    243438.28718759
  -Hartree energ DENC   =   -310441.19476099
  -exchange      EXHF   =         0.00000000
  -V(xc)+E(xc)   XCENC  =      1955.62825564
  PAW double counting   =     71887.07538433   -76267.07415273
  entropy T*S    EENTRO =         0.00000000
  eigenvalues    EBANDS =     -1023.55085881
  atomic energy  EATOM  =     68970.93884176
  Solvation  Ediel_sol  =         0.00000000
  ---------------------------------------------------
  free energy    TOTEN  =      -329.36584089 eV

  energy without entropy =     -329.36584089  energy(sigma->0) =     -329.36584089


--------------------------------------------------------------------------------------------------------




 average (electrostatic) potential at core
  the test charge radii are     0.9791
  (the norm of the test charge is              1.0000)
       1 -90.5430       2 -90.5771       3 -90.9014       4 -90.9144       5 -90.5443
       6 -90.5782       7 -90.9018       8 -90.9148       9 -90.5435      10 -90.5775
      11 -90.9020      12 -90.9157      13 -90.5452      14 -90.5784      15 -90.9017
      16 -90.9150      17 -90.5448      18 -90.5786      19 -90.9015      20 -90.9161
      21 -90.5437      22 -90.5784      23 -90.9002      24 -90.9164      25 -90.5441
      26 -90.5771      27 -90.9000      28 -90.9151      29 -90.5434      30 -90.5766
      31 -90.9003      32 -90.9160      33 -90.5444      34 -90.5774      35 -90.9013
      36 -90.9152      37 -90.5434      38 -90.5779      39 -90.9009      40 -90.9146
      41 -90.5426      42 -90.5766      43 -90.9013      44 -90.9147      45 -90.5446
      46 -90.5765      47 -90.9012      48 -90.9145      49 -90.5455      50 -90.5779
      51 -90.9010      52 -90.9152      53 -90.5447      54 -90.5789      55 -90.9003
      56 -90.9151      57 -90.5454      58 -90.5794      59 -90.9005      60 -90.9140
      61 -90.5451      62 -90.5780      63 -90.9002      64 -90.9150
 
 
 
 E-fermi :   0.5528     XC(G=0):  -5.9153     alpha+bet : -6.3132


 spin component 1

 k-point     1 :       0.0000    0.0000    0.0000
  band No.  band energies     occupation 
      1      -8.0544      1.00000
      2      -6.6060      1.00000
      3      -6.1008      1.00000
      4      -6.1007      1.00000
      5      -6.1004      1.00000
      6      -6.1004      1.00000
      7      -6.1002      1.00000
      8      -6.1001      1.00000
      9      -4.9609      1.00000
     10      -4.8887      1.00000
     11      -4.8886      1.00000
     12      -4.8884      1.00000
     13      -4.8882      1.00000
     14      -4.8882      1.00000
     15      -4.8881      1.00000
     16      -4.3278      1.00000
     17      -4.0991      1.00000
     18      -4.0990      1.00000
     19      -4.0989      1.00000
     20      -4.0451      1.00000
     21      -4.0450      1.00000
     22      -4.0448      1.00000
     23      -3.7074      1.00000
     24      -3.7073      1.00000
     25      -3.7072      1.00000
     26      -3.7071      1.00000
     27      -3.7071      1.00000
     28      -3.7070      1.00000
     29      -3.6782      1.00000
     30      -3.6781      1.00000
     31      -3.6780      1.00000
     32      -3.6778      1.00000
     33      -3.6777      1.00000
     34      -3.6776      1.00000
     35      -3.5806      1.00000
     36      -3.5804      1.00000
     37      -3.5803      1.00000
     38      -3.4646      1.00000
     39      -3.4644      1.00000
     40      -3.4642      1.00000
     41      -3.4641      1.00000
     42      -3.4640      1.00000
     43      -3.4639      1.00000
     44      -3.3984      1.00000
     45      -3.3983      1.00000
     46      -3.3981      1.00000
     47      -3.3140      1.00000
     48      -3.3140      1.00000
     49      -3.3139      1.00000
     50      -3.3138      1.00000
     51      -3.3137      1.00000
     52      -3.3134      1.00000
     53      -3.3090      1.00000
     54      -3.3088      1.00000
     55      -3.3085      1.00000
     56      -3.3083      1.00000
     57      -3.3082      1.00000
     58      -3.3081      1.00000
     59      -3.2994      1.00000
     60      -3.2992      1.00000
     61      -3.2989      1.00000
     62      -2.9332      1.00000
     63      -2.9331      1.00000
     64      -2.9326      1.00000
     65      -2.9326      1.00000
     66      -2.9323      1.00000
     67      -2.9322      1.00000
     68      -2.9103      1.00000
     69      -2.9103      1.00000
     70      -2.9101      1.00000
     71      -2.9100      1.00000
     72      -2.9099      1.00000
     73      -2.9098      1.00000
     74      -2.8985      1.00000
     75      -2.8984      1.00000
     76      -2.8980      1.00000
     77      -2.7909      1.00000
     78      -2.7909      1.00000
     79      -2.7908      1.00000
     80      -2.7907      1.00000
     81      -2.7905      1.00000
     82      -2.7902      1.00000
     83      -2.5230      1.00000
     84      -2.5229      1.00000
     85      -2.5229      1.00000
     86      -2.5228      1.00000
     87      -2.5227      1.00000
     88      -2.5225      1.00000
     89      -2.4881      1.00000
     90      -2.4881      1.00000
     91      -2.4880      1.00000
     92      -2.4880      1.00000
     93      -2.4871      1.00000
     94      -2.4870      1.00000
     95      -2.4561      1.00000
     96      -2.4560      1.00000
     97      -2.4558      1.00000
     98      -2.4558      1.00000
     99      -2.4556      1.00000
    100      -2.4553      1.00000
    101      -2.3777      1.00000
    102      -2.3776      1.00000
    103      -2.3776      1.00000
    104      -2.3776      1.00000
    105      -2.3774      1.00000
    106      -2.3773      1.00000
    107      -2.1780      1.00000
    108      -2.1780      1.00000
    109      -2.1777      1.00000
    110      -2.1775      1.00000
    111      -2.1775      1.00000
    112      -2.1774      1.00000
    113      -2.1711      1.00000
    114      -2.1701      1.00000
    115      -2.1699      1.00000
    116      -2.1105      1.00000
    117      -2.1104      1.00000
    118      -2.1103      1.00000
    119      -2.1102      1.00000
    120      -2.1099      1.00000
    121      -2.1098      1.00000
    122      -1.9649      1.00000
    123      -1.9480      1.00000
    124      -1.9479      1.00000
    125      -1.9475      1.00000
    126      -1.9305      1.00000
    127      -1.9305      1.00000
    128      -1.9304      1.00000
    129      -1.9303      1.00000
    130      -1.9303      1.00000
    131      -1.9302      1.00000
    132      -1.8957      1.00000
    133      -1.8957      1.00000
    134      -1.8876      1.00000
    135      -1.8622      1.00000
    136      -1.8621      1.00000
    137      -1.8401      1.00000
    138      -1.8395      1.00000
    139      -1.8391      1.00000
    140      -1.7715      1.00000
    141      -1.7714      1.00000
    142      -1.7710      1.00000
    143      -1.7709      1.00000
    144      -1.7708      1.00000
    145      -1.7706      1.00000
    146      -1.6421      1.00000
    147      -1.6419      1.00000
    148      -1.6417      1.00000
    149      -1.6415      1.00000
    150      -1.6414      1.00000
    151      -1.6414      1.00000
    152      -1.6413      1.00000
    153      -1.6413      1.00000
    154      -1.6412      1.00000
    155      -1.6411      1.00000
    156      -1.6410      1.00000
    157      -1.6410      1.00000
    158      -1.6139      1.00000
    159      -1.6136      1.00000
    160      -1.6136      1.00000
    161      -1.6134      1.00000
    162      -1.6131      1.00000
    163      -1.6130      1.00000
    164      -1.5618      1.00000
    165      -1.5618      1.00000
    166      -1.5617      1.00000
    167      -1.5616      1.00000
    168      -1.5616      1.00000
    169      -1.5614      1.00000
    170      -1.5316      1.00000
    171      -1.5310      1.00000
    172      -1.5308      1.00000
    173      -1.5306      1.00000
    174      -1.5301      1.00000
    175      -1.5295      1.00000
    176      -1.5227      1.00000
    177      -1.5226      1.00000
    178      -1.5223      1.00000
    179      -1.5222      1.00000
    180      -1.5221      1.00000
    181      -1.5219      1.00000
    182      -1.4547      1.00000
    183      -1.4546      1.00000
    184      -1.4545      1.00000
    185      -1.4544      1.00000
    186      -1.4541      1.00000
    187      -1.4540      1.00000
    188      -1.4494      1.00000
    189      -1.4492      1.00000
    190      -1.4229      1.00000
    191      -1.4228      1.00000
    192      -1.4227      1.00000
    193      -1.4226      1.00000
    194      -1.4225      1.00000
    195      -1.4224      1.00000
    196      -1.3704      1.00000
    197      -1.3703      1.00000
    198      -1.3702      1.00000
    199      -1.3702      1.00000
    200      -1.3699      1.00000
    201      -1.3698      1.00000
    202      -1.2017      1.00000
    203      -1.2016      1.00000
    204      -1.2015      1.00000
    205      -1.2015      1.00000
    206      -1.2013      1.00000
    207      -1.2008      1.00000
    208      -1.1291      1.00000
    209      -1.1288      1.00000
    210      -1.1286      1.00000
    211      -1.1204      1.00000
    212      -1.1200      1.00000
    213      -1.1197      1.00000
    214      -1.0728      1.00000
    215      -1.0726      1.00000
    216      -1.0725      1.00000
    217      -1.0724      1.00000
    218      -1.0723      1.00000
    219      -1.0722      1.00000
    220      -1.0412      1.00000
    221      -1.0409      1.00000
    222      -1.0407      1.00000
    223      -1.0407      1.00000
    224      -1.0407      1.00000
    225      -1.0405      1.00000
    226      -0.9480      1.00000
    227      -0.9479      1.00000
    228      -0.9476      1.00000
    229      -0.9475      1.00000
    230      -0.9474      1.00000
    231      -0.9474      1.00000
    232      -0.8463      1.00000
    233      -0.8450      1.00000
    234      -0.8061      1.00000
    235      -0.8060      1.00000
    236      -0.8059      1.00000
    237      -0.8059      1.00000
    238      -0.8058      1.00000
    239      -0.8058      1.00000
    240      -0.7263      1.00000
    241      -0.7261      1.00000
    242      -0.7260      1.00000
    243      -0.7259      1.00000
    244      -0.7256      1.00000
    245      -0.7254      1.00000
    246      -0.6885      1.00000
    247      -0.6884      1.00000
    248      -0.6882      1.00000
    249      -0.6880      1.00000
    250      -0.6879      1.00000
    251      -0.6877      1.00000
    252      -0.6508      1.00000
    253      -0.6497      1.00000
    254      -0.6301      1.00000
    255      -0.6300      1.00000
    256      -0.6299      1.00000
    257      -0.6299      1.00000
    258      -0.6292      1.00000
    259      -0.6290      1.00000
    260      -0.6132      1.00000
    261      -0.6132      1.00000
    262      -0.6130      1.00000
    263      -0.6130      1.00000
    264      -0.6129      1.00000
    265      -0.6128      1.00000
    266      -0.5984      1.00000
    267      -0.5981      1.00000
    268      -0.5979      1.00000
    269      -0.5979      1.00000
    270      -0.5977      1.00000
    271      -0.5974      1.00000
    272      -0.5130      1.00000
    273      -0.5128      1.00000
    274      -0.5127      1.00000
    275      -0.5127      1.00000
    276      -0.5127      1.00000
    277      -0.5125      1.00000
    278      -0.4436      1.00000
    279      -0.4433      1.00000
    280      -0.4430      1.00000
    281      -0.4042      1.00000
    282      -0.4036      1.00000
    283      -0.4029      1.00000
    284      -0.2643      1.00000
    285      -0.2640      1.00000
    286      -0.2638      1.00000
    287      -0.2637      1.00000
    288      -0.2636      1.00000
    289      -0.2634      1.00000
    290      -0.2270      1.00000
    291      -0.2266      1.00000
    292      -0.2087      1.00000
    293      -0.2086      1.00000
    294      -0.2082      1.00000
    295      -0.2081      1.00000
    296      -0.2079      1.00000
    297      -0.2075      1.00000
    298      -0.1755      1.00000
    299      -0.1751      1.00000
    300      -0.1746      1.00000
    301      -0.1528      1.00000
    302      -0.1525      1.00000
    303      -0.1522      1.00000
    304      -0.1354      1.00000
    305      -0.1350      1.00000
    306      -0.1348      1.00000
    307      -0.0670      1.00000
    308      -0.0668      1.00000
    309      -0.0543      1.00000
    310      -0.0542      1.00000
    311      -0.0540      1.00000
    312      -0.0539      1.00000
    313      -0.0537      1.00000
    314      -0.0536      1.00000
    315      -0.0495      1.00000
    316      -0.0491      1.00000
    317      -0.0489      1.00000
    318      -0.0489      1.00000
    319      -0.0488      1.00000
    320      -0.0487      1.00000
    321      -0.0486      1.00000
    322      -0.0216      1.00000
    323      -0.0214      1.00000
    324      -0.0211      1.00000
    325       0.0127      1.00000
    326       0.0132      1.00000
    327       0.0133      1.00000
    328       0.0134      1.00000
    329       0.0135      1.00000
    330       0.0136      1.00000
    331       0.1883      1.00000
    332       0.1886      1.00000
    333       0.1887      1.00000
    334       0.2202      1.00000
    335       0.2206      1.00000
    336       0.2207      1.00000
    337       0.4552      1.00000
    338       0.4556      1.00000
    339       0.4557      1.00000
    340       0.4559      1.00000
    341       0.4560      0.54505
    342       0.4560      0.54449
    343       0.9151      0.00000
    344       1.1852      0.00000
    345       1.1854      0.00000
    346       1.1855      0.00000
    347       1.6064      0.00000
    348       1.6066      0.00000
    349       1.6067      0.00000
    350       1.6068      0.00000
    351       1.6068      0.00000
    352       1.6069      0.00000
    353       2.2690      0.00000
    354       2.2692      0.00000
    355       2.2692      0.00000
    356       2.2693      0.00000
    357       2.2693      0.00000
    358       2.2695      0.00000
    359       2.4034      0.00000
    360       2.4035      0.00000
    361       2.4052      0.00000
    362       2.4967      0.00000
    363       2.4967      0.00000
    364       2.4969      0.00000
    365       2.4970      0.00000
    366       2.4971      0.00000
    367       2.4972      0.00000
    368       3.0496      0.00000
    369       3.0509      0.00000
    370       3.0510      0.00000
    371       3.1816      0.00000
    372       3.1817      0.00000
    373       3.1832      0.00000
    374       3.7084      0.00000
    375       3.7086      0.00000
    376       3.7086      0.00000
    377       3.7087      0.00000
    378       3.7087      0.00000
    379       3.7088      0.00000
    380       4.4066      0.00000
    381       4.4066      0.00000
    382       4.4067      0.00000
    383       4.4068      0.00000
    384       4.4069      0.00000
    385       4.4071      0.00000
    386       5.1804      0.00000
    387       5.3373      0.00000
    388       5.9911      0.00000
    389       5.9912      0.00000
    390       5.9913      0.00000
    391       5.9914      0.00000
    392       5.9915      0.00000
    393       5.9916      0.00000
    394       6.5737      0.00000
    395       6.6432      0.00000
    396       6.6447      0.00000
    397       6.6447      0.00000
    398       7.1257      0.00000
    399       7.1260      0.00000
    400       7.1263      0.00000
    401       7.1265      0.00000
    402       7.1268      0.00000
    403       7.1274      0.00000
    404       7.2337      0.00000
    405       7.2342      0.00000
    406       7.2346      0.00000
    407       7.2349      0.00000
    408       7.2351      0.00000
    409       7.2353      0.00000
    410       7.2461      0.00000
    411       7.2464      0.00000
    412       7.2466      0.00000
    413       7.3964      0.00000
    414       8.0166      0.00000
    415       8.0181      0.00000
    416       8.0184      0.00000
    417       8.3619      0.00000

 k-point     2 :       0.2500    0.0000    0.0000
  band No.  band energies     occupation 
      1      -7.9211      1.00000
      2      -6.9030      1.00000
      3      -6.4796      1.00000
      4      -6.4288      1.00000
      5      -6.4287      1.00000
      6      -5.5830      1.00000
      7      -5.5829      1.00000
      8      -5.5467      1.00000
      9      -5.2411      1.00000
     10      -5.1397      1.00000
     11      -5.1396      1.00000
     12      -4.8444      1.00000
     13      -4.5147      1.00000
     14      -4.5145      1.00000
     15      -4.3421      1.00000
     16      -4.2510      1.00000
     17      -4.2509      1.00000
     18      -4.2336      1.00000
     19      -4.1883      1.00000
     20      -4.0574      1.00000
     21      -4.0573      1.00000
     22      -4.0554      1.00000
     23      -4.0380      1.00000
     24      -3.9899      1.00000
     25      -3.9897      1.00000
     26      -3.7878      1.00000
     27      -3.7877      1.00000
     28      -3.7749      1.00000
     29      -3.7748      1.00000
     30      -3.7204      1.00000
     31      -3.7199      1.00000
     32      -3.6217      1.00000
     33      -3.6213      1.00000
     34      -3.6109      1.00000
     35      -3.5680      1.00000
     36      -3.5461      1.00000
     37      -3.5458      1.00000
     38      -3.5446      1.00000
     39      -3.5321      1.00000
     40      -3.5319      1.00000
     41      -3.4691      1.00000
     42      -3.4603      1.00000
     43      -3.4599      1.00000
     44      -3.3836      1.00000
     45      -3.3832      1.00000
     46      -3.3743      1.00000
     47      -3.3742      1.00000
     48      -3.3670      1.00000
     49      -3.3667      1.00000
     50      -3.3665      1.00000
     51      -3.3662      1.00000
     52      -3.2880      1.00000
     53      -3.2647      1.00000
     54      -3.2645      1.00000
     55      -3.2153      1.00000
     56      -3.2150      1.00000
     57      -3.2147      1.00000
     58      -3.2121      1.00000
     59      -3.2116      1.00000
     60      -3.1731      1.00000
     61      -3.1728      1.00000
     62      -3.1633      1.00000
     63      -3.1631      1.00000
     64      -3.0506      1.00000
     65      -3.0505      1.00000
     66      -2.9874      1.00000
     67      -2.9870      1.00000
     68      -2.9366      1.00000
     69      -2.8640      1.00000
     70      -2.8635      1.00000
     71      -2.8608      1.00000
     72      -2.8258      1.00000
     73      -2.8255      1.00000
     74      -2.8060      1.00000
     75      -2.8057      1.00000
     76      -2.8006      1.00000
     77      -2.8005      1.00000
     78      -2.7995      1.00000
     79      -2.7992      1.00000
     80      -2.6653      1.00000
     81      -2.6649      1.00000
     82      -2.6539      1.00000
     83      -2.6532      1.00000
     84      -2.6129      1.00000
     85      -2.6126      1.00000
     86      -2.5981      1.00000
     87      -2.5627      1.00000
     88      -2.5625      1.00000
     89      -2.5431      1.00000
     90      -2.5409      1.00000
     91      -2.5406      1.00000
     92      -2.5313      1.00000
     93      -2.5311      1.00000
     94      -2.4775      1.00000
     95      -2.4771      1.00000
     96      -2.4469      1.00000
     97      -2.4466      1.00000
     98      -2.4057      1.00000
     99      -2.4053      1.00000
    100      -2.4052      1.00000
    101      -2.4050      1.00000
    102      -2.3514      1.00000
    103      -2.3512      1.00000
    104      -2.3380      1.00000
    105      -2.2805      1.00000
    106      -2.2521      1.00000
    107      -2.2222      1.00000
    108      -2.2212      1.00000
    109      -2.1839      1.00000
    110      -2.1834      1.00000
    111      -2.1672      1.00000
    112      -2.1645      1.00000
    113      -2.1641      1.00000
    114      -2.1577      1.00000
    115      -2.1571      1.00000
    116      -2.0874      1.00000
    117      -2.0869      1.00000
    118      -2.0637      1.00000
    119      -2.0632      1.00000
    120      -2.0490      1.00000
    121      -2.0370      1.00000
    122      -2.0369      1.00000
    123      -2.0317      1.00000
    124      -2.0308      1.00000
    125      -2.0280      1.00000
    126      -2.0124      1.00000
    127      -1.9420      1.00000
    128      -1.9228      1.00000
    129      -1.9223      1.00000
    130      -1.9171      1.00000
    131      -1.9089      1.00000
    132      -1.9088      1.00000
    133      -1.8500      1.00000
    134      -1.8497      1.00000
    135      -1.8412      1.00000
    136      -1.8351      1.00000
    137      -1.8344      1.00000
    138      -1.8245      1.00000
    139      -1.8212      1.00000
    140      -1.7957      1.00000
    141      -1.7850      1.00000
    142      -1.7602      1.00000
    143      -1.7601      1.00000
    144      -1.7572      1.00000
    145      -1.7425      1.00000
    146      -1.7422      1.00000
    147      -1.7269      1.00000
    148      -1.7268      1.00000
    149      -1.7164      1.00000
    150      -1.7153      1.00000
    151      -1.7098      1.00000
    152      -1.7008      1.00000
    153      -1.6963      1.00000
    154      -1.6556      1.00000
    155      -1.6553      1.00000
    156      -1.6486      1.00000
    157      -1.6484      1.00000
    158      -1.6453      1.00000
    159      -1.6221      1.00000
    160      -1.6216      1.00000
    161      -1.6165      1.00000
    162      -1.6148      1.00000
    163      -1.5983      1.00000
    164      -1.5979      1.00000
    165      -1.5937      1.00000
    166      -1.5933      1.00000
    167      -1.5681      1.00000
[...]
   -.131E+00 -.582E-01 0.312E+04   0.141E-01 0.770E-02 -.311E+04   -.442E-02 0.388E-02 -.135E+01   0.119E+00 0.468E-01 -.602E+00
   0.836E-01 0.661E-01 -.313E+04   -.128E+00 -.988E-01 0.313E+04   -.470E-02 0.167E-02 0.135E+01   0.471E-01 0.307E-01 0.109E+01
   -.159E+00 -.142E+00 0.106E+04   0.472E-01 0.267E-01 -.106E+04   0.770E-02 -.429E-02 -.125E+00   0.102E+00 0.121E+00 0.199E+01
   -.179E+00 -.543E-01 -.105E+04   0.145E+00 -.315E-02 0.104E+04   -.226E-03 -.190E-02 0.139E+00   0.334E-01 0.564E-01 0.344E+01
   -.730E-01 -.994E-01 0.312E+04   0.296E-02 0.275E-02 -.311E+04   -.851E-02 0.391E-02 -.135E+01   0.810E-01 0.898E-01 -.576E+00
   -.296E+00 0.927E-01 -.313E+04   0.220E+00 -.157E+00 0.313E+04   0.107E-02 0.113E-02 0.135E+01   0.800E-01 0.615E-01 0.104E+01
   0.263E-01 -.231E+00 0.106E+04   -.525E-01 0.513E-01 -.106E+04   0.676E-02 -.261E-02 -.130E+00   0.212E-01 0.183E+00 0.198E+01
   -.129E+00 -.120E+00 -.105E+04   0.778E-01 -.130E-01 0.104E+04   0.327E-03 0.574E-02 0.115E+00   0.546E-01 0.123E+00 0.349E+01
   0.677E-01 -.101E+00 0.312E+04   -.137E-01 0.164E-01 -.311E+04   -.564E-02 0.500E-02 -.135E+01   -.503E-01 0.751E-01 -.546E+00
   -.198E+00 -.260E+00 -.313E+04   0.195E+00 0.105E+00 0.313E+04   0.104E-01 -.682E-02 0.135E+01   -.591E-02 0.159E+00 0.101E+01
   0.144E+00 -.232E+00 0.106E+04   -.558E-01 0.111E+00 -.106E+04   0.635E-02 -.392E-02 -.126E+00   -.948E-01 0.128E+00 0.203E+01
   0.193E+00 -.236E+00 -.105E+04   -.200E+00 0.473E-01 0.104E+04   0.141E-03 -.634E-02 0.130E+00   0.170E-02 0.192E+00 0.344E+01
   0.122E+00 -.560E-01 0.312E+04   -.333E-02 0.214E-01 -.311E+04   -.842E-02 0.346E-02 -.135E+01   -.108E+00 0.299E-01 -.583E+00
   0.421E+00 -.262E+00 -.313E+04   -.298E+00 0.175E+00 0.313E+04   -.344E-02 -.823E-02 0.135E+01   -.122E+00 0.957E-01 0.107E+01
   0.814E-02 -.152E+00 0.106E+04   0.590E-01 0.761E-01 -.106E+04   0.515E-02 -.350E-02 -.130E+00   -.723E-01 0.805E-01 0.203E+01
   0.106E+00 -.136E+00 -.105E+04   -.166E-01 0.351E-01 0.104E+04   -.391E-02 0.249E-02 0.135E+00   -.833E-01 0.953E-01 0.343E+01
   -.634E-02 0.400E-01 0.312E+04   -.613E-02 0.597E-02 -.311E+04   -.649E-02 0.492E-02 -.134E+01   0.205E-01 -.507E-01 -.594E+00
   0.404E+00 0.660E-01 -.313E+04   -.310E+00 -.179E-01 0.313E+04   0.630E-02 -.248E-02 0.133E+01   -.102E+00 -.458E-01 0.108E+01
   -.912E-01 -.565E-01 0.105E+04   0.137E-01 0.390E-01 -.106E+04   0.565E-02 -.201E-02 -.129E+00   0.713E-01 0.215E-01 0.203E+01
   0.274E-01 -.158E+00 -.105E+04   0.502E-01 0.111E+00 0.104E+04   -.678E-02 0.328E-02 0.116E+00   -.686E-01 0.433E-01 0.349E+01
   -.141E+00 0.560E-01 0.312E+04   0.397E-02 -.109E-01 -.311E+04   -.720E-02 0.633E-02 -.135E+01   0.142E+00 -.509E-01 -.582E+00
   -.213E-01 0.727E-01 -.313E+04   -.700E-01 -.121E-01 0.313E+04   -.363E-02 -.493E-02 0.132E+01   0.943E-01 -.553E-01 0.107E+01
   -.133E+00 -.158E-02 0.105E+04   0.225E-01 -.588E-02 -.106E+04   0.701E-02 -.356E-02 -.130E+00   0.101E+00 0.140E-01 0.200E+01
   -.220E+00 -.704E-01 -.105E+04   0.991E-01 0.159E-01 0.104E+04   0.785E-02 -.326E-02 0.123E+00   0.113E+00 0.586E-01 0.344E+01
   -.236E-02 0.129E+00 0.312E+04   0.618E-02 -.929E-02 -.311E+04   -.481E-02 0.334E-02 -.135E+01   0.543E-04 -.121E+00 -.558E+00
   -.421E+00 0.184E+00 -.313E+04   0.309E+00 -.896E-01 0.313E+04   0.172E-02 -.398E-02 0.134E+01   0.109E+00 -.892E-01 0.102E+01
   0.628E-01 -.507E-01 0.105E+04   -.303E-02 0.697E-01 -.106E+04   0.643E-02 -.228E-02 -.123E+00   -.660E-01 -.153E-01 0.207E+01
   -.402E-01 -.112E+00 -.105E+04   -.322E-01 0.145E-01 0.104E+04   -.434E-02 -.568E-02 0.108E+00   0.743E-01 0.991E-01 0.348E+01
   0.135E+00 0.967E-01 0.312E+04   -.402E-02 0.817E-02 -.311E+04   -.935E-02 0.388E-02 -.135E+01   -.120E+00 -.106E+00 -.571E+00
   0.232E-01 0.828E-01 -.313E+04   0.818E-01 -.410E-02 0.313E+04   -.611E-02 -.360E-02 0.134E+01   -.949E-01 -.726E-01 0.106E+01
   0.178E+00 -.876E-01 0.105E+04   -.343E-01 0.117E+00 -.106E+04   0.719E-02 -.196E-02 -.129E+00   -.149E+00 -.242E-01 0.208E+01
   0.228E+00 -.206E+00 -.105E+04   -.112E+00 0.124E+00 0.104E+04   0.352E-02 -.256E-02 0.125E+00   -.120E+00 0.827E-01 0.345E+01
   0.258E-01 0.243E-01 0.312E+04   -.805E-02 -.424E-02 -.311E+04   -.605E-02 0.528E-02 -.135E+01   -.115E-01 -.252E-01 -.603E+00
   0.315E+00 0.160E+00 -.313E+04   -.237E+00 -.820E-01 0.313E+04   -.734E-02 0.160E-02 0.133E+01   -.715E-01 -.805E-01 0.108E+01
   0.447E-01 0.729E-01 0.105E+04   -.607E-01 -.268E-02 -.106E+04   0.595E-02 -.395E-02 -.130E+00   0.638E-02 -.643E-01 0.205E+01
   0.195E+00 0.141E+00 -.105E+04   -.792E-01 -.265E-01 0.104E+04   -.101E-01 0.251E-02 0.123E+00   -.105E+00 -.119E+00 0.350E+01
   -.720E-01 0.281E-01 0.312E+04   -.150E-01 -.108E-01 -.311E+04   -.655E-02 0.292E-02 -.135E+01   0.923E-01 -.226E-01 -.629E+00
   0.114E+00 -.289E-01 -.313E+04   -.115E+00 0.617E-01 0.313E+04   0.726E-02 -.157E-04 0.133E+01   -.662E-02 -.320E-01 0.112E+01
   -.671E-01 0.147E+00 0.106E+04   -.192E-01 -.519E-01 -.106E+04   0.677E-02 -.246E-02 -.132E+00   0.808E-01 -.905E-01 0.202E+01
   -.361E-01 0.140E+00 -.105E+04   -.107E-01 -.845E-01 0.104E+04   -.568E-03 -.101E-02 0.131E+00   0.479E-01 -.579E-01 0.342E+01
   0.219E-01 0.158E+00 0.312E+04   0.613E-02 -.204E-01 -.311E+04   -.834E-02 0.279E-02 -.135E+01   -.178E-01 -.140E+00 -.570E+00
   -.673E-01 0.164E-01 -.313E+04   0.240E-01 0.851E-01 0.313E+04   -.407E-02 0.457E-02 0.133E+01   0.493E-01 -.106E+00 0.105E+01
   -.381E-01 0.259E+00 0.105E+04   0.540E-01 -.596E-01 -.106E+04   0.719E-02 -.242E-02 -.129E+00   -.240E-01 -.191E+00 0.206E+01
   -.132E+00 0.317E+00 -.105E+04   0.271E-01 -.198E+00 0.104E+04   0.748E-03 0.243E-02 0.142E+00   0.101E+00 -.124E+00 0.338E+01
   0.106E-01 0.161E+00 0.312E+04   0.169E-01 -.138E-01 -.311E+04   -.609E-02 0.362E-02 -.135E+01   -.213E-01 -.150E+00 -.593E+00
   -.366E+00 0.240E+00 -.313E+04   0.326E+00 -.729E-01 0.313E+04   -.100E-02 -.373E-02 0.135E+01   0.425E-01 -.161E+00 0.104E+01
   0.798E-01 0.155E+00 0.105E+04   0.233E-01 0.928E-02 -.106E+04   0.604E-02 -.545E-02 -.129E+00   -.107E+00 -.156E+00 0.208E+01
   -.299E-01 0.322E+00 -.105E+04   0.639E-01 -.163E+00 0.104E+04   0.903E-02 -.191E-02 0.120E+00   -.428E-01 -.161E+00 0.346E+01
 -----------------------------------------------------------------------------------------------
   -.593E-02 -.796E-02 -.955E+02   -.126E-12 -.606E-12 -.750E-11   -.105E-01 -.749E-03 -.261E+00   0.163E-01 -.261E-02 0.956E+02
 
 
 POSITION                                       TOTAL-FORCE (eV/Angst)
 -----------------------------------------------------------------------------------
      0.00000      1.94796      2.00000         0.000605     -0.003165      0.257859
      0.00008      1.94863      7.99901        -0.000714     -0.002779      0.002588
      1.24592      1.22862      4.03458        -0.000376      0.001680     -0.274640
     -0.00008      0.51053      6.01041         0.001620     -0.002962      0.015558
      2.49184      1.94796      2.00000        -0.001440      0.001265      0.256395
      2.49204      1.94838      7.99904        -0.000933      0.002820      0.002841
      3.73777      1.22862      4.03458        -0.000982      0.003972     -0.275406
      2.49193      0.51050      6.01010        -0.002380     -0.002110      0.017200
      4.98369      1.94796      2.00000         0.000589     -0.000823      0.258096
      4.98360      1.94836      7.99892         0.000032      0.000499      0.001897
      6.22961      1.22862      4.03458         0.001969      0.001557     -0.276078
      4.98380      0.51064      6.01001        -0.001159     -0.004414      0.017346
      7.47553      1.94796      2.00000         0.000533     -0.000854      0.255534
      7.47528      1.94837      7.99915         0.003003     -0.000238      0.003834
      8.72146      1.22862      4.03458        -0.001169      0.004013     -0.275549
      7.47551      0.51063      6.01007        -0.000510     -0.002291      0.017602
     -1.24592      4.10596      2.00000        -0.002127      0.000383      0.257548
     -1.24567      4.10666      7.99909        -0.002249     -0.000086      0.000584
      0.00000      3.38662      4.03458        -0.002362      0.000878     -0.273969
     -1.24616      2.66837      6.01025        -0.000862     -0.002688      0.015538
      1.24592      4.10596      2.00000         0.002530     -0.002760      0.259288
      1.24558      4.10673      7.99907         0.004140     -0.001564      0.000105
      2.49184      3.38662      4.03458         0.001770      0.000746     -0.274507
      1.24584      2.66842      6.01029         0.003580     -0.003823      0.016106
      3.73777      4.10596      2.00000        -0.001883     -0.003975      0.258391
      3.73741      4.10642      7.99899         0.001292     -0.002293     -0.000687
      4.98369      3.38662      4.03458        -0.000567      0.003077     -0.275197
      3.73801      2.66847      6.01015        -0.004996     -0.002883      0.015697
      6.22961      4.10596      2.00000         0.002468     -0.001104      0.257702
      6.23012      4.10635      7.99899        -0.001910      0.000670      0.000601
      7.47553      3.38662      4.03458        -0.000047      0.001781     -0.276263
      6.22961      2.66846      6.01007         0.001703     -0.002814      0.016830
     -2.49184      6.26396      2.00000         0.001533      0.000367      0.256099
     -2.49148      6.26459      7.99908        -0.001034     -0.000095      0.001678
     -1.24592      5.54462      4.03458        -0.000510      0.002068     -0.273992
     -2.49203      4.82634      6.01019         0.002237     -0.001042      0.017024
      0.00000      6.26396      2.00000        -0.002173      0.000737      0.257659
      0.00013      6.26463      7.99926        -0.000536      0.000543      0.001852
      1.24592      5.54462      4.03458        -0.002528      0.003185     -0.273889
     -0.00017      4.82635      6.01024        -0.000821      0.001072      0.014696
      2.49184      6.26396      2.00000        -0.000938      0.002124      0.258895
      2.49145      6.26459      7.99914        -0.000593      0.001556     -0.000557
      3.73777      5.54462      4.03458         0.000265      0.001515     -0.273467
      2.49201      4.82640      6.01025        -0.002472     -0.003442      0.016360
      4.98369      6.26396      2.00000         0.001864      0.002545      0.258601
      4.98348      6.26444      7.99885         0.003945      0.002664      0.001239
      6.22961      5.54462      4.03458         0.001970      0.003020     -0.275985
      4.98384      4.82637      6.01026        -0.000456     -0.001144      0.015908
     -3.73777      8.42196      2.00000         0.000173      0.000356      0.255138
     -3.73746      8.42258      7.99919        -0.000752     -0.000175      0.001266
     -2.49184      7.70262      4.03458        -0.003603      0.002169     -0.274853
     -3.73775      6.98453      6.01037         0.001103     -0.002106      0.015653
     -1.24592      8.42196      2.00000        -0.001192     -0.002144      0.256775
     -1.24572      8.42244      7.99898        -0.000308      0.000943      0.003097
      0.00000      7.70262      4.03458         0.001358      0.002095     -0.275568
     -1.24597      6.98445      6.01022         0.000568     -0.003566      0.016006
      1.24592      8.42196      2.00000         0.001878      0.000283      0.256434
      1.24584      8.42242      7.99895         0.001851      0.000647      0.002825
      2.49184      7.70262      4.03458        -0.000890      0.005419     -0.274582
      1.24592      6.98455      6.01019        -0.002982     -0.002871      0.016129
      3.73777      8.42196      2.00000         0.000121      0.000710      0.256473
      3.73734      8.42264      7.99924         0.001513      0.002232      0.000694
      4.98369      7.70262      4.03458         0.001997      0.003489     -0.274765
      3.73777      6.98470      6.01032         0.000241     -0.002867      0.014315
 -----------------------------------------------------------------------------------
    total drift:                               -0.000192     -0.011318     -0.182682


--------------------------------------------------------------------------------------------------------



  FREE ENERGIE OF THE ION-ELECTRON SYSTEM (eV)
  ---------------------------------------------------
  free  energy   TOTEN  =      -347.06068056 eV

  energy  without entropy=     -347.06068056  energy(sigma->0) =     -347.06068056
 


--------------------------------------------------------------------------------------------------------


    POTLOK:  cpu time    0.4019: real time    0.4050


--------------------------------------------------------------------------------------------------------


 writing wavefunctions
     LOOP+:  cpu time 1294.7672: real time 1318.2543
    4ORBIT:  cpu time    0.0000: real time    0.0000
 


 total charge     
 
# of ion       s       p       d       tot
------------------------------------------
    1        0.487   0.379   8.301   9.167
    2        0.492   0.388   8.294   9.174
    3        0.498   0.505   8.328   9.331
    4        0.502   0.515   8.316   9.334
    5        0.487   0.379   8.301   9.167
    6        0.492   0.388   8.295   9.175
    7        0.498   0.505   8.328   9.332
    8        0.502   0.515   8.317   9.334
    9        0.487   0.379   8.301   9.166
   10        0.492   0.388   8.293   9.174
   11        0.498   0.505   8.328   9.331
   12        0.502   0.515   8.317   9.335
   13        0.487   0.379   8.303   9.169
   14        0.492   0.388   8.295   9.176
   15        0.498   0.505   8.329   9.332
   16        0.502   0.516   8.316   9.334
   17        0.487   0.379   8.302   9.168
   18        0.492   0.388   8.294   9.175
   19        0.498   0.505   8.327   9.330
   20        0.502   0.515   8.317   9.335
   21        0.487   0.379   8.299   9.165
   22        0.492   0.388   8.293   9.173
   23        0.498   0.505   8.326   9.329
   24        0.502   0.515   8.317   9.335
   25        0.487   0.379   8.301   9.166
   26        0.492   0.388   8.293   9.173
   27        0.498   0.505   8.327   9.330
   28        0.502   0.515   8.317   9.334
   29        0.487   0.379   8.301   9.167
   30        0.492   0.388   8.294   9.174
   31        0.498   0.505   8.327   9.330
   32        0.502   0.515   8.318   9.335
   33        0.487   0.379   8.302   9.168
   34        0.492   0.388   8.293   9.174
   35        0.498   0.505   8.328   9.331
   36        0.502   0.515   8.317   9.334
   37        0.487   0.379   8.301   9.166
   38        0.492   0.388   8.294   9.175
   39        0.498   0.505   8.327   9.330
   40        0.502   0.515   8.316   9.333
   41        0.487   0.379   8.300   9.165
   42        0.492   0.388   8.292   9.173
   43        0.498   0.505   8.326   9.329
   44        0.502   0.515   8.315   9.333
   45        0.487   0.379   8.301   9.167
   46        0.492   0.388   8.292   9.172
   47        0.498   0.505   8.327   9.330
   48        0.502   0.515   8.315   9.332
   49        0.487   0.379   8.303   9.169
   50        0.492   0.388   8.295   9.175
   51        0.498   0.505   8.328   9.331
   52        0.502   0.515   8.316   9.333
   53        0.487   0.379   8.302   9.167
   54        0.492   0.388   8.295   9.176
   55        0.498   0.505   8.326   9.329
   56        0.502   0.515   8.317   9.334
   57        0.487   0.379   8.302   9.168
   58        0.492   0.389   8.295   9.176
   59        0.498   0.505   8.327   9.330
   60        0.502   0.515   8.315   9.332
   61        0.487   0.379   8.302   9.168
   62        0.492   0.388   8.294   9.174
   63        0.498   0.505   8.326   9.330
   64        0.502   0.515   8.317   9.334
--------------------------------------------------
tot         31.668  28.605 531.819 592.092
 


 magnetization (x)
 
# of ion       s       p       d       tot
------------------------------------------
    1       -0.006  -0.022   0.694   0.666
    2       -0.006  -0.023   0.710   0.682
    3       -0.006  -0.025   0.716   0.684
    4       -0.006  -0.025   0.727   0.695
    5       -0.005  -0.022   0.692   0.664
    6       -0.006  -0.023   0.709   0.680
    7       -0.006  -0.025   0.717   0.685
    8       -0.006  -0.025   0.726   0.695
    9       -0.006  -0.022   0.693   0.665
   10       -0.006  -0.023   0.710   0.681
   11       -0.006  -0.025   0.717   0.685
   12       -0.006  -0.025   0.727   0.696
   13       -0.005  -0.022   0.691   0.663
   14       -0.006  -0.023   0.708   0.680
   15       -0.006  -0.025   0.716   0.685
   16       -0.006  -0.025   0.726   0.694
   17       -0.006  -0.022   0.691   0.663
   18       -0.006  -0.023   0.708   0.680
   19       -0.006  -0.025   0.718   0.686
   20       -0.006  -0.025   0.726   0.694
   21       -0.006  -0.022   0.693   0.665
   22       -0.006  -0.023   0.710   0.681
   23       -0.006  -0.025   0.716   0.685
   24       -0.006  -0.025   0.727   0.695
   25       -0.006  -0.022   0.692   0.664
   26       -0.006  -0.023   0.710   0.681
   27       -0.006  -0.025   0.716   0.685
   28       -0.006  -0.025   0.725   0.694
   29       -0.006  -0.023   0.692   0.664
   30       -0.006  -0.023   0.710   0.681
   31       -0.006  -0.025   0.716   0.685
   32       -0.006  -0.025   0.725   0.693
   33       -0.006  -0.022   0.691   0.663
   34       -0.006  -0.023   0.709   0.681
   35       -0.006  -0.025   0.716   0.684
   36       -0.006  -0.025   0.726   0.694
   37       -0.006  -0.023   0.693   0.665
   38       -0.006  -0.023   0.710   0.682
   39       -0.006  -0.025   0.717   0.685
   40       -0.006  -0.025   0.727   0.695
   41       -0.006  -0.022   0.694   0.665
   42       -0.006  -0.023   0.711   0.682
   43       -0.007  -0.025   0.717   0.685
   44       -0.006  -0.025   0.727   0.695
   45       -0.006  -0.022   0.691   0.663
   46       -0.006  -0.023   0.710   0.681
   47       -0.006  -0.025   0.717   0.685
   48       -0.006  -0.025   0.727   0.695
   49       -0.005  -0.022   0.692   0.664
   50       -0.006  -0.023   0.710   0.681
   51       -0.006  -0.025   0.716   0.685
   52       -0.006  -0.025   0.727   0.695
   53       -0.006  -0.022   0.692   0.663
   54       -0.006  -0.023   0.709   0.680
   55       -0.006  -0.025   0.717   0.686
   56       -0.006  -0.025   0.727   0.695
   57       -0.005  -0.022   0.692   0.664
   58       -0.006  -0.023   0.709   0.681
   59       -0.006  -0.025   0.717   0.685
   60       -0.006  -0.025   0.727   0.695
   61       -0.006  -0.022   0.691   0.663
   62       -0.006  -0.023   0.709   0.680
   63       -0.006  -0.025   0.717   0.685
   64       -0.007  -0.025   0.727   0.695
--------------------------------------------------
tot         -0.388  -1.534  45.516  43.594
 
 BZINTS: Fermi energy:  0.552756;640.000000 electrons
         Band energy:***********;  BLOECHL correction: -0.115782

 total amount of memory used by VASP MPI-rank0   250992. kBytes
=======================================================================

   base      :      30000. kBytes
   nonlr-proj:      11662. kBytes
   fftplans  :       6402. kBytes
   grid      :      15219. kBytes
   one-center:         93. kBytes
   wavefun   :     187616. kBytes
 
  
  
 General timing and accounting informations for this job:
 ========================================================
  
                  Total CPU time used (sec):     1421.311
                            User time (sec):     1381.367
                          System time (sec):       39.944
                         Elapsed time (sec):     1455.705
  
                   Maximum memory used (kb):      372384.
                   Average memory used (kb):           0.
  
                          Minor page faults:        24684
                          Major page faults:            0
                 Voluntary context switches:        10765
