SQS-NiFe                                
           1
     9.967377    0.000000    0.000000
    -4.983689    8.632002    0.000000
     0.000000    0.000000   21.103747
   Ni
  64
Direct configuration=     1
   0.11283333  0.22566666  0.09476990
   0.11288013  0.22574456  0.37903249
   0.19616666  0.14233332  0.19117848
   0.02956417  0.05914406  0.28480309
   0.36283333  0.22566666  0.09476990
   0.36287696  0.22571543  0.37903414
   0.44616666  0.14233332  0.19117848
   0.27957901  0.05914097  0.28478818
   0.61283333  0.22566666  0.09476990
   0.61284826  0.22571372  0.37902835
   0.69616666  0.14233332  0.19117848
   0.52958965  0.05915604  0.28478390
   0.86283333  0.22566666  0.09476990
   0.86283251  0.22571483  0.37903943
   0.94616666  0.14233332  0.19117848
   0.77957506  0.05915523  0.28478696
   0.11283333  0.47566666  0.09476990
   0.11289920  0.47574856  0.37903671
   0.19616666  0.39233332  0.19117848
   0.02953902  0.30912505  0.28479554
   0.36283333  0.47566666  0.09476990
   0.36284375  0.47575664  0.37903554
   0.44616666  0.39233332  0.19117848
   0.27955781  0.30913156  0.28479731
   0.61283333  0.47566666  0.09476990
   0.61282480  0.47572049  0.37903157
   0.69616666  0.39233332  0.19117848
   0.52959315  0.30913741  0.28479084
   0.86283333  0.47566666  0.09476990
   0.86290714  0.47571226  0.37903162
   0.94616666  0.39233332  0.19117848
   0.77956812  0.30913573  0.28478667
   0.11283333  0.72566666  0.09476990
   0.11290677  0.72574009  0.37903622
   0.19616666  0.64233332  0.19117848
   0.02954231  0.55912176  0.28479232
   0.36283333  0.72566666  0.09476990
   0.36288542  0.72574450  0.37904440
   0.44616666  0.64233332  0.19117848
   0.27954462  0.55912327  0.28479498
   0.61283333  0.72566666  0.09476990
   0.61283033  0.72574030  0.37903891
   0.69616666  0.64233332  0.19117848
   0.52958038  0.55912838  0.28479547
   0.86283333  0.72566666  0.09476990
   0.86284034  0.72572232  0.37902515
   0.94616666  0.64233332  0.19117848
   0.77957794  0.55912532  0.28479580
   0.11283333  0.97566666  0.09476990
   0.11290035  0.97573886  0.37904102
   0.19616666  0.89233332  0.19117848
   0.02957347  0.80914361  0.28480109
   0.36283333  0.97566666  0.09476990
   0.36288167  0.97572286  0.37903128
   0.44616666  0.89233332  0.19117848
   0.27956305  0.80913502  0.28479382
   0.61283333  0.97566666  0.09476990
   0.61285192  0.97572055  0.37902987
   0.69616666  0.89233332  0.19117848
   0.52957269  0.80914575  0.28479253
   0.86283333  0.97566666  0.09476990
   0.86283031  0.97574607  0.37904351
   0.94616666  0.89233332  0.19117848
   0.77958150  0.80916304  0.28479894
