 vasp.5.4.4.18Apr17-6-g9f103f2a35 (build Dec 15 2018 21:27:11) complex          
  
 executed on             LinuxIFC date 2022.03.01  23:22:17
 running on   72 total cores
 distrk:  each k-point on   72 cores,    1 groups
 distr:  one band on NCORES_PER_BAND=  24 cores,    3 groups


--------------------------------------------------------------------------------------------------------


 INCAR:
 POTCAR:    PAW_PBE Ni 02Aug2007                  
 POTCAR:    PAW_PBE Fe 06Sep2000                  
 POTCAR:    PAW_PBE O 08Apr2002                   
 POTCAR:    PAW_PBE H 15Jun2001                   

 ----------------------------------------------------------------------------- 
|                                                                             |
|           W    W    AA    RRRRR   N    N  II  N    N   GGGG   !!!           |
|           W    W   A  A   R    R  NN   N  II  NN   N  G    G  !!!           |
|           W    W  A    A  R    R  N N  N  II  N N  N  G       !!!           |
|           W WW W  AAAAAA  RRRRR   N  N N  II  N  N N  G  GGG   !            |
|           WW  WW  A    A  R   R   N   NN  II  N   NN  G    G                |
|           W    W  A    A  R    R  N    N  II  N    N   GGGG   !!!           |
|                                                                             |
|      For optimal performance we recommend to set                            |
|        NCORE= 4 - approx SQRT( number of cores)                             |
|      NCORE specifies how many cores store one orbital (NPAR=cpu/NCORE).     |
|      This setting can  greatly improve the performance of VASP for DFT.     |
|      The default,   NCORE=1            might be grossly inefficient         |
|      on modern multi-core architectures or massively parallel machines.     |
|      Do your own testing !!!!                                               |
|      Unfortunately you need to use the default for GW and RPA calculations. |
|      (for HF NCORE is supported but not extensively tested yet)             |
|                                                                             |
 ----------------------------------------------------------------------------- 

 POTCAR:    PAW_PBE Ni 02Aug2007                  
   VRHFIN =Ni:                                                                  
   LEXCH  = PE                                                                  
   EATOM  =  1077.6739 eV,   79.2068 Ry                                         
                                                                                
   TITEL  = PAW_PBE Ni 02Aug2007                                                
   LULTRA =        F    use ultrasoft PP ?                                      
   IUNSCR =        1    unscreen: 0-lin 1-nonlin 2-no                           
   RPACOR =    2.000    partial core radius                                     
   POMASS =   58.690; ZVAL   =   10.000    mass and valenz                      
   RCORE  =    2.300    outmost cutoff radius                                   
   RWIGS  =    2.430; RWIGS  =    1.286    wigner-seitz radius (au A)           
   ENMAX  =  269.532; ENMIN  =  202.149 eV                                      
   RCLOC  =    1.201    cutoff for local pot                                    
   LCOR   =        T    correct aug charges                                     
   LPAW   =        T    paw PP                                                  
   EAUG   =  544.565                                                            
   DEXC   =    0.000                                                            
   RMAX   =    2.357    core radius for proj-oper                               
   RAUG   =    1.300    factor for augmentation sphere                          
   RDEP   =    2.390    radius for radial grids                                 
   RDEPT  =    1.838    core radius for aug-charge                              
                                                                                
   Atomic configuration                                                         
    9 entries                                                                   
     n  l   j            E        occ.                                          
     1  0  0.50     -8206.4253   2.0000                                         
     2  0  0.50      -976.1748   2.0000                                         
     2  1  1.50      -839.0571   6.0000                                         
     3  0  0.50      -105.9991   2.0000                                         
     3  1  1.50       -66.4603   6.0000                                         
     3  2  2.50        -4.6458   9.0000                                         
     4  0  0.50        -4.4926   1.0000                                         
     4  1  1.50        -4.0817   0.0000                                         
     4  3  2.50        -1.3606   0.0000                                         
   Description                                                                  
     l       E           TYP  RCUT    TYP  RCUT                                 
     2     -4.6457903     23  2.300                                             
     2     -6.0063729     23  2.300                                             
     0     -4.4925590     23  2.300                                             
     0      5.0102601     23  2.300                                             
     1     -2.7211652     23  2.300                                             
     1     16.5183231     23  2.300                                             
  local pseudopotential read in
  partial core-charges read in
  partial kinetic energy density read in
  atomic valenz-charges read in
  non local Contribution for L=           2  read in
    real space projection operators read in
  non local Contribution for L=           2  read in
    real space projection operators read in
  non local Contribution for L=           0  read in
    real space projection operators read in
  non local Contribution for L=           0  read in
    real space projection operators read in
  non local Contribution for L=           1  read in
    real space projection operators read in
  non local Contribution for L=           1  read in
    real space projection operators read in
    PAW grid and wavefunctions read in
 
   number of l-projection  operators is LMAX  =           6
   number of lm-projection operators is LMMAX =          18
 
 POTCAR:    PAW_PBE Fe 06Sep2000                  
   VRHFIN =Fe:  d7 s1                                                           
   LEXCH  = PE                                                                  
   EATOM  =   594.3153 eV,   43.6809 Ry                                         
                                                                                
   TITEL  = PAW_PBE Fe 06Sep2000                                                
   LULTRA =        F    use ultrasoft PP ?                                      
   IUNSCR =        1    unscreen: 0-lin 1-nonlin 2-no                           
   RPACOR =    2.000    partial core radius                                     
   POMASS =   55.847; ZVAL   =    8.000    mass and valenz                      
   RCORE  =    2.300    outmost cutoff radius                                   
   RWIGS  =    2.460; RWIGS  =    1.302    wigner-seitz radius (au A)           
   ENMAX  =  267.882; ENMIN  =  200.911 eV                                      
   RCLOC  =    1.701    cutoff for local pot                                    
   LCOR   =        T    correct aug charges                                     
   LPAW   =        T    paw PP                                                  
   EAUG   =  511.368                                                            
   DEXC   =    0.000                                                            
   RMAX   =    2.356    core radius for proj-oper                               
   RAUG   =    1.300    factor for augmentation sphere                          
   RDEP   =    2.442    radius for radial grids                                 
   RDEPT  =    1.890    core radius for aug-charge                              
                                                                                
   Atomic configuration                                                         
    9 entries                                                                   
     n  l   j            E        occ.                                          
     1  0  0.50     -6993.8440   2.0000                                         
     2  0  0.50      -814.6047   2.0000                                         
     2  1  1.50      -693.3689   6.0000                                         
     3  0  0.50       -89.4732   2.0000                                         
     3  1  1.50       -55.6373   6.0000                                         
     3  2  2.50        -3.8151   7.0000                                         
     4  0  0.50        -4.2551   1.0000                                         
     4  1  1.50        -3.4015   0.0000                                         
     4  3  2.50        -1.3606   0.0000                                         
   Description                                                                  
     l       E           TYP  RCUT    TYP  RCUT                                 
     2     -3.8151135     23  2.300                                             
     2     -5.1756961     23  2.300                                             
     0     -4.2550963     23  2.300                                             
     0      7.2035603     23  2.300                                             
     1     -2.7211652     23  2.300                                             
     1     18.4316424     23  2.300                                             
  local pseudopotential read in
  partial core-charges read in
  partial kinetic energy density read in
  atomic valenz-charges read in
  non local Contribution for L=           2  read in
    real space projection operators read in
  non local Contribution for L=           2  read in
    real space projection operators read in
  non local Contribution for L=           0  read in
    real space projection operators read in
  non local Contribution for L=           0  read in
    real space projection operators read in
  non local Contribution for L=           1  read in
    real space projection operators read in
  non local Contribution for L=           1  read in
    real space projection operators read in
    PAW grid and wavefunctions read in
 
   number of l-projection  operators is LMAX  =           6
   number of lm-projection operators is LMMAX =          18
 
 POTCAR:    PAW_PBE O 08Apr2002                   
   VRHFIN =O: s2p4                                                              
   LEXCH  = PE                                                                  
   EATOM  =   432.3788 eV,   31.7789 Ry                                         
                                                                                
   TITEL  = PAW_PBE O 08Apr2002                                                 
   LULTRA =        F    use ultrasoft PP ?                                      
   IUNSCR =        1    unscreen: 0-lin 1-nonlin 2-no                           
   RPACOR =    1.200    partial core radius                                     
   POMASS =   16.000; ZVAL   =    6.000    mass and valenz                      
   RCORE  =    1.520    outmost cutoff radius                                   
   RWIGS  =    1.550; RWIGS  =    0.820    wigner-seitz radius (au A)           
   ENMAX  =  400.000; ENMIN  =  300.000 eV                                      
   ICORE  =        2    local potential                                         
   LCOR   =        T    correct aug charges                                     
   LPAW   =        T    paw PP                                                  
   EAUG   =  605.392                                                            
   DEXC   =    0.000                                                            
   RMAX   =    1.553    core radius for proj-oper                               
   RAUG   =    1.300    factor for augmentation sphere                          
   RDEP   =    1.550    radius for radial grids                                 
   RDEPT  =    1.329    core radius for aug-charge                              
                                                                                
   Atomic configuration                                                         
    4 entries                                                                   
     n  l   j            E        occ.                                          
     1  0  0.50      -514.6923   2.0000                                         
     2  0  0.50       -23.9615   2.0000                                         
     2  1  0.50        -9.0305   4.0000                                         
     3  2  1.50        -9.5241   0.0000                                         
   Description                                                                  
     l       E           TYP  RCUT    TYP  RCUT                                 
     0    -23.9615318     23  1.200                                             
     0     -9.5240782     23  1.200                                             
     1     -9.0304911     23  1.520                                             
     1      8.1634956     23  1.520                                             
     2     -9.5240782      7  1.500                                             
  local pseudopotential read in
  partial core-charges read in
  partial kinetic energy density read in
  kinetic energy density of atom read in
  atomic valenz-charges read in
  non local Contribution for L=           0  read in
    real space projection operators read in
  non local Contribution for L=           0  read in
    real space projection operators read in
  non local Contribution for L=           1  read in
    real space projection operators read in
  non local Contribution for L=           1  read in
    real space projection operators read in
    PAW grid and wavefunctions read in
 
   number of l-projection  operators is LMAX  =           4
   number of lm-projection operators is LMMAX =           8
 
 POTCAR:    PAW_PBE H 15Jun2001                   
   VRHFIN =H: ultrasoft test                                                    
   LEXCH  = PE                                                                  
   EATOM  =    12.4884 eV,    0.9179 Ry                                         
                                                                                
   TITEL  = PAW_PBE H 15Jun2001                                                 
   LULTRA =        F    use ultrasoft PP ?                                      
   IUNSCR =        0    unscreen: 0-lin 1-nonlin 2-no                           
   RPACOR =    0.000    partial core radius                                     
   POMASS =    1.000; ZVAL   =    1.000    mass and valenz                      
   RCORE  =    1.100    outmost cutoff radius                                   
   RWIGS  =    0.700; RWIGS  =    0.370    wigner-seitz radius (au A)           
   ENMAX  =  250.000; ENMIN  =  200.000 eV                                      
   RCLOC  =    0.701    cutoff for local pot                                    
   LCOR   =        T    correct aug charges                                     
   LPAW   =        T    paw PP                                                  
   EAUG   =  400.000                                                            
   RMAX   =    1.123    core radius for proj-oper                               
   RAUG   =    1.200    factor for augmentation sphere                          
   RDEP   =    1.112    radius for radial grids                                 
   RDEPT  =    0.926    core radius for aug-charge                              
                                                                                
   Atomic configuration                                                         
    2 entries                                                                   
     n  l   j            E        occ.                                          
     1  0  0.50        -6.4927   1.0000                                         
     2  1  0.50        -3.4015   0.0000                                         
   Description                                                                  
     l       E           TYP  RCUT    TYP  RCUT                                 
     0     -6.4927494     23  1.100                                             
     0      6.8029130     23  1.100                                             
     1     -4.0817478     23  1.100                                             
  local pseudopotential read in
  atomic valenz-charges read in
  non local Contribution for L=           0  read in
    real space projection operators read in
  non local Contribution for L=           0  read in
    real space projection operators read in
  non local Contribution for L=           1  read in
    real space projection operators read in
    PAW grid and wavefunctions read in
 
   number of l-projection  operators is LMAX  =           3
   number of lm-projection operators is LMMAX =           5
 
 Optimization of the real space projectors (new method)

 maximal supplied QI-value         = 16.25
 optimisation between [QCUT,QGAM] = [ 11.54, 23.24] = [ 37.28,151.24] Ry 
 Optimized for a Real-space Cutoff    1.45 Angstroem

   l    n(q)    QCUT    max X(q) W(low)/X(q) W(high)/X(q)  e(spline) 
   2      9    11.539    60.317    0.19E-03    0.47E-04    0.16E-06
   2      9    11.539    55.921    0.19E-03    0.48E-04    0.16E-06
   0     10    11.539    51.690    0.80E-04    0.50E-04    0.24E-06
   0     10    11.539    30.015    0.73E-04    0.45E-04    0.22E-06
   1     10    11.539    18.849    0.87E-04    0.16E-03    0.71E-07
   1     10    11.539    14.624    0.73E-04    0.13E-03    0.64E-07
 Optimization of the real space projectors (new method)

 maximal supplied QI-value         = 16.25
 optimisation between [QCUT,QGAM] = [ 11.54, 23.24] = [ 37.28,151.24] Ry 
 Optimized for a Real-space Cutoff    1.53 Angstroem

   l    n(q)    QCUT    max X(q) W(low)/X(q) W(high)/X(q)  e(spline) 
   2     10    11.539    80.901    0.11E-03    0.14E-03    0.21E-06
   2     10    11.539    75.754    0.11E-03    0.14E-03    0.22E-06
   0     11    11.539    58.752    0.52E-04    0.18E-04    0.33E-06
   0     11    11.539    30.679    0.44E-04    0.16E-04    0.30E-06
   1     10    11.539    17.977    0.53E-04    0.29E-04    0.13E-06
   1     10    11.539    13.559    0.44E-04    0.25E-04    0.11E-06
 Optimization of the real space projectors (new method)

 maximal supplied QI-value         = 24.76
 optimisation between [QCUT,QGAM] = [ 11.64, 23.27] = [ 37.91,151.63] Ry 
 Optimized for a Real-space Cutoff    1.14 Angstroem

   l    n(q)    QCUT    max X(q) W(low)/X(q) W(high)/X(q)  e(spline) 
   0      8    11.635    20.381    0.10E-03    0.33E-03    0.24E-06
   0      8    11.635    15.268    0.11E-03    0.35E-03    0.26E-06
   1      7    11.635     5.964    0.24E-03    0.31E-03    0.30E-06
   1      7    11.635     5.382    0.22E-03    0.25E-03    0.26E-06
 Optimization of the real space projectors (new method)

 maximal supplied QI-value         = 34.20
 optimisation between [QCUT,QGAM] = [ 11.63, 23.26] = [ 37.87,151.49] Ry 
 Optimized for a Real-space Cutoff    1.21 Angstroem

   l    n(q)    QCUT    max X(q) W(low)/X(q) W(high)/X(q)  e(spline) 
   0      8    11.629    19.460    0.17E-03    0.34E-03    0.21E-06
   0      8    11.629    12.209    0.16E-03    0.33E-03    0.21E-06
   1      8    11.629     4.655    0.18E-03    0.16E-03    0.26E-06
  PAW_PBE Ni 02Aug2007                  :
 energy of atom  1       EATOM=-1077.6739
 kinetic energy error for atom=    0.0030 (will be added to EATOM!!)
  PAW_PBE Fe 06Sep2000                  :
 energy of atom  2       EATOM= -594.3153
 kinetic energy error for atom=    0.0026 (will be added to EATOM!!)
  PAW_PBE O 08Apr2002                   :
 energy of atom  3       EATOM= -432.3788
 kinetic energy error for atom=    0.0208 (will be added to EATOM!!)
  PAW_PBE H 15Jun2001                   :
 energy of atom  4       EATOM=  -12.4884
 kinetic energy error for atom=    0.0014 (will be added to EATOM!!)
 
 
 POSCAR: POSCAR                                  
  positions in direct lattice
  velocities in cartesian coordinates
 exchange correlation table for  LEXCH =        8
   RHO(1)=    0.500       N(1)  =     2000
   RHO(2)=  100.500       N(2)  =     4000

 VTST: version 3.2, (02/03/18)

 CHAIN: initializing optimizer
 
 OPT: Using VASP Dynamics algorithm
 CHAIN: Read ICHAIN            0
 
 POSCAR: POSCAR                                  
  positions in direct lattice
  velocities in cartesian coordinates
 


--------------------------------------------------------------------------------------------------------


 ion  position               nearest neighbor table
   1  0.999  0.001  0.191-  35 2.44  59 2.48  23 2.50  32 2.50   5 2.52  40 2.52  37 2.52   2 2.53
                             4 2.53  21 2.54  34 2.54  62 2.59
   2  0.248  0.999  0.192-  59 2.45  50 2.47  36 2.48   6 2.49  37 2.50   3 2.51  28 2.52  60 2.52
                             5 2.52  21 2.53   1 2.53   8 2.56
   3  0.499  0.002  0.192-  39 2.46  36 2.49  30 2.50  60 2.50  34 2.51   2 2.51   8 2.52  11 2.52
                             7 2.53  50 2.54  51 2.54  61 2.57
   4  0.998  0.251  0.192-  35 2.46  42 2.49  19 2.50  43 2.50  34 2.50  13 2.50   7 2.53   1 2.53
                            40 2.53  10 2.54   5 2.55  46 2.55
   5  0.249  0.249  0.191-  36 2.48  45 2.48  35 2.49  37 2.50  46 2.50   6 2.51   1 2.52  42 2.52
                             2 2.52  16 2.54   4 2.55  44 2.55
   6  0.332  0.165  0.287-  17 2.46  38 2.47   9 2.47  36 2.47   2 2.49   5 2.51  59 2.52  45 2.53
                            60 2.54  15 2.55  39 2.56  35 2.56
   7  0.749  0.253  0.193-  39 2.42  18 2.46  14 2.49  48 2.49  13 2.51  34 2.51  10 2.52   4 2.53
                             3 2.53  11 2.54  36 2.55  19 2.55
   8  0.418  0.084  0.094-  37 2.49  36 2.51  16 2.51   3 2.52  11 2.52  30 2.53  28 2.53  48 2.56
                             2 2.56
   9  0.416  0.086  0.382-  68 1.84  38 2.43   6 2.47  17 2.48  60 2.50  49 2.53  12 2.53  29 2.53
                            39 2.54  31 2.55
  10  0.831  0.166  0.290-  41 2.44  12 2.46  39 2.48  20 2.49  34 2.49  35 2.51  43 2.51   7 2.52
                            62 2.53  18 2.53   4 2.54  61 2.55
  11  0.668  0.085  0.096-  34 2.51  40 2.51  48 2.51   8 2.52   3 2.52  19 2.53  30 2.54  63 2.54
                             7 2.54
  12  0.667  0.087  0.384-  68 1.85  10 2.46  20 2.48  41 2.49  39 2.51  49 2.52   9 2.53  61 2.54
                            64 2.56  31 2.57
  13  0.999  0.499  0.193-  43 2.44  22 2.47  18 2.49  53 2.50   4 2.50  42 2.51   7 2.51  19 2.52
                            50 2.52  21 2.53  14 2.53  26 2.55
  14  0.748  0.499  0.192-  15 2.47  44 2.48  18 2.49   7 2.49  48 2.49  56 2.49  57 2.52  26 2.52
                            21 2.52  23 2.53  13 2.53  36 2.57
  15  0.584  0.419  0.286-  49 2.44  56 2.46  14 2.47  44 2.47  45 2.49  17 2.50  18 2.50  36 2.52
                             6 2.55  55 2.56  39 2.56  58 2.63
  16  0.420  0.333  0.094-  36 2.51   8 2.51  37 2.52  57 2.52  44 2.52  46 2.53  24 2.54  48 2.54
                             5 2.54
  17  0.414  0.330  0.381-  66 1.85  38 2.44   6 2.46   9 2.48  45 2.50  15 2.50  49 2.51  47 2.54
                            25 2.55  58 2.58
  18  0.830  0.416  0.287-  49 2.42   7 2.46  56 2.48  43 2.48  14 2.49  13 2.49  39 2.49  15 2.50
                            10 2.53  20 2.53  27 2.54  22 2.54
  19  0.919  0.335  0.096-  48 2.49   4 2.50  40 2.51  53 2.51  13 2.52  11 2.53  26 2.54  46 2.54
                             7 2.55
  20  0.914  0.332  0.385-  67 1.86  41 2.47  12 2.48  10 2.49  43 2.51  49 2.52  18 2.53  47 2.54
                            27 2.59  54 2.60
  21  0.998  0.749  0.193-  59 2.45  50 2.48  23 2.48  22 2.49  32 2.50  56 2.51  26 2.52  14 2.52
                             2 2.53  13 2.53   1 2.54  28 2.55
  22  0.083  0.666  0.287-  29 2.43  50 2.44  13 2.47  43 2.47  21 2.49  54 2.52  60 2.52  18 2.54
                            59 2.54  56 2.54  27 2.56  52 2.65
  23  0.753  0.752  0.192-  62 2.47  21 2.48  63 2.49   1 2.50  32 2.51  56 2.51  57 2.52  55 2.53
                            14 2.53  44 2.54  51 2.57  34 2.58
  24  0.417  0.584  0.096-  46 2.49  44 2.50  51 2.51  57 2.52  30 2.52  63 2.53  16 2.54  42 2.56
                            53 2.57
  25  0.412  0.581  0.383-  66 1.89  52 2.42  54 2.48  47 2.51  55 2.52  45 2.52  31 2.53  17 2.55
                            58 2.56  64 2.56
  26  0.916  0.585  0.095-  48 2.48  32 2.48  57 2.50  53 2.51  21 2.52  14 2.52  28 2.53  19 2.54
                            13 2.55
  27  0.910  0.586  0.384-  67 1.89  56 2.45  58 2.45  33 2.48  49 2.50  18 2.54  29 2.56  22 2.56
                            20 2.59  54 2.61
  28  0.167  0.835  0.095-  32 2.48  37 2.49  53 2.50   2 2.52  50 2.53   8 2.53  26 2.53  30 2.54
                            21 2.55
  29  0.165  0.836  0.377-  60 2.41  59 2.43  22 2.43  38 2.47  33 2.50  54 2.52   9 2.53  31 2.54
                            27 2.56
  30  0.417  0.833  0.097-  51 2.49   3 2.50  53 2.52  24 2.52   8 2.53  11 2.54  28 2.54  63 2.54
                            50 2.55
  31  0.413  0.832  0.385-  68 1.86  54 2.45  52 2.48  60 2.50  25 2.53  61 2.53  29 2.54  64 2.54
                             9 2.55  12 2.57
  32  0.920  0.833  0.095-  28 2.48  26 2.48   1 2.50  21 2.50  23 2.51  57 2.53  37 2.54  63 2.54
                            40 2.57
  33  0.916  0.834  0.381-  65 1.95  27 2.48  56 2.48  62 2.49  59 2.50  29 2.50  58 2.51  64 2.53
                            41 2.57  38 2.58
  34  0.749  0.005  0.193-  62 2.47  10 2.49  61 2.50   4 2.50  11 2.51   7 2.51   3 2.51  63 2.54
                             1 2.54  51 2.55  40 2.57  23 2.58
  35  0.077  0.161  0.284-   1 2.44   4 2.46  47 2.47   5 2.49  59 2.49  10 2.51  41 2.54  62 2.56
                             6 2.56  43 2.60  45 2.60  38 2.61
  36  0.493  0.245  0.192-   6 2.47   5 2.48   2 2.48   3 2.49  39 2.50  16 2.51   8 2.51  44 2.52
                            15 2.52   7 2.55  14 2.57  48 2.57
  37  0.171  0.083  0.095-  28 2.49   8 2.49   2 2.50   5 2.50  16 2.52   1 2.52  32 2.54  46 2.57
                            40 2.58
  38  0.175  0.086  0.384-  65 1.85   9 2.43  17 2.44   6 2.47  29 2.47  47 2.55  59 2.58  33 2.58
                            35 2.61  41 2.65
  39  0.586  0.167  0.286-   7 2.42   3 2.46  49 2.48  10 2.48  18 2.49  36 2.50  12 2.51   9 2.54
                            60 2.55   6 2.56  15 2.56  61 2.58
  40  0.917  0.086  0.094-  19 2.51  11 2.51   1 2.52  63 2.53   4 2.53  46 2.55  34 2.57  32 2.57
                            37 2.58
  41  0.914  0.088  0.383-  65 1.85  10 2.44  20 2.47  12 2.49  47 2.50  35 2.54  64 2.54  62 2.56
                            33 2.57  38 2.65
  42  0.246  0.497  0.194-  45 2.45  43 2.48   4 2.49  13 2.51  46 2.51   5 2.52  53 2.54  52 2.54
                            51 2.55  24 2.56  44 2.58  50 2.59
  43  0.077  0.418  0.287-  47 2.43  13 2.44  22 2.47  42 2.48  18 2.48   4 2.50  10 2.51  20 2.51
                            54 2.56  35 2.60  45 2.63  52 2.66
  44  0.503  0.500  0.191-  15 2.47  14 2.48  45 2.48  57 2.49  24 2.50  36 2.52  16 2.52  23 2.54
                             5 2.55  51 2.55  55 2.55  42 2.58
  45  0.336  0.417  0.285-  42 2.45  47 2.45  44 2.48   5 2.48  15 2.49  17 2.50  25 2.52   6 2.53
                            52 2.53  55 2.54  35 2.60  43 2.63
  46  0.171  0.337  0.096-  24 2.49   5 2.50  42 2.51  16 2.53  19 2.54   4 2.55  53 2.55  40 2.55
                            37 2.57
  47  0.164  0.331  0.377-  43 2.43  45 2.45  35 2.47  41 2.50  25 2.51  17 2.54  20 2.54  38 2.55
                            54 2.59
  48  0.673  0.336  0.096-  26 2.48  19 2.49  14 2.49   7 2.49  11 2.51  57 2.53  16 2.54   8 2.56
                            36 2.57
  49  0.666  0.336  0.379-  18 2.42  15 2.44  39 2.48  27 2.50  17 2.51  12 2.52  20 2.52   9 2.53
                            58 2.54
  50  0.245  0.753  0.193-  22 2.44  60 2.45   2 2.47  21 2.48  53 2.51  13 2.52  28 2.53   3 2.54
                            30 2.55  51 2.57  52 2.58  42 2.59
  51  0.498  0.750  0.193-  52 2.43  61 2.48  55 2.48  30 2.49  24 2.51  63 2.52   3 2.54  44 2.55
                            34 2.55  42 2.55  23 2.57  50 2.57
  52  0.348  0.673  0.289-  55 2.39  61 2.39  25 2.42  51 2.43  31 2.48  60 2.51  45 2.53  42 2.54
                            54 2.57  50 2.58  22 2.65  43 2.66
  53  0.165  0.586  0.097-  13 2.50  28 2.50  50 2.51  26 2.51  19 2.51  30 2.52  42 2.54  46 2.55
                            24 2.57
  54  0.170  0.590  0.385-  67 1.83  31 2.45  25 2.48  29 2.52  22 2.52  43 2.56  52 2.57  47 2.59
                            20 2.60  27 2.61
  55  0.584  0.672  0.288-  52 2.39  62 2.39  61 2.41  51 2.48  25 2.52  23 2.53  56 2.53  45 2.54
                            44 2.55  15 2.56  64 2.59  58 2.60
  56  0.829  0.661  0.288-  27 2.45  15 2.46  33 2.48  18 2.48  14 2.49  21 2.51  23 2.51  55 2.53
                            22 2.54  62 2.56  58 2.56  59 2.57
  57  0.668  0.584  0.095-  44 2.49  26 2.50  63 2.51  23 2.52  14 2.52  16 2.52  24 2.52  32 2.53
                            48 2.53
  58  0.667  0.587  0.389-  66 1.83  27 2.45  64 2.50  33 2.51  49 2.54  25 2.56  56 2.56  17 2.58
                            55 2.60  15 2.63
  59  0.082  0.916  0.285-  29 2.43  21 2.45   2 2.45   1 2.48  35 2.49  33 2.50   6 2.52  22 2.54
                            60 2.56  56 2.57  38 2.58  62 2.61
  60  0.334  0.914  0.288-  29 2.41  50 2.45   3 2.50  31 2.50   9 2.50  52 2.51   2 2.52  22 2.52
                             6 2.54  61 2.54  39 2.55  59 2.56
  61  0.583  0.910  0.289-  52 2.39  62 2.39  55 2.41  51 2.48  34 2.50  31 2.53  60 2.54  12 2.54
                            10 2.55   3 2.57  64 2.57  39 2.58
  62  0.820  0.910  0.287-  61 2.39  55 2.39  23 2.47  34 2.47  33 2.49  10 2.53  56 2.56  35 2.56
                            41 2.56  64 2.57   1 2.59  59 2.61
  63  0.668  0.834  0.097-  23 2.49  57 2.51  51 2.52  40 2.53  24 2.53  30 2.54  34 2.54  11 2.54
                            32 2.54
  64  0.665  0.833  0.390-  69 1.80  58 2.50  33 2.53  41 2.54  31 2.54  12 2.56  25 2.56  62 2.57
                            61 2.57  55 2.59
  65  0.007  0.012  0.436-  38 1.85  41 1.85  33 1.95
  66  0.494  0.492  0.437-  58 1.83  17 1.85  25 1.89
  67  0.003  0.504  0.436-  54 1.83  20 1.86  27 1.89
  68  0.499  0.004  0.436-   9 1.84  12 1.85  31 1.86
  69  0.682  0.829  0.474-  70 0.98  64 1.80
  70  0.784  0.887  0.493-  69 0.98
 

IMPORTANT INFORMATION: All symmetrisations will be switched off!
NOSYMM: (Re-)initialisation of all symmetry stuff for point group C_1.

 
 

Automatic generation of k-mesh.
 generate k-points for:    3    3    1
Space group operators:
 irot       det(A)        alpha          n_x          n_y          n_z        tau_x        tau_y        tau_z
    1     1.000000     0.000000     1.000000     0.000000     0.000000     0.000000     0.000000     0.000000
 
 Subroutine IBZKPT returns following result:
 ===========================================
 
 Found      5 irreducible k-points:
 
 Following reciprocal coordinates:
            Coordinates               Weight
  0.000000  0.000000  0.000000      1.000000
  0.333333  0.000000  0.000000      2.000000
  0.000000  0.333333  0.000000      2.000000
  0.333333  0.333333  0.000000      2.000000
 -0.333333  0.333333  0.000000      2.000000
 
 Following cartesian coordinates:
            Coordinates               Weight
  0.000000  0.000000  0.000000      1.000000
  0.033002  0.019054  0.000000      2.000000
  0.000000  0.038108  0.000000      2.000000
  0.033002  0.057162  0.000000      2.000000
 -0.033002  0.019054  0.000000      2.000000
 
 TETIRR: Found     24 inequivalent tetrahedra from       54


--------------------------------------------------------------------------------------------------------




 Dimension of arrays:
   k-points           NKPTS =      5   k-points in BZ     NKDIM =      5   number of bands    NBANDS=    402
   number of dos      NEDOS =    301   number of ions     NIONS =     70
   non local maximal  LDIM  =      6   non local SUM 2l+1 LMDIM =     18
   total plane-waves  NPLWV = ******
   max r-space proj   IRMAX =   8292   max aug-charges    IRDMAX=  19623
   dimension x,y,z NGX =    80 NGY =   80 NGZ =  160
   dimension x,y,z NGXF=   160 NGYF=  160 NGZF=  320
   support grid    NGXF=   160 NGYF=  160 NGZF=  320
   ions per type =              33  31   5   1
   NGX,Y,Z   is equivalent  to a cutoff of  13.17, 13.17, 12.52 a.u.
   NGXF,Y,Z  is equivalent  to a cutoff of  26.34, 26.34, 25.03 a.u.

 SYSTEM =  SQS-NiFe                                
 POSCAR =  POSCAR                                  

 Startparameter for this run:
   NWRITE =      2    write-flag & timer
   PREC   = accura    normal or accurate (medium, high low for compatibility)
   ISTART =      1    job   : 0-new  1-cont  2-samecut
   ICHARG =      1    charge: 1-file 2-atom 10-const
   ISPIN  =      2    spin polarized calculation?
   LNONCOLLINEAR =      F non collinear calculations
   LSORBIT =      F    spin-orbit coupling
   INIWAV =      1    electr: 0-lowe 1-rand  2-diag
   LASPH  =      F    aspherical Exc in radial PAW
   METAGGA=      F    non-selfconsistent MetaGGA calc.

 Electronic Relaxation 1
   ENCUT  =  520.0 eV  38.22 Ry    6.18 a.u.  18.78 18.78 39.52*2*pi/ulx,y,z
   ENINI  =  520.0     initial cutoff
   ENAUG  =  605.4 eV  augmentation charge cutoff
   NELM   =    200;   NELMIN=  2; NELMDL=  0     # of ELM steps 
   EDIFF  = 0.1E-05   stopping-criterion for ELM
   LREAL  =      T    real-space projection
   NLSPLINE    = F    spline interpolate recip. space projectors
   LCOMPAT=      F    compatible to vasp.4.4
   GGA_COMPAT  = T    GGA compatible to vasp.4.4-vasp.4.6
   LMAXPAW     = -100 max onsite density
   LMAXMIX     =    2 max onsite mixed and CHGCAR
   VOSKOWN=      0    Vosko Wilk Nusair interpolation
   ROPT   =   -0.00025  -0.00025  -0.00025  -0.00025
 Ionic relaxation
   EDIFFG = -.2E-01   stopping-criterion for IOM
   NSW    =      0    number of steps for IOM
   NBLOCK =      1;   KBLOCK =      1    inner block; outer block 
   IBRION =     -1    ionic relax: 0-MD 1-quasi-New 2-CG
   NFREE  =      0    steps in history (QN), initial steepest desc. (CG)
   ISIF   =      2    stress and relaxation
   IWAVPR =     10    prediction:  0-non 1-charg 2-wave 3-comb
   ISYM   =      0    0-nonsym 1-usesym 2-fastsym
   LCORR  =      T    Harris-Foulkes like correction to forces

   POTIM  = 0.5000    time-step for ionic-motion
   TEIN   =    0.0    initial temperature
   TEBEG  =    0.0;   TEEND  =   0.0 temperature during run
   SMASS  =  -3.00    Nose mass-parameter (am)
   estimated Nose-frequenzy (Omega)   =  0.10E-29 period in steps =****** mass=  -0.233E-26a.u.
   SCALEE = 1.0000    scale energy and forces
   NPACO  =    256;   APACO  = 16.0  distance and # of slots for P.C.
   PSTRESS=    0.0 pullay stress

  Mass of Ions in am
   POMASS =  58.69 55.85 16.00  1.00
  Ionic Valenz
   ZVAL   =  10.00  8.00  6.00  1.00
  Atomic Wigner-Seitz radii
   RWIGS  =  -1.00 -1.00 -1.00 -1.00
  virtual crystal weights 
   VCA    =   1.00  1.00  1.00  1.00
   NELECT =     609.0000    total number of electrons
   NUPDOWN=      -1.0000    fix difference up-down

 DOS related values:
   EMIN   =  10.00;   EMAX   =-10.00  energy-range for DOS
   EFERMI =   0.00
   ISMEAR =    -5;   SIGMA  =   0.20  broadening in eV -4-tet -1-fermi 0-gaus

 Electronic relaxation 2 (details)
   IALGO  =     68    algorithm
   LDIAG  =      T    sub-space diagonalisation (order eigenvalues)
   LSUBROT=      F    optimize rotation matrix (better conditioning)
   TURBO    =      0    0=normal 1=particle mesh
   IRESTART =      0    0=no restart 2=restart with 2 vectors
   NREBOOT  =      0    no. of reboots
   NMIN     =      0    reboot dimension
   EREF     =   0.00    reference energy to select bands
   IMIX   =      4    mixing-type and parameters
     AMIX     =   0.40;   BMIX     =  1.00
     AMIX_MAG =   1.60;   BMIX_MAG =  1.00
     AMIN     =   0.10
     WC   =   100.;   INIMIX=   1;  MIXPRE=   1;  MAXMIX= -45

 Intra band minimization:
   WEIMIN = 0.0000     energy-eigenvalue tresh-hold
   EBREAK =  0.62E-09  absolut break condition
   DEPER  =   0.30     relativ break condition  

   TIME   =   0.40     timestep for ELM

  volume/ion in A,a.u.               =      26.82       181.02
  Fermi-wavevector in a.u.,A,eV,Ry     =   1.124782  2.125530 17.213203  1.265135
  Thomas-Fermi vector in A             =   2.261456
 
 Write flags
   LWAVE        =      T    write WAVECAR
   LDOWNSAMPLE  =      F    k-point downsampling of WAVECAR
   LCHARG       =      T    write CHGCAR
   LVTOT        =      F    write LOCPOT, total local potential
   LVHAR        =      F    write LOCPOT, Hartree potential only
   LELF         =      F    write electronic localiz. function (ELF)
   LORBIT       =     11    0 simple, 1 ext, 2 COOP (PROOUT), +10 PAW based schemes


 Dipole corrections
   LMONO  =      F    monopole corrections only (constant potential shift)
   LDIPOL =      T    correct potential (dipole corrections)
   IDIPOL =      3    1-x, 2-y, 3-z, 4-all directions 
   EPSILON=  1.0000000 bulk dielectric constant

 Exchange correlation treatment:
   GGA     =    --    GGA type
   LEXCH   =     8    internal setting for exchange type
   VOSKOWN=      0    Vosko Wilk Nusair interpolation
   LHFCALC =     F    Hartree Fock is set to
   LHFONE  =     F    Hartree Fock one center treatment
   AEXX    =    0.0000 exact exchange contribution

 Linear response parameters
   LEPSILON=     F    determine dielectric tensor
   LRPA    =     F    only Hartree local field effects (RPA)
   LNABLA  =     F    use nabla operator in PAW spheres
   LVEL    =     F    velocity operator in full k-point grid
   LINTERFAST=   F  fast interpolation
   KINTER  =     0    interpolate to denser k-point grid
   CSHIFT  =0.1000    complex shift for real part using Kramers Kronig
   OMEGAMAX=  -1.0    maximum frequency
   DEG_THRESHOLD= 0.2000000E-02 threshold for treating states as degnerate
   RTIME   =   -0.100 relaxation time in fs
  (WPLASMAI=    0.000 imaginary part of plasma frequency in eV, 0.658/RTIME)
   DFIELD  = 0.0000000 0.0000000 0.0000000 field for delta impulse in time
 
 Orbital magnetization related:
   ORBITALMAG=     F  switch on orbital magnetization
   LCHIMAG   =     F  perturbation theory with respect to B field
   DQ        =  0.001000  dq finite difference perturbation B field
   LLRAUG    =     F  two centre corrections for induced B field



--------------------------------------------------------------------------------------------------------


 Static calculation
 charge density and potential will be updated during run
 spin polarized calculation
 RMM-DIIS sequential band-by-band and
  variant of blocked Davidson during initial phase
 perform sub-space diagonalisation
    before iterative eigenvector-optimisation
 modified Broyden-mixing scheme, WC =      100.0
 initial mixing is a Kerker type mixing with AMIX =  0.4000 and BMIX =      1.0000
 Hartree-type preconditioning will be used
 using additional bands           97
 real space projection scheme for non local part
 use partial core corrections
 calculate Harris-corrections to forces 
   (improved forces if not selfconsistent)
 use gradient corrections 
 use of overlap-Matrix (Vanderbilt PP)
 Fermi weights with tetrahedron method with Bloechl corrections


--------------------------------------------------------------------------------------------------------


  energy-cutoff  :      520.00
  volume of cell :     1877.75
      direct lattice vectors                 reciprocal lattice vectors
    10.100310000  0.000000000  0.000000000     0.099006862  0.057161638  0.000000000
    -5.050155000  8.747125050  0.000000000     0.000000000  0.114323277  0.000000000
     0.000000000  0.000000000 21.253800000     0.000000000  0.000000000  0.047050410

  length of vectors
    10.100310000 10.100310003 21.253800000     0.114323277  0.114323277  0.047050410


 
 old parameters found on file WAVECAR:
  energy-cutoff  :      520.00
  volume of cell :     1877.75
      direct lattice vectors                 reciprocal lattice vectors
    10.100310000  0.000000000  0.000000000     0.099006862  0.057161638  0.000000000
    -5.050155000  8.747125050  0.000000000     0.000000000  0.114323277  0.000000000
     0.000000000  0.000000000 21.253800000     0.000000000  0.000000000  0.047050410

  length of vectors

 
 k-points in units of 2pi/SCALE and weight: read from INCAR                         
   0.00000000  0.00000000  0.00000000       0.111
   0.03300229  0.01905388  0.00000000       0.222
   0.00000000  0.03810776  0.00000000       0.222
   0.03300229  0.05716164  0.00000000       0.222
  -0.03300229  0.01905388  0.00000000       0.222
 
 k-points in reciprocal lattice and weights: read from INCAR                         
   0.00000000  0.00000000  0.00000000       0.111
   0.33333333  0.00000000  0.00000000       0.222
   0.00000000  0.33333333  0.00000000       0.222
   0.33333333  0.33333333  0.00000000       0.222
  -0.33333333  0.33333333  0.00000000       0.222
 
 position of ions in fractional coordinates (direct lattice) 
   0.99904300  0.00064200  0.19052300
   0.24849100  0.99862800  0.19205500
   0.49902500  0.00192700  0.19180600
   0.99813900  0.25067400  0.19194200
   0.24921500  0.24886200  0.19118600
   0.33213842  0.16462077  0.28726279
   0.74893500  0.25278100  0.19317500
   0.41837500  0.08394000  0.09411800
   0.41636741  0.08563779  0.38215504
   0.83134024  0.16630610  0.28950766
   0.66797000  0.08472300  0.09569300
   0.66707419  0.08675463  0.38359805
   0.99908600  0.49910800  0.19304000
   0.74816900  0.49871100  0.19204600
   0.58352175  0.41869547  0.28636674
   0.41961000  0.33337100  0.09414000
   0.41434936  0.32967730  0.38116201
   0.83008619  0.41621812  0.28743072
   0.91855900  0.33501600  0.09568700
   0.91372671  0.33198226  0.38452284
   0.99765800  0.74896900  0.19256000
   0.08275856  0.66575174  0.28695096
   0.75346500  0.75172800  0.19162900
   0.41737300  0.58352400  0.09623400
   0.41165536  0.58104587  0.38293474
   0.91550800  0.58461900  0.09542900
   0.90958102  0.58590542  0.38410172
   0.16682900  0.83490800  0.09456700
   0.16476467  0.83632828  0.37717516
   0.41715300  0.83338800  0.09679300
   0.41330530  0.83211795  0.38503664
   0.91985100  0.83263700  0.09539800
   0.91604883  0.83419585  0.38059716
   0.74918200  0.00453800  0.19311300
   0.07652111  0.16072379  0.28444255
   0.49319000  0.24544000  0.19167800
   0.17139600  0.08339300  0.09535900
   0.17547189  0.08577017  0.38398097
   0.58629187  0.16665921  0.28552012
   0.91693100  0.08581500  0.09410100
   0.91377745  0.08766313  0.38343896
   0.24596400  0.49669300  0.19369900
   0.07662368  0.41770568  0.28727633
   0.50297300  0.49962100  0.19096300
   0.33609911  0.41670941  0.28539469
   0.17081400  0.33724200  0.09550500
   0.16426107  0.33148442  0.37670371
   0.67264700  0.33598100  0.09600300
   0.66613890  0.33571425  0.37888749
   0.24490500  0.75270000  0.19343600
   0.49840300  0.74988300  0.19260700
   0.34801431  0.67263583  0.28869782
   0.16470600  0.58627100  0.09733100
   0.17042142  0.59012574  0.38473815
   0.58402547  0.67213661  0.28783437
   0.82874235  0.66129286  0.28818176
   0.66762500  0.58426200  0.09519900
   0.66725317  0.58693901  0.38880608
   0.08157571  0.91629959  0.28476677
   0.33383458  0.91414193  0.28782858
   0.58324972  0.91023107  0.28854332
   0.81991508  0.91029115  0.28749467
   0.66841400  0.83351100  0.09659800
   0.66547531  0.83314186  0.39017090
   0.00675460  0.01237129  0.43583370
   0.49423242  0.49190279  0.43715366
   0.00250521  0.50406314  0.43613889
   0.49876807  0.00425390  0.43616921
   0.68224547  0.82929106  0.47420310
   0.78388931  0.88699553  0.49303272
 
 position of ions in cartesian coordinates  (Angst):
  10.08740180  0.00561565  4.04933774
  -2.53339006  8.73512399  4.08189856
   5.03057555  0.01685571  4.07660636
   8.81557077  2.19267682  4.07949688
   1.26035708  2.17682703  4.06342901
   2.52334056  1.43995845  6.10542595
   6.28789244  2.21110702  4.10570281
   3.80180719  0.73423368  2.00036515
   3.77295577  0.74908449  8.12224677
   7.55692260  1.45470022  6.15313793
   6.31883979  0.74108268  2.03383988
   6.29953181  0.75885358  8.15291623
   7.57050555  4.36576009  4.10283355
   5.03817098  4.36228748  4.08170727
   3.77927356  3.66238167  6.08638147
   2.55461586  2.91603783  2.00083273
   2.52013551  2.88372860  8.10114108
   6.28216181  3.64071197  6.10899510
   7.58584793  2.93042685  2.03371236
   7.55236115  2.90389033  8.17257153
   6.29424553  6.55132550  4.09263173
  -2.52626233  5.82341373  6.09879835
   3.81388716  6.57545882  4.07284444
   1.26871004  5.10415740  2.04533819
   1.22347501  5.08248086  8.13881845
   6.29449804  5.11373550  2.02822888
   6.22813703  5.12498799  8.16362116
  -2.53139019  7.30304468  2.00990810
  -2.55941318  7.31546804  8.01640548
   0.00463604  7.28974905  2.05721906
  -0.02781298  7.27863976  8.18349182
   5.08583435  7.28317996  2.02757001
   5.03955884  7.29681541  8.08913586
   7.54405284  0.03969445  4.10438508
  -0.03879311  1.40587108  6.04548504
   3.74186185  2.14689437  4.07388588
   1.31000516  0.72944900  2.02674111
   1.33916776  0.75024244  8.16105478
   5.08007478  1.45778891  6.06838757
   8.82790830  0.75063454  2.00000383
   8.78672309  0.76680033  8.14953500
  -0.02406399  4.34463578  4.11683981
  -1.33555549  3.65372386  6.10571360
   2.55701973  4.37024736  4.05868941
   1.29025812  3.64500928  6.06572168
   0.02214998  2.94989795  2.02984417
  -0.01495999  2.89953565  8.00638526
   5.09718709  2.93886782  2.04042856
   5.03280043  2.93653451  8.05279897
  -1.32763525  6.58396103  4.11125006
   1.24699942  6.55932037  4.09363066
   0.11813717  5.88362973  6.13592568
  -1.29717776  5.12818575  2.06865361
  -1.25891735  5.16190368  8.17714779
   2.50444425  5.87926296  6.11757406
   5.03092319  5.78441136  6.12495744
   3.79260580  5.11061278  2.02334051
   3.77533085  5.13402891  8.26360676
  -3.80351498  8.01498710  6.05237605
  -1.24472569  7.99611378  6.11745100
   1.29419502  7.96190498  6.13264205
   3.68428512  7.96243048  6.11035417
   2.54182886  7.29082495  2.05307457
   2.51401144  7.28759604  8.29261419
   0.00574666  0.10821321  9.26312230
   2.50771533  4.30273522  9.29117645
  -2.52029362  4.40910335  9.26960882
   5.01622928  0.03720938  9.27025318
   2.70284233  7.25391263 10.07861785
   3.43806015  7.75866084 10.47881890
 


--------------------------------------------------------------------------------------------------------


 k-point  1 :   0.0000 0.0000 0.0000  plane waves:   50641
 k-point  2 :   0.3333 0.0000 0.0000  plane waves:   50572
 k-point  3 :   0.0000 0.3333 0.0000  plane waves:   50572
 k-point  4 :   0.3333 0.3333 0.0000  plane waves:   50583
 k-point  5 :  -0.3333 0.3333 0.0000  plane waves:   50572

 maximum and minimum number of plane-waves per node :      2130     2087

 maximum number of plane-waves:     50641
 maximum index in each direction: 
   IXMAX=   19   IYMAX=   18   IZMAX=   39
   IXMIN=  -19   IYMIN=  -19   IZMIN=  -39


 real space projection operators:
  total allocation   :      67124.23 KBytes
  max/ min on nodes  :       3378.49       2421.21


 parallel 3D FFT for wavefunctions:
    minimum data exchange during FFTs selected (reduces bandwidth)
 parallel 3D FFT for charge:
    minimum data exchange during FFTs selected (reduces bandwidth)


 total amount of memory used by VASP MPI-rank0   116162. kBytes
=======================================================================

   base      :      30000. kBytes
   nonlr-proj:      13914. kBytes
   fftplans  :       6403. kBytes
   grid      :      18928. kBytes
   one-center:         93. kBytes
   wavefun   :      46824. kBytes
 
     INWAV:  cpu time   11.1801: real time   11.5354
 Broyden mixing: mesh for mixing (old mesh)
   NGX = 37   NGY = 37   NGZ = 79
  (NGX  =160   NGY  =160   NGZ  =320)
  gives a total of 108151 points

 initial charge density was supplied:
 number of electron     609.0000043 magnetization      84.0955062
 keeping initial charge density in first step


--------------------------------------------------------------------------------------------------------


 Maximum index for non-local projection operator          761
 Maximum index for augmentation-charges         1120 (set IRDMAX)


--------------------------------------------------------------------------------------------------------


 First call to EWALD:  gamma=   0.144
 Maximum number of real-space cells 4x 4x 2
 Maximum number of reciprocal cells 2x 2x 4

    FEWALD:  cpu time    0.0036: real time    0.0036


--------------------------------------- Iteration      1(   1)  ---------------------------------------


    POTLOK:  cpu time    0.4188: real time    0.4266
    SETDIJ:  cpu time    0.0253: real time    0.0253
     EDDAV:  cpu time   39.6032: real time   39.6130
 BZINTS: Fermi energy: -0.011010;609.000000 electrons
         Band energy:***********;  BLOECHL correction: -0.016241
       DOS:  cpu time    0.0520: real time    0.0519
    CHARGE:  cpu time    1.0400: real time    1.0401
    MIXING:  cpu time    0.0063: real time    0.0063
    --------------------------------------------
      LOOP:  cpu time   41.1457: real time   41.1634

 eigenvalue-minimisations  :  8403
 total energy-change (2. order) :-0.4546332E+03  (-0.8523131E-02)
 number of electron     609.0000042 magnetization      84.0930967
 augmentation part      335.5866026 magnetization      69.7627463

 DIPCOR: dipole corrections for dipol
 direction  3 min pos   243,
 dipolmoment           0.000000      0.000000      0.313275 electrons x Angstroem
 Tr[quadrupol]    -10435.625204

 energy correction for charged system         0.000000 eV
 dipol+quadrupol energy correction           -0.004729 eV
 added-field ion interaction          2.779446 eV  (added to PSCEN)


 Broyden mixing:
  rms(total) = 0.73544E-01    rms(broyden)= 0.73400E-01
  rms(prec ) = 0.76369E-01
  weight for this iteration     100.00

 Free energy of the ion-electron system (eV)
  ---------------------------------------------------
  alpha Z        PSCENC =      1455.54738229
  Ewald energy   TEWEN  =    196169.61586266
  -Hartree energ DENC   =   -251315.50488555
  -exchange      EXHF   =         0.00000000
  -V(xc)+E(xc)   XCENC  =      1289.27909085
  PAW double counting   =     61619.47998159   -64174.16086365
  entropy T*S    EENTRO =         0.00000000
  eigenvalues    EBANDS =     -1660.00013002
  atomic energy  EATOM  =     56161.11034558
  Solvation  Ediel_sol  =         0.00000000
  ---------------------------------------------------
  free energy    TOTEN  =      -454.63321625 eV

  energy without entropy =     -454.63321625  energy(sigma->0) =     -454.63321625


--------------------------------------------------------------------------------------------------------




--------------------------------------- Iteration      1(   2)  ---------------------------------------


    POTLOK:  cpu time    0.4181: real time    0.4291
    SETDIJ:  cpu time    0.0254: real time    0.0251
    EDDIAG:  cpu time    5.5756: real time    5.5770
  RMM-DIIS:  cpu time   19.7462: real time   19.7528
    ORTHCH:  cpu time    1.5465: real time    1.5467
 BZINTS: Fermi energy: -0.012855;609.000000 electrons
         Band energy:***********;  BLOECHL correction: -0.014982
       DOS:  cpu time    0.0523: real time    0.0523
    CHARGE:  cpu time    1.0218: real time    1.0219
    MIXING:  cpu time    0.0064: real time    0.0064
    --------------------------------------------
      LOOP:  cpu time   28.3922: real time   28.4113

 eigenvalue-minimisations  :  8082
 total energy-change (2. order) :-0.1127252E+00  (-0.1125990E-01)
 number of electron     609.0000043 magnetization      84.0875399
 augmentation part      335.6404305 magnetization      69.8136891

 DIPCOR: dipole corrections for dipol
 direction  3 min pos   245,
 dipolmoment           0.000000      0.000000      0.316914 electrons x Angstroem
 Tr[quadrupol]    -10435.726501

 energy correction for charged system         0.000000 eV
 dipol+quadrupol energy correction           -0.004840 eV
 added-field ion interaction          5.282455 eV  (added to PSCEN)


 Broyden mixing:
  rms(total) = 0.30498E+00    rms(broyden)= 0.30496E+00
  rms(prec ) = 0.34121E+00
  weight for this iteration     100.00

 eigenvalues of (default mixing * dielectric matrix)
  average eigenvalue GAMMA=   0.1803
  0.1803

 Free energy of the ion-electron system (eV)
  ---------------------------------------------------
  alpha Z        PSCENC =      1458.05028035
  Ewald energy   TEWEN  =    196169.61586266
  -Hartree energ DENC   =   -251315.44576593
  -exchange      EXHF   =         0.00000000
  -V(xc)+E(xc)   XCENC  =      1289.31715406
  PAW double counting   =     61618.78175226   -64173.25085927
  entropy T*S    EENTRO =         0.00000000
  eigenvalues    EBANDS =     -1662.92471120
  atomic energy  EATOM  =     56161.11034558
  Solvation  Ediel_sol  =         0.00000000
  ---------------------------------------------------
  free energy    TOTEN  =      -454.74594150 eV

  energy without entropy =     -454.74594150  energy(sigma->0) =     -454.74594150


--------------------------------------------------------------------------------------------------------




--------------------------------------- Iteration      1(   3)  ---------------------------------------


    POTLOK:  cpu time    0.4167: real time    0.4279
    SETDIJ:  cpu time    0.0252: real time    0.0253
    EDDIAG:  cpu time    5.5865: real time    5.5877
  RMM-DIIS:  cpu time   19.8343: real time   19.8414
    ORTHCH:  cpu time    1.5426: real time    1.5428
 BZINTS: Fermi energy: -0.010180;609.000000 electrons
         Band energy:***********;  BLOECHL correction: -0.012717
       DOS:  cpu time    0.0499: real time    0.0500
    CHARGE:  cpu time    1.0211: real time    1.0212
    MIXING:  cpu time    0.0065: real time    0.0065
    --------------------------------------------
      LOOP:  cpu time   28.4835: real time   28.5028

 eigenvalue-minimisations  :  8115
 total energy-change (2. order) : 0.3667749E-01  (-0.3432902E-02)
 number of electron     609.0000042 magnetization      84.0891597
 augmentation part      335.5863941 magnetization      69.6846342

 DIPCOR: dipole corrections for dipol
 direction  3 min pos   243,
 dipolmoment           0.000000      0.000000      0.306101 electrons x Angstroem
 Tr[quadrupol]    -10435.603898

 energy correction for charged system         0.000000 eV
 dipol+quadrupol energy correction           -0.004515 eV
 added-field ion interaction          2.715795 eV  (added to PSCEN)


 Broyden mixing:
  rms(total) = 0.13553E+00    rms(broyden)= 0.13550E+00
  rms(prec ) = 0.15944E+00
  weight for this iteration     100.00

 eigenvalues of (default mixing * dielectric matrix)
  average eigenvalue GAMMA=   0.2429
  0.3817  0.1042

 Free energy of the ion-electron system (eV)
  ---------------------------------------------------
  alpha Z        PSCENC =      1455.48394484
  Ewald energy   TEWEN  =    196169.61586266
  -Hartree energ DENC   =   -251315.35178885
  -exchange      EXHF   =         0.00000000
  -V(xc)+E(xc)   XCENC  =      1289.34669110
  PAW double counting   =     61620.02471642   -64174.68344828
  entropy T*S    EENTRO =         0.00000000
  eigenvalues    EBANDS =     -1660.25558748
  atomic energy  EATOM  =     56161.11034558
  Solvation  Ediel_sol  =         0.00000000
  ---------------------------------------------------
  free energy    TOTEN  =      -454.70926400 eV

  energy without entropy =     -454.70926400  energy(sigma->0) =     -454.70926400


--------------------------------------------------------------------------------------------------------




--------------------------------------- Iteration      1(   4)  ---------------------------------------


    POTLOK:  cpu time    0.4202: real time    0.4382
    SETDIJ:  cpu time    0.0252: real time    0.0252
    EDDIAG:  cpu time    5.6140: real time    5.6151
  RMM-DIIS:  cpu time   20.4027: real time   20.4092
    ORTHCH:  cpu time    1.5494: real time    1.5495
 BZINTS: Fermi energy: -0.010034;609.000000 electrons
         Band energy:***********;  BLOECHL correction: -0.016106
       DOS:  cpu time    0.0521: real time    0.0522
    CHARGE:  cpu time    1.0228: real time    1.0229
    MIXING:  cpu time    0.0064: real time    0.0064
    --------------------------------------------
      LOOP:  cpu time   29.0922: real time   29.1187

 eigenvalue-minimisations  :  8360
 total energy-change (2. order) :-0.1355071E-01  (-0.1193826E-02)
 number of electron     609.0000043 magnetization      84.0842892
 augmentation part      335.5658933 magnetization      69.8242210

 DIPCOR: dipole corrections for dipol
 direction  3 min pos   242,
 dipolmoment           0.000000      0.000000      0.333761 electrons x Angstroem
 Tr[quadrupol]    -10435.590599

 energy correction for charged system         0.000000 eV
 dipol+quadrupol energy correction           -0.005368 eV
 added-field ion interaction          1.660174 eV  (added to PSCEN)


 Broyden mixing:
  rms(total) = 0.17127E+00    rms(broyden)= 0.17125E+00
  rms(prec ) = 0.22848E+00
  weight for this iteration     100.00

 eigenvalues of (default mixing * dielectric matrix)
  average eigenvalue GAMMA=   0.2347
  0.4966  0.1330  0.0746

 Free energy of the ion-electron system (eV)
  ---------------------------------------------------
  alpha Z        PSCENC =      1454.42747120
  Ewald energy   TEWEN  =    196169.61586266
  -Hartree energ DENC   =   -251315.96591376
  -exchange      EXHF   =         0.00000000
  -V(xc)+E(xc)   XCENC  =      1289.32991509
  PAW double counting   =     61620.26840508   -64174.91992131
  entropy T*S    EENTRO =         0.00000000
  eigenvalues    EBANDS =     -1658.58897925
  atomic energy  EATOM  =     56161.11034558
  Solvation  Ediel_sol  =         0.00000000
  ---------------------------------------------------
  free energy    TOTEN  =      -454.72281471 eV

  energy without entropy =     -454.72281471  energy(sigma->0) =     -454.72281471


--------------------------------------------------------------------------------------------------------




--------------------------------------- Iteration      1(   5)  ---------------------------------------


    POTLOK:  cpu time    0.4175: real time    0.4320
    SETDIJ:  cpu time    0.0252: real time    0.0252
    EDDIAG:  cpu time    5.5937: real time    5.5950
  RMM-DIIS:  cpu time   20.5697: real time   20.5770
    ORTHCH:  cpu time    1.5481: real time    1.5482
 BZINTS: Fermi energy: -0.004169;609.000000 electrons
         Band energy:***********;  BLOECHL correction: -0.016119
       DOS:  cpu time    0.0487: real time    0.0487
    CHARGE:  cpu time    1.0260: real time    1.0261
    MIXING:  cpu time    0.0066: real time    0.0066
    --------------------------------------------
      LOOP:  cpu time   29.2356: real time   29.2587

 eigenvalue-minimisations  :  8471
 total energy-change (2. order) : 0.6306046E-02  (-0.5234122E-03)
 number of electron     609.0000043 magnetization      84.0822509
 augmentation part      335.5855122 magnetization      69.7227506

 DIPCOR: dipole corrections for dipol
 direction  3 min pos   241,
 dipolmoment           0.000000      0.000000      0.297413 electrons x Angstroem
 Tr[quadrupol]    -10435.537394

 energy correction for charged system         0.000000 eV
 dipol+quadrupol energy correction           -0.004262 eV
 added-field ion interaction          0.320032 eV  (added to PSCEN)


 Broyden mixing:
  rms(total) = 0.11675E+00    rms(broyden)= 0.11673E+00
  rms(prec ) = 0.15300E+00
  weight for this iteration     100.00

 eigenvalues of (default mixing * dielectric matrix)
  average eigenvalue GAMMA=   0.2077
  0.5006  0.1676  0.1085  0.0541

 Free energy of the ion-electron system (eV)
  ---------------------------------------------------
  alpha Z        PSCENC =      1453.08843462
  Ewald energy   TEWEN  =    196169.61586266
  -Hartree energ DENC   =   -251315.58123474
  -exchange      EXHF   =         0.00000000
  -V(xc)+E(xc)   XCENC  =      1289.28682947
  PAW double counting   =     61619.94747671   -64174.58135234
  entropy T*S    EENTRO =         0.00000000
  eigenvalues    EBANDS =     -1657.60287064
  atomic energy  EATOM  =     56161.11034558
  Solvation  Ediel_sol  =         0.00000000
  ---------------------------------------------------
  free energy    TOTEN  =      -454.71650867 eV

  energy without entropy =     -454.71650867  energy(sigma->0) =     -454.71650867


--------------------------------------------------------------------------------------------------------




--------------------------------------- Iteration      1(   6)  ---------------------------------------


    POTLOK:  cpu time    0.4343: real time    0.4353
    SETDIJ:  cpu time    0.0251: real time    0.0251
    EDDIAG:  cpu time    5.6222: real time    5.6235
  RMM-DIIS:  cpu time   19.9907: real time   19.9968
    ORTHCH:  cpu time    1.5485: real time    1.5487
 BZINTS: Fermi energy: -0.005712;609.000000 electrons
         Band energy:***********;  BLOECHL correction: -0.015041
       DOS:  cpu time    0.0477: real time    0.0477
    CHARGE:  cpu time    1.0212: real time    1.0213
    MIXING:  cpu time    0.0069: real time    0.0068
    --------------------------------------------
      LOOP:  cpu time   28.6966: real time   28.7053

 eigenvalue-minimisations  :  8138
 total energy-change (2. order) : 0.7422174E-02  (-0.2711069E-03)
 number of electron     609.0000043 magnetization      84.0796099
 augmentation part      335.5852542 magnetization      69.7191486

 DIPCOR: dipole corrections for dipol
 direction  3 min pos   241,
 dipolmoment           0.000000      0.000000      0.311406 electrons x Angstroem
 Tr[quadrupol]    -10435.540990

 energy correction for charged system         0.000000 eV
 dipol+quadrupol energy correction           -0.004673 eV
 added-field ion interaction          0.335089 eV  (added to PSCEN)


 Broyden mixing:
  rms(total) = 0.37467E-01    rms(broyden)= 0.37457E-01
  rms(prec ) = 0.40677E-01
  weight for this iteration     100.00

 eigenvalues of (default mixing * dielectric matrix)
  average eigenvalue GAMMA=   0.2764
  0.5446  0.5446  0.1432  0.0918  0.0575

 Free energy of the ion-electron system (eV)
  ---------------------------------------------------
  alpha Z        PSCENC =      1453.10308104
  Ewald energy   TEWEN  =    196169.61586266
  -Hartree energ DENC   =   -251315.59367718
  -exchange      EXHF   =         0.00000000
  -V(xc)+E(xc)   XCENC  =      1289.26347365
  PAW double counting   =     61619.88337390   -64174.48626557
  entropy T*S    EENTRO =         0.00000000
  eigenvalues    EBANDS =     -1657.60528058
  atomic energy  EATOM  =     56161.11034558
  Solvation  Ediel_sol  =         0.00000000
  ---------------------------------------------------
  free energy    TOTEN  =      -454.70908649 eV

  energy without entropy =     -454.70908649  energy(sigma->0) =     -454.70908649


--------------------------------------------------------------------------------------------------------




--------------------------------------- Iteration      1(   7)  ---------------------------------------


    POTLOK:  cpu time    0.4200: real time    0.4362
    SETDIJ:  cpu time    0.0276: real time    0.0276
    EDDIAG:  cpu time    5.5820: real time    5.5830
  RMM-DIIS:  cpu time   20.2820: real time   20.2891
    ORTHCH:  cpu time    1.5504: real time    1.5506
 BZINTS: Fermi energy: -0.005765;609.000000 electrons
         Band energy:***********;  BLOECHL correction: -0.015149
       DOS:  cpu time    0.0500: real time    0.0500
    CHARGE:  cpu time    1.0257: real time    1.0258
    MIXING:  cpu time    0.0071: real time    0.0071
    --------------------------------------------
      LOOP:  cpu time   28.9449: real time   28.9695

 eigenvalue-minimisations  :  8294
 total energy-change (2. order) :-0.4811677E-03  (-0.1484008E-03)
 number of electron     609.0000043 magnetization      84.0742023
 augmentation part      335.5826433 magnetization      69.7222230

 DIPCOR: dipole corrections for dipol
 direction  3 min pos   241,
 dipolmoment           0.000000      0.000000      0.311357 electrons x Angstroem
 Tr[quadrupol]    -10435.533968

 energy correction for charged system         0.000000 eV
 dipol+quadrupol energy correction           -0.004671 eV
 added-field ion interaction          0.335035 eV  (added to PSCEN)


 Broyden mixing:
  rms(total) = 0.49061E-01    rms(broyden)= 0.49059E-01
  rms(prec ) = 0.54383E-01
  weight for this iteration     100.00

 eigenvalues of (default mixing * dielectric matrix)
  average eigenvalue GAMMA=   0.3385
  0.7998  0.7998  0.1542  0.1235  0.0971  0.0568

 Free energy of the ion-electron system (eV)
  ---------------------------------------------------
  alpha Z        PSCENC =      1453.10302912
  Ewald energy   TEWEN  =    196169.61586266
  -Hartree energ DENC   =   -251315.36011256
  -exchange      EXHF   =         0.00000000
  -V(xc)+E(xc)   XCENC  =      1289.25065721
  PAW double counting   =     61619.72433392   -64174.31475619
  entropy T*S    EENTRO =         0.00000000
  eigenvalues    EBANDS =     -1657.83892741
  atomic energy  EATOM  =     56161.11034558
  Solvation  Ediel_sol  =         0.00000000
  ---------------------------------------------------
  free energy    TOTEN  =      -454.70956766 eV

  energy without entropy =     -454.70956766  energy(sigma->0) =     -454.70956766


--------------------------------------------------------------------------------------------------------




--------------------------------------- Iteration      1(   8)  ---------------------------------------


    POTLOK:  cpu time    0.4376: real time    0.4381
    SETDIJ:  cpu time    0.0251: real time    0.0251
    EDDIAG:  cpu time    5.5592: real time    5.5605
  RMM-DIIS:  cpu time   20.3445: real time   20.3515
    ORTHCH:  cpu time    1.5486: real time    1.5488
 BZINTS: Fermi energy: -0.006541;609.000000 electrons
         Band energy:***********;  BLOECHL correction: -0.015078
       DOS:  cpu time    0.0465: real time    0.0465
    CHARGE:  cpu time    1.0248: real time    1.0249
    MIXING:  cpu time    0.0072: real time    0.0072
    --------------------------------------------
      LOOP:  cpu time   28.9943: real time   29.0028

 eigenvalue-minimisations  :  8308
 total energy-change (2. order) : 0.9675295E-03  (-0.8918976E-04)
 number of electron     609.0000043 magnetization      84.0718615
 augmentation part      335.5909659 magnetization      69.7122908

 DIPCOR: dipole corrections for dipol
 direction  3 min pos   241,
 dipolmoment           0.000000      0.000000      0.312477 electrons x Angstroem
 Tr[quadrupol]    -10435.536967

 energy correction for charged system         0.000000 eV
 dipol+quadrupol energy correction           -0.004705 eV
 added-field ion interaction          0.336241 eV  (added to PSCEN)


 Broyden mixing:
  rms(total) = 0.30261E-01    rms(broyden)= 0.30259E-01
  rms(prec ) = 0.32826E-01
  weight for this iteration     100.00

 eigenvalues of (default mixing * dielectric matrix)
  average eigenvalue GAMMA=   0.3594
  0.8749  0.8749  0.3453  0.1560  0.0569  0.0907  0.1170

 Free energy of the ion-electron system (eV)
  ---------------------------------------------------
  alpha Z        PSCENC =      1453.10420113
  Ewald energy   TEWEN  =    196169.61586266
  -Hartree energ DENC   =   -251315.34162127
  -exchange      EXHF   =         0.00000000
  -V(xc)+E(xc)   XCENC  =      1289.21747550
  PAW double counting   =     61619.25008089   -64173.79281767
  entropy T*S    EENTRO =         0.00000000
  eigenvalues    EBANDS =     -1657.87212695
  atomic energy  EATOM  =     56161.11034558
  Solvation  Ediel_sol  =         0.00000000
  ---------------------------------------------------
  free energy    TOTEN  =      -454.70860013 eV

  energy without entropy =     -454.70860013  energy(sigma->0) =     -454.70860013


--------------------------------------------------------------------------------------------------------




--------------------------------------- Iteration      1(   9)  ---------------------------------------


    POTLOK:  cpu time    0.4212: real time    0.4394
    SETDIJ:  cpu time    0.0253: real time    0.0253
    EDDIAG:  cpu time    5.5695: real time    5.5706
  RMM-DIIS:  cpu time   20.5064: real time   20.5125
    ORTHCH:  cpu time    1.5501: real time    1.5502
 BZINTS: Fermi energy: -0.006045;609.000000 electrons
         Band energy:***********;  BLOECHL correction: -0.015105
       DOS:  cpu time    0.0481: real time    0.0481
    CHARGE:  cpu time    1.0281: real time    1.0281
    MIXING:  cpu time    0.0075: real time    0.0075
    --------------------------------------------
      LOOP:  cpu time   29.1555: real time   29.1818

 eigenvalue-minimisations  :  8355
 total energy-change (2. order) : 0.1516452E-03  (-0.7296142E-04)
 number of electron     609.0000043 magnetization      84.0647091
 augmentation part      335.5883296 magnetization      69.7100486

 DIPCOR: dipole corrections for dipol
 direction  3 min pos   241,
 dipolmoment           0.000000      0.000000      0.312885 electrons x Angstroem
 Tr[quadrupol]    -10435.540771

 energy correction for charged system         0.000000 eV
 dipol+quadrupol energy correction           -0.004717 eV
 added-field ion interaction          0.336680 eV  (added to PSCEN)


 Broyden mixing:
  rms(total) = 0.30316E-01    rms(broyden)= 0.30314E-01
  rms(prec ) = 0.33172E-01
  weight for this iteration     100.00

 eigenvalues of (default mixing * dielectric matrix)
  average eigenvalue GAMMA=   0.4437
  1.1648  1.1648  0.6524  0.0569  0.1581  0.1445  0.0930  0.1150

 Free energy of the ion-electron system (eV)
  ---------------------------------------------------
  alpha Z        PSCENC =      1453.10462817
  Ewald energy   TEWEN  =    196169.61586266
  -Hartree energ DENC   =   -251315.45386568
  -exchange      EXHF   =         0.00000000
  -V(xc)+E(xc)   XCENC  =      1289.20769242
  PAW double counting   =     61619.04787996   -64173.58857466
  entropy T*S    EENTRO =         0.00000000
  eigenvalues    EBANDS =     -1657.75241694
  atomic energy  EATOM  =     56161.11034558
  Solvation  Ediel_sol  =         0.00000000
  ---------------------------------------------------
  free energy    TOTEN  =      -454.70844848 eV

  energy without entropy =     -454.70844848  energy(sigma->0) =     -454.70844848


--------------------------------------------------------------------------------------------------------




--------------------------------------- Iteration      1(  10)  ---------------------------------------


    POTLOK:  cpu time    0.4177: real time    0.4338
    SETDIJ:  cpu time    0.0251: real time    0.0251
    EDDIAG:  cpu time    5.5676: real time    5.5687
  RMM-DIIS:  cpu time   20.3426: real time   20.3504
    ORTHCH:  cpu time    1.5483: real time    1.5485
 BZINTS: Fermi energy: -0.005987;609.000000 electrons
         Band energy:***********;  BLOECHL correction: -0.015003
       DOS:  cpu time    0.0513: real time    0.0513
    CHARGE:  cpu time    1.0264: real time    1.0265
    MIXING:  cpu time    0.0075: real time    0.0075
    --------------------------------------------
      LOOP:  cpu time   28.9866: real time   29.0118

 eigenvalue-minimisations  :  8315
 total energy-change (2. order) : 0.8047904E-03  (-0.5236651E-04)
 number of electron     609.0000043 magnetization      84.0629837
 augmentation part      335.5831553 magnetization      69.7019995

 DIPCOR: dipole corrections for dipol
 direction  3 min pos   241,
 dipolmoment           0.000000      0.000000      0.311318 electrons x Angstroem
 Tr[quadrupol]    -10435.538613

 energy correction for charged system         0.000000 eV
 dipol+quadrupol energy correction           -0.004670 eV
 added-field ion interaction          0.334994 eV  (added to PSCEN)


 Broyden mixing:
  rms(total) = 0.25825E-01    rms(broyden)= 0.25824E-01
  rms(prec ) = 0.28995E-01
  weight for this iteration     100.00

 eigenvalues of (default mixing * dielectric matrix)
  average eigenvalue GAMMA=   0.4451
  1.2572  1.2572  0.6737  0.2543  0.1650  0.0569  0.1367  0.1128  0.0918

 Free energy of the ion-electron system (eV)
  ---------------------------------------------------
  alpha Z        PSCENC =      1453.10298862
  Ewald energy   TEWEN  =    196169.61586266
  -Hartree energ DENC   =   -251315.47804557
  -exchange      EXHF   =         0.00000000
  -V(xc)+E(xc)   XCENC  =      1289.18755777
  PAW double counting   =     61618.51720180   -64173.08509170
  entropy T*S    EENTRO =         0.00000000
  eigenvalues    EBANDS =     -1657.67846285
  atomic energy  EATOM  =     56161.11034558
  Solvation  Ediel_sol  =         0.00000000
  ---------------------------------------------------
  free energy    TOTEN  =      -454.70764369 eV

  energy without entropy =     -454.70764369  energy(sigma->0) =     -454.70764369


--------------------------------------------------------------------------------------------------------




--------------------------------------- Iteration      1(  11)  ---------------------------------------


    POTLOK:  cpu time    0.4198: real time    0.4356
    SETDIJ:  cpu time    0.0252: real time    0.0252
    EDDIAG:  cpu time    5.5622: real time    5.5640
  RMM-DIIS:  cpu time   20.3751: real time   20.3840
    ORTHCH:  cpu time    1.5484: real time    1.5485
 BZINTS: Fermi energy: -0.011628;609.000000 electrons
         Band energy:***********;  BLOECHL correction: -0.014983
       DOS:  cpu time    0.0489: real time    0.0489
    CHARGE:  cpu time    1.0244: real time    1.0245
    MIXING:  cpu time    0.0078: real time    0.0078
    --------------------------------------------
      LOOP:  cpu time   29.0118: real time   29.0385

 eigenvalue-minimisations  :  8327
 total energy-change (2. order) : 0.2137934E-03  (-0.3831369E-04)
 number of electron     609.0000043 magnetization      84.0607628
 augmentation part      335.5835057 magnetization      69.7026047

 DIPCOR: dipole corrections for dipol
 direction  3 min pos   244,
 dipolmoment           0.000000      0.000000      0.311380 electrons x Angstroem
 Tr[quadrupol]    -10435.667830

 energy correction for charged system         0.000000 eV
 dipol+quadrupol energy correction           -0.004672 eV
 added-field ion interaction          3.976416 eV  (added to PSCEN)


 Broyden mixing:
  rms(total) = 0.21951E-01    rms(broyden)= 0.21950E-01
  rms(prec ) = 0.24568E-01
  weight for this iteration     100.00

 eigenvalues of (default mixing * dielectric matrix)
  average eigenvalue GAMMA=   0.5190
  1.8678  1.2293  0.7760  0.6119  0.0569  0.1661  0.0923  0.1486  0.1133  0.1275

 Free energy of the ion-electron system (eV)
  ---------------------------------------------------
  alpha Z        PSCENC =      1456.74440866
  Ewald energy   TEWEN  =    196169.61586266
  -Hartree energ DENC   =   -251315.63163182
  -exchange      EXHF   =         0.00000000
  -V(xc)+E(xc)   XCENC  =      1289.18188568
  PAW double counting   =     61618.26263720   -64172.81734502
  entropy T*S    EENTRO =         0.00000000
  eigenvalues    EBANDS =     -1661.17359284
  atomic energy  EATOM  =     56161.11034558
  Solvation  Ediel_sol  =         0.00000000
  ---------------------------------------------------
  free energy    TOTEN  =      -454.70742990 eV

  energy without entropy =     -454.70742990  energy(sigma->0) =     -454.70742990


--------------------------------------------------------------------------------------------------------




--------------------------------------- Iteration      1(  12)  ---------------------------------------


    POTLOK:  cpu time    0.4203: real time    0.4368
    SETDIJ:  cpu time    0.0252: real time    0.0252
    EDDIAG:  cpu time    5.5451: real time    5.5463
  RMM-DIIS:  cpu time   20.3719: real time   20.3784
    ORTHCH:  cpu time    1.5521: real time    1.5522
 BZINTS: Fermi energy: -0.010359;609.000000 electrons
         Band energy:***********;  BLOECHL correction: -0.014990
       DOS:  cpu time    0.0466: real time    0.0466
    CHARGE:  cpu time    1.0285: real time    1.0287
    MIXING:  cpu time    0.0080: real time    0.0080
    --------------------------------------------
      LOOP:  cpu time   28.9977: real time   29.0220

 eigenvalue-minimisations  :  8317
 total energy-change (2. order) : 0.7486432E-04  (-0.2546804E-04)
 number of electron     609.0000043 magnetization      84.0601689
 augmentation part      335.5897933 magnetization      69.7052938

 DIPCOR: dipole corrections for dipol
 direction  3 min pos   243,
 dipolmoment           0.000000      0.000000      0.312641 electrons x Angstroem
 Tr[quadrupol]    -10435.621426

 energy correction for charged system         0.000000 eV
 dipol+quadrupol energy correction           -0.004710 eV
 added-field ion interaction          2.773820 eV  (added to PSCEN)


 Broyden mixing:
  rms(total) = 0.19579E-01    rms(broyden)= 0.19577E-01
  rms(prec ) = 0.21551E-01
  weight for this iteration     100.00

 eigenvalues of (default mixing * dielectric matrix)
  average eigenvalue GAMMA=   0.5344
  2.3466  1.0864  0.9143  0.6371  0.0569  0.1972  0.1687  0.0921  0.1414  0.1256
  0.1125

 Free energy of the ion-electron system (eV)
  ---------------------------------------------------
  alpha Z        PSCENC =      1455.54177465
  Ewald energy   TEWEN  =    196169.61586266
  -Hartree energ DENC   =   -251315.38142406
  -exchange      EXHF   =         0.00000000
  -V(xc)+E(xc)   XCENC  =      1289.17754431
  PAW double counting   =     61617.77038554   -64172.28457376
  entropy T*S    EENTRO =         0.00000000
  eigenvalues    EBANDS =     -1660.25726996
  atomic energy  EATOM  =     56161.11034558
  Solvation  Ediel_sol  =         0.00000000
  ---------------------------------------------------
  free energy    TOTEN  =      -454.70735504 eV

  energy without entropy =     -454.70735504  energy(sigma->0) =     -454.70735504


--------------------------------------------------------------------------------------------------------




--------------------------------------- Iteration      1(  13)  ---------------------------------------


    POTLOK:  cpu time    0.4196: real time    0.4366
    SETDIJ:  cpu time    0.0253: real time    0.0254
    EDDIAG:  cpu time    5.5432: real time    5.5445
  RMM-DIIS:  cpu time   20.2406: real time   20.2482
    ORTHCH:  cpu time    1.5546: real time    1.5547
 BZINTS: Fermi energy: -0.006260;609.000000 electrons
         Band energy:***********;  BLOECHL correction: -0.014940
[...]
   -.108E+02 0.709E+02 0.815E+03   0.110E+02 -.710E+02 -.815E+03   -.154E-01 -.940E-03 0.156E+00   -.125E-03 -.111E-03 -.500E-04
   -.290E+01 -.206E+02 -.603E+03   0.302E+01 0.209E+02 0.603E+03   -.119E+00 -.276E+00 -.517E-01   -.768E-04 -.690E-05 -.136E-03
   0.126E+02 -.366E+02 0.841E+03   -.126E+02 0.368E+02 -.841E+03   -.137E+00 -.125E+00 -.377E+00   0.638E-04 -.528E-05 -.495E-05
   0.633E+02 -.475E+02 0.228E+04   -.637E+02 0.479E+02 -.228E+04   0.305E+00 -.413E+00 -.233E+01   0.144E-04 -.475E-04 0.382E-04
   -.134E+02 -.742E+02 -.198E+04   0.141E+02 0.746E+02 0.198E+04   -.626E+00 -.446E+00 0.185E+01   -.141E-04 0.291E-04 -.144E-04
   0.228E+02 0.452E+02 -.556E+03   -.230E+02 -.449E+02 0.556E+03   0.168E+00 -.255E+00 0.612E+00   0.499E-04 0.242E-04 -.222E-03
   -.189E+02 0.117E+02 0.227E+04   0.190E+02 -.117E+02 -.227E+04   -.187E+00 -.900E-01 -.290E+01   -.900E-04 -.658E-04 0.365E-04
   0.989E+01 -.748E+02 -.193E+04   -.106E+02 0.759E+02 0.193E+04   0.675E+00 -.109E+01 0.202E+01   0.273E-04 -.369E-04 -.715E-04
   -.481E+02 -.519E+02 0.780E+03   0.482E+02 0.521E+02 -.780E+03   -.195E-01 -.824E-02 -.297E+00   -.874E-04 0.240E-03 0.210E-04
   -.134E+03 -.204E+02 -.610E+03   0.135E+03 0.204E+02 0.610E+03   -.643E+00 0.784E-01 0.422E+00   -.105E-03 0.212E-03 -.216E-03
   0.710E+02 -.413E+02 0.831E+03   -.713E+02 0.412E+02 -.831E+03   0.211E+00 0.190E+00 -.231E+00   -.258E-04 0.135E-03 -.770E-04
   0.697E+02 -.399E+02 -.530E+03   -.703E+02 0.397E+02 0.529E+03   0.594E+00 0.196E+00 0.919E+00   -.847E-04 0.216E-03 -.122E-03
   0.265E+01 -.554E+01 0.225E+04   -.258E+01 0.531E+01 -.224E+04   -.324E-01 0.825E-01 -.281E+01   -.272E-04 0.115E-03 0.474E-04
   0.435E+01 0.515E+01 -.194E+04   -.455E+01 -.506E+01 0.194E+04   0.221E+00 -.586E-01 0.427E+01   -.254E-04 0.120E-03 -.410E-04
   0.431E+02 -.623E+01 0.226E+04   -.433E+02 0.616E+01 -.226E+04   0.136E+00 -.178E+00 -.257E+01   0.826E-04 0.524E-04 0.115E-03
   0.223E+02 -.700E+01 -.204E+04   -.222E+02 0.733E+01 0.203E+04   -.821E-01 -.356E+00 0.413E+01   0.253E-04 0.134E-03 -.101E-03
   -.110E+03 0.481E+02 0.783E+03   0.111E+03 -.484E+02 -.784E+03   -.209E+00 0.191E+00 -.248E+00   0.158E-03 -.942E-04 -.698E-04
   -.353E+01 0.386E+02 0.794E+03   0.349E+01 -.389E+02 -.795E+03   0.531E-01 0.156E+00 0.627E-01   -.152E-03 0.123E-04 -.772E-04
   0.467E+01 0.498E+02 -.540E+03   -.458E+01 -.497E+02 0.540E+03   -.976E-01 -.315E-01 -.695E+00   0.927E-05 -.573E-05 -.277E-03
   -.743E+02 0.217E+02 0.221E+04   0.748E+02 -.217E+02 -.221E+04   -.382E+00 0.157E+00 -.285E+01   0.211E-04 0.117E-03 0.143E-03
   -.128E+03 -.329E+01 -.198E+04   0.128E+03 0.374E+01 0.198E+04   -.782E+00 -.441E+00 0.118E+01   0.280E-04 -.743E-04 -.219E-03
   0.186E+02 0.435E+01 -.562E+03   -.190E+02 -.362E+01 0.561E+03   0.278E+00 -.725E+00 0.358E+00   -.979E-04 0.766E-04 -.175E-03
   0.707E+02 -.546E+02 -.616E+03   -.705E+02 0.546E+02 0.616E+03   -.225E+00 0.276E-01 -.731E+00   0.611E-04 -.370E-04 -.100E-03
   0.544E+02 -.248E+01 0.226E+04   -.546E+02 0.235E+01 -.226E+04   0.233E+00 0.201E+00 -.285E+01   -.382E-04 0.891E-04 0.978E-04
   -.865E+02 -.359E+02 -.199E+04   0.875E+02 0.359E+02 0.199E+04   -.952E+00 0.587E-01 0.198E+01   0.834E-04 0.441E-04 -.915E-04
   0.496E+02 -.317E+02 -.577E+03   -.496E+02 0.321E+02 0.576E+03   -.103E-01 -.362E+00 0.327E+00   -.693E-04 -.157E-03 -.195E-03
   -.434E+02 0.272E+02 -.558E+03   0.434E+02 -.272E+02 0.557E+03   0.619E-01 -.529E-01 0.788E+00   0.135E-03 -.111E-03 -.284E-03
   -.111E+02 0.379E+02 -.557E+03   0.116E+02 -.385E+02 0.557E+03   -.542E+00 0.539E+00 0.283E+00   -.332E-04 -.168E-03 -.295E-03
   0.279E+00 -.188E+01 -.589E+03   -.785E+00 0.155E+01 0.588E+03   0.539E+00 0.354E+00 0.331E+00   -.230E-04 -.130E-03 -.129E-03
   0.206E+01 0.478E+01 0.221E+04   -.215E+01 -.465E+01 -.221E+04   -.193E+00 0.112E-01 -.280E+01   -.220E-03 -.532E-04 0.580E-04
   0.189E+01 0.564E+01 -.187E+04   -.106E+01 -.530E+01 0.188E+04   -.816E+00 -.322E+00 -.114E+01   0.877E-04 -.125E-03 -.171E-03
   -.396E+02 -.647E+02 -.195E+04   0.398E+02 0.626E+02 0.198E+04   -.161E+00 0.210E+01 -.253E+02   -.204E-04 -.741E-04 -.187E-04
   0.448E+01 0.412E+02 -.200E+04   -.711E+01 -.417E+02 0.203E+04   0.263E+01 0.515E+00 -.277E+02   0.411E-04 0.396E-04 -.862E-04
   -.419E+02 -.842E+01 -.202E+04   0.402E+02 0.836E+01 0.205E+04   0.167E+01 0.654E-01 -.267E+02   -.701E-04 0.352E-05 -.687E-04
   0.307E+02 -.183E+02 -.204E+04   -.301E+02 0.178E+02 0.207E+04   -.563E+00 0.480E+00 -.281E+02   -.579E-04 0.138E-04 0.207E-04
   0.269E+02 0.256E+02 -.192E+04   -.546E+02 -.456E+02 0.193E+04   0.277E+02 0.201E+02 -.535E+01   0.507E-04 -.482E-04 0.843E-05
   -.570E+02 -.393E+02 -.339E+03   0.631E+02 0.435E+02 0.342E+03   -.611E+01 -.418E+01 -.346E+01   0.770E-05 -.373E-05 -.303E-05
 -----------------------------------------------------------------------------------------------
   -.263E+02 -.211E+02 0.122E+03   -.711E-13 -.334E-12 0.296E-11   0.263E+02 0.211E+02 -.122E+03   0.873E-04 -.183E-03 -.483E-02
 
 
 POSITION                                       TOTAL-FORCE (eV/Angst)
 -----------------------------------------------------------------------------------
     10.08740      0.00562      4.04934        -0.013374      0.044557     -0.258372
     -2.53339      8.73512      4.08190        -0.027400      0.021534     -0.070720
      5.03058      0.01686      4.07661         0.041201     -0.121201     -0.134935
      8.81557      2.19268      4.07950        -0.083192     -0.056533     -0.173008
      1.26036      2.17683      4.06343        -0.195580     -0.052436     -0.071164
      2.52334      1.43996      6.10543        -0.010819     -0.003089      0.009444
      6.28789      2.21111      4.10570         0.146532     -0.034958     -0.310872
      3.80181      0.73423      2.00037         0.106177      0.003219      0.468857
      3.77296      0.74908      8.12225         0.008148     -0.008760     -0.002231
      7.55692      1.45470      6.15314         0.023300      0.002637      0.017848
      6.31884      0.74108      2.03384         0.021273     -0.055626      0.442749
      6.29953      0.75885      8.15292         0.023993      0.005692     -0.012472
      7.57051      4.36576      4.10283         0.016609      0.101092     -0.422236
      5.03817      4.36229      4.08171        -0.029819     -0.010271     -0.192356
      3.77927      3.66238      6.08638         0.003275      0.025651     -0.012042
      2.55462      2.91604      2.00083         0.074680      0.110720      0.374238
      2.52014      2.88373      8.10114        -0.001299      0.020397      0.016384
      6.28216      3.64071      6.10900         0.017171      0.013023     -0.004243
      7.58585      2.93043      2.03371         0.129679      0.028742      0.453673
      7.55236      2.90389      8.17257        -0.000005     -0.010255      0.007709
      6.29425      6.55133      4.09263         0.023846     -0.034864     -0.209631
     -2.52626      5.82341      6.09880         0.023681     -0.015855      0.010428
      3.81389      6.57546      4.07284        -0.238089     -0.065014     -0.069110
      1.26871      5.10416      2.04534        -0.007290      0.092586      0.260650
      1.22348      5.08248      8.13882         0.016165     -0.015132     -0.040332
      6.29450      5.11374      2.02823        -0.010209      0.084665      0.396775
      6.22814      5.12499      8.16362        -0.003143      0.002856      0.006280
     -2.53139      7.30304      2.00991         0.037720     -0.139116      0.326472
     -2.55941      7.31547      8.01641         0.007000      0.006839     -0.005689
      0.00464      7.28975      2.05722         0.046059      0.062052      0.286135
     -0.02781      7.27864      8.18349         0.002556      0.024690     -0.027878
      5.08583      7.28318      2.02757        -0.159540      0.044925      0.355744
      5.03956      7.29682      8.08914        -0.008542      0.003270     -0.002533
      7.54405      0.03969      4.10439         0.144523     -0.074374     -0.299474
     -0.03879      1.40587      6.04549        -0.008127     -0.012486      0.015359
      3.74186      2.14689      4.07389        -0.110473      0.052823     -0.433010
      1.31001      0.72945      2.02674        -0.018494     -0.008339      0.260363
      1.33917      0.75024      8.16105         0.009182      0.001313      0.000126
      5.08007      1.45779      6.06839         0.003608     -0.015795      0.015115
      8.82791      0.75063      2.00000        -0.025924     -0.095129      0.112411
      8.78672      0.76680      8.14953        -0.020566      0.042187     -0.037607
     -0.02406      4.34464      4.11684         0.044375      0.192228     -0.281639
     -1.33556      3.65372      6.10571        -0.024856      0.013143     -0.047610
      2.55702      4.37025      4.05869        -0.083927      0.111717     -0.241787
      1.29026      3.64501      6.06572         0.013653      0.033724      0.006436
      0.02215      2.94990      2.02984         0.038718     -0.152566      0.033272
     -0.01496      2.89954      8.00639         0.011416      0.026035     -0.017421
      5.09719      2.93887      2.04043        -0.079843     -0.236991      0.038488
      5.03280      2.93653      8.05280        -0.007508     -0.021592      0.000772
     -1.32764      6.58396      4.11125         0.066189     -0.103388     -0.344128
      1.24700      6.55932      4.09363         0.023966     -0.112135     -0.388585
      0.11814      5.88363      6.13593         0.007652     -0.011419      0.026590
     -1.29718      5.12819      2.06865         0.092921      0.098565      0.194468
     -1.25892      5.16190      8.17715         0.006356      0.012014      0.000283
      2.50444      5.87926      6.11757        -0.032420      0.016225      0.027178
      5.03092      5.78441      6.12496         0.000148      0.001841     -0.010054
      3.79261      5.11061      2.02334         0.041047      0.062162     -0.030994
      3.77533      5.13403      8.26361         0.021292     -0.009376     -0.009929
     -3.80351      8.01499      6.05238        -0.020588      0.007342      0.009791
     -1.24473      7.99611      6.11745         0.036134     -0.004783     -0.002346
      1.29420      7.96190      6.13264        -0.001926     -0.036971      0.021457
      3.68429      7.96243      6.11035         0.027534      0.018353      0.003989
      2.54183      7.29082      2.05307        -0.269339      0.143603      0.012455
      2.51401      7.28760      8.29261         0.021351      0.008784      0.042057
      0.00575      0.10821      9.26312         0.064781     -0.008183     -0.002840
      2.50772      4.30274      9.29118         0.003620     -0.007877     -0.011506
     -2.52029      4.40910      9.26961         0.002974      0.006395     -0.014957
      5.01623      0.03721      9.27025        -0.002800     -0.011509     -0.015982
      2.70284      7.25391     10.07862         0.027140      0.017147     -0.029344
      3.43806      7.75866     10.47882         0.017446     -0.018721     -0.014963
 -----------------------------------------------------------------------------------
    total drift:                                0.003358      0.000420     -0.011590


--------------------------------------------------------------------------------------------------------



  FREE ENERGIE OF THE ION-ELECTRON SYSTEM (eV)
  ---------------------------------------------------
  free  energy   TOTEN  =      -470.44754963 eV

  energy  without entropy=     -470.44754963  energy(sigma->0) =     -470.44754963
 


--------------------------------------------------------------------------------------------------------


    POTLOK:  cpu time    0.4459: real time    0.4461


--------------------------------------------------------------------------------------------------------


 stress matrix after NEB project (eV)
    -32.86385     -1.32887      1.06634
     -1.32887    -36.40222      0.20263
      1.06634      0.20263     -9.27943
  FORCES: max atom, RMS     0.065358    0.023454
  FORCE total and by dimension    0.196231    0.064781
  Stress total and by dimension   49.971494   36.402217
 writing wavefunctions
     LOOP+:  cpu time 1297.1703: real time 1325.3658
    4ORBIT:  cpu time    0.0000: real time    0.0000
 


 total charge     
 
# of ion       s       p       d       tot
------------------------------------------
    1        0.506   0.505   8.327   9.338
    2        0.505   0.511   8.331   9.346
    3        0.508   0.510   8.323   9.341
    4        0.506   0.512   8.317   9.334
    5        0.510   0.519   8.324   9.353
    6        0.515   0.529   8.320   9.364
    7        0.502   0.503   8.323   9.328
    8        0.488   0.370   8.309   9.168
    9        0.511   0.527   8.334   9.371
   10        0.519   0.525   8.350   9.394
   11        0.495   0.376   8.310   9.181
   12        0.503   0.507   8.343   9.353
   13        0.504   0.504   8.319   9.327
   14        0.505   0.512   8.320   9.337
   15        0.516   0.527   8.329   9.373
   16        0.501   0.394   8.310   9.204
   17        0.508   0.526   8.340   9.374
   18        0.510   0.510   8.337   9.358
   19        0.493   0.381   8.319   9.193
   20        0.497   0.498   8.340   9.335
   21        0.496   0.496   8.316   9.308
   22        0.511   0.512   8.330   9.354
   23        0.511   0.517   8.328   9.357
   24        0.506   0.399   8.307   9.211
   25        0.503   0.507   8.333   9.343
   26        0.493   0.376   8.319   9.188
   27        0.491   0.488   8.330   9.310
   28        0.495   0.368   8.318   9.182
   29        0.494   0.392   8.363   9.249
   30        0.491   0.376   8.311   9.178
   31        0.502   0.505   8.332   9.339
   32        0.496   0.388   8.303   9.187
   33        0.489   0.481   8.349   9.319
   34        0.475   0.508   6.178   7.161
   35        0.475   0.512   6.205   7.192
   36        0.469   0.502   6.178   7.149
   37        0.465   0.388   6.112   6.964
   38        0.476   0.515   6.179   7.170
   39        0.476   0.511   6.196   7.182
   40        0.463   0.380   6.133   6.975
   41        0.473   0.511   6.218   7.202
   42        0.478   0.515   6.224   7.218
   43        0.478   0.510   6.200   7.188
   44        0.476   0.507   6.203   7.185
   45        0.485   0.514   6.207   7.207
   46        0.468   0.387   6.140   6.995
   47        0.467   0.401   6.207   7.075
   48        0.467   0.390   6.108   6.965
   49        0.458   0.393   6.159   7.010
   50        0.473   0.506   6.193   7.172
   51        0.483   0.523   6.204   7.210
   52        0.500   0.543   6.270   7.313
   53        0.465   0.388   6.130   6.983
   54        0.475   0.506   6.167   7.148
   55        0.500   0.553   6.237   7.290
   56        0.479   0.515   6.173   7.167
   57        0.470   0.389   6.140   6.999
   58        0.462   0.496   6.199   7.157
   59        0.477   0.511   6.191   7.179
   60        0.480   0.513   6.189   7.182
   61        0.500   0.550   6.236   7.286
   62        0.495   0.537   6.210   7.242
   63        0.470   0.389   6.141   6.999
   64        0.478   0.547   6.159   7.184
   65        1.579   3.372   0.000   4.950
   66        1.582   3.347   0.000   4.930
   67        1.580   3.352   0.000   4.933
   68        1.583   3.334   0.000   4.917
   69        1.571   3.482   0.000   5.053
   70        0.606   0.120   0.000   0.726
--------------------------------------------------
tot         39.836  47.467 466.450 553.753
 


 magnetization (x)
 
# of ion       s       p       d       tot
------------------------------------------
    1       -0.014  -0.040   0.646   0.593
    2       -0.019  -0.040   0.689   0.630
    3       -0.018  -0.035   0.661   0.608
    4       -0.022  -0.044   0.736   0.671
    5       -0.025  -0.053   0.706   0.629
    6       -0.018  -0.047   0.643   0.578
    7       -0.018  -0.036   0.699   0.645
    8       -0.018  -0.032   0.710   0.660
    9       -0.016  -0.024   0.544   0.504
   10       -0.010  -0.025   0.376   0.341
   11       -0.016  -0.030   0.693   0.646
   12       -0.013  -0.020   0.380   0.347
   13       -0.017  -0.036   0.747   0.694
   14       -0.021  -0.042   0.722   0.658
   15       -0.023  -0.052   0.686   0.611
   16       -0.028  -0.049   0.725   0.647
   17       -0.016  -0.026   0.506   0.465
   18       -0.015  -0.039   0.706   0.652
   19       -0.021  -0.033   0.673   0.619
   20       -0.014  -0.020   0.522   0.488
   21       -0.014  -0.029   0.719   0.675
   22       -0.018  -0.044   0.696   0.634
   23       -0.013  -0.035   0.453   0.405
   24       -0.027  -0.042   0.732   0.663
   25       -0.010  -0.014   0.345   0.320
   26       -0.020  -0.029   0.668   0.620
   27       -0.014  -0.027   0.529   0.489
   28       -0.016  -0.027   0.691   0.649
   29       -0.024  -0.019   0.747   0.705
   30       -0.019  -0.031   0.689   0.640
   31       -0.007  -0.008   0.361   0.346
   32       -0.019  -0.037   0.710   0.654
   33       -0.017  -0.030   0.320   0.273
   34        0.011  -0.010   2.539   2.540
   35       -0.003  -0.034   2.623   2.586
   36        0.005  -0.017   2.728   2.716
   37        0.011  -0.011   2.897   2.897
   38        0.009   0.002   2.670   2.681
   39        0.006  -0.016   2.649   2.640
   40        0.006  -0.013   2.833   2.826
   41        0.013   0.003   2.472   2.488
   42       -0.007  -0.035   2.453   2.411
   43        0.001  -0.027   2.649   2.623
   44        0.002  -0.015   2.603   2.590
   45        0.005  -0.017   2.563   2.551
   46        0.008  -0.019   2.833   2.822
   47       -0.008  -0.010   2.812   2.794
   48        0.014  -0.009   2.914   2.920
   49        0.008   0.000   2.931   2.939
   50        0.003  -0.015   2.607   2.594
   51        0.008  -0.003   2.435   2.440
   52       -0.022  -0.040  -1.369  -1.431
   53        0.007  -0.009   2.841   2.839
   54        0.017   0.014   2.684   2.714
   55       -0.026  -0.041  -1.935  -2.002
   56        0.015  -0.002   2.585   2.598
   57        0.012  -0.007   2.825   2.830
   58        0.014   0.004   2.544   2.562
   59        0.004  -0.017   2.686   2.672
   60        0.011  -0.008   2.636   2.639
   61       -0.024  -0.031  -2.028  -2.083
   62       -0.029  -0.048  -2.135  -2.213
   63        0.009  -0.010   2.802   2.801
   64        0.013   0.031   2.599   2.643
   65        0.003   0.093   0.000   0.096
   66        0.003   0.083   0.000   0.085
   67        0.002   0.096   0.000   0.098
   68        0.002   0.076   0.000   0.078
   69        0.006   0.174   0.000   0.180
   70        0.007   0.003   0.000   0.010
--------------------------------------------------
tot         -0.463  -0.980  85.377  83.934
 
 BZINTS: Fermi energy: -0.012167;609.000000 electrons
         Band energy:***********;  BLOECHL correction: -0.012470

 total amount of memory used by VASP MPI-rank0   116162. kBytes
=======================================================================

   base      :      30000. kBytes
   nonlr-proj:      13914. kBytes
   fftplans  :       6403. kBytes
   grid      :      18928. kBytes
   one-center:         93. kBytes
   wavefun   :      46824. kBytes
 
  
  
 General timing and accounting informations for this job:
 ========================================================
  
                  Total CPU time used (sec):     1463.711
                            User time (sec):     1290.621
                          System time (sec):      173.090
                         Elapsed time (sec):     1496.952
  
                   Maximum memory used (kb):      350216.
                   Average memory used (kb):           0.
  
                          Minor page faults:     22977630
                          Major page faults:            0
                 Voluntary context switches:         4795
