  69  69   1   0
  0.2673732E+02  0.1002677E-08  0.1002677E-08  0.2118918E-08  0.1500000E-16
  1.000000000000000E-004
  CAR 
 SQS-NiFe                                
      4.96188102    -21.29151596  301      0.15397409      1.00000000
    -21.292  0.0000E+00  0.0000E+00
    -21.204  0.0000E+00  0.0000E+00
    -21.116  0.0000E+00  0.0000E+00
    -21.029  0.0000E+00  0.0000E+00
    -20.941  0.0000E+00  0.0000E+00
    -20.854  0.0000E+00  0.0000E+00
    -20.766  0.0000E+00  0.0000E+00
    -20.679  0.0000E+00  0.0000E+00
    -20.591  0.0000E+00  0.0000E+00
    -20.504  0.0000E+00  0.0000E+00
    -20.416  0.2347E-16  0.2054E-17
    -20.329  0.2898E-14  0.2557E-15
    -20.241  0.2429E-12  0.2151E-13
    -20.154  0.1396E-10  0.1244E-11
    -20.066  0.5510E-09  0.4946E-10
    -19.979  0.1493E-07  0.1356E-08
    -19.891  0.2781E-06  0.2569E-07
    -19.804  0.3563E-05  0.3375E-06
    -19.716  0.3145E-04  0.3090E-05
    -19.629  0.1917E-03  0.1987E-04
    -19.541  0.8113E-03  0.9086E-04
    -19.454  0.2417E-02  0.3024E-03
    -19.366  0.5250E-02  0.7618E-03
    -19.279  0.8979E-02  0.1548E-02
    -19.191  0.1356E-01  0.2734E-02
    -19.104  0.1917E-01  0.4412E-02
    -19.016  0.2385E-01  0.6499E-02
    -18.929  0.2379E-01  0.8581E-02
    -18.841  0.1804E-01  0.1016E-01
    -18.754  0.1018E-01  0.1105E-01
    -18.666  0.4227E-02  0.1142E-01
    -18.579  0.1279E-02  0.1153E-01
    -18.491  0.2786E-03  0.1156E-01
    -18.404  0.4326E-04  0.1156E-01
    -18.316  0.4739E-05  0.1156E-01
    -18.229  0.3635E-06  0.1156E-01
    -18.141  0.1941E-07  0.1156E-01
    -18.054  0.7186E-09  0.1156E-01
    -17.966  0.1838E-10  0.1156E-01
    -17.879  0.3239E-12  0.1156E-01
    -17.791  0.3925E-14  0.1156E-01
    -17.704  0.3227E-16  0.1156E-01
    -17.616  0.0000E+00  0.1156E-01
    -17.529  0.0000E+00  0.1156E-01
    -17.441  0.0000E+00  0.1156E-01
    -17.354  0.0000E+00  0.1156E-01
    -17.266  0.0000E+00  0.1156E-01
    -17.178  0.0000E+00  0.1156E-01
    -17.091  0.0000E+00  0.1156E-01
    -17.003  0.0000E+00  0.1156E-01
    -16.916  0.0000E+00  0.1156E-01
    -16.828  0.0000E+00  0.1156E-01
    -16.741  0.0000E+00  0.1156E-01
    -16.653  0.0000E+00  0.1156E-01
    -16.566  0.0000E+00  0.1156E-01
    -16.478  0.0000E+00  0.1156E-01
    -16.391  0.0000E+00  0.1156E-01
    -16.303  0.0000E+00  0.1156E-01
    -16.216  0.0000E+00  0.1156E-01
    -16.128  0.0000E+00  0.1156E-01
    -16.041  0.0000E+00  0.1156E-01
    -15.953  0.0000E+00  0.1156E-01
    -15.866  0.0000E+00  0.1156E-01
    -15.778  0.0000E+00  0.1156E-01
    -15.691  0.0000E+00  0.1156E-01
    -15.603  0.0000E+00  0.1156E-01
    -15.516  0.0000E+00  0.1156E-01
    -15.428  0.0000E+00  0.1156E-01
    -15.341  0.0000E+00  0.1156E-01
    -15.253  0.0000E+00  0.1156E-01
    -15.166  0.0000E+00  0.1156E-01
    -15.078  0.0000E+00  0.1156E-01
    -14.991  0.0000E+00  0.1156E-01
    -14.903  0.0000E+00  0.1156E-01
    -14.816  0.0000E+00  0.1156E-01
    -14.728  0.0000E+00  0.1156E-01
    -14.641  0.0000E+00  0.1156E-01
    -14.553  0.0000E+00  0.1156E-01
    -14.466  0.0000E+00  0.1156E-01
    -14.378  0.0000E+00  0.1156E-01
    -14.291  0.0000E+00  0.1156E-01
    -14.203  0.0000E+00  0.1156E-01
    -14.116  0.0000E+00  0.1156E-01
    -14.028  0.0000E+00  0.1156E-01
    -13.941  0.0000E+00  0.1156E-01
    -13.853  0.0000E+00  0.1156E-01
    -13.766  0.0000E+00  0.1156E-01
    -13.678  0.0000E+00  0.1156E-01
    -13.591  0.0000E+00  0.1156E-01
    -13.503  0.0000E+00  0.1156E-01
    -13.415  0.0000E+00  0.1156E-01
    -13.328  0.0000E+00  0.1156E-01
    -13.240  0.0000E+00  0.1156E-01
    -13.153  0.0000E+00  0.1156E-01
    -13.065  0.0000E+00  0.1156E-01
    -12.978  0.0000E+00  0.1156E-01
    -12.890  0.0000E+00  0.1156E-01
    -12.803  0.0000E+00  0.1156E-01
    -12.715  0.0000E+00  0.1156E-01
    -12.628  0.0000E+00  0.1156E-01
    -12.540  0.0000E+00  0.1156E-01
    -12.453  0.0000E+00  0.1156E-01
    -12.365  0.0000E+00  0.1156E-01
    -12.278  0.0000E+00  0.1156E-01
    -12.190  0.0000E+00  0.1156E-01
    -12.103  0.0000E+00  0.1156E-01
    -12.015  0.0000E+00  0.1156E-01
    -11.928  0.0000E+00  0.1156E-01
    -11.840  0.0000E+00  0.1156E-01
    -11.753  0.0000E+00  0.1156E-01
    -11.665  0.0000E+00  0.1156E-01
    -11.578  0.0000E+00  0.1156E-01
    -11.490  0.0000E+00  0.1156E-01
    -11.403  0.0000E+00  0.1156E-01
    -11.315  0.0000E+00  0.1156E-01
    -11.228  0.0000E+00  0.1156E-01
    -11.140  0.0000E+00  0.1156E-01
    -11.053  0.0000E+00  0.1156E-01
    -10.965  0.0000E+00  0.1156E-01
    -10.878  0.0000E+00  0.1156E-01
    -10.790  0.0000E+00  0.1156E-01
    -10.703  0.0000E+00  0.1156E-01
    -10.615  0.0000E+00  0.1156E-01
    -10.528  0.0000E+00  0.1156E-01
    -10.440  0.0000E+00  0.1156E-01
    -10.353  0.0000E+00  0.1156E-01
    -10.265  0.0000E+00  0.1156E-01
    -10.178  0.0000E+00  0.1156E-01
    -10.090  0.0000E+00  0.1156E-01
    -10.003  0.0000E+00  0.1156E-01
     -9.915  0.0000E+00  0.1156E-01
     -9.828  0.0000E+00  0.1156E-01
     -9.740  0.0000E+00  0.1156E-01
     -9.653  0.0000E+00  0.1156E-01
     -9.565  0.0000E+00  0.1156E-01
     -9.477  0.0000E+00  0.1156E-01
     -9.390  0.0000E+00  0.1156E-01
     -9.302  0.1907E-16  0.1156E-01
     -9.215  0.2300E-14  0.1156E-01
     -9.127  0.1965E-12  0.1156E-01
     -9.040  0.1151E-10  0.1156E-01
     -8.952  0.4628E-09  0.1156E-01
     -8.865  0.1278E-07  0.1156E-01
     -8.777  0.2424E-06  0.1156E-01
     -8.690  0.3163E-05  0.1156E-01
     -8.602  0.2840E-04  0.1156E-01
     -8.515  0.1756E-03  0.1158E-01
     -8.427  0.7481E-03  0.1164E-01
     -8.340  0.2198E-02  0.1184E-01
     -8.252  0.4454E-02  0.1223E-01
     -8.165  0.6228E-02  0.1277E-01
     -8.077  0.6011E-02  0.1330E-01
     -7.990  0.4003E-02  0.1365E-01
     -7.902  0.1840E-02  0.1381E-01
     -7.815  0.5831E-03  0.1386E-01
     -7.727  0.1274E-03  0.1387E-01
     -7.640  0.1918E-04  0.1387E-01
     -7.552  0.1995E-05  0.1387E-01
     -7.465  0.2714E-06  0.1387E-01
     -7.377  0.1845E-05  0.1387E-01
     -7.290  0.1794E-04  0.1387E-01
     -7.202  0.1207E-03  0.1389E-01
     -7.115  0.5599E-03  0.1393E-01
     -7.027  0.1798E-02  0.1409E-01
     -6.940  0.4032E-02  0.1444E-01
     -6.852  0.6500E-02  0.1501E-01
     -6.765  0.8194E-02  0.1573E-01
     -6.677  0.9739E-02  0.1658E-01
     -6.590  0.1313E-01  0.1773E-01
     -6.502  0.1927E-01  0.1942E-01
     -6.415  0.2653E-01  0.2174E-01
     -6.327  0.3132E-01  0.2448E-01
     -6.240  0.3060E-01  0.2716E-01
     -6.152  0.2512E-01  0.2936E-01
     -6.065  0.1872E-01  0.3100E-01
     -5.977  0.1472E-01  0.3228E-01
     -5.890  0.1436E-01  0.3354E-01
     -5.802  0.1770E-01  0.3509E-01
     -5.715  0.2405E-01  0.3719E-01
     -5.627  0.3192E-01  0.3999E-01
     -5.539  0.3951E-01  0.4344E-01
     -5.452  0.4526E-01  0.4741E-01
     -5.364  0.4712E-01  0.5153E-01
     -5.277  0.4344E-01  0.5533E-01
     -5.189  0.3571E-01  0.5846E-01
     -5.102  0.2815E-01  0.6092E-01
     -5.014  0.2410E-01  0.6303E-01
     -4.927  0.2448E-01  0.6517E-01
     -4.839  0.2881E-01  0.6769E-01
     -4.752  0.3470E-01  0.7073E-01
     -4.664  0.3772E-01  0.7403E-01
     -4.577  0.3432E-01  0.7703E-01
     -4.489  0.2572E-01  0.7928E-01
     -4.402  0.1763E-01  0.8083E-01
     -4.314  0.1547E-01  0.8218E-01
     -4.227  0.2075E-01  0.8400E-01
     -4.139  0.3106E-01  0.8672E-01
     -4.052  0.4141E-01  0.9034E-01
     -3.964  0.4806E-01  0.9454E-01
     -3.877  0.5327E-01  0.9921E-01
     -3.789  0.6265E-01  0.1047E+00
     -3.702  0.7816E-01  0.1115E+00
     -3.614  0.9814E-01  0.1201E+00
     -3.527  0.1195E+00  0.1306E+00
     -3.439  0.1353E+00  0.1424E+00
     -3.352  0.1378E+00  0.1545E+00
     -3.264  0.1257E+00  0.1655E+00
     -3.177  0.1067E+00  0.1748E+00
     -3.089  0.9454E-01  0.1831E+00
     -3.002  0.9985E-01  0.1918E+00
     -2.914  0.1175E+00  0.2021E+00
     -2.827  0.1296E+00  0.2134E+00
     -2.739  0.1275E+00  0.2246E+00
     -2.652  0.1223E+00  0.2353E+00
     -2.564  0.1271E+00  0.2464E+00
     -2.477  0.1393E+00  0.2586E+00
     -2.389  0.1472E+00  0.2715E+00
     -2.302  0.1482E+00  0.2845E+00
     -2.214  0.1491E+00  0.2975E+00
     -2.127  0.1527E+00  0.3109E+00
     -2.039  0.1562E+00  0.3246E+00
     -1.952  0.1613E+00  0.3387E+00
     -1.864  0.1744E+00  0.3539E+00
     -1.776  0.1967E+00  0.3711E+00
     -1.689  0.2202E+00  0.3904E+00
     -1.601  0.2361E+00  0.4111E+00
     -1.514  0.2412E+00  0.4322E+00
     -1.426  0.2336E+00  0.4526E+00
     -1.339  0.2117E+00  0.4711E+00
     -1.251  0.1830E+00  0.4872E+00
     -1.164  0.1636E+00  0.5015E+00
     -1.076  0.1614E+00  0.5156E+00
     -0.989  0.1718E+00  0.5306E+00
     -0.901  0.1861E+00  0.5469E+00
     -0.814  0.1978E+00  0.5642E+00
     -0.726  0.2035E+00  0.5820E+00
     -0.639  0.2034E+00  0.5998E+00
     -0.551  0.1992E+00  0.6173E+00
     -0.464  0.1909E+00  0.6340E+00
     -0.376  0.1791E+00  0.6496E+00
     -0.289  0.1674E+00  0.6643E+00
     -0.201  0.1613E+00  0.6784E+00
     -0.114  0.1632E+00  0.6927E+00
     -0.026  0.1703E+00  0.7076E+00
      0.061  0.1777E+00  0.7231E+00
      0.149  0.1806E+00  0.7389E+00
      0.236  0.1763E+00  0.7544E+00
      0.324  0.1652E+00  0.7688E+00
      0.411  0.1500E+00  0.7820E+00
      0.499  0.1330E+00  0.7936E+00
      0.586  0.1143E+00  0.8036E+00
      0.674  0.9322E-01  0.8118E+00
      0.761  0.7071E-01  0.8179E+00
      0.849  0.5074E-01  0.8224E+00
      0.936  0.3717E-01  0.8256E+00
      1.024  0.2989E-01  0.8283E+00
      1.111  0.2698E-01  0.8306E+00
      1.199  0.2751E-01  0.8330E+00
      1.286  0.3011E-01  0.8357E+00
      1.374  0.3167E-01  0.8384E+00
      1.461  0.2944E-01  0.8410E+00
      1.549  0.2465E-01  0.8432E+00
      1.636  0.2232E-01  0.8451E+00
      1.724  0.2582E-01  0.8474E+00
      1.811  0.3267E-01  0.8502E+00
      1.899  0.3661E-01  0.8534E+00
      1.986  0.3341E-01  0.8564E+00
      2.074  0.2510E-01  0.8586E+00
      2.162  0.1870E-01  0.8602E+00
      2.249  0.2046E-01  0.8620E+00
      2.337  0.3004E-01  0.8646E+00
      2.424  0.4003E-01  0.8681E+00
      2.512  0.4292E-01  0.8719E+00
      2.599  0.3851E-01  0.8752E+00
      2.687  0.3241E-01  0.8781E+00
      2.774  0.2860E-01  0.8806E+00
      2.862  0.2649E-01  0.8829E+00
      2.949  0.2328E-01  0.8849E+00
      3.037  0.1735E-01  0.8865E+00
      3.124  0.1008E-01  0.8873E+00
      3.212  0.4330E-02  0.8877E+00
      3.299  0.1339E-02  0.8878E+00
      3.387  0.2930E-03  0.8879E+00
      3.474  0.4501E-04  0.8879E+00
      3.562  0.4824E-05  0.8879E+00
      3.649  0.3594E-06  0.8879E+00
      3.737  0.1856E-07  0.8879E+00
      3.824  0.6625E-09  0.8879E+00
      3.912  0.1633E-10  0.8879E+00
      3.999  0.2773E-12  0.8879E+00
      4.087  0.3241E-14  0.8879E+00
      4.174  0.2640E-16  0.8879E+00
      4.262  0.0000E+00  0.8879E+00
      4.349  0.0000E+00  0.8879E+00
      4.437  0.0000E+00  0.8879E+00
      4.524  0.0000E+00  0.8879E+00
      4.612  0.0000E+00  0.8879E+00
      4.699  0.0000E+00  0.8879E+00
      4.787  0.0000E+00  0.8879E+00
      4.874  0.0000E+00  0.8879E+00
      4.962  0.0000E+00  0.8879E+00
      4.96188102    -21.29151596  301      0.15397409      1.00000000
    -21.292  0.0000E+00  0.0000E+00  0.0000E+00
    -21.204  0.0000E+00  0.0000E+00  0.0000E+00
    -21.116  0.0000E+00  0.0000E+00  0.0000E+00
    -21.029  0.0000E+00  0.0000E+00  0.0000E+00
    -20.941  0.0000E+00  0.0000E+00  0.0000E+00
    -20.854  0.0000E+00  0.0000E+00  0.0000E+00
    -20.766  0.0000E+00  0.0000E+00  0.0000E+00
    -20.679  0.0000E+00  0.0000E+00  0.0000E+00
    -20.591  0.0000E+00  0.0000E+00  0.0000E+00
    -20.504  0.0000E+00  0.0000E+00  0.0000E+00
    -20.416  0.4026E-19  0.3681E-19  0.1882E-19
    -20.329  0.4972E-17  0.4546E-17  0.2325E-17
    -20.241  0.4167E-15  0.3810E-15  0.1948E-15
    -20.154  0.2396E-13  0.2191E-13  0.1120E-13
    -20.066  0.9454E-12  0.8644E-12  0.4420E-12
    -19.979  0.2562E-10  0.2343E-10  0.1198E-10
    -19.891  0.4772E-09  0.4364E-09  0.2232E-09
    -19.804  0.6116E-08  0.5594E-08  0.2862E-08
    -19.716  0.5404E-07  0.4945E-07  0.2532E-07
    -19.629  0.3303E-06  0.3028E-06  0.1555E-06
    -19.541  0.1410E-05  0.1298E-05  0.6714E-06
    -19.454  0.4301E-05  0.4005E-05  0.2112E-05
    -19.366  0.9923E-05  0.9493E-05  0.5223E-05
    -19.279  0.1919E-04  0.1924E-04  0.1134E-04
    -19.191  0.3409E-04  0.3601E-04  0.2272E-04
    -19.104  0.5432E-04  0.5944E-04  0.3916E-04
    -19.016  0.7008E-04  0.7811E-04  0.5265E-04
    -18.929  0.6782E-04  0.7641E-04  0.5227E-04
    -18.841  0.4765E-04  0.5417E-04  0.3754E-04
    -18.754  0.2408E-04  0.2763E-04  0.1941E-04
    -18.666  0.8747E-05  0.1014E-04  0.7231E-05
    -18.579  0.2286E-05  0.2679E-05  0.1942E-05
    -18.491  0.4305E-06  0.5102E-06  0.3758E-06
    -18.404  0.5835E-07  0.6991E-07  0.5229E-07
    -18.316  0.5675E-08  0.6868E-08  0.5208E-08
    -18.229  0.3942E-09  0.4812E-09  0.3692E-09
    -18.141  0.1943E-10  0.2390E-10  0.1851E-10
    -18.054  0.6759E-12  0.8359E-12  0.6524E-12
    -17.966  0.1648E-13  0.2047E-13  0.1607E-13
    -17.879  0.2803E-15  0.3494E-15  0.2755E-15
    -17.791  0.3306E-17  0.4131E-17  0.3268E-17
    -17.704  0.2532E-19  0.3185E-19  0.2541E-19
    -17.616  0.0000E+00  0.0000E+00  0.0000E+00
    -17.529  0.0000E+00  0.0000E+00  0.0000E+00
    -17.441  0.0000E+00  0.0000E+00  0.0000E+00
    -17.354  0.0000E+00  0.0000E+00  0.0000E+00
    -17.266  0.0000E+00  0.0000E+00  0.0000E+00
    -17.178  0.0000E+00  0.0000E+00  0.0000E+00
    -17.091  0.0000E+00  0.0000E+00  0.0000E+00
    -17.003  0.0000E+00  0.0000E+00  0.0000E+00
    -16.916  0.0000E+00  0.0000E+00  0.0000E+00
    -16.828  0.0000E+00  0.0000E+00  0.0000E+00
    -16.741  0.0000E+00  0.0000E+00  0.0000E+00
    -16.653  0.0000E+00  0.0000E+00  0.0000E+00
    -16.566  0.0000E+00  0.0000E+00  0.0000E+00
    -16.478  0.0000E+00  0.0000E+00  0.0000E+00
    -16.391  0.0000E+00  0.0000E+00  0.0000E+00
    -16.303  0.0000E+00  0.0000E+00  0.0000E+00
    -16.216  0.0000E+00  0.0000E+00  0.0000E+00
    -16.128  0.0000E+00  0.0000E+00  0.0000E+00
    -16.041  0.0000E+00  0.0000E+00  0.0000E+00
    -15.953  0.0000E+00  0.0000E+00  0.0000E+00
    -15.866  0.0000E+00  0.0000E+00  0.0000E+00
    -15.778  0.0000E+00  0.0000E+00  0.0000E+00
    -15.691  0.0000E+00  0.0000E+00  0.0000E+00
    -15.603  0.0000E+00  0.0000E+00  0.0000E+00
    -15.516  0.0000E+00  0.0000E+00  0.0000E+00
    -15.428  0.0000E+00  0.0000E+00  0.0000E+00
    -15.341  0.0000E+00  0.0000E+00  0.0000E+00
    -15.253  0.0000E+00  0.0000E+00  0.0000E+00
    -15.166  0.0000E+00  0.0000E+00  0.0000E+00
    -15.078  0.0000E+00  0.0000E+00  0.0000E+00
    -14.991  0.0000E+00  0.0000E+00  0.0000E+00
    -14.903  0.0000E+00  0.0000E+00  0.0000E+00
    -14.816  0.0000E+00  0.0000E+00  0.0000E+00
    -14.728  0.0000E+00  0.0000E+00  0.0000E+00
    -14.641  0.0000E+00  0.0000E+00  0.0000E+00
    -14.553  0.0000E+00  0.0000E+00  0.0000E+00
    -14.466  0.0000E+00  0.0000E+00  0.0000E+00
    -14.378  0.0000E+00  0.0000E+00  0.0000E+00
    -14.291  0.0000E+00  0.0000E+00  0.0000E+00
    -14.203  0.0000E+00  0.0000E+00  0.0000E+00
    -14.116  0.0000E+00  0.0000E+00  0.0000E+00
    -14.028  0.0000E+00  0.0000E+00  0.0000E+00
    -13.941  0.0000E+00  0.0000E+00  0.0000E+00
    -13.853  0.0000E+00  0.0000E+00  0.0000E+00
    -13.766  0.0000E+00  0.0000E+00  0.0000E+00
    -13.678  0.0000E+00  0.0000E+00  0.0000E+00
    -13.591  0.0000E+00  0.0000E+00  0.0000E+00
    -13.503  0.0000E+00  0.0000E+00  0.0000E+00
    -13.415  0.0000E+00  0.0000E+00  0.0000E+00
    -13.328  0.0000E+00  0.0000E+00  0.0000E+00
    -13.240  0.0000E+00  0.0000E+00  0.0000E+00
    -13.153  0.0000E+00  0.0000E+00  0.0000E+00
    -13.065  0.0000E+00  0.0000E+00  0.0000E+00
    -12.978  0.0000E+00  0.0000E+00  0.0000E+00
    -12.890  0.0000E+00  0.0000E+00  0.0000E+00
    -12.803  0.0000E+00  0.0000E+00  0.0000E+00
    -12.715  0.0000E+00  0.0000E+00  0.0000E+00
    -12.628  0.0000E+00  0.0000E+00  0.0000E+00
    -12.540  0.0000E+00  0.0000E+00  0.0000E+00
    -12.453  0.0000E+00  0.0000E+00  0.0000E+00
    -12.365  0.0000E+00  0.0000E+00  0.0000E+00
    -12.278  0.0000E+00  0.0000E+00  0.0000E+00
    -12.190  0.0000E+00  0.0000E+00  0.0000E+00
    -12.103  0.0000E+00  0.0000E+00  0.0000E+00
    -12.015  0.0000E+00  0.0000E+00  0.0000E+00
    -11.928  0.0000E+00  0.0000E+00  0.0000E+00
    -11.840  0.0000E+00  0.0000E+00  0.0000E+00
    -11.753  0.0000E+00  0.0000E+00  0.0000E+00
    -11.665  0.0000E+00  0.0000E+00  0.0000E+00
    -11.578  0.0000E+00  0.0000E+00  0.0000E+00
    -11.490  0.0000E+00  0.0000E+00  0.0000E+00
    -11.403  0.0000E+00  0.0000E+00  0.0000E+00
    -11.315  0.0000E+00  0.0000E+00  0.0000E+00
    -11.228  0.0000E+00  0.0000E+00  0.0000E+00
    -11.140  0.0000E+00  0.0000E+00  0.0000E+00
    -11.053  0.0000E+00  0.0000E+00  0.0000E+00
    -10.965  0.0000E+00  0.0000E+00  0.0000E+00
    -10.878  0.0000E+00  0.0000E+00  0.0000E+00
    -10.790  0.0000E+00  0.0000E+00  0.0000E+00
    -10.703  0.0000E+00  0.0000E+00  0.0000E+00
    -10.615  0.0000E+00  0.0000E+00  0.0000E+00
    -10.528  0.0000E+00  0.0000E+00  0.0000E+00
    -10.440  0.0000E+00  0.0000E+00  0.0000E+00
    -10.353  0.0000E+00  0.0000E+00  0.0000E+00
    -10.265  0.0000E+00  0.0000E+00  0.0000E+00
    -10.178  0.0000E+00  0.0000E+00  0.0000E+00
    -10.090  0.0000E+00  0.0000E+00  0.0000E+00
    -10.003  0.0000E+00  0.0000E+00  0.0000E+00
     -9.915  0.0000E+00  0.0000E+00  0.0000E+00
     -9.828  0.0000E+00  0.0000E+00  0.0000E+00
     -9.740  0.0000E+00  0.0000E+00  0.0000E+00
     -9.653  0.0000E+00  0.0000E+00  0.0000E+00
     -9.565  0.0000E+00  0.0000E+00  0.0000E+00
     -9.477  0.0000E+00  0.0000E+00  0.0000E+00
     -9.390  0.0000E+00  0.0000E+00  0.0000E+00
     -9.302  0.3249E-15  0.2075E-17  0.6867E-18
     -9.215  0.3919E-13  0.2502E-15  0.8283E-16
     -9.127  0.3349E-11  0.2138E-13  0.7077E-14
     -9.040  0.1962E-09  0.1252E-11  0.4146E-12
     -8.952  0.7887E-08  0.5035E-10  0.1667E-10
     -8.865  0.2177E-06  0.1390E-08  0.4602E-09
     -8.777  0.4131E-05  0.2637E-07  0.8731E-08
     -8.690  0.5390E-04  0.3441E-06  0.1139E-06
     -8.602  0.4839E-03  0.3090E-05  0.1023E-05
     -8.515  0.2992E-02  0.1910E-04  0.6324E-05
     -8.427  0.1275E-01  0.8140E-04  0.2694E-04
     -8.340  0.3746E-01  0.2391E-03  0.7916E-04
     -8.252  0.7591E-01  0.4846E-03  0.1604E-03
     -8.165  0.1061E+00  0.6777E-03  0.2243E-03
     -8.077  0.1024E+00  0.6540E-03  0.2165E-03
     -7.990  0.6822E-01  0.4356E-03  0.1442E-03
     -7.902  0.3135E-01  0.2002E-03  0.6625E-04
     -7.815  0.9937E-02  0.6344E-04  0.2100E-04
     -7.727  0.2171E-02  0.1386E-04  0.4589E-05
     -7.640  0.3270E-03  0.2088E-05  0.6910E-06
     -7.552  0.3393E-04  0.2268E-06  0.7342E-07
     -7.465  0.3050E-05  0.2298E-06  0.4200E-07
     -7.377  0.9080E-05  0.3042E-05  0.5237E-06
     -7.290  0.8757E-04  0.2969E-04  0.5113E-05
     -7.202  0.5904E-03  0.1996E-03  0.3443E-04
     -7.115  0.2762E-02  0.9247E-03  0.1604E-03
     -7.027  0.9104E-02  0.2956E-02  0.5223E-03
     -6.940  0.2210E-01  0.6544E-02  0.1223E-02
     -6.852  0.4387E-01  0.1014E-01  0.2227E-02
     -6.765  0.8270E-01  0.1159E-01  0.3686E-02
     -6.677  0.1538E+00  0.1219E-01  0.6304E-02
     -6.590  0.2529E+00  0.1816E-01  0.1061E-01
     -6.502  0.3326E+00  0.3584E-01  0.1581E-01
     -6.415  0.3374E+00  0.6283E-01  0.1986E-01
     -6.327  0.2631E+00  0.8395E-01  0.2066E-01
     -6.240  0.1604E+00  0.8345E-01  0.1748E-01
     -6.152  0.8101E-01  0.6278E-01  0.1211E-01
     -6.065  0.4052E-01  0.3887E-01  0.7800E-02
     -5.977  0.2831E-01  0.2638E-01  0.6760E-02
     -5.890  0.2927E-01  0.2781E-01  0.9334E-02
     -5.802  0.3230E-01  0.3706E-01  0.1549E-01
     -5.715  0.3268E-01  0.4558E-01  0.2609E-01
     -5.627  0.3120E-01  0.4650E-01  0.4206E-01
     -5.539  0.2878E-01  0.3906E-01  0.6164E-01
     -5.452  0.2443E-01  0.2889E-01  0.7768E-01
     -5.364  0.1843E-01  0.2066E-01  0.7997E-01
     -5.277  0.1314E-01  0.1440E-01  0.6522E-01
     -5.189  0.1062E-01  0.9363E-02  0.4275E-01
     -5.102  0.1323E-01  0.6834E-02  0.2617E-01
     -5.014  0.2704E-01  0.9077E-02  0.2338E-01
     -4.927  0.6075E-01  0.1773E-01  0.3677E-01
     -4.839  0.1152E+00  0.3161E-01  0.6486E-01
     -4.752  0.1708E+00  0.4496E-01  0.9839E-01
     -4.664  0.1932E+00  0.5006E-01  0.1199E+00
     -4.577  0.1663E+00  0.4342E-01  0.1156E+00
     -4.489  0.1147E+00  0.2933E-01  0.9118E-01
     -4.402  0.7945E-01  0.1589E-01  0.7736E-01
     -4.314  0.7848E-01  0.8202E-02  0.1205E+00
     -4.227  0.1001E+00  0.6569E-02  0.2566E+00
     -4.139  0.1246E+00  0.1015E-01  0.4611E+00
     -4.052  0.1424E+00  0.2061E-01  0.6291E+00
     -3.964  0.1595E+00  0.4332E-01  0.6727E+00
     -3.877  0.1849E+00  0.8317E-01  0.6341E+00
     -3.789  0.2076E+00  0.1330E+00  0.6361E+00
     -3.702  0.2054E+00  0.1698E+00  0.7594E+00
     -3.614  0.1759E+00  0.1755E+00  0.1018E+01
     -3.527  0.1368E+00  0.1564E+00  0.1361E+01
     -3.439  0.1010E+00  0.1317E+00  0.1658E+01
     -3.352  0.7013E-01  0.1135E+00  0.1769E+01
     -3.264  0.4440E-01  0.1028E+00  0.1655E+01
     -3.177  0.2651E-01  0.9862E-01  0.1410E+01
     -3.089  0.1619E-01  0.1084E+00  0.1255E+01
     -3.002  0.1041E-01  0.1385E+00  0.1415E+01
     -2.914  0.7090E-02  0.1717E+00  0.1838E+01
     -2.827  0.5529E-02  0.1778E+00  0.2155E+01
     -2.739  0.5145E-02  0.1519E+00  0.2084E+01
     -2.652  0.5503E-02  0.1197E+00  0.1781E+01
     -2.564  0.6703E-02  0.1037E+00  0.1615E+01
     -2.477  0.9088E-02  0.1059E+00  0.1701E+01
     -2.389  0.1273E-01  0.1186E+00  0.1879E+01
     -2.302  0.1706E-01  0.1354E+00  0.2026E+01
     -2.214  0.2051E-01  0.1510E+00  0.2132E+01
     -2.127  0.2136E-01  0.1583E+00  0.2158E+01
     -2.039  0.1988E-01  0.1503E+00  0.2055E+01
     -1.952  0.1838E-01  0.1289E+00  0.1912E+01
     -1.864  0.1828E-01  0.1082E+00  0.1891E+01
     -1.776  0.1905E-01  0.1003E+00  0.2032E+01
     -1.689  0.2005E-01  0.1034E+00  0.2227E+01
     -1.601  0.2175E-01  0.1069E+00  0.2358E+01
     -1.514  0.2428E-01  0.1037E+00  0.2380E+01
     -1.426  0.2615E-01  0.9363E-01  0.2302E+01
     -1.339  0.2576E-01  0.8170E-01  0.2152E+01
     -1.251  0.2340E-01  0.7299E-01  0.2010E+01
     -1.164  0.2022E-01  0.6916E-01  0.2017E+01
     -1.076  0.1670E-01  0.6814E-01  0.2279E+01
     -0.989  0.1317E-01  0.6737E-01  0.2762E+01
     -0.901  0.1045E-01  0.6537E-01  0.3290E+01
     -0.814  0.9111E-02  0.6056E-01  0.3635E+01
     -0.726  0.8789E-02  0.5280E-01  0.3635E+01
     -0.639  0.8756E-02  0.4476E-01  0.3280E+01
     -0.551  0.8833E-02  0.3906E-01  0.2727E+01
     -0.464  0.9211E-02  0.3559E-01  0.2182E+01
     -0.376  0.9578E-02  0.3269E-01  0.1762E+01
     -0.289  0.9406E-02  0.2944E-01  0.1502E+01
     -0.201  0.9068E-02  0.2625E-01  0.1420E+01
     -0.114  0.9510E-02  0.2445E-01  0.1511E+01
     -0.026  0.1077E-01  0.2635E-01  0.1702E+01
      0.061  0.1168E-01  0.3434E-01  0.1867E+01
      0.149  0.1118E-01  0.4691E-01  0.1894E+01
      0.236  0.9334E-02  0.5706E-01  0.1743E+01
      0.324  0.7174E-02  0.5812E-01  0.1468E+01
      0.411  0.5666E-02  0.5097E-01  0.1169E+01
      0.499  0.4947E-02  0.4276E-01  0.9064E+00
      0.586  0.4553E-02  0.3901E-01  0.6898E+00
      0.674  0.4010E-02  0.4023E-01  0.5105E+00
      0.761  0.3109E-02  0.4628E-01  0.3700E+00
      0.849  0.2075E-02  0.5695E-01  0.2779E+00
      0.936  0.1521E-02  0.6660E-01  0.2259E+00
      1.024  0.1985E-02  0.6940E-01  0.1864E+00
      1.111  0.3484E-02  0.7017E-01  0.1547E+00
      1.199  0.5526E-02  0.7574E-01  0.1583E+00
      1.286  0.7529E-02  0.8064E-01  0.2106E+00
      1.374  0.8968E-02  0.7512E-01  0.2786E+00
      1.461  0.9285E-02  0.5999E-01  0.3089E+00
      1.549  0.9029E-02  0.4723E-01  0.2873E+00
      1.636  0.1133E-01  0.5162E-01  0.2532E+00
      1.724  0.1974E-01  0.7863E-01  0.2446E+00
      1.811  0.3252E-01  0.1141E+00  0.2586E+00
      1.899  0.4117E-01  0.1310E+00  0.2656E+00
      1.986  0.3865E-01  0.1148E+00  0.2389E+00
      2.074  0.2724E-01  0.7922E-01  0.1795E+00
      2.162  0.1520E-01  0.5292E-01  0.1244E+00
      2.249  0.8290E-02  0.5492E-01  0.1150E+00
      2.337  0.6736E-02  0.8150E-01  0.1546E+00
      2.424  0.8082E-02  0.1090E+00  0.2007E+00
      2.512  0.1095E-01  0.1148E+00  0.2068E+00
      2.599  0.1672E-01  0.1001E+00  0.1715E+00
      2.687  0.2778E-01  0.8315E-01  0.1339E+00
      2.774  0.4205E-01  0.7529E-01  0.1242E+00
      2.862  0.5043E-01  0.7305E-01  0.1324E+00
      2.949  0.4506E-01  0.6744E-01  0.1270E+00
      3.037  0.2939E-01  0.5261E-01  0.9513E-01
      3.124  0.1396E-01  0.3180E-01  0.5290E-01
      3.212  0.4844E-02  0.1412E-01  0.2141E-01
      3.299  0.1236E-02  0.4480E-02  0.6234E-02
      3.387  0.2323E-03  0.1001E-02  0.1294E-02
      3.474  0.3201E-04  0.1562E-03  0.1901E-03
      3.562  0.3203E-05  0.1696E-04  0.1964E-04
      3.649  0.2297E-06  0.1276E-05  0.1419E-05
      3.737  0.1166E-07  0.6644E-07  0.7140E-07
      3.824  0.4148E-09  0.2389E-08  0.2495E-08
      3.912  0.1026E-10  0.5921E-10  0.6036E-10
      3.999  0.1757E-12  0.1011E-11  0.1009E-11
      4.087  0.2072E-14  0.1186E-13  0.1163E-13
      4.174  0.1665E-16  0.9653E-16  0.9500E-16
      4.262  0.0000E+00  0.0000E+00  0.0000E+00
      4.349  0.0000E+00  0.0000E+00  0.0000E+00
      4.437  0.0000E+00  0.0000E+00  0.0000E+00
      4.524  0.0000E+00  0.0000E+00  0.0000E+00
      4.612  0.0000E+00  0.0000E+00  0.0000E+00
      4.699  0.0000E+00  0.0000E+00  0.0000E+00
      4.787  0.0000E+00  0.0000E+00  0.0000E+00
      4.874  0.0000E+00  0.0000E+00  0.0000E+00
      4.962  0.0000E+00  0.0000E+00  0.0000E+00
      4.96188102    -21.29151596  301      0.15397409      1.00000000
    -21.292  0.0000E+00  0.0000E+00  0.0000E+00
    -21.204  0.0000E+00  0.0000E+00  0.0000E+00
    -21.116  0.0000E+00  0.0000E+00  0.0000E+00
    -21.029  0.0000E+00  0.0000E+00  0.0000E+00
    -20.941  0.0000E+00  0.0000E+00  0.0000E+00
    -20.854  0.0000E+00  0.0000E+00  0.0000E+00
    -20.766  0.0000E+00  0.0000E+00  0.0000E+00
    -20.679  0.0000E+00  0.0000E+00  0.0000E+00
    -20.591  0.0000E+00  0.0000E+00  0.0000E+00
    -20.504  0.0000E+00  0.0000E+00  0.0000E+00
    -20.416  0.3069E-20  0.1088E-20  0.1276E-21
    -20.329  0.3790E-18  0.1344E-18  0.1576E-19
    -20.241  0.3176E-16  0.1126E-16  0.1321E-17
    -20.154  0.1826E-14  0.6475E-15  0.7596E-16
    -20.066  0.7206E-13  0.2555E-13  0.2998E-14
    -19.979  0.1953E-11  0.6926E-12  0.8136E-13
    -19.891  0.3639E-10  0.1292E-10  0.1523E-11
    -19.804  0.4670E-09  0.1663E-09  0.1986E-10
    -19.716  0.4148E-08  0.1493E-08  0.1867E-09
    -19.629  0.2590E-07  0.9681E-08  0.1391E-08
    -19.541  0.1192E-06  0.4986E-07  0.9755E-08
    -19.454  0.4574E-06  0.2421E-06  0.6963E-07
    -19.366  0.1731E-05  0.1194E-05  0.4403E-06
    -19.279  0.6477E-05  0.5202E-05  0.2119E-05
    -19.191  0.2028E-04  0.1724E-04  0.7255E-05
    -19.104  0.4696E-04  0.4067E-04  0.1730E-04
    -19.016  0.7670E-04  0.6683E-04  0.2854E-04
    -18.929  0.8706E-04  0.7605E-04  0.3254E-04
    -18.841  0.6837E-04  0.5982E-04  0.2563E-04
    -18.754  0.3711E-04  0.3250E-04  0.1394E-04
    -18.666  0.1391E-04  0.1219E-04  0.5235E-05
    -18.579  0.3598E-05  0.3157E-05  0.1357E-05
    -18.491  0.6422E-06  0.5640E-06  0.2425E-06
    -18.404  0.7904E-07  0.6949E-07  0.2990E-07
    -18.316  0.6705E-08  0.5903E-08  0.2541E-08
    -18.229  0.3920E-09  0.3456E-09  0.1489E-09
    -18.141  0.1579E-10  0.1395E-10  0.6014E-11
    -18.054  0.4380E-12  0.3879E-12  0.1675E-12
    -17.966  0.8378E-14  0.7444E-14  0.3219E-14
    -17.879  0.1105E-15  0.9863E-16  0.4272E-16
    -17.791  0.1003E-17  0.9002E-18  0.3909E-18
    -17.704  0.8524E-21  0.9118E-21  0.4216E-21
    -17.616  0.0000E+00  0.0000E+00  0.0000E+00
    -17.529  0.0000E+00  0.0000E+00  0.0000E+00
    -17.441  0.0000E+00  0.0000E+00  0.0000E+00
    -17.354  0.0000E+00  0.0000E+00  0.0000E+00
    -17.266  0.0000E+00  0.0000E+00  0.0000E+00
    -17.178  0.0000E+00  0.0000E+00  0.0000E+00
    -17.091  0.0000E+00  0.0000E+00  0.0000E+00
    -17.003  0.0000E+00  0.0000E+00  0.0000E+00
    -16.916  0.0000E+00  0.0000E+00  0.0000E+00
    -16.828  0.0000E+00  0.0000E+00  0.0000E+00
    -16.741  0.0000E+00  0.0000E+00  0.0000E+00
    -16.653  0.0000E+00  0.0000E+00  0.0000E+00
    -16.566  0.0000E+00  0.0000E+00  0.0000E+00
    -16.478  0.0000E+00  0.0000E+00  0.0000E+00
    -16.391  0.0000E+00  0.0000E+00  0.0000E+00
    -16.303  0.0000E+00  0.0000E+00  0.0000E+00
    -16.216  0.0000E+00  0.0000E+00  0.0000E+00
    -16.128  0.0000E+00  0.0000E+00  0.0000E+00
    -16.041  0.0000E+00  0.0000E+00  0.0000E+00
    -15.953  0.0000E+00  0.0000E+00  0.0000E+00
    -15.866  0.0000E+00  0.0000E+00  0.0000E+00
    -15.778  0.0000E+00  0.0000E+00  0.0000E+00
    -15.691  0.0000E+00  0.0000E+00  0.0000E+00
    -15.603  0.0000E+00  0.0000E+00  0.0000E+00
    -15.516  0.0000E+00  0.0000E+00  0.0000E+00
    -15.428  0.0000E+00  0.0000E+00  0.0000E+00
    -15.341  0.0000E+00  0.0000E+00  0.0000E+00
    -15.253  0.0000E+00  0.0000E+00  0.0000E+00
    -15.166  0.0000E+00  0.0000E+00  0.0000E+00
    -15.078  0.0000E+00  0.0000E+00  0.0000E+00
    -14.991  0.0000E+00  0.0000E+00  0.0000E+00
    -14.903  0.0000E+00  0.0000E+00  0.0000E+00
    -14.816  0.0000E+00  0.0000E+00  0.0000E+00
    -14.728  0.0000E+00  0.0000E+00  0.0000E+00
    -14.641  0.0000E+00  0.0000E+00  0.0000E+00
    -14.553  0.0000E+00  0.0000E+00  0.0000E+00
    -14.466  0.0000E+00  0.0000E+00  0.0000E+00
    -14.378  0.0000E+00  0.0000E+00  0.0000E+00
    -14.291  0.0000E+00  0.0000E+00  0.0000E+00
    -14.203  0.0000E+00  0.0000E+00  0.0000E+00
    -14.116  0.0000E+00  0.0000E+00  0.0000E+00
    -14.028  0.0000E+00  0.0000E+00  0.0000E+00
    -13.941  0.0000E+00  0.0000E+00  0.0000E+00
    -13.853  0.0000E+00  0.0000E+00  0.0000E+00
    -13.766  0.0000E+00  0.0000E+00  0.0000E+00
    -13.678  0.0000E+00  0.0000E+00  0.0000E+00
    -13.591  0.0000E+00  0.0000E+00  0.0000E+00
    -13.503  0.0000E+00  0.0000E+00  0.0000E+00