       N       E                     dE             d eps       ncg     rms          rms(c)
DAV:   1     0.588927941330E+04    0.58893E+04   -0.32825E+05   768   0.209E+03
DAV:   2     0.324071567091E+03   -0.55652E+04   -0.53959E+04   768   0.457E+02
DAV:   3    -0.305341059672E+03   -0.62941E+03   -0.56105E+03   774   0.193E+02
DAV:   4    -0.397639048032E+03   -0.92298E+02   -0.84530E+02  1392   0.538E+01
DAV:   5    -0.405774989999E+03   -0.81359E+01   -0.78381E+01  1014   0.143E+01    0.290E+01
RMM:   6    -0.616600601917E+03   -0.21083E+03   -0.16570E+02   800   0.288E+01    0.141E+02
RMM:   7    -0.437777386408E+03    0.17882E+03   -0.13929E+02   770   0.347E+01    0.801E+01
RMM:   8    -0.406984411228E+03    0.30793E+02   -0.21711E+01   771   0.116E+01    0.357E+01
RMM:   9    -0.403992899127E+03    0.29915E+01   -0.53608E+00   822   0.409E+00    0.232E+01
RMM:  10    -0.403056706976E+03    0.93619E+00   -0.93939E-01   857   0.169E+00    0.179E+01
RMM:  11    -0.403245311115E+03   -0.18860E+00   -0.10196E+00   773   0.235E+00    0.191E+01
RMM:  12    -0.404937574368E+03   -0.16923E+01   -0.24441E+00   770   0.405E+00    0.294E+01
RMM:  13    -0.410515688373E+03   -0.55781E+01   -0.84483E+00   770   0.747E+00    0.442E+01
RMM:  14    -0.407342217300E+03    0.31735E+01   -0.58164E+00   774   0.658E+00    0.345E+01
RMM:  15    -0.403787556610E+03    0.35547E+01   -0.31885E+00   771   0.499E+00    0.197E+01
RMM:  16    -0.402867532372E+03    0.92002E+00   -0.88297E-01   770   0.237E+00    0.130E+01
RMM:  17    -0.402926857900E+03   -0.59326E-01   -0.53862E-01   773   0.182E+00    0.139E+01
RMM:  18    -0.402755315227E+03    0.17154E+00   -0.44844E-01   775   0.182E+00    0.109E+01
RMM:  19    -0.402476938758E+03    0.27838E+00   -0.21333E-01   771   0.130E+00    0.612E+00
RMM:  20    -0.402416285459E+03    0.60653E-01   -0.61866E-02   770   0.628E-01    0.437E+00
RMM:  21    -0.402432154772E+03   -0.15869E-01   -0.47170E-02   771   0.537E-01    0.496E+00
RMM:  22    -0.402406868396E+03    0.25286E-01   -0.30414E-02   774   0.477E-01    0.402E+00
RMM:  23    -0.402386074199E+03    0.20794E-01   -0.13813E-02   773   0.316E-01    0.296E+00
RMM:  24    -0.402388315133E+03   -0.22409E-02   -0.15033E-02   772   0.305E-01    0.302E+00
RMM:  25    -0.402390516762E+03   -0.22016E-02   -0.21404E-02   775   0.387E-01    0.315E+00
RMM:  26    -0.402369390290E+03    0.21126E-01   -0.16401E-02   774   0.355E-01    0.176E+00
RMM:  27    -0.402366066193E+03    0.33241E-02   -0.71640E-03   771   0.216E-01    0.138E+00
RMM:  28    -0.402367920838E+03   -0.18546E-02   -0.67463E-03   774   0.211E-01    0.159E+00
RMM:  29    -0.402362389535E+03    0.55313E-02   -0.47938E-03   774   0.190E-01    0.838E-01
RMM:  30    -0.402361824293E+03    0.56524E-03   -0.24752E-03   770   0.127E-01    0.756E-01
RMM:  31    -0.402362462308E+03   -0.63802E-03   -0.28502E-03   774   0.135E-01    0.784E-01
RMM:  32    -0.402360661723E+03    0.18006E-02   -0.16665E-03   774   0.114E-01    0.375E-01
RMM:  33    -0.402360470439E+03    0.19128E-03   -0.70217E-04   769   0.684E-02    0.322E-01
RMM:  34    -0.402360660265E+03   -0.18983E-03   -0.51939E-04   770   0.573E-02    0.370E-01
RMM:  35    -0.402360251232E+03    0.40903E-03   -0.35659E-04   772   0.539E-02    0.137E-01
RMM:  36    -0.402360228226E+03    0.23006E-04   -0.11613E-04   766   0.286E-02    0.132E-01
RMM:  37    -0.402360240911E+03   -0.12685E-04   -0.81178E-05   767   0.229E-02    0.129E-01
RMM:  38    -0.402360228060E+03    0.12852E-04   -0.55865E-05   771   0.205E-02    0.117E-01
RMM:  39    -0.402360197138E+03    0.30921E-04   -0.22270E-05   763   0.130E-02    0.487E-02
RMM:  40    -0.402360206333E+03   -0.91945E-05   -0.20338E-05   758   0.114E-02    0.655E-02
RMM:  41    -0.402360209079E+03   -0.27464E-05   -0.13052E-05   762   0.965E-03    0.599E-02
RMM:  42    -0.402360200993E+03    0.80864E-05   -0.80750E-06   735   0.818E-03    0.149E-02
RMM:  43    -0.402360206301E+03   -0.53078E-05   -0.48732E-06   622   0.570E-03    0.249E-02
RMM:  44    -0.402360208172E+03   -0.18712E-05   -0.23736E-06   428   0.483E-03    0.133E-02
RMM:  45    -0.402360209085E+03   -0.91308E-06   -0.75205E-07   406   0.256E-03
   1 F= -.41920621E+03 E0= -.41765329E+03  d E =-.310583E+01
       N       E                     dE             d eps       ncg     rms          rms(c)
DAV:   1    -0.402358554014E+03    0.16542E-02   -0.12268E+00   774   0.149E+00    0.243E-01
RMM:   2    -0.402366962486E+03   -0.84085E-02   -0.42305E-02   779   0.399E-01    0.106E+00
RMM:   3    -0.402362895064E+03    0.40674E-02   -0.44411E-03   771   0.177E-01    0.659E-01
RMM:   4    -0.402362072825E+03    0.82224E-03   -0.76074E-04   790   0.623E-02    0.399E-01
RMM:   5    -0.402362938121E+03   -0.86530E-03   -0.80383E-04   772   0.711E-02    0.707E-01
RMM:   6    -0.402362299278E+03    0.63884E-03   -0.59604E-04   771   0.686E-02    0.450E-01
RMM:   7    -0.402362199048E+03    0.10023E-03   -0.64029E-04   771   0.692E-02    0.437E-01
RMM:   8    -0.402363133651E+03   -0.93460E-03   -0.10415E-03   771   0.815E-02    0.717E-01
RMM:   9    -0.402364047846E+03   -0.91419E-03   -0.16711E-03   771   0.105E-01    0.858E-01
RMM:  10    -0.402362108982E+03    0.19389E-02   -0.12769E-03   771   0.101E-01    0.362E-01
RMM:  11    -0.402361779281E+03    0.32970E-03   -0.40213E-04   771   0.527E-02    0.200E-01
RMM:  12    -0.402361746997E+03    0.32284E-04   -0.17100E-04   771   0.317E-02    0.166E-01
RMM:  13    -0.402361748664E+03   -0.16672E-05   -0.11036E-04   774   0.266E-02    0.174E-01
RMM:  14    -0.402361672905E+03    0.75759E-04   -0.54179E-05   767   0.206E-02    0.732E-02
RMM:  15    -0.402361668424E+03    0.44814E-05   -0.22054E-05   766   0.120E-02    0.654E-02
RMM:  16    -0.402361671981E+03   -0.35567E-05   -0.17053E-05   765   0.105E-02    0.708E-02
RMM:  17    -0.402361659995E+03    0.11985E-04   -0.10083E-05   762   0.897E-03    0.357E-02
RMM:  18    -0.402361656933E+03    0.30618E-05   -0.36873E-06   513   0.548E-03    0.208E-02
RMM:  19    -0.402361658204E+03   -0.12707E-05   -0.24955E-06   458   0.455E-03    0.274E-02
RMM:  20    -0.402361658811E+03   -0.60657E-06   -0.31649E-06   492   0.534E-03
   2 F= -.41920770E+03 E0= -.41765497E+03  d E =-.310545E+01
       N       E                     dE             d eps       ncg     rms          rms(c)
DAV:   1    -0.402344160144E+03    0.17498E-01   -0.49083E+00   774   0.298E+00    0.479E-01
RMM:   2    -0.402377967435E+03   -0.33807E-01   -0.16679E-01   778   0.791E-01    0.222E+00
RMM:   3    -0.402360394399E+03    0.17573E-01   -0.17997E-02   772   0.355E-01    0.115E+00
RMM:   4    -0.402358100501E+03    0.22939E-02   -0.28140E-03   791   0.119E-01    0.807E-01
RMM:   5    -0.402360206953E+03   -0.21065E-02   -0.24771E-03   772   0.125E-01    0.121E+00
RMM:   6    -0.402359270745E+03    0.93621E-03   -0.22063E-03   771   0.130E-01    0.968E-01
RMM:   7    -0.402358623840E+03    0.64690E-03   -0.24895E-03   770   0.138E-01    0.878E-01
RMM:   8    -0.402362024016E+03   -0.34002E-02   -0.38509E-03   771   0.159E-01    0.139E+00
RMM:   9    -0.402366847122E+03   -0.48231E-02   -0.69496E-03   771   0.215E-01    0.182E+00
RMM:  10    -0.402358708769E+03    0.81384E-02   -0.52423E-03   770   0.205E-01    0.800E-01
RMM:  11    -0.402356854619E+03    0.18542E-02   -0.17318E-03   771   0.113E-01    0.377E-01
RMM:  12    -0.402356615874E+03    0.23874E-03   -0.50776E-04   772   0.543E-02    0.256E-01
RMM:  13    -0.402356774849E+03   -0.15897E-03   -0.38877E-04   772   0.491E-02    0.339E-01
RMM:  14    -0.402356527710E+03    0.24714E-03   -0.23008E-04   772   0.416E-02    0.196E-01
RMM:  15    -0.402356430318E+03    0.97392E-04   -0.92961E-05   767   0.264E-02    0.104E-01
RMM:  16    -0.402356423760E+03    0.65576E-05   -0.37647E-05   765   0.154E-02    0.895E-02
RMM:  17    -0.402356417216E+03    0.65446E-05   -0.28226E-05   768   0.136E-02    0.737E-02
RMM:  18    -0.402356402643E+03    0.14573E-04   -0.15535E-05   765   0.110E-02    0.419E-02
RMM:  19    -0.402356403268E+03   -0.62570E-06   -0.76487E-06   716   0.723E-03
   3 F= -.41920237E+03 E0= -.41764909E+03  d E =-.310655E+01
       N       E                     dE             d eps       ncg     rms          rms(c)
DAV:   1    -0.402353569825E+03    0.28328E-02   -0.24480E+00   780   0.210E+00    0.364E-01
RMM:   2    -0.402373636845E+03   -0.20067E-01   -0.96762E-02   778   0.600E-01    0.168E+00
RMM:   3    -0.402363317058E+03    0.10320E-01   -0.10827E-02   772   0.283E-01    0.987E-01
RMM:   4    -0.402361389966E+03    0.19271E-02   -0.22779E-03   780   0.116E-01    0.564E-01
RMM:   5    -0.402364223356E+03   -0.28334E-02   -0.16798E-03   772   0.103E-01    0.119E+00
RMM:   6    -0.402362134854E+03    0.20885E-02   -0.10782E-03   771   0.908E-02    0.715E-01
RMM:   7    -0.402361608447E+03    0.52641E-03   -0.12964E-03   772   0.985E-02    0.621E-01
RMM:   8    -0.402363179846E+03   -0.15714E-02   -0.18419E-03   772   0.108E-01    0.979E-01
RMM:   9    -0.402365386040E+03   -0.22062E-02   -0.36175E-03   772   0.153E-01    0.122E+00
RMM:  10    -0.402361980257E+03    0.34058E-02   -0.27814E-03   771   0.149E-01    0.655E-01
RMM:  11    -0.402360737391E+03    0.12429E-02   -0.10073E-03   772   0.851E-02    0.271E-01
RMM:  12    -0.402360704828E+03    0.32564E-04   -0.34099E-04   770   0.440E-02    0.271E-01
RMM:  13    -0.402360727959E+03   -0.23131E-04   -0.25441E-04   769   0.390E-02    0.257E-01
RMM:  14    -0.402360567975E+03    0.15998E-03   -0.15261E-04   771   0.346E-02    0.137E-01
RMM:  15    -0.402360518214E+03    0.49762E-04   -0.50384E-05   765   0.192E-02    0.656E-02
RMM:  16    -0.402360524223E+03   -0.60087E-05   -0.31044E-05   767   0.142E-02    0.768E-02
RMM:  17    -0.402360511592E+03    0.12631E-04   -0.17020E-05   767   0.111E-02    0.515E-02
RMM:  18    -0.402360505287E+03    0.63048E-05   -0.75482E-06   740   0.753E-03    0.292E-02
RMM:  19    -0.402360508616E+03   -0.33290E-05   -0.59017E-06   645   0.634E-03    0.426E-02
RMM:  20    -0.402360508481E+03    0.13501E-06   -0.64695E-06   678   0.703E-03
   4 F= -.41920651E+03 E0= -.41765361E+03  d E =-.310580E+01
       N       E                     dE             d eps       ncg     rms          rms(c)
DAV:   1    -0.402344645107E+03    0.15864E-01   -0.48966E+00   780   0.295E+00    0.455E-01
RMM:   2    -0.402372081797E+03   -0.27437E-01   -0.16469E-01   777   0.751E-01    0.172E+00
RMM:   3    -0.402359232938E+03    0.12849E-01   -0.14226E-02   774   0.308E-01    0.821E-01
RMM:   4    -0.402359010342E+03    0.22260E-03   -0.29029E-03   779   0.130E-01    0.846E-01
RMM:   5    -0.402360295358E+03   -0.12850E-02   -0.23670E-03   772   0.126E-01    0.993E-01
RMM:   6    -0.402359514177E+03    0.78118E-03   -0.23097E-03   771   0.134E-01    0.900E-01
RMM:   7    -0.402360093427E+03   -0.57925E-03   -0.20160E-03   773   0.118E-01    0.948E-01
RMM:   8    -0.402368598507E+03   -0.85051E-02   -0.50979E-03   771   0.181E-01    0.197E+00
RMM:   9    -0.402365734385E+03    0.28641E-02   -0.53575E-03   772   0.192E-01    0.173E+00
RMM:  10    -0.402360131975E+03    0.56024E-02   -0.41674E-03   770   0.177E-01    0.101E+00
RMM:  11    -0.402357590207E+03    0.25418E-02   -0.19858E-03   772   0.119E-01    0.343E-01
RMM:  12    -0.402357775929E+03   -0.18572E-03   -0.79810E-04   772   0.709E-02    0.434E-01
RMM:  13    -0.402357441527E+03    0.33440E-03   -0.45886E-04   776   0.565E-02    0.284E-01
RMM:  14    -0.402357232220E+03    0.20931E-03   -0.18820E-04   769   0.381E-02    0.132E-01
RMM:  15    -0.402357232421E+03   -0.20069E-06   -0.83648E-05   767   0.235E-02    0.136E-01
RMM:  16    -0.402357248959E+03   -0.16537E-04   -0.65583E-05   768   0.207E-02    0.160E-01
RMM:  17    -0.402357188150E+03    0.60809E-04   -0.37335E-05   767   0.174E-02    0.736E-02
RMM:  18    -0.402357174941E+03    0.13209E-04   -0.17133E-05   765   0.111E-02    0.366E-02
RMM:  19    -0.402357185977E+03   -0.11036E-04   -0.17266E-05   765   0.106E-02    0.687E-02
RMM:  20    -0.402357179933E+03    0.60434E-05   -0.14935E-05   767   0.103E-02    0.539E-02
RMM:  21    -0.402357171634E+03    0.82995E-05   -0.73596E-06   729   0.770E-03    0.248E-02
RMM:  22    -0.402357170773E+03    0.86084E-06   -0.21833E-06   443   0.412E-03
   5 F= -.41920317E+03 E0= -.41765013E+03  d E =-.310608E+01
       N       E                     dE             d eps       ncg     rms          rms(c)
DAV:   1    -0.402353415414E+03    0.37562E-02   -0.24229E+00   768   0.211E+00    0.368E-01
RMM:   2    -0.402367827269E+03   -0.14412E-01   -0.95808E-02   784   0.524E-01    0.122E+00
RMM:   3    -0.402363080875E+03    0.47464E-02   -0.58655E-03   774   0.191E-01    0.785E-01
RMM:   4    -0.402364779214E+03   -0.16983E-02   -0.24225E-03   778   0.124E-01    0.118E+00
RMM:   5    -0.402366336086E+03   -0.15569E-02   -0.33238E-03   773   0.147E-01    0.137E+00
RMM:   6    -0.402363259892E+03    0.30762E-02   -0.26798E-03   771   0.148E-01    0.829E-01
RMM:   7    -0.402362287875E+03    0.97202E-03   -0.13913E-03   771   0.101E-01    0.582E-01
RMM:   8    -0.402364575274E+03   -0.22874E-02   -0.25122E-03   771   0.127E-01    0.106E+00
RMM:   9    -0.402365996867E+03   -0.14216E-02   -0.33493E-03   773   0.151E-01    0.127E+00
RMM:  10    -0.402362117549E+03    0.38793E-02   -0.22887E-03   771   0.136E-01    0.554E-01
RMM:  11    -0.402361330222E+03    0.78733E-03   -0.70353E-04   772   0.703E-02    0.258E-01
RMM:  12    -0.402361366189E+03   -0.35967E-04   -0.37832E-04   770   0.483E-02    0.272E-01
RMM:  13    -0.402361320105E+03    0.46084E-04   -0.24111E-04   773   0.411E-02    0.245E-01
RMM:  14    -0.402361167735E+03    0.15237E-03   -0.11518E-04   769   0.303E-02    0.117E-01
RMM:  15    -0.402361139444E+03    0.28291E-04   -0.46623E-05   765   0.177E-02    0.645E-02
RMM:  16    -0.402361151587E+03   -0.12143E-04   -0.29959E-05   770   0.138E-02    0.914E-02
RMM:  17    -0.402361132693E+03    0.18894E-04   -0.15681E-05   769   0.111E-02    0.493E-02
RMM:  18    -0.402361127272E+03    0.54211E-05   -0.71376E-06   722   0.718E-03    0.228E-02
RMM:  19    -0.402361134995E+03   -0.77234E-05   -0.78400E-06   722   0.713E-03    0.520E-02
RMM:  20    -0.402361135040E+03   -0.45431E-07   -0.58120E-06   608   0.662E-03
   6 F= -.41920678E+03 E0= -.41765303E+03  d E =-.310751E+01
       N       E                     dE             d eps       ncg     rms          rms(c)
DAV:   1    -0.402340862494E+03    0.20273E-01   -0.48852E+00   768   0.303E+00    0.514E-01
RMM:   2    -0.402368996649E+03   -0.28134E-01   -0.18754E-01   850   0.724E-01    0.174E+00
RMM:   3    -0.402358933842E+03    0.10063E-01   -0.92550E-03   774   0.238E-01    0.953E-01
RMM:   4    -0.402363583585E+03   -0.46497E-02   -0.44325E-03   777   0.166E-01    0.168E+00
RMM:   5    -0.402366208667E+03   -0.26251E-02   -0.60277E-03   771   0.200E-01    0.191E+00
RMM:   6    -0.402362022432E+03    0.41862E-02   -0.61035E-03   771   0.218E-01    0.141E+00
RMM:   7    -0.402360558045E+03    0.14644E-02   -0.40644E-03   771   0.168E-01    0.116E+00
RMM:   8    -0.402364814632E+03   -0.42566E-02   -0.63935E-03   770   0.205E-01    0.166E+00
RMM:   9    -0.402363001676E+03    0.18130E-02   -0.60947E-03   769   0.211E-01    0.144E+00
RMM:  10    -0.402357563677E+03    0.54380E-02   -0.42775E-03   769   0.181E-01    0.633E-01
RMM:  11    -0.402357612360E+03   -0.48683E-04   -0.19537E-03   773   0.112E-01    0.728E-01
RMM:  12    -0.402357070310E+03    0.54205E-03   -0.13427E-03   773   0.914E-02    0.524E-01
RMM:  13    -0.402356482855E+03    0.58745E-03   -0.73928E-04   775   0.736E-02    0.349E-01
RMM:  14    -0.402356185075E+03    0.29778E-03   -0.24442E-04   770   0.415E-02    0.131E-01
RMM:  15    -0.402356231745E+03   -0.46670E-04   -0.14795E-04   771   0.304E-02    0.174E-01
RMM:  16    -0.402356232331E+03   -0.58646E-06   -0.90547E-05   769   0.254E-02    0.186E-01
RMM:  17    -0.402356137910E+03    0.94421E-04   -0.52643E-05   767   0.210E-02    0.558E-02
RMM:  18    -0.402356132878E+03    0.50324E-05   -0.19460E-05   765   0.114E-02    0.462E-02
RMM:  19    -0.402356149936E+03   -0.17058E-04   -0.21267E-05   769   0.117E-02    0.868E-02
RMM:  20    -0.402356134485E+03    0.15451E-04   -0.14655E-05   767   0.106E-02    0.437E-02
RMM:  21    -0.402356132393E+03    0.20923E-05   -0.86995E-06   744   0.790E-03    0.344E-02
RMM:  22    -0.402356134467E+03   -0.20740E-05   -0.57655E-06   633   0.636E-03    0.367E-02
RMM:  23    -0.402356132600E+03    0.18671E-05   -0.37454E-06   515   0.591E-03    0.187E-02
RMM:  24    -0.402356132238E+03    0.36196E-06   -0.10441E-06   402   0.326E-03
   7 F= -.41920248E+03 E0= -.41765036E+03  d E =-.310423E+01
