 vasp.5.4.4.18Apr17-6-g9f103f2a35 (build Dec 15 2018 21:27:54) gamma-only       
  
 executed on             LinuxIFC date 2022.03.11  16:27:32
 running on   72 total cores
 distrk:  each k-point on   72 cores,    1 groups
 distr:  one band on NCORES_PER_BAND=  24 cores,    3 groups


--------------------------------------------------------------------------------------------------------


 INCAR:
 POTCAR:    PAW_PBE Ni 02Aug2007                  
 POTCAR:    PAW_PBE Fe 06Sep2000                  
 POTCAR:    PAW_PBE O 08Apr2002                   

 ----------------------------------------------------------------------------- 
|                                                                             |
|           W    W    AA    RRRRR   N    N  II  N    N   GGGG   !!!           |
|           W    W   A  A   R    R  NN   N  II  NN   N  G    G  !!!           |
|           W    W  A    A  R    R  N N  N  II  N N  N  G       !!!           |
|           W WW W  AAAAAA  RRRRR   N  N N  II  N  N N  G  GGG   !            |
|           WW  WW  A    A  R   R   N   NN  II  N   NN  G    G                |
|           W    W  A    A  R    R  N    N  II  N    N   GGGG   !!!           |
|                                                                             |
|      For optimal performance we recommend to set                            |
|        NCORE= 4 - approx SQRT( number of cores)                             |
|      NCORE specifies how many cores store one orbital (NPAR=cpu/NCORE).     |
|      This setting can  greatly improve the performance of VASP for DFT.     |
|      The default,   NCORE=1            might be grossly inefficient         |
|      on modern multi-core architectures or massively parallel machines.     |
|      Do your own testing !!!!                                               |
|      Unfortunately you need to use the default for GW and RPA calculations. |
|      (for HF NCORE is supported but not extensively tested yet)             |
|                                                                             |
 ----------------------------------------------------------------------------- 

 POTCAR:    PAW_PBE Ni 02Aug2007                  
   VRHFIN =Ni:                                                                  
   LEXCH  = PE                                                                  
   EATOM  =  1077.6739 eV,   79.2068 Ry                                         
                                                                                
   TITEL  = PAW_PBE Ni 02Aug2007                                                
   LULTRA =        F    use ultrasoft PP ?                                      
   IUNSCR =        1    unscreen: 0-lin 1-nonlin 2-no                           
   RPACOR =    2.000    partial core radius                                     
   POMASS =   58.690; ZVAL   =   10.000    mass and valenz                      
   RCORE  =    2.300    outmost cutoff radius                                   
   RWIGS  =    2.430; RWIGS  =    1.286    wigner-seitz radius (au A)           
   ENMAX  =  269.532; ENMIN  =  202.149 eV                                      
   RCLOC  =    1.201    cutoff for local pot                                    
   LCOR   =        T    correct aug charges                                     
   LPAW   =        T    paw PP                                                  
   EAUG   =  544.565                                                            
   DEXC   =    0.000                                                            
   RMAX   =    2.357    core radius for proj-oper                               
   RAUG   =    1.300    factor for augmentation sphere                          
   RDEP   =    2.390    radius for radial grids                                 
   RDEPT  =    1.838    core radius for aug-charge                              
                                                                                
   Atomic configuration                                                         
    9 entries                                                                   
     n  l   j            E        occ.                                          
     1  0  0.50     -8206.4253   2.0000                                         
     2  0  0.50      -976.1748   2.0000                                         
     2  1  1.50      -839.0571   6.0000                                         
     3  0  0.50      -105.9991   2.0000                                         
     3  1  1.50       -66.4603   6.0000                                         
     3  2  2.50        -4.6458   9.0000                                         
     4  0  0.50        -4.4926   1.0000                                         
     4  1  1.50        -4.0817   0.0000                                         
     4  3  2.50        -1.3606   0.0000                                         
   Description                                                                  
     l       E           TYP  RCUT    TYP  RCUT                                 
     2     -4.6457903     23  2.300                                             
     2     -6.0063729     23  2.300                                             
     0     -4.4925590     23  2.300                                             
     0      5.0102601     23  2.300                                             
     1     -2.7211652     23  2.300                                             
     1     16.5183231     23  2.300                                             
  local pseudopotential read in
  partial core-charges read in
  partial kinetic energy density read in
  atomic valenz-charges read in
  non local Contribution for L=           2  read in
    real space projection operators read in
  non local Contribution for L=           2  read in
    real space projection operators read in
  non local Contribution for L=           0  read in
    real space projection operators read in
  non local Contribution for L=           0  read in
    real space projection operators read in
  non local Contribution for L=           1  read in
    real space projection operators read in
  non local Contribution for L=           1  read in
    real space projection operators read in
    PAW grid and wavefunctions read in
 
   number of l-projection  operators is LMAX  =           6
   number of lm-projection operators is LMMAX =          18
 
 POTCAR:    PAW_PBE Fe 06Sep2000                  
   VRHFIN =Fe:  d7 s1                                                           
   LEXCH  = PE                                                                  
   EATOM  =   594.3153 eV,   43.6809 Ry                                         
                                                                                
   TITEL  = PAW_PBE Fe 06Sep2000                                                
   LULTRA =        F    use ultrasoft PP ?                                      
   IUNSCR =        1    unscreen: 0-lin 1-nonlin 2-no                           
   RPACOR =    2.000    partial core radius                                     
   POMASS =   55.847; ZVAL   =    8.000    mass and valenz                      
   RCORE  =    2.300    outmost cutoff radius                                   
   RWIGS  =    2.460; RWIGS  =    1.302    wigner-seitz radius (au A)           
   ENMAX  =  267.882; ENMIN  =  200.911 eV                                      
   RCLOC  =    1.701    cutoff for local pot                                    
   LCOR   =        T    correct aug charges                                     
   LPAW   =        T    paw PP                                                  
   EAUG   =  511.368                                                            
   DEXC   =    0.000                                                            
   RMAX   =    2.356    core radius for proj-oper                               
   RAUG   =    1.300    factor for augmentation sphere                          
   RDEP   =    2.442    radius for radial grids                                 
   RDEPT  =    1.890    core radius for aug-charge                              
                                                                                
   Atomic configuration                                                         
    9 entries                                                                   
     n  l   j            E        occ.                                          
     1  0  0.50     -6993.8440   2.0000                                         
     2  0  0.50      -814.6047   2.0000                                         
     2  1  1.50      -693.3689   6.0000                                         
     3  0  0.50       -89.4732   2.0000                                         
     3  1  1.50       -55.6373   6.0000                                         
     3  2  2.50        -3.8151   7.0000                                         
     4  0  0.50        -4.2551   1.0000                                         
     4  1  1.50        -3.4015   0.0000                                         
     4  3  2.50        -1.3606   0.0000                                         
   Description                                                                  
     l       E           TYP  RCUT    TYP  RCUT                                 
     2     -3.8151135     23  2.300                                             
     2     -5.1756961     23  2.300                                             
     0     -4.2550963     23  2.300                                             
     0      7.2035603     23  2.300                                             
     1     -2.7211652     23  2.300                                             
     1     18.4316424     23  2.300                                             
  local pseudopotential read in
  partial core-charges read in
  partial kinetic energy density read in
  atomic valenz-charges read in
  non local Contribution for L=           2  read in
    real space projection operators read in
  non local Contribution for L=           2  read in
    real space projection operators read in
  non local Contribution for L=           0  read in
    real space projection operators read in
  non local Contribution for L=           0  read in
    real space projection operators read in
  non local Contribution for L=           1  read in
    real space projection operators read in
  non local Contribution for L=           1  read in
    real space projection operators read in
    PAW grid and wavefunctions read in
 
   number of l-projection  operators is LMAX  =           6
   number of lm-projection operators is LMMAX =          18
 
 POTCAR:    PAW_PBE O 08Apr2002                   
   VRHFIN =O: s2p4                                                              
   LEXCH  = PE                                                                  
   EATOM  =   432.3788 eV,   31.7789 Ry                                         
                                                                                
   TITEL  = PAW_PBE O 08Apr2002                                                 
   LULTRA =        F    use ultrasoft PP ?                                      
   IUNSCR =        1    unscreen: 0-lin 1-nonlin 2-no                           
   RPACOR =    1.200    partial core radius                                     
   POMASS =   16.000; ZVAL   =    6.000    mass and valenz                      
   RCORE  =    1.520    outmost cutoff radius                                   
   RWIGS  =    1.550; RWIGS  =    0.820    wigner-seitz radius (au A)           
   ENMAX  =  400.000; ENMIN  =  300.000 eV                                      
   ICORE  =        2    local potential                                         
   LCOR   =        T    correct aug charges                                     
   LPAW   =        T    paw PP                                                  
   EAUG   =  605.392                                                            
   DEXC   =    0.000                                                            
   RMAX   =    1.553    core radius for proj-oper                               
   RAUG   =    1.300    factor for augmentation sphere                          
   RDEP   =    1.550    radius for radial grids                                 
   RDEPT  =    1.329    core radius for aug-charge                              
                                                                                
   Atomic configuration                                                         
    4 entries                                                                   
     n  l   j            E        occ.                                          
     1  0  0.50      -514.6923   2.0000                                         
     2  0  0.50       -23.9615   2.0000                                         
     2  1  0.50        -9.0305   4.0000                                         
     3  2  1.50        -9.5241   0.0000                                         
   Description                                                                  
     l       E           TYP  RCUT    TYP  RCUT                                 
     0    -23.9615318     23  1.200                                             
     0     -9.5240782     23  1.200                                             
     1     -9.0304911     23  1.520                                             
     1      8.1634956     23  1.520                                             
     2     -9.5240782      7  1.500                                             
  local pseudopotential read in
  partial core-charges read in
  partial kinetic energy density read in
  kinetic energy density of atom read in
  atomic valenz-charges read in
  non local Contribution for L=           0  read in
    real space projection operators read in
  non local Contribution for L=           0  read in
    real space projection operators read in
  non local Contribution for L=           1  read in
    real space projection operators read in
  non local Contribution for L=           1  read in
    real space projection operators read in
    PAW grid and wavefunctions read in
 
   number of l-projection  operators is LMAX  =           4
   number of lm-projection operators is LMMAX =           8
 
 Optimization of the real space projectors (new method)

 maximal supplied QI-value         = 16.25
 optimisation between [QCUT,QGAM] = [ 11.54, 23.24] = [ 37.28,151.24] Ry 
 Optimized for a Real-space Cutoff    1.45 Angstroem

   l    n(q)    QCUT    max X(q) W(low)/X(q) W(high)/X(q)  e(spline) 
   2      9    11.539    60.317    0.19E-03    0.47E-04    0.16E-06
   2      9    11.539    55.921    0.19E-03    0.48E-04    0.16E-06
   0     10    11.539    51.690    0.80E-04    0.50E-04    0.24E-06
   0     10    11.539    30.015    0.73E-04    0.45E-04    0.22E-06
   1     10    11.539    18.849    0.87E-04    0.16E-03    0.71E-07
   1     10    11.539    14.624    0.73E-04    0.13E-03    0.64E-07
 Optimization of the real space projectors (new method)

 maximal supplied QI-value         = 16.25
 optimisation between [QCUT,QGAM] = [ 11.54, 23.24] = [ 37.28,151.24] Ry 
 Optimized for a Real-space Cutoff    1.53 Angstroem

   l    n(q)    QCUT    max X(q) W(low)/X(q) W(high)/X(q)  e(spline) 
   2     10    11.539    80.901    0.11E-03    0.14E-03    0.21E-06
   2     10    11.539    75.754    0.11E-03    0.14E-03    0.22E-06
   0     11    11.539    58.752    0.52E-04    0.18E-04    0.33E-06
   0     11    11.539    30.679    0.44E-04    0.16E-04    0.30E-06
   1     10    11.539    17.977    0.53E-04    0.29E-04    0.13E-06
   1     10    11.539    13.559    0.44E-04    0.25E-04    0.11E-06
 Optimization of the real space projectors (new method)

 maximal supplied QI-value         = 24.76
 optimisation between [QCUT,QGAM] = [ 11.64, 23.27] = [ 37.91,151.63] Ry 
 Optimized for a Real-space Cutoff    1.14 Angstroem

   l    n(q)    QCUT    max X(q) W(low)/X(q) W(high)/X(q)  e(spline) 
   0      8    11.635    20.381    0.10E-03    0.33E-03    0.24E-06
   0      8    11.635    15.268    0.11E-03    0.35E-03    0.26E-06
   1      7    11.635     5.964    0.24E-03    0.31E-03    0.30E-06
   1      7    11.635     5.382    0.22E-03    0.25E-03    0.26E-06
  PAW_PBE Ni 02Aug2007                  :
 energy of atom  1       EATOM=-1077.6739
 kinetic energy error for atom=    0.0030 (will be added to EATOM!!)
  PAW_PBE Fe 06Sep2000                  :
 energy of atom  2       EATOM= -594.3153
 kinetic energy error for atom=    0.0026 (will be added to EATOM!!)
  PAW_PBE O 08Apr2002                   :
 energy of atom  3       EATOM= -432.3788
 kinetic energy error for atom=    0.0208 (will be added to EATOM!!)
 
 
 POSCAR: POSCAR                                  
  positions in direct lattice
  velocities in cartesian coordinates
 exchange correlation table for  LEXCH =        8
   RHO(1)=    0.500       N(1)  =     2000
   RHO(2)=  100.500       N(2)  =     4000

 VTST: version 3.2, (02/03/18)

 CHAIN: initializing optimizer
 
 OPT: Using VASP Dynamics algorithm
 CHAIN: Read ICHAIN            0
 
 POSCAR: POSCAR                                  
  positions in direct lattice
  velocities in cartesian coordinates
 


--------------------------------------------------------------------------------------------------------


 ion  position               nearest neighbor table
   1  0.999  0.001  0.287-  47 2.46  18 2.47  50 2.48  41 2.48   8 2.49  49 2.49   5 2.49  26 2.50
                             2 2.50  33 2.50   4 2.52   6 2.53
   2  0.250  0.002  0.285-  11 2.45  51 2.45  44 2.46  50 2.46   3 2.50   1 2.50   6 2.50  26 2.51
                             9 2.51  27 2.53  41 2.54  43 2.54
   3  0.497  0.999  0.287-  64 2.43  14 2.44  51 2.44  17 2.47  45 2.47  43 2.48  27 2.49   2 2.50
                             4 2.51   9 2.52  12 2.54  30 2.54
   4  0.748  0.999  0.286-  16 2.43  17 2.45  48 2.45  18 2.47  30 2.49  64 2.49   3 2.51   5 2.51
                             1 2.52  33 2.52  12 2.52  47 2.52
   5  0.999  0.249  0.287-  60 2.43  16 2.43  18 2.48  22 2.48   1 2.49  52 2.51  12 2.51   4 2.51
                            21 2.51   6 2.51  19 2.52   8 2.53
   6  0.252  0.253  0.287-  11 2.42  56 2.46  52 2.47  22 2.48   9 2.50   2 2.50   5 2.51  50 2.52
                             1 2.53  53 2.54  55 2.54   8 2.55
   7  0.083  0.166  0.096-  50 2.47  15 2.50  40 2.50  18 2.50  54 2.50  10 2.50  46 2.51  22 2.51
                            20 2.51
   8  0.080  0.161  0.385-  67 1.85  47 2.40  41 2.43   1 2.49  11 2.50  16 2.51  55 2.52   5 2.53
                             6 2.55  21 2.57
   9  0.500  0.252  0.287-  11 2.43  59 2.45  56 2.46  53 2.48   6 2.50  12 2.51  14 2.51   2 2.51
                            23 2.52   3 2.52  51 2.53  25 2.64
  10  0.333  0.167  0.096-  13 2.50  56 2.50   7 2.50  24 2.51  40 2.51  42 2.51  50 2.51  54 2.52
                            51 2.52
  11  0.332  0.167  0.379-   6 2.42   9 2.43   2 2.45  55 2.48  25 2.49  41 2.50   8 2.50  14 2.51
                            43 2.52
  12  0.750  0.252  0.287-  59 2.43  16 2.43  60 2.44  58 2.46  17 2.49  23 2.50   9 2.51   5 2.51
                            14 2.51  19 2.52   4 2.52   3 2.54
  13  0.582  0.167  0.097-  51 2.48  24 2.49  42 2.50  17 2.50  10 2.50  63 2.52  59 2.52  57 2.52
                            15 2.53
  14  0.576  0.155  0.382-  65 1.82  64 2.39  43 2.41   3 2.44   9 2.51  16 2.51  11 2.51  12 2.51
                            25 2.59  58 2.61
  15  0.834  0.167  0.096-  20 2.49  60 2.49  18 2.49  46 2.49   7 2.50  17 2.51  63 2.51  57 2.53
                            13 2.53
  16  0.831  0.164  0.379-  12 2.43   5 2.43   4 2.43  47 2.46  58 2.47   8 2.51  64 2.51  14 2.51
                            21 2.51
  17  0.666  0.083  0.193-   4 2.45   3 2.47  60 2.47  51 2.48  12 2.49  59 2.49  13 2.50  45 2.50
                            48 2.51  15 2.51  63 2.51  18 2.52
  18  0.916  0.082  0.192-  50 2.46  60 2.47   1 2.47   4 2.47   5 2.48  46 2.48  15 2.49  49 2.50
                            48 2.50   7 2.50  22 2.51  17 2.52
  19  0.003  0.502  0.286-  60 2.47  29 2.47  27 2.48  39 2.48  52 2.49  21 2.49  58 2.50  61 2.50
                            23 2.52   5 2.52  12 2.52  26 2.52
  20  0.081  0.416  0.096-  61 2.48  15 2.49  57 2.49  22 2.50  54 2.51  28 2.51   7 2.51  31 2.52
                            60 2.53
  21  0.079  0.417  0.383-  67 1.85  58 2.39  29 2.45  19 2.49  32 2.51   5 2.51  16 2.51  52 2.52
                            55 2.54   8 2.57
  22  0.166  0.334  0.192-  52 2.47   5 2.48   6 2.48  60 2.49  54 2.49  36 2.50  20 2.50  50 2.50
                             7 2.51  18 2.51  56 2.52  61 2.54
  23  0.752  0.502  0.288-  53 2.46  59 2.47  33 2.49  26 2.50  38 2.50  12 2.50  39 2.50  19 2.52
                            58 2.52   9 2.52  62 2.54  25 2.69
  24  0.584  0.416  0.096-  13 2.49  62 2.49  57 2.50  10 2.51  56 2.51  34 2.51  37 2.52  54 2.53
                            59 2.54
  25  0.579  0.414  0.393-  69 1.82  65 1.91  55 2.49  11 2.49  35 2.51  53 2.58  38 2.58  14 2.59
                            58 2.61   9 2.64  23 2.69
  26  0.000  0.752  0.287-  49 2.46  44 2.48  33 2.49  38 2.49  23 2.50   1 2.50  39 2.51   2 2.51
                            27 2.51  29 2.51  41 2.51  19 2.52
  27  0.249  0.749  0.285-  32 2.45  45 2.45  61 2.46  44 2.47  19 2.48   3 2.49  26 2.51  52 2.52
                            29 2.52  43 2.53   2 2.53  30 2.54
  28  0.084  0.668  0.095-  61 2.47  39 2.50  40 2.50  37 2.50  31 2.50  42 2.50  57 2.51  44 2.51
                            20 2.51
  29  0.081  0.662  0.382-  66 1.84  21 2.45  58 2.47  19 2.47  38 2.48  32 2.50  26 2.51  27 2.52
                            43 2.54  41 2.57
  30  0.502  0.748  0.288-  32 2.43  64 2.45  48 2.47  53 2.49   4 2.49  33 2.49  45 2.50  36 2.51
                            52 2.52   3 2.54  27 2.54  35 2.61
  31  0.333  0.667  0.094-  61 2.47  42 2.50  54 2.50  28 2.50  63 2.50  34 2.51  36 2.52  45 2.52
                            20 2.52
  32  0.332  0.664  0.378-  52 2.41  30 2.43  27 2.45  35 2.48  64 2.50  29 2.50  21 2.51  55 2.52
                            43 2.52
  33  0.751  0.750  0.287-  53 2.46  49 2.47  48 2.48  62 2.48  23 2.49  26 2.49  30 2.49   1 2.50
                            38 2.51   4 2.52  47 2.54  35 2.69
  34  0.583  0.667  0.095-  62 2.47  36 2.50  63 2.50  46 2.51  31 2.51  37 2.51  54 2.51  24 2.51
                            48 2.53
  35  0.577  0.663  0.392-  69 1.83  68 1.91  32 2.48  55 2.49  25 2.51  53 2.56  64 2.56  38 2.59
                            30 2.61  47 2.62  33 2.69
  36  0.417  0.582  0.191-  54 2.47  22 2.50  34 2.50  62 2.50  45 2.51  30 2.51  52 2.51  56 2.51
                            48 2.51  61 2.51  31 2.52  53 2.58
  37  0.834  0.668  0.095-  62 2.47  40 2.50  57 2.50  39 2.50  28 2.50  46 2.51  49 2.51  34 2.51
                            24 2.52
  38  0.838  0.669  0.384-  69 1.81  29 2.48  41 2.48  26 2.49  23 2.50  33 2.51  47 2.54  58 2.56
                            25 2.58  35 2.59
  39  0.917  0.583  0.191-  19 2.48  57 2.49  28 2.50  37 2.50  23 2.50  61 2.50  26 2.51  49 2.51
                            59 2.51  62 2.51  44 2.51  60 2.56
  40  0.083  0.917  0.095-  50 2.49  44 2.49  37 2.50  28 2.50   7 2.50  10 2.51  49 2.51  46 2.51
                            42 2.52
  41  0.082  0.920  0.383-  66 1.83   8 2.43  47 2.45   1 2.48  38 2.48  11 2.50  26 2.51   2 2.54
                            43 2.54  29 2.57
  42  0.334  0.917  0.095-  51 2.48  13 2.50  63 2.50  31 2.50  44 2.50  28 2.50  10 2.51  45 2.51
                            40 2.52
  43  0.334  0.917  0.383-  66 1.83  14 2.41  64 2.43   3 2.48  32 2.52  11 2.52  27 2.53   2 2.54
                            41 2.54  29 2.54
  44  0.167  0.835  0.191-   2 2.46  27 2.47  51 2.47  26 2.48  61 2.49  49 2.49  40 2.49  42 2.50
                            50 2.50  28 2.51  39 2.51  45 2.53
  45  0.417  0.832  0.192-  27 2.45  61 2.47  51 2.47   3 2.47  48 2.49  63 2.50  30 2.50  17 2.50
                            36 2.51  42 2.51  31 2.52  44 2.53
  46  0.832  0.917  0.096-  18 2.48  48 2.49  15 2.49  63 2.50  49 2.50   7 2.51  34 2.51  37 2.51
                            40 2.51
  47  0.839  0.923  0.383-  68 1.85   8 2.40  41 2.45   1 2.46  16 2.46   4 2.52  33 2.54  38 2.54
                            64 2.60  35 2.62
  48  0.666  0.833  0.192-   4 2.45  62 2.47  30 2.47  33 2.48  45 2.49  46 2.49  18 2.50  63 2.50
                            17 2.51  36 2.51  49 2.52  34 2.53
  49  0.917  0.833  0.192-  26 2.46  62 2.46  33 2.47  50 2.47   1 2.49  44 2.49  18 2.50  46 2.50
                            39 2.51  40 2.51  37 2.51  48 2.52
  50  0.162  0.082  0.191-  18 2.46   2 2.46   7 2.47  49 2.47   1 2.48  40 2.49  44 2.50  22 2.50
                            10 2.51   6 2.52  56 2.53  51 2.57
  51  0.416  0.078  0.192-   3 2.44   2 2.45  44 2.47  45 2.47  42 2.48  17 2.48  13 2.48  10 2.52
                             9 2.53  59 2.54  56 2.54  50 2.57
  52  0.249  0.499  0.287-  32 2.41  22 2.47   6 2.47  19 2.49   5 2.51  36 2.51  27 2.52  21 2.52
                            30 2.52  61 2.55  53 2.57  55 2.57
  53  0.507  0.503  0.291-  33 2.46  23 2.46   9 2.48  30 2.49   6 2.54  35 2.56  55 2.56  56 2.56
                            62 2.56  52 2.57  25 2.58  36 2.58
  54  0.331  0.417  0.096-  36 2.47  22 2.49  31 2.50   7 2.50  20 2.51  34 2.51  10 2.52  56 2.53
                            24 2.53
  55  0.330  0.413  0.388-  67 1.84  11 2.48  25 2.49  35 2.49  32 2.52   8 2.52   6 2.54  21 2.54
                            53 2.56  52 2.57
  56  0.416  0.331  0.193-   9 2.46   6 2.46  10 2.50  24 2.51  36 2.51  59 2.51  22 2.52  50 2.53
                            54 2.53  51 2.54  53 2.56  62 2.56
  57  0.834  0.418  0.094-  20 2.49  39 2.49  24 2.50  37 2.50  28 2.51  13 2.52  15 2.53  59 2.56
                            60 2.59
  58  0.838  0.414  0.382-  65 1.83  21 2.39  12 2.46  29 2.47  16 2.47  19 2.50  23 2.52  38 2.56
                            14 2.61  25 2.61
  59  0.667  0.332  0.194-  12 2.43   9 2.45  23 2.47  17 2.49  60 2.51  39 2.51  56 2.51  13 2.52
                            51 2.54  24 2.54  57 2.56  62 2.57
  60  0.914  0.327  0.194-   5 2.43  12 2.44  18 2.47  19 2.47  17 2.47  22 2.49  15 2.49  59 2.51
                            20 2.53  39 2.56  57 2.59  61 2.59
  61  0.169  0.588  0.189-  27 2.46  45 2.47  28 2.47  31 2.47  20 2.48  44 2.49  39 2.50  19 2.50
                            36 2.51  22 2.54  52 2.55  60 2.59
  62  0.670  0.589  0.190-  49 2.46  48 2.47  37 2.47  34 2.47  33 2.48  24 2.49  36 2.50  39 2.51
                            23 2.54  56 2.56  53 2.56  59 2.57
  63  0.583  0.917  0.096-  46 2.50  45 2.50  42 2.50  48 2.50  31 2.50  34 2.50  17 2.51  15 2.51
                            13 2.52
  64  0.577  0.917  0.380-  68 1.79  14 2.39   3 2.43  43 2.43  30 2.45   4 2.49  32 2.50  16 2.51
                            35 2.56  47 2.60
  65  0.675  0.316  0.436-  14 1.82  58 1.83  25 1.91
  66  0.165  0.832  0.434-  43 1.83  41 1.83  29 1.84
  67  0.158  0.330  0.438-  55 1.84  21 1.85   8 1.85
  68  0.670  0.856  0.436-  64 1.79  47 1.85  35 1.91
  69  0.680  0.590  0.439-  38 1.81  25 1.82  35 1.83
 

IMPORTANT INFORMATION: All symmetrisations will be switched off!
NOSYMM: (Re-)initialisation of all symmetry stuff for point group C_1.

 
 

Automatic generation of k-mesh.
 generate k-points for:    1    1    1
Space group operators:
 irot       det(A)        alpha          n_x          n_y          n_z        tau_x        tau_y        tau_z
    1     1.000000     0.000000     1.000000     0.000000     0.000000     0.000000     0.000000     0.000000
 
 Subroutine IBZKPT returns following result:
 ===========================================
 
 Found      1 irreducible k-points:
 
 Following reciprocal coordinates:
            Coordinates               Weight
  0.000000  0.000000  0.000000      1.000000
 
 Following cartesian coordinates:
            Coordinates               Weight
  0.000000  0.000000  0.000000      1.000000
 
 
 Subroutine IBZKPT_HF returns following result:
 ==============================================
 
 Found      1 k-points in 1st BZ
 the following      1 k-points will be used (e.g. in the exchange kernel)
 Following reciprocal coordinates:   # in IRBZ
  0.000000  0.000000  0.000000    1.00000000   1 t-inv F


--------------------------------------------------------------------------------------------------------




 Dimension of arrays:
   k-points           NKPTS =      1   k-points in BZ     NKDIM =      1   number of bands    NBANDS=    384
   number of dos      NEDOS =    301   number of ions     NIONS =     69
   non local maximal  LDIM  =      6   non local SUM 2l+1 LMDIM =     18
   total plane-waves  NPLWV = ******
   max r-space proj   IRMAX =   8439   max aug-charges    IRDMAX=  19969
   dimension x,y,z NGX =    80 NGY =   80 NGZ =  160
   dimension x,y,z NGXF=   160 NGYF=  160 NGZF=  320
   support grid    NGXF=   160 NGYF=  160 NGZF=  320
   ions per type =              49  15   5
   NGX,Y,Z   is equivalent  to a cutoff of  13.26, 13.26, 12.55 a.u.
   NGXF,Y,Z  is equivalent  to a cutoff of  26.53, 26.53, 25.11 a.u.

 SYSTEM =  SQS-NiFe                                
 POSCAR =  POSCAR                                  

 Startparameter for this run:
   NWRITE =      2    write-flag & timer
   PREC   = accura    normal or accurate (medium, high low for compatibility)
   ISTART =      0    job   : 0-new  1-cont  2-samecut
   ICHARG =      1    charge: 1-file 2-atom 10-const
   ISPIN  =      1    spin polarized calculation?
   LNONCOLLINEAR =      F non collinear calculations
   LSORBIT =      F    spin-orbit coupling
   INIWAV =      1    electr: 0-lowe 1-rand  2-diag
   LASPH  =      F    aspherical Exc in radial PAW
   METAGGA=      F    non-selfconsistent MetaGGA calc.

 Electronic Relaxation 1
   ENCUT  =  520.0 eV  38.22 Ry    6.18 a.u.  18.64 18.64 39.40*2*pi/ulx,y,z
   ENINI  =  520.0     initial cutoff
   ENAUG  =  605.4 eV  augmentation charge cutoff
   NELM   =    200;   NELMIN=  2; NELMDL= -5     # of ELM steps 
   EDIFF  = 0.1E-05   stopping-criterion for ELM
   LREAL  =      T    real-space projection
   NLSPLINE    = F    spline interpolate recip. space projectors
   LCOMPAT=      F    compatible to vasp.4.4
   GGA_COMPAT  = T    GGA compatible to vasp.4.4-vasp.4.6
   LMAXPAW     = -100 max onsite density
   LMAXMIX     =    2 max onsite mixed and CHGCAR
   VOSKOWN=      0    Vosko Wilk Nusair interpolation
   ROPT   =   -0.00025  -0.00025  -0.00025
 Ionic relaxation
   EDIFFG = -.2E-01   stopping-criterion for IOM
   NSW    =    865    number of steps for IOM
   NBLOCK =      1;   KBLOCK =    865    inner block; outer block 
   IBRION =      5    ionic relax: 0-MD 1-quasi-New 2-CG
   NFREE  =      2    steps in history (QN), initial steepest desc. (CG)
   ISIF   =      2    stress and relaxation
   IWAVPR =     11    prediction:  0-non 1-charg 2-wave 3-comb
   ISYM   =      0    0-nonsym 1-usesym 2-fastsym
   LCORR  =      T    Harris-Foulkes like correction to forces

   POTIM  = 0.0150    time-step for ionic-motion
   TEIN   =    0.0    initial temperature
   TEBEG  =    0.0;   TEEND  =   0.0 temperature during run
   SMASS  =  -3.00    Nose mass-parameter (am)
   estimated Nose-frequenzy (Omega)   =  0.10E-29 period in steps =****** mass=  -0.230E-26a.u.
   SCALEE = 1.0000    scale energy and forces
   NPACO  =    256;   APACO  = 16.0  distance and # of slots for P.C.
   PSTRESS=    0.0 pullay stress

  Mass of Ions in am
   POMASS =  58.69 55.85 16.00
  Ionic Valenz
   ZVAL   =  10.00  8.00  6.00
  Atomic Wigner-Seitz radii
   RWIGS  =  -1.00 -1.00 -1.00
  virtual crystal weights 
   VCA    =   1.00  1.00  1.00
   NELECT =     640.0000    total number of electrons
   NUPDOWN=      -1.0000    fix difference up-down

 DOS related values:
   EMIN   =  10.00;   EMAX   =-10.00  energy-range for DOS
   EFERMI =   0.00
   ISMEAR =     0;   SIGMA  =   0.20  broadening in eV -4-tet -1-fermi 0-gaus

 Electronic relaxation 2 (details)
   IALGO  =     68    algorithm
   LDIAG  =      T    sub-space diagonalisation (order eigenvalues)
   LSUBROT=      F    optimize rotation matrix (better conditioning)
   TURBO    =      0    0=normal 1=particle mesh
   IRESTART =      0    0=no restart 2=restart with 2 vectors
   NREBOOT  =      0    no. of reboots
   NMIN     =      0    reboot dimension
   EREF     =   0.00    reference energy to select bands
   IMIX   =      4    mixing-type and parameters
     AMIX     =   0.40;   BMIX     =  1.00
     AMIX_MAG =   1.60;   BMIX_MAG =  1.00
     AMIN     =   0.10
     WC   =   100.;   INIMIX=   1;  MIXPRE=   1;  MAXMIX= -45

 Intra band minimization:
   WEIMIN = 0.0010     energy-eigenvalue tresh-hold
   EBREAK =  0.65E-09  absolut break condition
   DEPER  =   0.30     relativ break condition  

   TIME   =   0.40     timestep for ELM

  volume/ion in A,a.u.               =      26.74       180.43
  Fermi-wavevector in a.u.,A,eV,Ry     =   1.150304  2.173759 18.003211  1.323199
  Thomas-Fermi vector in A             =   2.286968
 
 Write flags
   LWAVE        =      F    write WAVECAR
   LDOWNSAMPLE  =      F    k-point downsampling of WAVECAR
   LCHARG       =      F    write CHGCAR
   LVTOT        =      F    write LOCPOT, total local potential
   LVHAR        =      F    write LOCPOT, Hartree potential only
   LELF         =      F    write electronic localiz. function (ELF)
   LORBIT       =     10    0 simple, 1 ext, 2 COOP (PROOUT), +10 PAW based schemes


 Dipole corrections
   LMONO  =      F    monopole corrections only (constant potential shift)
   LDIPOL =      F    correct potential (dipole corrections)
   IDIPOL =      0    1-x, 2-y, 3-z, 4-all directions 
   EPSILON=  1.0000000 bulk dielectric constant

 Exchange correlation treatment:
   GGA     =    --    GGA type
   LEXCH   =     8    internal setting for exchange type
   VOSKOWN=      0    Vosko Wilk Nusair interpolation
   LHFCALC =     F    Hartree Fock is set to
   LHFONE  =     F    Hartree Fock one center treatment
   AEXX    =    0.0000 exact exchange contribution

 Linear response parameters
   LEPSILON=     F    determine dielectric tensor
   LRPA    =     F    only Hartree local field effects (RPA)
   LNABLA  =     F    use nabla operator in PAW spheres
   LVEL    =     F    velocity operator in full k-point grid
   LINTERFAST=   F  fast interpolation
   KINTER  =     0    interpolate to denser k-point grid
   CSHIFT  =0.1000    complex shift for real part using Kramers Kronig
   OMEGAMAX=  -1.0    maximum frequency
   DEG_THRESHOLD= 0.2000000E-02 threshold for treating states as degnerate
   RTIME   =   -0.100 relaxation time in fs
  (WPLASMAI=    0.000 imaginary part of plasma frequency in eV, 0.658/RTIME)
   DFIELD  = 0.0000000 0.0000000 0.0000000 field for delta impulse in time
 
 Orbital magnetization related:
   ORBITALMAG=     F  switch on orbital magnetization
   LCHIMAG   =     F  perturbation theory with respect to B field
   DQ        =  0.001000  dq finite difference perturbation B field
   LLRAUG    =     F  two centre corrections for induced B field



--------------------------------------------------------------------------------------------------------


 finite differences
   using selective dynamics as specified on POSCAR
 charge density and potential will be updated during run
 non-spin polarized calculation
 RMM-DIIS sequential band-by-band and
  variant of blocked Davidson during initial phase
 perform sub-space diagonalisation
    before iterative eigenvector-optimisation
 modified Broyden-mixing scheme, WC =      100.0
 initial mixing is a Kerker type mixing with AMIX =  0.4000 and BMIX =      1.0000
 Hartree-type preconditioning will be used
 using additional bands           64
 real space projection scheme for non local part
 use partial core corrections
 calculate Harris-corrections to forces 
   (improved forces if not selfconsistent)
 use gradient corrections 
 use of overlap-Matrix (Vanderbilt PP)
 Gauss-broadening in eV      SIGMA  =   0.20


--------------------------------------------------------------------------------------------------------


  energy-cutoff  :      520.00
  volume of cell :     1844.87
      direct lattice vectors                 reciprocal lattice vectors
    10.026770000  0.000000000  0.000000000     0.099733015  0.057580883  0.000000000
    -5.013385000  8.683437540  0.000000000     0.000000000  0.115161766  0.000000000
     0.000000000  0.000000000 21.189180000     0.000000000  0.000000000  0.047193898

  length of vectors
    10.026770000 10.026770002 21.189180000     0.115161766  0.115161766  0.047193898


 
 k-points in units of 2pi/SCALE and weight: read from INCAR                         
   0.00000000  0.00000000  0.00000000       1.000
 
 k-points in reciprocal lattice and weights: read from INCAR                         
   0.00000000  0.00000000  0.00000000       1.000
 
 position of ions in fractional coordinates (direct lattice) 
   0.99929909  0.00071134  0.28735298
   0.24955745  0.00231494  0.28509468
   0.49715880  0.99891699  0.28655024
   0.74753058  0.99898702  0.28599311
   0.99891318  0.24864550  0.28695946
   0.25188766  0.25315347  0.28731185
   0.08288200  0.16633200  0.09567600
   0.07962878  0.16106689  0.38453232
   0.50014492  0.25192249  0.28742720
   0.33293900  0.16685800  0.09574200
   0.33186111  0.16741013  0.37890080
   0.74999470  0.25176969  0.28733873
   0.58230700  0.16720100  0.09670300
   0.57605376  0.15505327  0.38206717
   0.83403200  0.16672400  0.09645100
   0.83091760  0.16384787  0.37893373
   0.66558100  0.08305500  0.19258300
   0.91639700  0.08203100  0.19204900
   0.00264460  0.50151041  0.28589976
   0.08092200  0.41609700  0.09594800
   0.07874845  0.41702167  0.38345305
   0.16611800  0.33395200  0.19207500
   0.75216180  0.50215761  0.28762418
   0.58357300  0.41617200  0.09593300
   0.57895766  0.41400240  0.39310302
   0.00040186  0.75178651  0.28673842
   0.24912474  0.74939490  0.28517936
   0.08375800  0.66810400  0.09479700
   0.08141163  0.66243934  0.38226824
   0.50204067  0.74838249  0.28754903
   0.33297400  0.66727700  0.09438800
   0.33167732  0.66430417  0.37836731
   0.75119702  0.74965139  0.28688358
   0.58298100  0.66668200  0.09450900
   0.57716562  0.66323198  0.39200385
   0.41661000  0.58200200  0.19081700
   0.83395900  0.66770600  0.09497900
   0.83772653  0.66893419  0.38365737
   0.91708300  0.58323900  0.19079400
   0.08291700  0.91685800  0.09518600
   0.08205984  0.91955408  0.38310539
   0.33420600  0.91705400  0.09538200
   0.33406443  0.91688852  0.38260056
   0.16670900  0.83524200  0.19136500
   0.41703500  0.83214900  0.19205900
   0.83233100  0.91715000  0.09633700
   0.83930735  0.92284330  0.38320941
   0.66623900  0.83337000  0.19234100
   0.91705900  0.83319500  0.19216200
   0.16168500  0.08211500  0.19130600
   0.41607500  0.07807100  0.19177300
   0.24921880  0.49862604  0.28739685
   0.50734475  0.50311692  0.29088780
   0.33134100  0.41714300  0.09577600
   0.33033062  0.41303037  0.38755489
   0.41638400  0.33144300  0.19252200
   0.83354800  0.41839000  0.09448800
   0.83826147  0.41351791  0.38245519
   0.66732400  0.33240600  0.19435500
   0.91446400  0.32695500  0.19396500
   0.16914200  0.58833400  0.18947800
   0.66961600  0.58928900  0.18986000
   0.58310400  0.91651500  0.09583500
   0.57677516  0.91692791  0.38027784
   0.67460071  0.31631361  0.43622832
   0.16519927  0.83214090  0.43420884
   0.15805011  0.32983683  0.43810047
   0.67035662  0.85601797  0.43574564
   0.67971075  0.59021910  0.43946870
 
 position of ions in cartesian coordinates  (Angst):
  10.01617590  0.00617688  6.08877392
   2.49064944  0.02010159  6.04092256
  -0.02305853  8.67403332  6.07176460
   2.48701066  8.67464138  6.05995952
   8.76931707  2.15909769  6.08043558
   1.25646382  2.19824237  6.08790249
  -0.00284760  1.44433353  2.02729599
  -0.00907086  1.39861428  8.14792446
   3.75185366  2.18755319  6.09034676
   2.50177938  1.44890102  2.02869447
   2.48820355  1.45369542  8.02859727
   6.25780597  2.18622641  6.08847214
   5.00041537  1.45187944  2.04905727
   4.99861685  1.34639542  8.09569003
   7.52679544  1.44773744  2.04371760
   7.50998718  1.42276272  8.02929492
   6.25724091  0.72120290  4.08067585
   8.77724896  0.71231106  4.06936083
  -2.48774799  4.35483433  6.05798152
  -1.27466818  3.61315231  2.03305944
  -1.30109758  3.62118163  8.12505567
  -0.00860297  2.89985133  4.06991175
   5.02424391  4.36045421  6.09452060
   3.76492179  3.61380357  2.03274160
   3.72952187  3.59496395  8.32953062
  -3.76496581  6.52809119  6.07575190
  -1.25908869  6.50732379  6.04271676
  -2.50964037  5.80143935  2.00867070
  -2.50476778  5.75225060  8.09995047
   1.28191676  6.49853261  6.09292813
  -0.00666279  5.79425815  2.00000432
  -0.00476038  5.76844379  8.01729308
   3.77378875  6.50955103  6.07882781
   2.50308286  5.78909151  2.00256821
   2.46206964  5.75913346  8.30624013
   1.25945255  5.05377802  4.04325576
   5.01444784  5.79798335  2.01252713
   5.04606658  5.80864828  8.12938498
   6.27137866  5.06451943  4.04276841
  -3.76517246  7.96147918  2.01691329
  -3.78728346  7.98489042  8.11768908
  -1.24653807  7.96318113  2.02106637
  -1.24712798  7.96174422  8.10699218
  -2.51583691  7.25277174  4.05486743
   0.00963071  7.22591387  4.06957272
   3.74756545  7.96401474  2.04130203
   3.78897302  8.01345218  8.11989322
   2.50222056  7.23651634  4.07554807
   5.01801235  7.23499674  4.07175521
   1.20950420  0.71304047  4.05361727
   3.78048835  0.67792465  4.06351262
  -0.00094476  4.32978809  6.08970365
   2.56471025  4.36878439  6.16367400
   1.23098154  3.62223519  2.02941490
   1.24146884  3.58652344  8.21197042
   2.51333524  2.87806459  4.07938331
   6.26024393  3.63306343  2.00212324
   6.33193051  3.59075693  8.10391193
   5.02462501  2.88642674  4.11822308
   7.52996891  2.83909332  4.10995930
  -1.25359692  5.10876154  4.01488345
   3.75975299  5.11705422  4.02297771
   1.25180714  7.95850076  2.03066507
   1.18627926  7.96208628  8.05777558
   5.17826421  2.74668950  9.24332044
  -2.51542767  7.22584353  9.20052929
  -0.06886689  2.86411754  9.28298976
   2.42996397  7.43317862  9.23309278
   3.85630785  5.12513065  9.31198142
 


--------------------------------------------------------------------------------------------------------


 use parallel FFT for orbitals z direction half grid
 k-point  1 :   0.0000 0.0000 0.0000  plane waves:   24871

 maximum and minimum number of plane-waves per node :      1041     1030

 maximum number of plane-waves:     24871
 maximum index in each direction: 
   IXMAX=   18   IYMAX=   18   IZMAX=   39
   IXMIN=  -18   IYMIN=  -18   IZMIN=    0


 real space projection operators:
  total allocation   :      65146.78 KBytes
  max/ min on nodes  :       3294.31       2405.55


 parallel 3D FFT for wavefunctions:
    minimum data exchange during FFTs selected (reduces bandwidth)
 parallel 3D FFT for charge:
    minimum data exchange during FFTs selected (reduces bandwidth)


 total amount of memory used by VASP MPI-rank0    54072. kBytes
=======================================================================

   base      :      30000. kBytes
   nonlr-proj:       3968. kBytes
   fftplans  :       5965. kBytes
   grid      :      11929. kBytes
   one-center:         23. kBytes
   wavefun   :       2187. kBytes
 
     INWAV:  cpu time    0.0001: real time    0.0007
 Broyden mixing: mesh for mixing (old mesh)
   NGX = 37   NGY = 37   NGZ = 79
  (NGX  =160   NGY  =160   NGZ  =320)
  gives a total of 108151 points

 initial charge density was supplied:
 number of electron     640.0000057 magnetization 
 keeping initial charge density in first step


--------------------------------------------------------------------------------------------------------


 Maximum index for non-local projection operator          764
 Maximum index for augmentation-charges         1117 (set IRDMAX)


--------------------------------------------------------------------------------------------------------


 First call to EWALD:  gamma=   0.145
 Maximum number of real-space cells 4x 4x 2
 Maximum number of reciprocal cells 2x 2x 4

    FEWALD:  cpu time    0.0093: real time    0.0104


--------------------------------------- Iteration      1(   1)  ---------------------------------------


    POTLOK:  cpu time    0.1924: real time    0.2141
    SETDIJ:  cpu time    0.0430: real time    0.0430
     EDDAV:  cpu time    2.3327: real time    2.3430
       DOS:  cpu time    0.0121: real time    0.0121
    --------------------------------------------
      LOOP:  cpu time    2.5802: real time    2.6122

 eigenvalue-minimisations  :   768
 total energy-change (2. order) : 0.5889279E+04  (-0.3282513E+05)
 number of electron     640.0000057 magnetization 
 augmentation part      640.0000057 magnetization 

 Free energy of the ion-electron system (eV)
  ---------------------------------------------------
  alpha Z        PSCENC =      1356.63169782
  Ewald energy   TEWEN  =    222475.28217525
  -Hartree energ DENC   =   -284784.61595095
  -exchange      EXHF   =         0.00000000
  -V(xc)+E(xc)   XCENC  =      1679.09702065
  PAW double counting   =     68679.73238565   -72186.21727838
  entropy T*S    EENTRO =        -0.38435720
  eigenvalues    EBANDS =      4787.39852657
  atomic energy  EATOM  =     63882.35519389
  Solvation  Ediel_sol  =         0.00000000
  ---------------------------------------------------
  free energy    TOTEN  =      5889.27941330 eV

  energy without entropy =     5889.66377050  energy(sigma->0) =     5889.47159190


--------------------------------------------------------------------------------------------------------




--------------------------------------- Iteration      1(   2)  ---------------------------------------


     EDDAV:  cpu time    2.1931: real time    2.2040
       DOS:  cpu time    0.0012: real time    0.0012
    --------------------------------------------
      LOOP:  cpu time    2.1942: real time    2.2052

 eigenvalue-minimisations  :   768
 total energy-change (2. order) :-0.5565208E+04  (-0.5395945E+04)
 number of electron     640.0000057 magnetization 
 augmentation part      640.0000057 magnetization 

 Free energy of the ion-electron system (eV)
  ---------------------------------------------------
  alpha Z        PSCENC =      1356.63169782
  Ewald energy   TEWEN  =    222475.28217525
  -Hartree energ DENC   =   -284784.61595095
  -exchange      EXHF   =         0.00000000
  -V(xc)+E(xc)   XCENC  =      1679.09702065
  PAW double counting   =     68679.73238565   -72186.21727838
  entropy T*S    EENTRO =        -0.80683707
  eigenvalues    EBANDS =      -777.38683978
  atomic energy  EATOM  =     63882.35519389
  Solvation  Ediel_sol  =         0.00000000
  ---------------------------------------------------
  free energy    TOTEN  =       324.07156709 eV

  energy without entropy =      324.87840416  energy(sigma->0) =      324.47498563


--------------------------------------------------------------------------------------------------------




--------------------------------------- Iteration      1(   3)  ---------------------------------------


     EDDAV:  cpu time    2.1872: real time    2.1980
       DOS:  cpu time    0.0014: real time    0.0014
    --------------------------------------------
      LOOP:  cpu time    2.1886: real time    2.1994

 eigenvalue-minimisations  :   774
 total energy-change (2. order) :-0.6294126E+03  (-0.5610537E+03)
 number of electron     640.0000057 magnetization 
 augmentation part      640.0000057 magnetization 

 Free energy of the ion-electron system (eV)
  ---------------------------------------------------
  alpha Z        PSCENC =      1356.63169782
  Ewald energy   TEWEN  =    222475.28217525
  -Hartree energ DENC   =   -284784.61595095
  -exchange      EXHF   =         0.00000000
  -V(xc)+E(xc)   XCENC  =      1679.09702065
  PAW double counting   =     68679.73238565   -72186.21727838
  entropy T*S    EENTRO =        -2.72979895
  eigenvalues    EBANDS =     -1404.87650466
  atomic energy  EATOM  =     63882.35519389
  Solvation  Ediel_sol  =         0.00000000
  ---------------------------------------------------
  free energy    TOTEN  =      -305.34105967 eV

  energy without entropy =     -302.61126072  energy(sigma->0) =     -303.97616020


--------------------------------------------------------------------------------------------------------




--------------------------------------- Iteration      1(   4)  ---------------------------------------


     EDDAV:  cpu time    3.4857: real time    3.4972
       DOS:  cpu time    0.0032: real time    0.0032
    --------------------------------------------
      LOOP:  cpu time    3.4889: real time    3.5005

 eigenvalue-minimisations  :  1392
 total energy-change (2. order) :-0.9229799E+02  (-0.8453010E+02)
 number of electron     640.0000057 magnetization 
 augmentation part      640.0000057 magnetization 

 Free energy of the ion-electron system (eV)
  ---------------------------------------------------
  alpha Z        PSCENC =      1356.63169782
  Ewald energy   TEWEN  =    222475.28217525
  -Hartree energ DENC   =   -284784.61595095
  -exchange      EXHF   =         0.00000000
  -V(xc)+E(xc)   XCENC  =      1679.09702065
  PAW double counting   =     68679.73238565   -72186.21727838
  entropy T*S    EENTRO =        -2.87513018
  eigenvalues    EBANDS =     -1497.02916179
  atomic energy  EATOM  =     63882.35519389
  Solvation  Ediel_sol  =         0.00000000
  ---------------------------------------------------
  free energy    TOTEN  =      -397.63904803 eV

  energy without entropy =     -394.76391785  energy(sigma->0) =     -396.20148294


--------------------------------------------------------------------------------------------------------




--------------------------------------- Iteration      1(   5)  ---------------------------------------


     EDDAV:  cpu time    2.6813: real time    2.6942
       DOS:  cpu time    0.0014: real time    0.0014
    CHARGE:  cpu time    0.1262: real time    0.1370
    MIXING:  cpu time    0.0156: real time    0.0157
    --------------------------------------------
      LOOP:  cpu time    2.8245: real time    2.8483

 eigenvalue-minimisations  :  1014
 total energy-change (2. order) :-0.8135942E+01  (-0.7838072E+01)
 number of electron     640.0000056 magnetization 
 augmentation part      367.5668282 magnetization 

 Broyden mixing:
  rms(total) = 0.28970E+01    rms(broyden)= 0.28967E+01
  rms(prec ) = 0.32518E+01
  weight for this iteration     100.00

 Free energy of the ion-electron system (eV)
  ---------------------------------------------------
  alpha Z        PSCENC =      1356.63169782
  Ewald energy   TEWEN  =    222475.28217525
  -Hartree energ DENC   =   -284784.61595095
  -exchange      EXHF   =         0.00000000
  -V(xc)+E(xc)   XCENC  =      1679.09702065
  PAW double counting   =     68679.73238565   -72186.21727838
  entropy T*S    EENTRO =        -2.93558079
  eigenvalues    EBANDS =     -1505.10465314
  atomic energy  EATOM  =     63882.35519389
  Solvation  Ediel_sol  =         0.00000000
  ---------------------------------------------------
  free energy    TOTEN  =      -405.77499000 eV

  energy without entropy =     -402.83940921  energy(sigma->0) =     -404.30719960


--------------------------------------------------------------------------------------------------------




--------------------------------------- Iteration      1(   6)  ---------------------------------------


    POTLOK:  cpu time    0.1804: real time    0.1918
    SETDIJ:  cpu time    0.0105: real time    0.0105
    EDDIAG:  cpu time    0.3451: real time    0.3452
  RMM-DIIS:  cpu time    1.6262: real time    1.6267
    ORTHCH:  cpu time    0.0699: real time    0.0699
       DOS:  cpu time    0.0025: real time    0.0025
    CHARGE:  cpu time    0.1050: real time    0.1050
    MIXING:  cpu time    0.0050: real time    0.0050
    --------------------------------------------
      LOOP:  cpu time    2.3446: real time    2.3567

 eigenvalue-minimisations  :   800
 total energy-change (2. order) :-0.2108256E+03  (-0.1657002E+02)
 number of electron     640.0000069 magnetization 
 augmentation part      372.3930577 magnetization 

 Broyden mixing:
  rms(total) = 0.14118E+02    rms(broyden)= 0.14118E+02
  rms(prec ) = 0.16230E+02
  weight for this iteration     100.00

 eigenvalues of (default mixing * dielectric matrix)
  average eigenvalue GAMMA=   0.1535
  0.1535

 Free energy of the ion-electron system (eV)
  ---------------------------------------------------
  alpha Z        PSCENC =      1356.63169782
  Ewald energy   TEWEN  =    222475.28217525
  -Hartree energ DENC   =   -284696.94259912
  -exchange      EXHF   =         0.00000000
  -V(xc)+E(xc)   XCENC  =      1674.53468407
  PAW double counting   =     68352.50552398   -71818.78272845
  entropy T*S    EENTRO =        -1.20300758
  eigenvalues    EBANDS =     -1840.98154177
  atomic energy  EATOM  =     63882.35519389
  Solvation  Ediel_sol  =         0.00000000
  ---------------------------------------------------
  free energy    TOTEN  =      -616.60060192 eV

  energy without entropy =     -615.39759434  energy(sigma->0) =     -615.99909813


--------------------------------------------------------------------------------------------------------




--------------------------------------- Iteration      1(   7)  ---------------------------------------


    POTLOK:  cpu time    0.1811: real time    0.1931
    SETDIJ:  cpu time    0.0104: real time    0.0104
    EDDIAG:  cpu time    0.3235: real time    0.3236
  RMM-DIIS:  cpu time    1.5706: real time    1.5709
    ORTHCH:  cpu time    0.0696: real time    0.0696
       DOS:  cpu time    0.0022: real time    0.0022
    CHARGE:  cpu time    0.1091: real time    0.1092
    MIXING:  cpu time    0.0034: real time    0.0034
    --------------------------------------------
      LOOP:  cpu time    2.2699: real time    2.2823

 eigenvalue-minimisations  :   770
 total energy-change (2. order) : 0.1788232E+03  (-0.1392926E+02)
 number of electron     640.0000063 magnetization 
 augmentation part      368.1163405 magnetization 

 Broyden mixing:
  rms(total) = 0.80075E+01    rms(broyden)= 0.80073E+01
  rms(prec ) = 0.94543E+01
  weight for this iteration     100.00

 eigenvalues of (default mixing * dielectric matrix)
  average eigenvalue GAMMA=   0.1160
  0.1377  0.0942

 Free energy of the ion-electron system (eV)
  ---------------------------------------------------
  alpha Z        PSCENC =      1356.63169782
  Ewald energy   TEWEN  =    222475.28217525
  -Hartree energ DENC   =   -284834.02980555
  -exchange      EXHF   =         0.00000000
  -V(xc)+E(xc)   XCENC  =      1678.61304686
  PAW double counting   =     68566.30991329   -72066.92814214
  entropy T*S    EENTRO =        -1.90316381
  eigenvalues    EBANDS =     -1494.10830202
  atomic energy  EATOM  =     63882.35519389
  Solvation  Ediel_sol  =         0.00000000
  ---------------------------------------------------
  free energy    TOTEN  =      -437.77738641 eV

  energy without entropy =     -435.87422260  energy(sigma->0) =     -436.82580450


--------------------------------------------------------------------------------------------------------




--------------------------------------- Iteration      1(   8)  ---------------------------------------


    POTLOK:  cpu time    0.1811: real time    0.1929
    SETDIJ:  cpu time    0.0105: real time    0.0105
    EDDIAG:  cpu time    0.3227: real time    0.3229
  RMM-DIIS:  cpu time    1.5858: real time    1.5863
    ORTHCH:  cpu time    0.0716: real time    0.0716
       DOS:  cpu time    0.0017: real time    0.0017
    CHARGE:  cpu time    0.1106: real time    0.1106
    MIXING:  cpu time    0.0044: real time    0.0044
    --------------------------------------------
      LOOP:  cpu time    2.2893: real time    2.3009

 eigenvalue-minimisations  :   771
 total energy-change (2. order) : 0.3079298E+02  (-0.2171146E+01)
 number of electron     640.0000063 magnetization 
 augmentation part      367.4184798 magnetization 

 Broyden mixing:
  rms(total) = 0.35711E+01    rms(broyden)= 0.35708E+01
  rms(prec ) = 0.40627E+01
  weight for this iteration     100.00

 eigenvalues of (default mixing * dielectric matrix)
  average eigenvalue GAMMA=   0.0998
  0.1239  0.1239  0.0517

 Free energy of the ion-electron system (eV)
  ---------------------------------------------------
  alpha Z        PSCENC =      1356.63169782
  Ewald energy   TEWEN  =    222475.28217525
  -Hartree energ DENC   =   -284815.00884633
  -exchange      EXHF   =         0.00000000
  -V(xc)+E(xc)   XCENC  =      1679.02449665
  PAW double counting   =     68565.64595906   -72068.85390407
  entropy T*S    EENTRO =        -2.72536753
  eigenvalues    EBANDS =     -1479.33581595
  atomic energy  EATOM  =     63882.35519389
  Solvation  Ediel_sol  =         0.00000000
  ---------------------------------------------------
  free energy    TOTEN  =      -406.98441123 eV

  energy without entropy =     -404.25904370  energy(sigma->0) =     -405.62172746


--------------------------------------------------------------------------------------------------------




--------------------------------------- Iteration      1(   9)  ---------------------------------------


    POTLOK:  cpu time    0.1924: real time    0.1931
    SETDIJ:  cpu time    0.0104: real time    0.0104
    EDDIAG:  cpu time    0.3231: real time    0.3232
  RMM-DIIS:  cpu time    1.6742: real time    1.6747
    ORTHCH:  cpu time    0.0703: real time    0.0703
       DOS:  cpu time    0.0020: real time    0.0020
    CHARGE:  cpu time    0.1096: real time    0.1096
    MIXING:  cpu time    0.0036: real time    0.0036
    --------------------------------------------
      LOOP:  cpu time    2.3848: real time    2.3869

 eigenvalue-minimisations  :   822
 total energy-change (2. order) : 0.2991512E+01  (-0.5360767E+00)
 number of electron     640.0000060 magnetization 
 augmentation part      367.3979819 magnetization 

 Broyden mixing:
  rms(total) = 0.23238E+01    rms(broyden)= 0.23237E+01
  rms(prec ) = 0.28943E+01
  weight for this iteration     100.00

 eigenvalues of (default mixing * dielectric matrix)
  average eigenvalue GAMMA=   0.0960
  0.1305  0.1305  0.0614  0.0614

 Free energy of the ion-electron system (eV)
  ---------------------------------------------------
  alpha Z        PSCENC =      1356.63169782
  Ewald energy   TEWEN  =    222475.28217525
  -Hartree energ DENC   =   -284804.27653108
  -exchange      EXHF   =         0.00000000
  -V(xc)+E(xc)   XCENC  =      1679.09344084
  PAW double counting   =     68547.21124417   -72050.18413843
  entropy T*S    EENTRO =        -2.88195936
  eigenvalues    EBANDS =     -1487.22402223
  atomic energy  EATOM  =     63882.35519389
  Solvation  Ediel_sol  =         0.00000000
  ---------------------------------------------------
  free energy    TOTEN  =      -403.99289913 eV

  energy without entropy =     -401.11093977  energy(sigma->0) =     -402.55191945


--------------------------------------------------------------------------------------------------------




--------------------------------------- Iteration      1(  10)  ---------------------------------------


    POTLOK:  cpu time    0.1824: real time    0.1945
    SETDIJ:  cpu time    0.0104: real time    0.0104
    EDDIAG:  cpu time    0.3219: real time    0.3221
  RMM-DIIS:  cpu time    1.7367: real time    1.7381
    ORTHCH:  cpu time    0.0700: real time    0.0700
       DOS:  cpu time    0.0021: real time    0.0021
    CHARGE:  cpu time    0.1091: real time    0.1092
    MIXING:  cpu time    0.0037: real time    0.0037
    --------------------------------------------
      LOOP:  cpu time    2.4372: real time    2.4501

 eigenvalue-minimisations  :   857
 total energy-change (2. order) : 0.9361922E+00  (-0.9393916E-01)
 number of electron     640.0000060 magnetization 
 augmentation part      367.7590901 magnetization 

 Broyden mixing:
  rms(total) = 0.17905E+01    rms(broyden)= 0.17904E+01
  rms(prec ) = 0.19383E+01
  weight for this iteration     100.00

 eigenvalues of (default mixing * dielectric matrix)
  average eigenvalue GAMMA=   0.1146
  0.1714  0.1714  0.1115  0.0817  0.0372

 Free energy of the ion-electron system (eV)
  ---------------------------------------------------
  alpha Z        PSCENC =      1356.63169782
  Ewald energy   TEWEN  =    222475.28217525
  -Hartree energ DENC   =   -284795.12358739
  -exchange      EXHF   =         0.00000000
  -V(xc)+E(xc)   XCENC  =      1678.98388036
  PAW double counting   =     68522.51172636   -72023.98968862
  entropy T*S    EENTRO =        -2.85100425
  eigenvalues    EBANDS =     -1496.85710040
  atomic energy  EATOM  =     63882.35519389
  Solvation  Ediel_sol  =         0.00000000
  ---------------------------------------------------
  free energy    TOTEN  =      -403.05670698 eV

  energy without entropy =     -400.20570272  energy(sigma->0) =     -401.63120485


--------------------------------------------------------------------------------------------------------




--------------------------------------- Iteration      1(  11)  ---------------------------------------


    POTLOK:  cpu time    0.1832: real time    0.1956
    SETDIJ:  cpu time    0.0114: real time    0.0114
    EDDIAG:  cpu time    0.3239: real time    0.3240
  RMM-DIIS:  cpu time    1.5522: real time    1.5526
    ORTHCH:  cpu time    0.0712: real time    0.0712
       DOS:  cpu time    0.0018: real time    0.0018
    CHARGE:  cpu time    0.1086: real time    0.1087
    MIXING:  cpu time    0.0041: real time    0.0041
    --------------------------------------------
      LOOP:  cpu time    2.2554: real time    2.2693

 eigenvalue-minimisations  :   773
 total energy-change (2. order) :-0.1886041E+00  (-0.1019643E+00)
 number of electron     640.0000060 magnetization 
 augmentation part      367.7276723 magnetization 

 Broyden mixing:
  rms(total) = 0.19062E+01    rms(broyden)= 0.19062E+01
  rms(prec ) = 0.22071E+01
  weight for this iteration     100.00

 eigenvalues of (default mixing * dielectric matrix)
  average eigenvalue GAMMA=   0.1570
  0.2736  0.2382  0.2382  0.0958  0.0601  0.0361

 Free energy of the ion-electron system (eV)
  ---------------------------------------------------
  alpha Z        PSCENC =      1356.63169782
  Ewald energy   TEWEN  =    222475.28217525
  -Hartree energ DENC   =   -284799.63473991
  -exchange      EXHF   =         0.00000000
  -V(xc)+E(xc)   XCENC  =      1678.93546858
  PAW double counting   =     68465.83293010   -71965.04269266
  entropy T*S    EENTRO =        -2.98680870
  eigenvalues    EBANDS =     -1494.61853547
  atomic energy  EATOM  =     63882.35519389
  Solvation  Ediel_sol  =         0.00000000
  ---------------------------------------------------
  free energy    TOTEN  =      -403.24531111 eV

  energy without entropy =     -400.25850241  energy(sigma->0) =     -401.75190676


--------------------------------------------------------------------------------------------------------




--------------------------------------- Iteration      1(  12)  ---------------------------------------


    POTLOK:  cpu time    0.1832: real time    0.1960
    SETDIJ:  cpu time    0.0113: real time    0.0113
    EDDIAG:  cpu time    0.3235: real time    0.3235
  RMM-DIIS:  cpu time    1.5582: real time    1.5591
    ORTHCH:  cpu time    0.0690: real time    0.0713
       DOS:  cpu time    0.0018: real time    0.0018
    CHARGE:  cpu time    0.1087: real time    0.1087
    MIXING:  cpu time    0.0040: real time    0.0040
    --------------------------------------------
      LOOP:  cpu time    2.2595: real time    2.2756

 eigenvalue-minimisations  :   770
 total energy-change (2. order) :-0.1692263E+01  (-0.2444148E+00)
 number of electron     640.0000058 magnetization 
 augmentation part      367.6914502 magnetization 

 Broyden mixing:
  rms(total) = 0.29419E+01    rms(broyden)= 0.29418E+01
  rms(prec ) = 0.33790E+01
  weight for this iteration     100.00

 eigenvalues of (default mixing * dielectric matrix)
  average eigenvalue GAMMA=   0.2752
  1.1385  0.2547  0.2547  0.1155  0.0728  0.0542  0.0358

 Free energy of the ion-electron system (eV)
  ---------------------------------------------------
  alpha Z        PSCENC =      1356.63169782
  Ewald energy   TEWEN  =    222475.28217525
  -Hartree energ DENC   =   -284801.51575304
  -exchange      EXHF   =         0.00000000
  -V(xc)+E(xc)   XCENC  =      1679.07019289
  PAW double counting   =     68368.40533000   -71864.98305865
  entropy T*S    EENTRO =        -2.95537353
  eigenvalues    EBANDS =     -1497.22797900
  atomic energy  EATOM  =     63882.35519389
  Solvation  Ediel_sol  =         0.00000000
  ---------------------------------------------------
  free energy    TOTEN  =      -404.93757437 eV

  energy without entropy =     -401.98220084  energy(sigma->0) =     -403.45988760


--------------------------------------------------------------------------------------------------------




--------------------------------------- Iteration      1(  13)  ---------------------------------------


    POTLOK:  cpu time    0.1848: real time    0.1977
    SETDIJ:  cpu time    0.0114: real time    0.0114
    EDDIAG:  cpu time    0.3211: real time    0.3213
  RMM-DIIS:  cpu time    1.5503: real time    1.5508
    ORTHCH:  cpu time    0.0707: real time    0.0707
       DOS:  cpu time    0.0017: real time    0.0017
    CHARGE:  cpu time    0.1092: real time    0.1092
    MIXING:  cpu time    0.0043: real time    0.0043
    --------------------------------------------
      LOOP:  cpu time    2.2544: real time    2.2671

 eigenvalue-minimisations  :   770
 total energy-change (2. order) :-0.5578114E+01  (-0.8448297E+00)
 number of electron     640.0000056 magnetization 
 augmentation part      368.0412490 magnetization 

 Broyden mixing:
  rms(total) = 0.44236E+01    rms(broyden)= 0.44234E+01
  rms(prec ) = 0.51367E+01
  weight for this iteration     100.00

 eigenvalues of (default mixing * dielectric matrix)
  average eigenvalue GAMMA=   0.3205
  1.5905  0.3842  0.2070  0.1398  0.0866  0.0678  0.0523  0.0359

 Free energy of the ion-electron system (eV)
  ---------------------------------------------------
  alpha Z        PSCENC =      1356.63169782
  Ewald energy   TEWEN  =    222475.28217525
  -Hartree energ DENC   =   -284788.59867829
  -exchange      EXHF   =         0.00000000
  -V(xc)+E(xc)   XCENC  =      1679.33516619
  PAW double counting   =     68204.63302931   -71696.79688305
  entropy T*S    EENTRO =        -2.70385720
  eigenvalues    EBANDS =     -1520.65353229
  atomic energy  EATOM  =     63882.35519389
  Solvation  Ediel_sol  =         0.00000000
  ---------------------------------------------------
  free energy    TOTEN  =      -410.51568837 eV

  energy without entropy =     -407.81183117  energy(sigma->0) =     -409.16375977


--------------------------------------------------------------------------------------------------------




--------------------------------------- Iteration      1(  14)  ---------------------------------------


    POTLOK:  cpu time    0.1855: real time    0.1975
    SETDIJ:  cpu time    0.0114: real time    0.0114
    EDDIAG:  cpu time    0.3208: real time    0.3208
  RMM-DIIS:  cpu time    1.5509: real time    1.5517
    ORTHCH:  cpu time    0.0680: real time    0.0718
       DOS:  cpu time    0.0017: real time    0.0017
    CHARGE:  cpu time    0.1089: real time    0.1089
    MIXING:  cpu time    0.0044: real time    0.0044
    --------------------------------------------
      LOOP:  cpu time    2.2506: real time    2.2681

 eigenvalue-minimisations  :   774
 total energy-change (2. order) : 0.3173471E+01  (-0.5816373E+00)
 number of electron     640.0000058 magnetization 
 augmentation part      367.9061095 magnetization 

 Broyden mixing:
  rms(total) = 0.34500E+01    rms(broyden)= 0.34498E+01
  rms(prec ) = 0.39355E+01
  weight for this iteration     100.00

 eigenvalues of (default mixing * dielectric matrix)
  average eigenvalue GAMMA=   0.3238
  1.7767  0.4507  0.1787  0.1787  0.1022  0.0359  0.0692  0.0692  0.0525

 Free energy of the ion-electron system (eV)
  ---------------------------------------------------
  alpha Z        PSCENC =      1356.63169782
  Ewald energy   TEWEN  =    222475.28217525
  -Hartree energ DENC   =   -284805.24214275
  -exchange      EXHF   =         0.00000000
  -V(xc)+E(xc)   XCENC  =      1679.61229141
  PAW double counting   =     68130.92174675   -71622.46487688
  entropy T*S    EENTRO =        -2.75528658
  eigenvalues    EBANDS =     -1501.68301621
  atomic energy  EATOM  =     63882.35519389
  Solvation  Ediel_sol  =         0.00000000
  ---------------------------------------------------
  free energy    TOTEN  =      -407.34221730 eV

  energy without entropy =     -404.58693072  energy(sigma->0) =     -405.96457401


--------------------------------------------------------------------------------------------------------




--------------------------------------- Iteration      1(  15)  ---------------------------------------


    POTLOK:  cpu time    0.1833: real time    0.1949
    SETDIJ:  cpu time    0.0113: real time    0.0113
    EDDIAG:  cpu time    0.3207: real time    0.3208
  RMM-DIIS:  cpu time    1.5500: real time    1.5512
    ORTHCH:  cpu time    0.0707: real time    0.0707
       DOS:  cpu time    0.0017: real time    0.0017
    CHARGE:  cpu time    0.1096: real time    0.1096
    MIXING:  cpu time    0.0044: real time    0.0044
    --------------------------------------------
      LOOP:  cpu time    2.2518: real time    2.2646

 eigenvalue-minimisations  :   771
 total energy-change (2. order) : 0.3554661E+01  (-0.3188481E+00)
 number of electron     640.0000060 magnetization 
 augmentation part      367.6543949 magnetization 

 Broyden mixing:
  rms(total) = 0.19688E+01    rms(broyden)= 0.19686E+01
  rms(prec ) = 0.23401E+01
  weight for this iteration     100.00

 eigenvalues of (default mixing * dielectric matrix)
  average eigenvalue GAMMA=   0.3122
  1.8478  0.4850  0.1856  0.1856  0.1004  0.1004  0.0729  0.0359  0.0524  0.0557

 Free energy of the ion-electron system (eV)
  ---------------------------------------------------
  alpha Z        PSCENC =      1356.63169782
  Ewald energy   TEWEN  =    222475.28217525
  -Hartree energ DENC   =   -284804.44870104
  -exchange      EXHF   =         0.00000000
  -V(xc)+E(xc)   XCENC  =      1679.82647099
  PAW double counting   =     68103.84499951   -71595.76260700
  entropy T*S    EENTRO =        -2.90398468
  eigenvalues    EBANDS =     -1498.61280135
  atomic energy  EATOM  =     63882.35519389
  Solvation  Ediel_sol  =         0.00000000
  ---------------------------------------------------
  free energy    TOTEN  =      -403.78755661 eV

  energy without entropy =     -400.88357193  energy(sigma->0) =     -402.33556427


--------------------------------------------------------------------------------------------------------




--------------------------------------- Iteration      1(  16)  ---------------------------------------


    POTLOK:  cpu time    0.1840: real time    0.1957
    SETDIJ:  cpu time    0.0113: real time    0.0113
    EDDIAG:  cpu time    0.3224: real time    0.3224
  RMM-DIIS:  cpu time    1.5436: real time    1.5443
    ORTHCH:  cpu time    0.0707: real time    0.0707
       DOS:  cpu time    0.0019: real time    0.0019
    CHARGE:  cpu time    0.1104: real time    0.1105
    MIXING:  cpu time    0.0046: real time    0.0046
    --------------------------------------------
      LOOP:  cpu time    2.2488: real time    2.2614

 eigenvalue-minimisations  :   770
 total energy-change (2. order) : 0.9200242E+00  (-0.8829706E-01)
 number of electron     640.0000059 magnetization 
 augmentation part      367.6147192 magnetization 

 Broyden mixing:
  rms(total) = 0.12973E+01    rms(broyden)= 0.12973E+01
  rms(prec ) = 0.15627E+01
  weight for this iteration     100.00

 eigenvalues of (default mixing * dielectric matrix)
  average eigenvalue GAMMA=   0.3186
  1.9583  0.5785  0.2137  0.2137  0.1235  0.1235  0.0359  0.0789  0.0686  0.0520
  0.0578

 Free energy of the ion-electron system (eV)
  ---------------------------------------------------
  alpha Z        PSCENC =      1356.63169782
  Ewald energy   TEWEN  =    222475.28217525
  -Hartree energ DENC   =   -284804.73635973
  -exchange      EXHF   =         0.00000000
  -V(xc)+E(xc)   XCENC  =      1679.80231533
  PAW double counting   =     68083.80265100   -71575.06102697
  entropy T*S    EENTRO =        -2.99195236
  eigenvalues    EBANDS =     -1497.95222660
  atomic energy  EATOM  =     63882.35519389
  Solvation  Ediel_sol  =         0.00000000
  ---------------------------------------------------
  free energy    TOTEN  =      -402.86753237 eV

  energy without entropy =     -399.87558002  energy(sigma->0) =     -401.37155619


--------------------------------------------------------------------------------------------------------




--------------------------------------- Iteration      1(  17)  ---------------------------------------


    POTLOK:  cpu time    0.1965: real time    0.1972
    SETDIJ:  cpu time    0.0112: real time    0.0112
    EDDIAG:  cpu time    0.3213: real time    0.3214
  RMM-DIIS:  cpu time    1.5386: real time    1.5394
    ORTHCH:  cpu time    0.0708: real time    0.0708
       DOS:  cpu time    0.0024: real time    0.0024
    CHARGE:  cpu time    0.1091: real time    0.1092
    MIXING:  cpu time    0.0047: real time    0.0047
    --------------------------------------------
      LOOP:  cpu time    2.2547: real time    2.2563

 eigenvalue-minimisations  :   773
 total energy-change (2. order) :-0.5932553E-01  (-0.5386198E-01)
 number of electron     640.0000059 magnetization 
 augmentation part      367.6437944 magnetization 

 Broyden mixing:
  rms(total) = 0.13854E+01    rms(broyden)= 0.13854E+01
  rms(prec ) = 0.16201E+01
  weight for this iteration     100.00

 eigenvalues of (default mixing * dielectric matrix)
  average eigenvalue GAMMA=   0.3463
  2.2149  0.7982  0.2481  0.2481  0.1390  0.1390  0.0932  0.0359  0.0714  0.0641
  0.0520  0.0520

 Free energy of the ion-electron system (eV)
  ---------------------------------------------------
  alpha Z        PSCENC =      1356.63169782
  Ewald energy   TEWEN  =    222475.28217525
  -Hartree energ DENC   =   -284804.63038549
  -exchange      EXHF   =         0.00000000
  -V(xc)+E(xc)   XCENC  =      1679.72956349
  PAW double counting   =     68051.13323955   -71540.92403236
  entropy T*S    EENTRO =        -3.04877875
  eigenvalues    EBANDS =     -1499.45553129
  atomic energy  EATOM  =     63882.35519389
  Solvation  Ediel_sol  =         0.00000000
  ---------------------------------------------------
  free energy    TOTEN  =      -402.92685790 eV

  energy without entropy =     -399.87807915  energy(sigma->0) =     -401.40246852


--------------------------------------------------------------------------------------------------------




--------------------------------------- Iteration      1(  18)  ---------------------------------------


    POTLOK:  cpu time    0.1824: real time    0.1946
    SETDIJ:  cpu time    0.0113: real time    0.0113
    EDDIAG:  cpu time    0.3242: real time    0.3248
  RMM-DIIS:  cpu time    1.5418: real time    1.5424
    ORTHCH:  cpu time    0.0700: real time    0.0700
       DOS:  cpu time    0.0024: real time    0.0024
    CHARGE:  cpu time    0.1097: real time    0.1097
    MIXING:  cpu time    0.0049: real time    0.0049
    --------------------------------------------
      LOOP:  cpu time    2.2467: real time    2.2600

 eigenvalue-minimisations  :   775
 total energy-change (2. order) : 0.1715427E+00  (-0.4484448E-01)
 number of electron     640.0000058 magnetization 
 augmentation part      367.8483612 magnetization 

 Broyden mixing:
  rms(total) = 0.10910E+01    rms(broyden)= 0.10909E+01
  rms(prec ) = 0.12811E+01
  weight for this iteration     100.00

 eigenvalues of (default mixing * dielectric matrix)
  average eigenvalue GAMMA=   0.3437
  2.3509  0.8578  0.2550  0.2550  0.1491  0.1491  0.1037  0.0785  0.0727  0.0359
  0.0575  0.0532  0.0496

 Free energy of the ion-electron system (eV)
  ---------------------------------------------------
  alpha Z        PSCENC =      1356.63169782
  Ewald energy   TEWEN  =    222475.28217525
  -Hartree energ DENC   =   -284801.07918156
  -exchange      EXHF   =         0.00000000
  -V(xc)+E(xc)   XCENC  =      1679.58381952
  PAW double counting   =     67993.57518052   -71480.61907349
  entropy T*S    EENTRO =        -3.02234571
  eigenvalues    EBANDS =     -1505.46278146
  atomic energy  EATOM  =     63882.35519389
  Solvation  Ediel_sol  =         0.00000000
  ---------------------------------------------------
  free energy    TOTEN  =      -402.75531523 eV

  energy without entropy =     -399.73296951  energy(sigma->0) =     -401.24414237


--------------------------------------------------------------------------------------------------------




--------------------------------------- Iteration      1(  19)  ---------------------------------------


    POTLOK:  cpu time    0.1834: real time    0.1949
    SETDIJ:  cpu time    0.0113: real time    0.0113
    EDDIAG:  cpu time    0.3227: real time    0.3228
  RMM-DIIS:  cpu time    1.5293: real time    1.5309
    ORTHCH:  cpu time    0.0647: real time    0.0717
       DOS:  cpu time    0.0019: real time    0.0019
    CHARGE:  cpu time    0.1098: real time    0.1098
    MIXING:  cpu time    0.0050: real time    0.0050
    --------------------------------------------
      LOOP:  cpu time    2.2279: real time    2.2482

 eigenvalue-minimisations  :   771
 total energy-change (2. order) : 0.2783765E+00  (-0.2133290E-01)
 number of electron     640.0000059 magnetization 
 augmentation part      367.8679673 magnetization 

 Broyden mixing:
  rms(total) = 0.61181E+00    rms(broyden)= 0.61176E+00
  rms(prec ) = 0.71355E+00
  weight for this iteration     100.00

 eigenvalues of (default mixing * dielectric matrix)
  average eigenvalue GAMMA=   0.3308
  2.3953  0.8558  0.2649  0.2649  0.1612  0.1612  0.1085  0.0879  0.0359  0.0737
  0.0639  0.0579  0.0510  0.0496

 Free energy of the ion-electron system (eV)
  ---------------------------------------------------
  alpha Z        PSCENC =      1356.63169782
  Ewald energy   TEWEN  =    222475.28217525
  -Hartree energ DENC   =   -284802.55176828
  -exchange      EXHF   =         0.00000000
  -V(xc)+E(xc)   XCENC  =      1679.54495214
  PAW double counting   =     67969.80442452   -71455.83379739
  entropy T*S    EENTRO =        -3.03891189
  eigenvalues    EBANDS =     -1504.67090481
  atomic energy  EATOM  =     63882.35519389
  Solvation  Ediel_sol  =         0.00000000
  ---------------------------------------------------
  free energy    TOTEN  =      -402.47693876 eV

  energy without entropy =     -399.43802687  energy(sigma->0) =     -400.95748281


--------------------------------------------------------------------------------------------------------




--------------------------------------- Iteration      1(  20)  ---------------------------------------


[...]
     10.016176  0.006177  6.088774            0           0           0  
      2.490649  0.020102  6.040923            0           0           0  
     -0.023059  8.674033  6.071765            0           0           0  
      2.487011  8.674641  6.059960            0           0           0  
      8.769317  2.159098  6.080436            0           0           0  
      1.256464  2.198242  6.087902            0           0           0  
     -0.002848  1.444334  2.027296            0           0           0  
     -0.009071  1.398614  8.147924            0           0           0  
      3.751854  2.187553  6.090347            0           0           0  
      2.501779  1.448901  2.028694            0           0           0  
      2.488204  1.453695  8.028597            0           0           0  
      6.257806  2.186226  6.088472            0           0           0  
      5.000415  1.451879  2.049057            0           0           0  
      4.998617  1.346395  8.095690            0           0           0  
      7.526795  1.447737  2.043718            0           0           0  
      7.509987  1.422763  8.029295            0           0           0  
      6.257241  0.721203  4.080676            0           0           0  
      8.777249  0.712311  4.069361            0           0           0  
     -2.487748  4.354834  6.057982            0           0           0  
     -1.274668  3.613152  2.033059            0           0           0  
     -1.301098  3.621182  8.125056            0           0           0  
     -0.008603  2.899851  4.069912            0           0           0  
      5.024244  4.360454  6.094521            0           0           0  
      3.764922  3.613804  2.032742            0           0           0  
      3.729522  3.594964  8.329531            0           0           0  
     -3.764966  6.528091  6.075752            0           0           0  
     -1.259089  6.507324  6.042717            0           0           0  
     -2.509640  5.801439  2.008671            0           0           0  
     -2.504768  5.752251  8.099950            0           0           0  
      1.281917  6.498533  6.092928            0           0           0  
     -0.006663  5.794258  2.000004            0           0           0  
     -0.004760  5.768444  8.017293            0           0           0  
      3.773789  6.509551  6.078828            0           0           0  
      2.503083  5.789092  2.002568            0           0           0  
      2.462070  5.759133  8.306240            0           0           0  
      1.259453  5.053778  4.043256            0           0           0  
      5.014448  5.797983  2.012527            0           0           0  
      5.046067  5.808648  8.129385            0           0           0  
      6.271379  5.064519  4.042768            0           0           0  
     -3.765172  7.961479  2.016913            0           0           0  
     -3.787283  7.984890  8.117689            0           0           0  
     -1.246538  7.963181  2.021066            0           0           0  
     -1.247128  7.961744  8.106992            0           0           0  
     -2.515837  7.252772  4.054867            0           0           0  
      0.009631  7.225914  4.069573            0           0           0  
      3.747565  7.964015  2.041302            0           0           0  
      3.788973  8.013452  8.119893            0           0           0  
      2.502221  7.236516  4.075548            0           0           0  
      5.018012  7.234997  4.071755            0           0           0  
      1.209504  0.713040  4.053617            0           0           0  
      3.780488  0.677925  4.063513            0           0           0  
     -0.000945  4.329788  6.089704            0           0           0  
      2.564710  4.368784  6.163674            0           0           0  
      1.230982  3.622235  2.029415            0           0           0  
      1.241469  3.586523  8.211970            0           0           0  
      2.513335  2.878065  4.079383            0           0           0  
      6.260244  3.633063  2.002123            0           0           0  
      6.331931  3.590757  8.103912            0           0           0  
      5.024625  2.886427  4.118223            0           0           0  
      7.529969  2.839093  4.109959            0           0           0  
     -1.253597  5.108762  4.014883            0           0           0  
      3.759753  5.117054  4.022978            0           0           0  
      1.251807  7.958501  2.030665            0           0           0  
      1.186279  7.962086  8.057776            0           0           0  
      5.178264  2.746690  9.243320            0           0           0  
     -2.515428  7.225844  9.200529            0           0           0  
     -0.068867  2.864118  9.282990            0           0           0  
      2.429964  7.433179  9.233093            0           0           0  
      3.856308  5.125131  9.311981    -0.014260   -0.175203   -0.984429  
 
   2 f  =   14.121505 THz    88.728030 2PiTHz  471.042678 cm-1    58.401870 meV
             X         Y         Z           dx          dy          dz
     10.016176  0.006177  6.088774            0           0           0  
      2.490649  0.020102  6.040923            0           0           0  
     -0.023059  8.674033  6.071765            0           0           0  
      2.487011  8.674641  6.059960            0           0           0  
      8.769317  2.159098  6.080436            0           0           0  
      1.256464  2.198242  6.087902            0           0           0  
     -0.002848  1.444334  2.027296            0           0           0  
     -0.009071  1.398614  8.147924            0           0           0  
      3.751854  2.187553  6.090347            0           0           0  
      2.501779  1.448901  2.028694            0           0           0  
      2.488204  1.453695  8.028597            0           0           0  
      6.257806  2.186226  6.088472            0           0           0  
      5.000415  1.451879  2.049057            0           0           0  
      4.998617  1.346395  8.095690            0           0           0  
      7.526795  1.447737  2.043718            0           0           0  
      7.509987  1.422763  8.029295            0           0           0  
      6.257241  0.721203  4.080676            0           0           0  
      8.777249  0.712311  4.069361            0           0           0  
     -2.487748  4.354834  6.057982            0           0           0  
     -1.274668  3.613152  2.033059            0           0           0  
     -1.301098  3.621182  8.125056            0           0           0  
     -0.008603  2.899851  4.069912            0           0           0  
      5.024244  4.360454  6.094521            0           0           0  
      3.764922  3.613804  2.032742            0           0           0  
      3.729522  3.594964  8.329531            0           0           0  
     -3.764966  6.528091  6.075752            0           0           0  
     -1.259089  6.507324  6.042717            0           0           0  
     -2.509640  5.801439  2.008671            0           0           0  
     -2.504768  5.752251  8.099950            0           0           0  
      1.281917  6.498533  6.092928            0           0           0  
     -0.006663  5.794258  2.000004            0           0           0  
     -0.004760  5.768444  8.017293            0           0           0  
      3.773789  6.509551  6.078828            0           0           0  
      2.503083  5.789092  2.002568            0           0           0  
      2.462070  5.759133  8.306240            0           0           0  
      1.259453  5.053778  4.043256            0           0           0  
      5.014448  5.797983  2.012527            0           0           0  
      5.046067  5.808648  8.129385            0           0           0  
      6.271379  5.064519  4.042768            0           0           0  
     -3.765172  7.961479  2.016913            0           0           0  
     -3.787283  7.984890  8.117689            0           0           0  
     -1.246538  7.963181  2.021066            0           0           0  
     -1.247128  7.961744  8.106992            0           0           0  
     -2.515837  7.252772  4.054867            0           0           0  
      0.009631  7.225914  4.069573            0           0           0  
      3.747565  7.964015  2.041302            0           0           0  
      3.788973  8.013452  8.119893            0           0           0  
      2.502221  7.236516  4.075548            0           0           0  
      5.018012  7.234997  4.071755            0           0           0  
      1.209504  0.713040  4.053617            0           0           0  
      3.780488  0.677925  4.063513            0           0           0  
     -0.000945  4.329788  6.089704            0           0           0  
      2.564710  4.368784  6.163674            0           0           0  
      1.230982  3.622235  2.029415            0           0           0  
      1.241469  3.586523  8.211970            0           0           0  
      2.513335  2.878065  4.079383            0           0           0  
      6.260244  3.633063  2.002123            0           0           0  
      6.331931  3.590757  8.103912            0           0           0  
      5.024625  2.886427  4.118223            0           0           0  
      7.529969  2.839093  4.109959            0           0           0  
     -1.253597  5.108762  4.014883            0           0           0  
      3.759753  5.117054  4.022978            0           0           0  
      1.251807  7.958501  2.030665            0           0           0  
      1.186279  7.962086  8.057776            0           0           0  
      5.178264  2.746690  9.243320            0           0           0  
     -2.515428  7.225844  9.200529            0           0           0  
     -0.068867  2.864118  9.282990            0           0           0  
      2.429964  7.433179  9.233093            0           0           0  
      3.856308  5.125131  9.311981     0.469847   -0.870240    0.148074  
 
   3 f  =   12.519091 THz    78.659767 2PiTHz  417.591904 cm-1    51.774816 meV
             X         Y         Z           dx          dy          dz
     10.016176  0.006177  6.088774            0           0           0  
      2.490649  0.020102  6.040923            0           0           0  
     -0.023059  8.674033  6.071765            0           0           0  
      2.487011  8.674641  6.059960            0           0           0  
      8.769317  2.159098  6.080436            0           0           0  
      1.256464  2.198242  6.087902            0           0           0  
     -0.002848  1.444334  2.027296            0           0           0  
     -0.009071  1.398614  8.147924            0           0           0  
      3.751854  2.187553  6.090347            0           0           0  
      2.501779  1.448901  2.028694            0           0           0  
      2.488204  1.453695  8.028597            0           0           0  
      6.257806  2.186226  6.088472            0           0           0  
      5.000415  1.451879  2.049057            0           0           0  
      4.998617  1.346395  8.095690            0           0           0  
      7.526795  1.447737  2.043718            0           0           0  
      7.509987  1.422763  8.029295            0           0           0  
      6.257241  0.721203  4.080676            0           0           0  
      8.777249  0.712311  4.069361            0           0           0  
     -2.487748  4.354834  6.057982            0           0           0  
     -1.274668  3.613152  2.033059            0           0           0  
     -1.301098  3.621182  8.125056            0           0           0  
     -0.008603  2.899851  4.069912            0           0           0  
      5.024244  4.360454  6.094521            0           0           0  
      3.764922  3.613804  2.032742            0           0           0  
      3.729522  3.594964  8.329531            0           0           0  
     -3.764966  6.528091  6.075752            0           0           0  
     -1.259089  6.507324  6.042717            0           0           0  
     -2.509640  5.801439  2.008671            0           0           0  
     -2.504768  5.752251  8.099950            0           0           0  
      1.281917  6.498533  6.092928            0           0           0  
     -0.006663  5.794258  2.000004            0           0           0  
     -0.004760  5.768444  8.017293            0           0           0  
      3.773789  6.509551  6.078828            0           0           0  
      2.503083  5.789092  2.002568            0           0           0  
      2.462070  5.759133  8.306240            0           0           0  
      1.259453  5.053778  4.043256            0           0           0  
      5.014448  5.797983  2.012527            0           0           0  
      5.046067  5.808648  8.129385            0           0           0  
      6.271379  5.064519  4.042768            0           0           0  
     -3.765172  7.961479  2.016913            0           0           0  
     -3.787283  7.984890  8.117689            0           0           0  
     -1.246538  7.963181  2.021066            0           0           0  
     -1.247128  7.961744  8.106992            0           0           0  
     -2.515837  7.252772  4.054867            0           0           0  
      0.009631  7.225914  4.069573            0           0           0  
      3.747565  7.964015  2.041302            0           0           0  
      3.788973  8.013452  8.119893            0           0           0  
      2.502221  7.236516  4.075548            0           0           0  
      5.018012  7.234997  4.071755            0           0           0  
      1.209504  0.713040  4.053617            0           0           0  
      3.780488  0.677925  4.063513            0           0           0  
     -0.000945  4.329788  6.089704            0           0           0  
      2.564710  4.368784  6.163674            0           0           0  
      1.230982  3.622235  2.029415            0           0           0  
      1.241469  3.586523  8.211970            0           0           0  
      2.513335  2.878065  4.079383            0           0           0  
      6.260244  3.633063  2.002123            0           0           0  
      6.331931  3.590757  8.103912            0           0           0  
      5.024625  2.886427  4.118223            0           0           0  
      7.529969  2.839093  4.109959            0           0           0  
     -1.253597  5.108762  4.014883            0           0           0  
      3.759753  5.117054  4.022978            0           0           0  
      1.251807  7.958501  2.030665            0           0           0  
      1.186279  7.962086  8.057776            0           0           0  
      5.178264  2.746690  9.243320            0           0           0  
     -2.515428  7.225844  9.200529            0           0           0  
     -0.068867  2.864118  9.282990            0           0           0  
      2.429964  7.433179  9.233093            0           0           0  
      3.856308  5.125131  9.311981    -0.882633   -0.460419    0.094728  
 
 Finite differences POTIM=  1.500000000000000E-002
     LOOP+:  cpu time   57.5122: real time   57.8680
    4ORBIT:  cpu time    0.0000: real time    0.0000
 


 total charge     
 
# of ion       s       p       d       tot
------------------------------------------
    1        0.500   0.494   8.329   9.323
    2        0.497   0.482   8.338   9.317
    3        0.509   0.509   8.335   9.352
    4        0.492   0.486   8.341   9.319
    5        0.493   0.487   8.341   9.322
    6        0.503   0.502   8.317   9.321
    7        0.490   0.364   8.322   9.176
    8        0.486   0.488   8.345   9.319
    9        0.501   0.494   8.326   9.322
   10        0.495   0.368   8.311   9.174
   11        0.480   0.370   8.378   9.228
   12        0.503   0.506   8.332   9.342
   13        0.496   0.378   8.308   9.183
   14        0.505   0.526   8.337   9.368
   15        0.493   0.371   8.314   9.179
   16        0.481   0.365   8.385   9.231
   17        0.510   0.503   8.328   9.341
   18        0.498   0.495   8.336   9.329
   19        0.509   0.509   8.320   9.338
   20        0.500   0.377   8.308   9.185
   21        0.500   0.509   8.325   9.334
   22        0.507   0.509   8.312   9.328
   23        0.496   0.482   8.322   9.300
   24        0.500   0.377   8.304   9.182
   25        0.469   0.563   8.323   9.355
   26        0.483   0.471   8.344   9.298
   27        0.493   0.482   8.340   9.315
   28        0.491   0.366   8.322   9.179
   29        0.490   0.504   8.332   9.327
   30        0.498   0.493   8.320   9.312
   31        0.497   0.370   8.313   9.180
   32        0.490   0.382   8.364   9.235
   33        0.492   0.472   8.337   9.301
   34        0.495   0.368   8.313   9.176
   35        0.470   0.563   8.324   9.357
   36        0.501   0.500   8.306   9.306
   37        0.490   0.364   8.322   9.176
   38        0.484   0.483   8.359   9.326
   39        0.499   0.495   8.315   9.308
   40        0.483   0.355   8.328   9.165
   41        0.488   0.497   8.340   9.325
   42        0.493   0.364   8.319   9.175
   43        0.502   0.509   8.328   9.338
   44        0.499   0.497   8.334   9.330
   45        0.501   0.498   8.329   9.328
   46        0.485   0.359   8.328   9.171
   47        0.487   0.477   8.350   9.314
   48        0.494   0.493   8.327   9.314
   49        0.496   0.492   8.336   9.324
   50        0.462   0.480   6.275   7.217
   51        0.464   0.488   6.276   7.228
   52        0.458   0.480   6.263   7.201
   53        0.455   0.464   6.254   7.173
   54        0.442   0.348   6.256   7.047
   55        0.451   0.474   6.290   7.215
   56        0.464   0.485   6.257   7.207
   57        0.442   0.344   6.248   7.034
   58        0.459   0.482   6.304   7.246
   59        0.467   0.493   6.260   7.221
   60        0.463   0.487   6.269   7.219
   61        0.460   0.477   6.272   7.209
   62        0.460   0.474   6.270   7.204
   63        0.439   0.349   6.251   7.039
   64        0.476   0.531   6.319   7.325
   65        1.586   3.331   0.000   4.917
   66        1.583   3.336   0.000   4.919
   67        1.584   3.330   0.000   4.914
   68        1.587   3.332   0.000   4.918
   69        1.587   3.350   0.000   4.937
--------------------------------------------------
tot         39.006  45.905 502.227 587.138
 

 total amount of memory used by VASP MPI-rank0    54072. kBytes
=======================================================================

   base      :      30000. kBytes
   nonlr-proj:       3968. kBytes
   fftplans  :       5965. kBytes
   grid      :      11929. kBytes
   one-center:         23. kBytes
   wavefun   :       2187. kBytes
 
  
  
 General timing and accounting informations for this job:
 ========================================================
  
                  Total CPU time used (sec):      422.549
                            User time (sec):      414.980
                          System time (sec):        7.570
                         Elapsed time (sec):      425.962
  
                   Maximum memory used (kb):      292836.
                   Average memory used (kb):           0.
  
                          Minor page faults:      2147874
                          Major page faults:            1
                 Voluntary context switches:         1659
