       N       E                     dE             d eps       ncg     rms          rms(c)
DAV:   1     0.240412038516E+04    0.24041E+04   -0.11085E+05 51435   0.184E+03
DAV:   2     0.657450626008E+02   -0.23384E+04   -0.21983E+04 51408   0.386E+02
DAV:   3    -0.224344081822E+03   -0.29009E+03   -0.22618E+03 51408   0.172E+02
DAV:   4    -0.239221116203E+03   -0.14877E+02   -0.14430E+02 54807   0.469E+01
DAV:   5    -0.239384834800E+03   -0.16372E+00   -0.16356E+00 56982   0.459E+00
RMM:   6    -0.239390107687E+03   -0.52729E-02   -0.52700E-02 53530   0.699E-01
RMM:   7    -0.239391677269E+03   -0.15696E-02   -0.15651E-02 78912   0.236E-01
RMM:   8    -0.239391685525E+03   -0.82563E-05   -0.17152E-04 74433   0.304E-02
RMM:   9    -0.239391686534E+03   -0.10091E-05   -0.10339E-05 48923   0.807E-03
RMM:  10    -0.239391686645E+03   -0.11095E-06   -0.10972E-06 32936   0.301E-03
   1 F= -.23939169E+03 E0= -.23939169E+03  d E =0.000000E+00  mag=    63.7623
