 vasp.5.4.4.18Apr17-6-g9f103f2a35 (build Sep 06 2021 19:49:22) complex          
  
 executed on             LinuxIFC date 2021.12.29  16:31:05
 running on   24 total cores
 distrk:  each k-point on   24 cores,    1 groups
 distr:  one band on NCORES_PER_BAND=   8 cores,    3 groups


--------------------------------------------------------------------------------------------------------


 INCAR:
 POTCAR:    PAW_PBE Ni 02Aug2007                  
 POTCAR:    PAW_PBE Fe 06Sep2000                  
 POTCAR:    PAW_PBE Ni 02Aug2007                  
   VRHFIN =Ni:                                                                  
   LEXCH  = PE                                                                  
   EATOM  =  1077.6739 eV,   79.2068 Ry                                         
                                                                                
   TITEL  = PAW_PBE Ni 02Aug2007                                                
   LULTRA =        F    use ultrasoft PP ?                                      
   IUNSCR =        1    unscreen: 0-lin 1-nonlin 2-no                           
   RPACOR =    2.000    partial core radius                                     
   POMASS =   58.690; ZVAL   =   10.000    mass and valenz                      
   RCORE  =    2.300    outmost cutoff radius                                   
   RWIGS  =    2.430; RWIGS  =    1.286    wigner-seitz radius (au A)           
   ENMAX  =  269.532; ENMIN  =  202.149 eV                                      
   RCLOC  =    1.201    cutoff for local pot                                    
   LCOR   =        T    correct aug charges                                     
   LPAW   =        T    paw PP                                                  
   EAUG   =  544.565                                                            
   DEXC   =    0.000                                                            
   RMAX   =    2.357    core radius for proj-oper                               
   RAUG   =    1.300    factor for augmentation sphere                          
   RDEP   =    2.390    radius for radial grids                                 
   RDEPT  =    1.838    core radius for aug-charge                              
                                                                                
   Atomic configuration                                                         
    9 entries                                                                   
     n  l   j            E        occ.                                          
     1  0  0.50     -8206.4253   2.0000                                         
     2  0  0.50      -976.1748   2.0000                                         
     2  1  1.50      -839.0571   6.0000                                         
     3  0  0.50      -105.9991   2.0000                                         
     3  1  1.50       -66.4603   6.0000                                         
     3  2  2.50        -4.6458   9.0000                                         
     4  0  0.50        -4.4926   1.0000                                         
     4  1  1.50        -4.0817   0.0000                                         
     4  3  2.50        -1.3606   0.0000                                         
   Description                                                                  
     l       E           TYP  RCUT    TYP  RCUT                                 
     2     -4.6457903     23  2.300                                             
     2     -6.0063729     23  2.300                                             
     0     -4.4925590     23  2.300                                             
     0      5.0102601     23  2.300                                             
     1     -2.7211652     23  2.300                                             
     1     16.5183231     23  2.300                                             
  local pseudopotential read in
  partial core-charges read in
  partial kinetic energy density read in
  atomic valenz-charges read in
  non local Contribution for L=           2  read in
    real space projection operators read in
  non local Contribution for L=           2  read in
    real space projection operators read in
  non local Contribution for L=           0  read in
    real space projection operators read in
  non local Contribution for L=           0  read in
    real space projection operators read in
  non local Contribution for L=           1  read in
    real space projection operators read in
  non local Contribution for L=           1  read in
    real space projection operators read in
    PAW grid and wavefunctions read in
 
   number of l-projection  operators is LMAX  =           6
   number of lm-projection operators is LMMAX =          18
 
 POTCAR:    PAW_PBE Fe 06Sep2000                  
   VRHFIN =Fe:  d7 s1                                                           
   LEXCH  = PE                                                                  
   EATOM  =   594.3153 eV,   43.6809 Ry                                         
                                                                                
   TITEL  = PAW_PBE Fe 06Sep2000                                                
   LULTRA =        F    use ultrasoft PP ?                                      
   IUNSCR =        1    unscreen: 0-lin 1-nonlin 2-no                           
   RPACOR =    2.000    partial core radius                                     
   POMASS =   55.847; ZVAL   =    8.000    mass and valenz                      
   RCORE  =    2.300    outmost cutoff radius                                   
   RWIGS  =    2.460; RWIGS  =    1.302    wigner-seitz radius (au A)           
   ENMAX  =  267.882; ENMIN  =  200.911 eV                                      
   RCLOC  =    1.701    cutoff for local pot                                    
   LCOR   =        T    correct aug charges                                     
   LPAW   =        T    paw PP                                                  
   EAUG   =  511.368                                                            
   DEXC   =    0.000                                                            
   RMAX   =    2.356    core radius for proj-oper                               
   RAUG   =    1.300    factor for augmentation sphere                          
   RDEP   =    2.442    radius for radial grids                                 
   RDEPT  =    1.890    core radius for aug-charge                              
                                                                                
   Atomic configuration                                                         
    9 entries                                                                   
     n  l   j            E        occ.                                          
     1  0  0.50     -6993.8440   2.0000                                         
     2  0  0.50      -814.6047   2.0000                                         
     2  1  1.50      -693.3689   6.0000                                         
     3  0  0.50       -89.4732   2.0000                                         
     3  1  1.50       -55.6373   6.0000                                         
     3  2  2.50        -3.8151   7.0000                                         
     4  0  0.50        -4.2551   1.0000                                         
     4  1  1.50        -3.4015   0.0000                                         
     4  3  2.50        -1.3606   0.0000                                         
   Description                                                                  
     l       E           TYP  RCUT    TYP  RCUT                                 
     2     -3.8151135     23  2.300                                             
     2     -5.1756961     23  2.300                                             
     0     -4.2550963     23  2.300                                             
     0      7.2035603     23  2.300                                             
     1     -2.7211652     23  2.300                                             
     1     18.4316424     23  2.300                                             
  local pseudopotential read in
  partial core-charges read in
  partial kinetic energy density read in
  atomic valenz-charges read in
  non local Contribution for L=           2  read in
    real space projection operators read in
  non local Contribution for L=           2  read in
    real space projection operators read in
  non local Contribution for L=           0  read in
    real space projection operators read in
  non local Contribution for L=           0  read in
    real space projection operators read in
  non local Contribution for L=           1  read in
    real space projection operators read in
  non local Contribution for L=           1  read in
    real space projection operators read in
    PAW grid and wavefunctions read in
 
   number of l-projection  operators is LMAX  =           6
   number of lm-projection operators is LMMAX =          18
 
 Optimization of the real space projectors (new method)

 maximal supplied QI-value         = 16.25
 optimisation between [QCUT,QGAM] = [ 11.54, 23.24] = [ 37.28,151.24] Ry 
 Optimized for a Real-space Cutoff    1.45 Angstroem

   l    n(q)    QCUT    max X(q) W(low)/X(q) W(high)/X(q)  e(spline) 
   2      9    11.539    60.317    0.19E-03    0.47E-04    0.16E-06
   2      9    11.539    55.921    0.19E-03    0.48E-04    0.16E-06
   0     10    11.539    51.690    0.80E-04    0.50E-04    0.24E-06
   0     10    11.539    30.015    0.73E-04    0.45E-04    0.22E-06
   1     10    11.539    18.849    0.87E-04    0.16E-03    0.71E-07
   1     10    11.539    14.624    0.73E-04    0.13E-03    0.64E-07
 Optimization of the real space projectors (new method)

 maximal supplied QI-value         = 16.25
 optimisation between [QCUT,QGAM] = [ 11.54, 23.24] = [ 37.28,151.24] Ry 
 Optimized for a Real-space Cutoff    1.53 Angstroem

   l    n(q)    QCUT    max X(q) W(low)/X(q) W(high)/X(q)  e(spline) 
   2     10    11.539    80.901    0.11E-03    0.14E-03    0.21E-06
   2     10    11.539    75.754    0.11E-03    0.14E-03    0.22E-06
   0     11    11.539    58.752    0.52E-04    0.18E-04    0.33E-06
   0     11    11.539    30.679    0.44E-04    0.16E-04    0.30E-06
   1     10    11.539    17.977    0.53E-04    0.29E-04    0.13E-06
   1     10    11.539    13.559    0.44E-04    0.25E-04    0.11E-06
  PAW_PBE Ni 02Aug2007                  :
 energy of atom  1       EATOM=-1077.6739
 kinetic energy error for atom=    0.0030 (will be added to EATOM!!)
  PAW_PBE Fe 06Sep2000                  :
 energy of atom  2       EATOM= -594.3153
 kinetic energy error for atom=    0.0026 (will be added to EATOM!!)
 
 
 POSCAR: POSCAR                                  
  positions in direct lattice
  velocities in cartesian coordinates
 exchange correlation table for  LEXCH =        8
   RHO(1)=    0.500       N(1)  =     2000
   RHO(2)=  100.500       N(2)  =     4000
 


--------------------------------------------------------------------------------------------------------


 ion  position               nearest neighbor table
   1  0.999  0.000  0.501-  25 2.47  12 2.49   7 2.49   5 2.49  16 2.50  11 2.51  20 2.51  10 2.52
                             3 2.53   2 2.53  31 2.53  18 2.54
   2  0.002  0.252  0.749-  12 2.48  26 2.50   7 2.50  19 2.51  13 2.51  17 2.51   9 2.51   8 2.52
                             4 2.52   3 2.52  16 2.53   1 2.53
   3  0.250  1.000  0.750-  24 2.49  20 2.50   9 2.51  21 2.51   2 2.52  27 2.52   1 2.53  12 2.53
                            14 2.53  15 2.53   5 2.53  19 2.54
   4  1.000  0.500  0.499-  26 2.49  18 2.49   7 2.49  30 2.49  12 2.50  13 2.50   6 2.50   5 2.52
                             2 2.52  10 2.53  31 2.54  20 2.55
   5  0.998  0.751  0.745-   1 2.49  26 2.50  31 2.50  20 2.50  13 2.51   4 2.52  16 2.52   9 2.53
                             3 2.53  32 2.55  27 2.56  17 2.58
   6  0.250  0.499  0.253-   4 2.50  23 2.51  12 2.51  28 2.51  10 2.51  29 2.52  18 2.52  19 2.53
                            17 2.55  20 2.55  27 2.55  22 2.56
   7  0.756  0.250  0.500-  30 2.48   1 2.49   4 2.49  16 2.50  26 2.50   2 2.50  25 2.50  10 2.52
                            14 2.54  22 2.54  23 2.55  15 2.57
   8  0.755  0.250  0.999-  17 2.49   9 2.49   2 2.52  30 2.52  16 2.52  22 2.54  10 2.54  25 2.54
                            26 2.54  15 2.55  21 2.57  28 2.58
   9  0.999  0.001  0.995-   8 2.49  19 2.51  16 2.51   3 2.51   2 2.51   5 2.53  25 2.53  27 2.54
                            32 2.54  10 2.54  11 2.56  18 2.59
  10  0.005  0.248  0.251-  12 2.46  19 2.47  11 2.49  25 2.50   6 2.51   1 2.52   7 2.52  30 2.52
                            17 2.52   4 2.53   8 2.54   9 2.54
  11  0.247  0.997  0.253-  20 2.49  10 2.49   1 2.51  12 2.52  18 2.52  29 2.52  27 2.53  19 2.55
                             9 2.56  22 2.56  14 2.56  21 2.56
  12  0.243  0.249  0.499-  10 2.46   2 2.48   1 2.49   4 2.50   6 2.51  11 2.52   3 2.53  13 2.54
                            15 2.57  14 2.57  23 2.58  22 2.58
  13  0.247  0.504  0.745-   4 2.50  20 2.50   5 2.51   2 2.51  24 2.52  27 2.52  23 2.53  12 2.54
                            17 2.54  15 2.55  28 2.57  19 2.58
  14  0.503  0.001  0.503-  24 2.49  16 2.49  31 2.51  22 2.52  15 2.52   3 2.53  20 2.53  29 2.53
                             7 2.54  25 2.55  11 2.56  12 2.57
  15  0.498  0.252  0.751-  14 2.52   3 2.53  21 2.53  23 2.53  16 2.53  13 2.55  19 2.55   8 2.55
                            28 2.55  26 2.55  12 2.57   7 2.57
  16  0.751  0.003  0.747-  14 2.49   1 2.50   7 2.50   9 2.51   8 2.52   5 2.52  31 2.52   2 2.53
                            15 2.53  21 2.54  24 2.55  32 2.56
  17  0.999  0.497  0.001-   8 2.49  19 2.49   2 2.51  26 2.52  10 2.52  30 2.52  18 2.54  13 2.54
                            27 2.54   6 2.55  32 2.55   5 2.58
  18  0.999  0.747  0.253-   4 2.49  25 2.52  11 2.52   6 2.52  20 2.52  31 2.53  30 2.53   1 2.54
                            17 2.54  27 2.55  32 2.55   9 2.59
  19  0.245  0.250  0.002-  10 2.47  17 2.49   9 2.51   2 2.51   6 2.53   3 2.54  11 2.55  15 2.55
                            28 2.55  21 2.56  22 2.56  13 2.58
  20  0.249  0.754  0.502-  11 2.49  24 2.49   3 2.50  13 2.50   5 2.50   1 2.51  29 2.51  18 2.52
                            14 2.53   6 2.55   4 2.55  23 2.56
  21  0.499  0.997  0.997-  24 2.50  32 2.51  27 2.51   3 2.51  15 2.53  22 2.53  16 2.54  29 2.55
                            19 2.56  11 2.56   8 2.57  25 2.60
  22  0.504  0.246  0.250-  30 2.51  25 2.51  14 2.52  21 2.53   8 2.54   7 2.54  23 2.54  28 2.54
                            11 2.56  19 2.56   6 2.56  12 2.58
  23  0.501  0.500  0.498-  29 2.50   6 2.51  30 2.51  31 2.51  13 2.53  15 2.53  26 2.54  24 2.54
                            22 2.54   7 2.55  20 2.56  12 2.58
  24  0.496  0.753  0.747-  14 2.49  20 2.49   3 2.49  21 2.50  31 2.52  27 2.52  13 2.52  23 2.54
                            32 2.55  16 2.55  28 2.56  26 2.59
  25  0.757  0.002  0.253-   1 2.47  10 2.50   7 2.50  22 2.51  18 2.52  31 2.52   9 2.53   8 2.54
                            14 2.55  32 2.56  29 2.59  21 2.60
  26  0.755  0.500  0.746-   4 2.49   5 2.50   7 2.50   2 2.50  31 2.51  17 2.52  23 2.54   8 2.54
                            32 2.55  15 2.55  24 2.59  28 2.61
  27  0.250  0.750  0.999-  28 2.50  21 2.51  24 2.52  13 2.52   3 2.52  11 2.53   9 2.54  29 2.54
                            17 2.54  18 2.55   6 2.55   5 2.56
  28  0.497  0.503  0.004-  27 2.50  29 2.51   6 2.51  32 2.51  22 2.54  30 2.55  15 2.55  19 2.55
                            24 2.56  13 2.57   8 2.58  26 2.61
  29  0.498  0.750  0.253-  23 2.50  28 2.51  20 2.51  31 2.51   6 2.52  11 2.52  14 2.53  27 2.54
                            32 2.54  21 2.55  30 2.58  25 2.59
  30  0.752  0.494  0.253-   7 2.48   4 2.49  22 2.51  23 2.51   8 2.52  10 2.52  17 2.52  18 2.53
                            28 2.55  31 2.55  32 2.57  29 2.58
  31  0.748  0.750  0.501-   5 2.50  14 2.51  26 2.51  23 2.51  29 2.51  24 2.52  16 2.52  25 2.52
                            18 2.53   1 2.53   4 2.54  30 2.55
  32  0.748  0.750  1.000-  21 2.51  28 2.51   9 2.54  29 2.54  24 2.55  26 2.55  17 2.55  18 2.55
                             5 2.55  25 2.56  16 2.56  30 2.57
 

IMPORTANT INFORMATION: All symmetrisations will be switched off!
NOSYMM: (Re-)initialisation of all symmetry stuff for point group C_1.

 
 

Automatic generation of k-mesh.
 generate k-points for:    5    5    5
Space group operators:
 irot       det(A)        alpha          n_x          n_y          n_z        tau_x        tau_y        tau_z
    1     1.000000     0.000000     1.000000     0.000000     0.000000     0.000000     0.000000     0.000000
 
 Subroutine IBZKPT returns following result:
 ===========================================
 
 Found     63 irreducible k-points:
 
 Following reciprocal coordinates:
            Coordinates               Weight
  0.000000  0.000000  0.000000      1.000000
  0.200000  0.000000  0.000000      2.000000
  0.400000  0.000000  0.000000      2.000000
  0.000000  0.200000  0.000000      2.000000
  0.200000  0.200000  0.000000      2.000000
  0.400000  0.200000  0.000000      2.000000
 -0.400000  0.200000  0.000000      2.000000
 -0.200000  0.200000  0.000000      2.000000
  0.000000  0.400000  0.000000      2.000000
  0.200000  0.400000  0.000000      2.000000
  0.400000  0.400000  0.000000      2.000000
 -0.400000  0.400000  0.000000      2.000000
 -0.200000  0.400000  0.000000      2.000000
  0.000000  0.000000  0.200000      2.000000
  0.200000  0.000000  0.200000      2.000000
  0.400000  0.000000  0.200000      2.000000
 -0.400000  0.000000  0.200000      2.000000
 -0.200000  0.000000  0.200000      2.000000
  0.000000  0.200000  0.200000      2.000000
  0.200000  0.200000  0.200000      2.000000
  0.400000  0.200000  0.200000      2.000000
 -0.400000  0.200000  0.200000      2.000000
 -0.200000  0.200000  0.200000      2.000000
  0.000000  0.400000  0.200000      2.000000
  0.200000  0.400000  0.200000      2.000000
  0.400000  0.400000  0.200000      2.000000
 -0.400000  0.400000  0.200000      2.000000
 -0.200000  0.400000  0.200000      2.000000
  0.000000 -0.400000  0.200000      2.000000
  0.200000 -0.400000  0.200000      2.000000
  0.400000 -0.400000  0.200000      2.000000
 -0.400000 -0.400000  0.200000      2.000000
 -0.200000 -0.400000  0.200000      2.000000
  0.000000 -0.200000  0.200000      2.000000
  0.200000 -0.200000  0.200000      2.000000
  0.400000 -0.200000  0.200000      2.000000
 -0.400000 -0.200000  0.200000      2.000000
 -0.200000 -0.200000  0.200000      2.000000
  0.000000  0.000000  0.400000      2.000000
  0.200000  0.000000  0.400000      2.000000
  0.400000  0.000000  0.400000      2.000000
 -0.400000  0.000000  0.400000      2.000000
 -0.200000  0.000000  0.400000      2.000000
  0.000000  0.200000  0.400000      2.000000
  0.200000  0.200000  0.400000      2.000000
  0.400000  0.200000  0.400000      2.000000
 -0.400000  0.200000  0.400000      2.000000
 -0.200000  0.200000  0.400000      2.000000
  0.000000  0.400000  0.400000      2.000000
  0.200000  0.400000  0.400000      2.000000
  0.400000  0.400000  0.400000      2.000000
 -0.400000  0.400000  0.400000      2.000000
 -0.200000  0.400000  0.400000      2.000000
  0.000000 -0.400000  0.400000      2.000000
  0.200000 -0.400000  0.400000      2.000000
  0.400000 -0.400000  0.400000      2.000000
 -0.400000 -0.400000  0.400000      2.000000
 -0.200000 -0.400000  0.400000      2.000000
  0.000000 -0.200000  0.400000      2.000000
  0.200000 -0.200000  0.400000      2.000000
  0.400000 -0.200000  0.400000      2.000000
 -0.400000 -0.200000  0.400000      2.000000
 -0.200000 -0.200000  0.400000      2.000000
 
 Following cartesian coordinates:
            Coordinates               Weight
  0.000000  0.000000  0.000000      1.000000
  0.100000  0.000000  0.000000      2.000000
  0.200000  0.000000  0.000000      2.000000
  0.000000  0.100000  0.000000      2.000000
  0.100000  0.100000  0.000000      2.000000
  0.200000  0.100000  0.000000      2.000000
 -0.200000  0.100000  0.000000      2.000000
 -0.100000  0.100000  0.000000      2.000000
  0.000000  0.200000  0.000000      2.000000
  0.100000  0.200000  0.000000      2.000000
  0.200000  0.200000  0.000000      2.000000
 -0.200000  0.200000  0.000000      2.000000
 -0.100000  0.200000  0.000000      2.000000
  0.000000  0.000000  0.100000      2.000000
  0.100000  0.000000  0.100000      2.000000
  0.200000  0.000000  0.100000      2.000000
 -0.200000  0.000000  0.100000      2.000000
 -0.100000  0.000000  0.100000      2.000000
  0.000000  0.100000  0.100000      2.000000
  0.100000  0.100000  0.100000      2.000000
  0.200000  0.100000  0.100000      2.000000
 -0.200000  0.100000  0.100000      2.000000
 -0.100000  0.100000  0.100000      2.000000
  0.000000  0.200000  0.100000      2.000000
  0.100000  0.200000  0.100000      2.000000
  0.200000  0.200000  0.100000      2.000000
 -0.200000  0.200000  0.100000      2.000000
 -0.100000  0.200000  0.100000      2.000000
  0.000000 -0.200000  0.100000      2.000000
  0.100000 -0.200000  0.100000      2.000000
  0.200000 -0.200000  0.100000      2.000000
 -0.200000 -0.200000  0.100000      2.000000
 -0.100000 -0.200000  0.100000      2.000000
  0.000000 -0.100000  0.100000      2.000000
  0.100000 -0.100000  0.100000      2.000000
  0.200000 -0.100000  0.100000      2.000000
 -0.200000 -0.100000  0.100000      2.000000
 -0.100000 -0.100000  0.100000      2.000000
  0.000000  0.000000  0.200000      2.000000
  0.100000  0.000000  0.200000      2.000000
  0.200000  0.000000  0.200000      2.000000
 -0.200000  0.000000  0.200000      2.000000
 -0.100000  0.000000  0.200000      2.000000
  0.000000  0.100000  0.200000      2.000000
  0.100000  0.100000  0.200000      2.000000
  0.200000  0.100000  0.200000      2.000000
 -0.200000  0.100000  0.200000      2.000000
 -0.100000  0.100000  0.200000      2.000000
  0.000000  0.200000  0.200000      2.000000
  0.100000  0.200000  0.200000      2.000000
  0.200000  0.200000  0.200000      2.000000
 -0.200000  0.200000  0.200000      2.000000
 -0.100000  0.200000  0.200000      2.000000
  0.000000 -0.200000  0.200000      2.000000
  0.100000 -0.200000  0.200000      2.000000
  0.200000 -0.200000  0.200000      2.000000
 -0.200000 -0.200000  0.200000      2.000000
 -0.100000 -0.200000  0.200000      2.000000
  0.000000 -0.100000  0.200000      2.000000
  0.100000 -0.100000  0.200000      2.000000
  0.200000 -0.100000  0.200000      2.000000
 -0.200000 -0.100000  0.200000      2.000000
 -0.100000 -0.100000  0.200000      2.000000
 
 TETIRR: Found    372 inequivalent tetrahedra from      750


--------------------------------------------------------------------------------------------------------




 Dimension of arrays:
   k-points           NKPTS =     63   k-points in BZ     NKDIM =     63   number of bands    NBANDS=    204
   number of dos      NEDOS =    301   number of ions     NIONS =     32
   non local maximal  LDIM  =      6   non local SUM 2l+1 LMDIM =     18
   total plane-waves  NPLWV = 157464
   max r-space proj   IRMAX =   6561   max aug-charges    IRDMAX=  15543
   dimension x,y,z NGX =    54 NGY =   54 NGZ =   54
   dimension x,y,z NGXF=   108 NGYF=  108 NGZF=  108
   support grid    NGXF=   108 NGYF=  108 NGZF=  108
   ions per type =               8  24
   NGX,Y,Z   is equivalent  to a cutoff of  12.56, 12.56, 12.56 a.u.
   NGXF,Y,Z  is equivalent  to a cutoff of  25.11, 25.11, 25.11 a.u.

 SYSTEM =  SQS-NiFe                                
 POSCAR =  POSCAR                                  

 Startparameter for this run:
   NWRITE =      2    write-flag & timer
   PREC   = accura    normal or accurate (medium, high low for compatibility)
   ISTART =      0    job   : 0-new  1-cont  2-samecut
   ICHARG =     11    charge: 1-file 2-atom 10-const
   ISPIN  =      2    spin polarized calculation?
   LNONCOLLINEAR =      F non collinear calculations
   LSORBIT =      F    spin-orbit coupling
   INIWAV =      1    electr: 0-lowe 1-rand  2-diag
   LASPH  =      F    aspherical Exc in radial PAW
   METAGGA=      F    non-selfconsistent MetaGGA calc.

 Electronic Relaxation 1
   ENCUT  =  520.0 eV  38.22 Ry    6.18 a.u.  13.29 13.29 13.29*2*pi/ulx,y,z
   ENINI  =  520.0     initial cutoff
   ENAUG  =  544.6 eV  augmentation charge cutoff
   NELM   =    200;   NELMIN=  2; NELMDL= -5     # of ELM steps 
   EDIFF  = 0.1E-05   stopping-criterion for ELM
   LREAL  =      T    real-space projection
   NLSPLINE    = F    spline interpolate recip. space projectors
   LCOMPAT=      F    compatible to vasp.4.4
   GGA_COMPAT  = T    GGA compatible to vasp.4.4-vasp.4.6
   LMAXPAW     = -100 max onsite density
   LMAXMIX     =    2 max onsite mixed and CHGCAR
   VOSKOWN=      0    Vosko Wilk Nusair interpolation
   ROPT   =   -0.00025  -0.00025
 Ionic relaxation
   EDIFFG = -.2E-01   stopping-criterion for IOM
   NSW    =      0    number of steps for IOM
   NBLOCK =      1;   KBLOCK =      1    inner block; outer block 
   IBRION =     -1    ionic relax: 0-MD 1-quasi-New 2-CG
   NFREE  =      0    steps in history (QN), initial steepest desc. (CG)
   ISIF   =      2    stress and relaxation
   IWAVPR =     10    prediction:  0-non 1-charg 2-wave 3-comb
   ISYM   =      0    0-nonsym 1-usesym 2-fastsym
   LCORR  =      T    Harris-Foulkes like correction to forces

   POTIM  = 0.5000    time-step for ionic-motion
   TEIN   =    0.0    initial temperature
   TEBEG  =    0.0;   TEEND  =   0.0 temperature during run
   SMASS  =  -3.00    Nose mass-parameter (am)
   estimated Nose-frequenzy (Omega)   =  0.10E-29 period in steps =****** mass=  -0.117E-26a.u.
   SCALEE = 1.0000    scale energy and forces
   NPACO  =    256;   APACO  = 16.0  distance and # of slots for P.C.
   PSTRESS=    0.0 pullay stress

  Mass of Ions in am
   POMASS =  58.69 55.85
  Ionic Valenz
   ZVAL   =  10.00  8.00
  Atomic Wigner-Seitz radii
   RWIGS  =  -1.00 -1.00
  virtual crystal weights 
   VCA    =   1.00  1.00
   NELECT =     272.0000    total number of electrons
   NUPDOWN=      -1.0000    fix difference up-down

 DOS related values:
   EMIN   =  10.00;   EMAX   =-10.00  energy-range for DOS
   EFERMI =   0.00
   ISMEAR =    -5;   SIGMA  =   0.20  broadening in eV -4-tet -1-fermi 0-gaus

 Electronic relaxation 2 (details)
   IALGO  =     68    algorithm
   LDIAG  =      T    sub-space diagonalisation (order eigenvalues)
   LSUBROT=      F    optimize rotation matrix (better conditioning)
   TURBO    =      0    0=normal 1=particle mesh
   IRESTART =      0    0=no restart 2=restart with 2 vectors
   NREBOOT  =      0    no. of reboots
   NMIN     =      0    reboot dimension
   EREF     =   0.00    reference energy to select bands
   IMIX   =      4    mixing-type and parameters
     AMIX     =   0.40;   BMIX     =  1.00
     AMIX_MAG =   1.60;   BMIX_MAG =  1.00
     AMIN     =   0.10
     WC   =   100.;   INIMIX=   1;  MIXPRE=   1;  MAXMIX= -45

 Intra band minimization:
   WEIMIN = 0.0000     energy-eigenvalue tresh-hold
   EBREAK =  0.12E-08  absolut break condition
   DEPER  =   0.30     relativ break condition  

   TIME   =   0.40     timestep for ELM

  volume/ion in A,a.u.               =      11.42        77.08
  Fermi-wavevector in a.u.,A,eV,Ry     =   1.483514  2.803436 29.943904  2.200815
  Thomas-Fermi vector in A             =   2.597166
 
 Write flags
   LWAVE        =      F    write WAVECAR
   LDOWNSAMPLE  =      F    k-point downsampling of WAVECAR
   LCHARG       =      F    write CHGCAR
   LVTOT        =      F    write LOCPOT, total local potential
   LVHAR        =      F    write LOCPOT, Hartree potential only
   LELF         =      F    write electronic localiz. function (ELF)
   LORBIT       =     11    0 simple, 1 ext, 2 COOP (PROOUT), +10 PAW based schemes


 Dipole corrections
   LMONO  =      F    monopole corrections only (constant potential shift)
   LDIPOL =      F    correct potential (dipole corrections)
   IDIPOL =      0    1-x, 2-y, 3-z, 4-all directions 
   EPSILON=  1.0000000 bulk dielectric constant

 Exchange correlation treatment:
   GGA     =    --    GGA type
   LEXCH   =     8    internal setting for exchange type
   VOSKOWN=      0    Vosko Wilk Nusair interpolation
   LHFCALC =     F    Hartree Fock is set to
   LHFONE  =     F    Hartree Fock one center treatment
   AEXX    =    0.0000 exact exchange contribution

 Linear response parameters
   LEPSILON=     F    determine dielectric tensor
   LRPA    =     F    only Hartree local field effects (RPA)
   LNABLA  =     F    use nabla operator in PAW spheres
   LVEL    =     F    velocity operator in full k-point grid
   LINTERFAST=   F  fast interpolation
   KINTER  =     0    interpolate to denser k-point grid
   CSHIFT  =0.1000    complex shift for real part using Kramers Kronig
   OMEGAMAX=  -1.0    maximum frequency
   DEG_THRESHOLD= 0.2000000E-02 threshold for treating states as degnerate
   RTIME   =   -0.100 relaxation time in fs
  (WPLASMAI=    0.000 imaginary part of plasma frequency in eV, 0.658/RTIME)
   DFIELD  = 0.0000000 0.0000000 0.0000000 field for delta impulse in time
 
 Orbital magnetization related:
   ORBITALMAG=     F  switch on orbital magnetization
   LCHIMAG   =     F  perturbation theory with respect to B field
   DQ        =  0.001000  dq finite difference perturbation B field
   LLRAUG    =     F  two centre corrections for induced B field



--------------------------------------------------------------------------------------------------------


 Static calculation
 charge density and potential remain constant during run
 spin polarized calculation
 RMM-DIIS sequential band-by-band and
  variant of blocked Davidson during initial phase
 perform sub-space diagonalisation
    before iterative eigenvector-optimisation
 no mixing
 using additional bands           68
 real space projection scheme for non local part
 use partial core corrections
 calculate Harris-corrections to forces 
   (improved forces if not selfconsistent)
 use gradient corrections 
 WARNING: stress and forces are not correct
  (second derivative of E(xc) not defined)
 use of overlap-Matrix (Vanderbilt PP)
 Fermi weights with tetrahedron method with Bloechl corrections


--------------------------------------------------------------------------------------------------------


  energy-cutoff  :      520.00
  volume of cell :      365.53
      direct lattice vectors                 reciprocal lattice vectors
     7.150000000  0.000000000  0.000000000     0.139860140  0.000000000  0.000000000
     0.000000000  7.150000000  0.000000000     0.000000000  0.139860140  0.000000000
     0.000000000  0.000000000  7.150000000     0.000000000  0.000000000  0.139860140

  length of vectors
     7.150000000  7.150000000  7.150000000     0.139860140  0.139860140  0.139860140


 
 k-points in units of 2pi/SCALE and weight: read from INCAR                         
   0.00000000  0.00000000  0.00000000       0.008
   0.10000000  0.00000000  0.00000000       0.016
   0.20000000  0.00000000  0.00000000       0.016
   0.00000000  0.10000000  0.00000000       0.016
   0.10000000  0.10000000  0.00000000       0.016
   0.20000000  0.10000000  0.00000000       0.016
  -0.20000000  0.10000000  0.00000000       0.016
  -0.10000000  0.10000000  0.00000000       0.016
   0.00000000  0.20000000  0.00000000       0.016
   0.10000000  0.20000000  0.00000000       0.016
   0.20000000  0.20000000  0.00000000       0.016
  -0.20000000  0.20000000  0.00000000       0.016
  -0.10000000  0.20000000  0.00000000       0.016
   0.00000000  0.00000000  0.10000000       0.016
   0.10000000  0.00000000  0.10000000       0.016
   0.20000000  0.00000000  0.10000000       0.016
  -0.20000000  0.00000000  0.10000000       0.016
  -0.10000000  0.00000000  0.10000000       0.016
   0.00000000  0.10000000  0.10000000       0.016
   0.10000000  0.10000000  0.10000000       0.016
   0.20000000  0.10000000  0.10000000       0.016
  -0.20000000  0.10000000  0.10000000       0.016
  -0.10000000  0.10000000  0.10000000       0.016
   0.00000000  0.20000000  0.10000000       0.016
   0.10000000  0.20000000  0.10000000       0.016
   0.20000000  0.20000000  0.10000000       0.016
  -0.20000000  0.20000000  0.10000000       0.016
  -0.10000000  0.20000000  0.10000000       0.016
   0.00000000 -0.20000000  0.10000000       0.016
   0.10000000 -0.20000000  0.10000000       0.016
   0.20000000 -0.20000000  0.10000000       0.016
  -0.20000000 -0.20000000  0.10000000       0.016
  -0.10000000 -0.20000000  0.10000000       0.016
   0.00000000 -0.10000000  0.10000000       0.016
   0.10000000 -0.10000000  0.10000000       0.016
   0.20000000 -0.10000000  0.10000000       0.016
  -0.20000000 -0.10000000  0.10000000       0.016
  -0.10000000 -0.10000000  0.10000000       0.016
   0.00000000  0.00000000  0.20000000       0.016
   0.10000000  0.00000000  0.20000000       0.016
   0.20000000  0.00000000  0.20000000       0.016
  -0.20000000  0.00000000  0.20000000       0.016
  -0.10000000  0.00000000  0.20000000       0.016
   0.00000000  0.10000000  0.20000000       0.016
   0.10000000  0.10000000  0.20000000       0.016
   0.20000000  0.10000000  0.20000000       0.016
  -0.20000000  0.10000000  0.20000000       0.016
  -0.10000000  0.10000000  0.20000000       0.016
   0.00000000  0.20000000  0.20000000       0.016
   0.10000000  0.20000000  0.20000000       0.016
   0.20000000  0.20000000  0.20000000       0.016
  -0.20000000  0.20000000  0.20000000       0.016
  -0.10000000  0.20000000  0.20000000       0.016
   0.00000000 -0.20000000  0.20000000       0.016
   0.10000000 -0.20000000  0.20000000       0.016
   0.20000000 -0.20000000  0.20000000       0.016
  -0.20000000 -0.20000000  0.20000000       0.016
  -0.10000000 -0.20000000  0.20000000       0.016
   0.00000000 -0.10000000  0.20000000       0.016
   0.10000000 -0.10000000  0.20000000       0.016
   0.20000000 -0.10000000  0.20000000       0.016
  -0.20000000 -0.10000000  0.20000000       0.016
  -0.10000000 -0.10000000  0.20000000       0.016
 
 k-points in reciprocal lattice and weights: read from INCAR                         
   0.00000000  0.00000000  0.00000000       0.008
   0.20000000  0.00000000  0.00000000       0.016
   0.40000000  0.00000000  0.00000000       0.016
   0.00000000  0.20000000  0.00000000       0.016
   0.20000000  0.20000000  0.00000000       0.016
   0.40000000  0.20000000  0.00000000       0.016
  -0.40000000  0.20000000  0.00000000       0.016
  -0.20000000  0.20000000  0.00000000       0.016
   0.00000000  0.40000000  0.00000000       0.016
   0.20000000  0.40000000  0.00000000       0.016
   0.40000000  0.40000000  0.00000000       0.016
  -0.40000000  0.40000000  0.00000000       0.016
  -0.20000000  0.40000000  0.00000000       0.016
   0.00000000  0.00000000  0.20000000       0.016
   0.20000000  0.00000000  0.20000000       0.016
   0.40000000  0.00000000  0.20000000       0.016
  -0.40000000  0.00000000  0.20000000       0.016
  -0.20000000  0.00000000  0.20000000       0.016
   0.00000000  0.20000000  0.20000000       0.016
   0.20000000  0.20000000  0.20000000       0.016
   0.40000000  0.20000000  0.20000000       0.016
  -0.40000000  0.20000000  0.20000000       0.016
  -0.20000000  0.20000000  0.20000000       0.016
   0.00000000  0.40000000  0.20000000       0.016
   0.20000000  0.40000000  0.20000000       0.016
   0.40000000  0.40000000  0.20000000       0.016
  -0.40000000  0.40000000  0.20000000       0.016
  -0.20000000  0.40000000  0.20000000       0.016
   0.00000000 -0.40000000  0.20000000       0.016
   0.20000000 -0.40000000  0.20000000       0.016
   0.40000000 -0.40000000  0.20000000       0.016
  -0.40000000 -0.40000000  0.20000000       0.016
  -0.20000000 -0.40000000  0.20000000       0.016
   0.00000000 -0.20000000  0.20000000       0.016
   0.20000000 -0.20000000  0.20000000       0.016
   0.40000000 -0.20000000  0.20000000       0.016
  -0.40000000 -0.20000000  0.20000000       0.016
  -0.20000000 -0.20000000  0.20000000       0.016
   0.00000000  0.00000000  0.40000000       0.016
   0.20000000  0.00000000  0.40000000       0.016
   0.40000000  0.00000000  0.40000000       0.016
  -0.40000000  0.00000000  0.40000000       0.016
  -0.20000000  0.00000000  0.40000000       0.016
   0.00000000  0.20000000  0.40000000       0.016
   0.20000000  0.20000000  0.40000000       0.016
   0.40000000  0.20000000  0.40000000       0.016
  -0.40000000  0.20000000  0.40000000       0.016
  -0.20000000  0.20000000  0.40000000       0.016
   0.00000000  0.40000000  0.40000000       0.016
   0.20000000  0.40000000  0.40000000       0.016
   0.40000000  0.40000000  0.40000000       0.016
  -0.40000000  0.40000000  0.40000000       0.016
  -0.20000000  0.40000000  0.40000000       0.016
   0.00000000 -0.40000000  0.40000000       0.016
   0.20000000 -0.40000000  0.40000000       0.016
   0.40000000 -0.40000000  0.40000000       0.016
  -0.40000000 -0.40000000  0.40000000       0.016
  -0.20000000 -0.40000000  0.40000000       0.016
   0.00000000 -0.20000000  0.40000000       0.016
   0.20000000 -0.20000000  0.40000000       0.016
   0.40000000 -0.20000000  0.40000000       0.016
  -0.40000000 -0.20000000  0.40000000       0.016
  -0.20000000 -0.20000000  0.40000000       0.016
 
 position of ions in fractional coordinates (direct lattice) 
   0.99885081  0.00005405  0.50084181
   0.00236904  0.25178726  0.74901045
   0.24964203  0.99995098  0.74970307
   0.99990507  0.49954129  0.49854249
   0.99789166  0.75105564  0.74507677
   0.25016250  0.49905534  0.25343411
   0.75605397  0.25031301  0.50027445
   0.75474512  0.24991527  0.99891466
   0.99888268  0.00088165  0.99524226
   0.00490121  0.24780848  0.25081896
   0.24676048  0.99733886  0.25267555
   0.24277109  0.24885108  0.49901459
   0.24689657  0.50415762  0.74547858
   0.50296569  0.00110228  0.50316205
   0.49823724  0.25158520  0.75095688
   0.75134729  0.00335214  0.74699880
   0.99934329  0.49705644  0.00081167
   0.99930281  0.74670277  0.25271556
   0.24498026  0.25037064  0.00203146
   0.24929703  0.75431909  0.50160751
   0.49877865  0.99745353  0.99739905
   0.50392525  0.24565328  0.24980665
   0.50096740  0.50023939  0.49843970
   0.49643736  0.75339683  0.74748631
   0.75708338  0.00202533  0.25329148
   0.75524541  0.49965824  0.74579741
   0.24974758  0.74978696  0.99893917
   0.49702948  0.50312975  0.00422081
   0.49774528  0.74971477  0.25346332
   0.75228700  0.49355366  0.25306598
   0.74784352  0.75047129  0.50079242
   0.74760384  0.74971789  0.99998602
 
 position of ions in cartesian coordinates  (Angst):
   7.14178326  0.00038644  3.58101893
   0.01693861  1.80027893  5.35542474
   1.78494049  7.14964951  5.36037692
   7.14932127  3.57172021  3.56457880
   7.13492539  5.37004779  5.32729890
   1.78866185  3.56824566  1.81205392
   5.40578589  1.78973805  3.57696231
   5.39642759  1.78689417  7.14223981
   7.14201113  0.00630381  7.11598216
   0.03504362  1.77183063  1.79335559
   1.76433744  7.13097288  1.80663015
   1.73581330  1.77928525  3.56795431
   1.76531049  3.60472701  5.33017182
   3.59620469  0.00788131  3.59760866
   3.56239628  1.79883416  5.36934172
   5.37213312  0.02396778  5.34104144
   7.14530452  3.55395351  0.00580341
   7.14501510  5.33892482  1.80691627
   1.75160889  1.79015004  0.01452497
   1.78247380  5.39338151  3.58649372
   3.56626738  7.13179274  7.13140318
   3.60306555  1.75642094  1.78611753
   3.58191692  3.57671164  3.56384384
   3.54952709  5.38678734  5.34452709
   5.41314618  0.01448109  1.81103409
   5.40000468  3.57255638  5.33245146
   1.78569523  5.36097679  7.14241508
   3.55376082  3.59737770  0.03017882
   3.55887878  5.36046061  1.81226273
   5.37885206  3.52890870  1.80942177
   5.34708116  5.36586974  3.58066580
   5.34536743  5.36048288  7.14990007
 


--------------------------------------------------------------------------------------------------------


 k-point  1 :   0.0000 0.0000 0.0000  plane waves:    9795
 k-point  2 :   0.2000 0.0000 0.0000  plane waves:    9827
 k-point  3 :   0.4000 0.0000 0.0000  plane waves:    9842
 k-point  4 :   0.0000 0.2000 0.0000  plane waves:    9827
 k-point  5 :   0.2000 0.2000 0.0000  plane waves:    9831
 k-point  6 :   0.4000 0.2000 0.0000  plane waves:    9840
 k-point  7 :  -0.4000 0.2000 0.0000  plane waves:    9840
 k-point  8 :  -0.2000 0.2000 0.0000  plane waves:    9831
 k-point  9 :   0.0000 0.4000 0.0000  plane waves:    9842
 k-point 10 :   0.2000 0.4000 0.0000  plane waves:    9840
 k-point 11 :   0.4000 0.4000 0.0000  plane waves:    9869
 k-point 12 :  -0.4000 0.4000 0.0000  plane waves:    9869
 k-point 13 :  -0.2000 0.4000 0.0000  plane waves:    9840
 k-point 14 :   0.0000 0.0000 0.2000  plane waves:    9827
 k-point 15 :   0.2000 0.0000 0.2000  plane waves:    9831
 k-point 16 :   0.4000 0.0000 0.2000  plane waves:    9840
 k-point 17 :  -0.4000 0.0000 0.2000  plane waves:    9840
 k-point 18 :  -0.2000 0.0000 0.2000  plane waves:    9831
 k-point 19 :   0.0000 0.2000 0.2000  plane waves:    9831
 k-point 20 :   0.2000 0.2000 0.2000  plane waves:    9861
 k-point 21 :   0.4000 0.2000 0.2000  plane waves:    9836
 k-point 22 :  -0.4000 0.2000 0.2000  plane waves:    9836
 k-point 23 :  -0.2000 0.2000 0.2000  plane waves:    9861
 k-point 24 :   0.0000 0.4000 0.2000  plane waves:    9840
 k-point 25 :   0.2000 0.4000 0.2000  plane waves:    9836
 k-point 26 :   0.4000 0.4000 0.2000  plane waves:    9829
 k-point 27 :  -0.4000 0.4000 0.2000  plane waves:    9829
 k-point 28 :  -0.2000 0.4000 0.2000  plane waves:    9836
 k-point 29 :   0.0000-0.4000 0.2000  plane waves:    9840
 k-point 30 :   0.2000-0.4000 0.2000  plane waves:    9836
 k-point 31 :   0.4000-0.4000 0.2000  plane waves:    9829
 k-point 32 :  -0.4000-0.4000 0.2000  plane waves:    9829
 k-point 33 :  -0.2000-0.4000 0.2000  plane waves:    9836
 k-point 34 :   0.0000-0.2000 0.2000  plane waves:    9831
 k-point 35 :   0.2000-0.2000 0.2000  plane waves:    9861
 k-point 36 :   0.4000-0.2000 0.2000  plane waves:    9836
 k-point 37 :  -0.4000-0.2000 0.2000  plane waves:    9836
 k-point 38 :  -0.2000-0.2000 0.2000  plane waves:    9861
 k-point 39 :   0.0000 0.0000 0.4000  plane waves:    9842
 k-point 40 :   0.2000 0.0000 0.4000  plane waves:    9840
 k-point 41 :   0.4000 0.0000 0.4000  plane waves:    9869
 k-point 42 :  -0.4000 0.0000 0.4000  plane waves:    9869
 k-point 43 :  -0.2000 0.0000 0.4000  plane waves:    9840
 k-point 44 :   0.0000 0.2000 0.4000  plane waves:    9840
 k-point 45 :   0.2000 0.2000 0.4000  plane waves:    9836
 k-point 46 :   0.4000 0.2000 0.4000  plane waves:    9829
 k-point 47 :  -0.4000 0.2000 0.4000  plane waves:    9829
 k-point 48 :  -0.2000 0.2000 0.4000  plane waves:    9836
 k-point 49 :   0.0000 0.4000 0.4000  plane waves:    9869
 k-point 50 :   0.2000 0.4000 0.4000  plane waves:    9829
 k-point 51 :   0.4000 0.4000 0.4000  plane waves:    9832
 k-point 52 :  -0.4000 0.4000 0.4000  plane waves:    9832
 k-point 53 :  -0.2000 0.4000 0.4000  plane waves:    9829
 k-point 54 :   0.0000-0.4000 0.4000  plane waves:    9869
 k-point 55 :   0.2000-0.4000 0.4000  plane waves:    9829
 k-point 56 :   0.4000-0.4000 0.4000  plane waves:    9832
 k-point 57 :  -0.4000-0.4000 0.4000  plane waves:    9832
 k-point 58 :  -0.2000-0.4000 0.4000  plane waves:    9829
 k-point 59 :   0.0000-0.2000 0.4000  plane waves:    9840
 k-point 60 :   0.2000-0.2000 0.4000  plane waves:    9836
 k-point 61 :   0.4000-0.2000 0.4000  plane waves:    9829
 k-point 62 :  -0.4000-0.2000 0.4000  plane waves:    9829
 k-point 63 :  -0.2000-0.2000 0.4000  plane waves:    9836

 maximum and minimum number of plane-waves per node :      1273     1193

 maximum number of plane-waves:      9869
 maximum index in each direction: 
   IXMAX=   13   IYMAX=   13   IZMAX=   13
   IXMIN=  -13   IYMIN=  -13   IZMIN=  -13


 real space projection operators:
  total allocation   :      27277.17 KBytes
  max/ min on nodes  :       3538.55       3093.61


 parallel 3D FFT for wavefunctions:
    minimum data exchange during FFTs selected (reduces bandwidth)
 parallel 3D FFT for charge:
    minimum data exchange during FFTs selected (reduces bandwidth)


 total amount of memory used by VASP MPI-rank0   227937. kBytes
=======================================================================

   base      :      30000. kBytes
   nonlr-proj:       7915. kBytes
   fftplans  :       2563. kBytes
   grid      :       6379. kBytes
   one-center:        124. kBytes
   wavefun   :     180956. kBytes
 
     INWAV:  cpu time    0.0000: real time    0.0002
 initial charge density was supplied:
 number of electron     271.9999933 magnetization      63.7623347
 keeping initial charge density in first step


--------------------------------------------------------------------------------------------------------


 Maximum index for non-local projection operator          930
 Maximum index for augmentation-charges         1019 (set IRDMAX)


--------------------------------------------------------------------------------------------------------


 First call to EWALD:  gamma=   0.248
 Maximum number of real-space cells 3x 3x 3
 Maximum number of reciprocal cells 3x 3x 3

    FEWALD:  cpu time    0.0020: real time    0.0018


--------------------------------------- Iteration      1(   1)  ---------------------------------------


    POTLOK:  cpu time    0.0820: real time    0.0851
    SETDIJ:  cpu time    0.0180: real time    0.0183
     EDDAV:  cpu time   60.4498: real time   60.6588
 BZINTS: Fermi energy: 20.215044;272.000000 electrons
         Band energy:3813.610489;  BLOECHL correction: -0.039161
       DOS:  cpu time    0.3509: real time    0.3533
    --------------------------------------------
      LOOP:  cpu time   60.9007: real time   61.1155

 eigenvalue-minimisations  : 51435
 total energy-change (2. order) : 0.2404120E+04  (-0.1108496E+05)
 number of electron     271.9999933 magnetization      63.7623347
 augmentation part      271.9999933 magnetization      63.7623347

 Free energy of the ion-electron system (eV)
  ---------------------------------------------------
  alpha Z        PSCENC =      1846.49885247
  Ewald energy   TEWEN  =    -21359.62396939
  -Hartree energ DENC   =     -4364.75424490
  -exchange      EXHF   =         0.00000000
  -V(xc)+E(xc)   XCENC  =       353.56099934
  PAW double counting   =     26384.77086161   -27154.81429466
  entropy T*S    EENTRO =         0.00000000
  eigenvalues    EBANDS =      3813.61048860
  atomic energy  EATOM  =     22884.87169210
  Solvation  Ediel_sol  =         0.00000000
  ---------------------------------------------------
  free energy    TOTEN  =      2404.12038516 eV

  energy without entropy =     2404.12038516  energy(sigma->0) =     2404.12038516


--------------------------------------------------------------------------------------------------------




--------------------------------------- Iteration      1(   2)  ---------------------------------------


     EDDAV:  cpu time   60.4218: real time   60.7869
 BZINTS: Fermi energy:  8.523258;272.000000 electrons
         Band energy:1475.235166;  BLOECHL correction: -0.020938
       DOS:  cpu time    0.3869: real time    0.3875
    --------------------------------------------
      LOOP:  cpu time   60.8088: real time   61.1744

 eigenvalue-minimisations  : 51408
 total energy-change (2. order) :-0.2338375E+04  (-0.2198251E+04)
 number of electron     271.9999933 magnetization      63.7623347
 augmentation part      271.9999933 magnetization      63.7623347

 Free energy of the ion-electron system (eV)
  ---------------------------------------------------
  alpha Z        PSCENC =      1846.49885247
  Ewald energy   TEWEN  =    -21359.62396939
  -Hartree energ DENC   =     -4364.75424490
  -exchange      EXHF   =         0.00000000
  -V(xc)+E(xc)   XCENC  =       353.56099934
  PAW double counting   =     26384.77086161   -27154.81429466
  entropy T*S    EENTRO =         0.00000000
  eigenvalues    EBANDS =      1475.23516604
  atomic energy  EATOM  =     22884.87169210
  Solvation  Ediel_sol  =         0.00000000
  ---------------------------------------------------
  free energy    TOTEN  =        65.74506260 eV

  energy without entropy =       65.74506260  energy(sigma->0) =       65.74506260


--------------------------------------------------------------------------------------------------------




--------------------------------------- Iteration      1(   3)  ---------------------------------------


     EDDAV:  cpu time   60.2598: real time   60.3824
 BZINTS: Fermi energy:  6.680091;272.000000 electrons
         Band energy:1185.146022;  BLOECHL correction: -0.086181
       DOS:  cpu time    0.3599: real time    0.3611
    --------------------------------------------
      LOOP:  cpu time   60.6198: real time   60.7435

 eigenvalue-minimisations  : 51408
 total energy-change (2. order) :-0.2900891E+03  (-0.2261757E+03)
 number of electron     271.9999933 magnetization      63.7623347
 augmentation part      271.9999933 magnetization      63.7623347

 Free energy of the ion-electron system (eV)
  ---------------------------------------------------
  alpha Z        PSCENC =      1846.49885247
  Ewald energy   TEWEN  =    -21359.62396939
  -Hartree energ DENC   =     -4364.75424490
  -exchange      EXHF   =         0.00000000
  -V(xc)+E(xc)   XCENC  =       353.56099934
  PAW double counting   =     26384.77086161   -27154.81429466
  entropy T*S    EENTRO =         0.00000000
  eigenvalues    EBANDS =      1185.14602162
  atomic energy  EATOM  =     22884.87169210
  Solvation  Ediel_sol  =         0.00000000
  ---------------------------------------------------
  free energy    TOTEN  =      -224.34408182 eV

  energy without entropy =     -224.34408182  energy(sigma->0) =     -224.34408182


--------------------------------------------------------------------------------------------------------




--------------------------------------- Iteration      1(   4)  ---------------------------------------


     EDDAV:  cpu time   63.1944: real time   63.3491
 BZINTS: Fermi energy:  6.620363;272.000000 electrons
         Band energy:1170.268987;  BLOECHL correction: -0.089242
       DOS:  cpu time    0.3659: real time    0.3662
    --------------------------------------------
      LOOP:  cpu time   63.5603: real time   63.7153

 eigenvalue-minimisations  : 54807
 total energy-change (2. order) :-0.1487703E+02  (-0.1443012E+02)
 number of electron     271.9999933 magnetization      63.7623347
 augmentation part      271.9999933 magnetization      63.7623347

 Free energy of the ion-electron system (eV)
  ---------------------------------------------------
  alpha Z        PSCENC =      1846.49885247
  Ewald energy   TEWEN  =    -21359.62396939
  -Hartree energ DENC   =     -4364.75424490
  -exchange      EXHF   =         0.00000000
  -V(xc)+E(xc)   XCENC  =       353.56099934
  PAW double counting   =     26384.77086161   -27154.81429466
  entropy T*S    EENTRO =         0.00000000
  eigenvalues    EBANDS =      1170.26898724
  atomic energy  EATOM  =     22884.87169210
  Solvation  Ediel_sol  =         0.00000000
  ---------------------------------------------------
  free energy    TOTEN  =      -239.22111620 eV

  energy without entropy =     -239.22111620  energy(sigma->0) =     -239.22111620


--------------------------------------------------------------------------------------------------------




--------------------------------------- Iteration      1(   5)  ---------------------------------------


     EDDAV:  cpu time   64.9571: real time   65.0955
 BZINTS: Fermi energy:  6.619713;272.000000 electrons
         Band energy:1170.105269;  BLOECHL correction: -0.089196
       DOS:  cpu time    0.3479: real time    0.3494
    --------------------------------------------
      LOOP:  cpu time   65.3051: real time   65.4449

 eigenvalue-minimisations  : 56982
 total energy-change (2. order) :-0.1637186E+00  (-0.1635606E+00)
 number of electron     271.9999933 magnetization      63.7623347
 augmentation part      271.9999933 magnetization      63.7623347

 Free energy of the ion-electron system (eV)
  ---------------------------------------------------
  alpha Z        PSCENC =      1846.49885247
  Ewald energy   TEWEN  =    -21359.62396939
  -Hartree energ DENC   =     -4364.75424490
  -exchange      EXHF   =         0.00000000
  -V(xc)+E(xc)   XCENC  =       353.56099934
  PAW double counting   =     26384.77086161   -27154.81429466
  entropy T*S    EENTRO =         0.00000000
  eigenvalues    EBANDS =      1170.10526864
  atomic energy  EATOM  =     22884.87169210
  Solvation  Ediel_sol  =         0.00000000
  ---------------------------------------------------
  free energy    TOTEN  =      -239.38483480 eV

  energy without entropy =     -239.38483480  energy(sigma->0) =     -239.38483480


--------------------------------------------------------------------------------------------------------




--------------------------------------- Iteration      1(   6)  ---------------------------------------


    EDDIAG:  cpu time    7.5948: real time    7.6022
  RMM-DIIS:  cpu time   40.9588: real time   41.0371
    ORTHCH:  cpu time    1.2888: real time    1.2984
 BZINTS: Fermi energy:  6.619691;272.000000 electrons
         Band energy:1170.099996;  BLOECHL correction: -0.089196
       DOS:  cpu time    0.3729: real time    0.3734
    --------------------------------------------
      LOOP:  cpu time   50.2154: real time   50.3111

 eigenvalue-minimisations  : 53530
 total energy-change (2. order) :-0.5272887E-02  (-0.5270013E-02)
 number of electron     271.9999933 magnetization      63.7623347
 augmentation part      271.9999933 magnetization      63.7623347

 Free energy of the ion-electron system (eV)
  ---------------------------------------------------
  alpha Z        PSCENC =      1846.49885247
  Ewald energy   TEWEN  =    -21359.62396939
  -Hartree energ DENC   =     -4364.75424490
  -exchange      EXHF   =         0.00000000
  -V(xc)+E(xc)   XCENC  =       353.56099934
  PAW double counting   =     26384.77086161   -27154.81429466
  entropy T*S    EENTRO =         0.00000000
  eigenvalues    EBANDS =      1170.09999575
  atomic energy  EATOM  =     22884.87169210
  Solvation  Ediel_sol  =         0.00000000
  ---------------------------------------------------
  free energy    TOTEN  =      -239.39010769 eV

  energy without entropy =     -239.39010769  energy(sigma->0) =     -239.39010769


--------------------------------------------------------------------------------------------------------




--------------------------------------- Iteration      1(   7)  ---------------------------------------


    EDDIAG:  cpu time    7.6548: real time    7.6634
  RMM-DIIS:  cpu time   59.6799: real time   60.0080
    ORTHCH:  cpu time    1.2988: real time    1.3034
 BZINTS: Fermi energy:  6.619684;272.000000 electrons
         Band energy:1170.098426;  BLOECHL correction: -0.089196
       DOS:  cpu time    0.3659: real time    0.3659
    --------------------------------------------
      LOOP:  cpu time   68.9995: real time   69.3407

 eigenvalue-minimisations  : 78912
 total energy-change (2. order) :-0.1569582E-02  (-0.1565134E-02)
 number of electron     271.9999933 magnetization      63.7623347
 augmentation part      271.9999933 magnetization      63.7623347

 Free energy of the ion-electron system (eV)
  ---------------------------------------------------
  alpha Z        PSCENC =      1846.49885247
  Ewald energy   TEWEN  =    -21359.62396939
  -Hartree energ DENC   =     -4364.75424490
  -exchange      EXHF   =         0.00000000
  -V(xc)+E(xc)   XCENC  =       353.56099934
  PAW double counting   =     26384.77086161   -27154.81429466
  entropy T*S    EENTRO =         0.00000000
  eigenvalues    EBANDS =      1170.09842617
  atomic energy  EATOM  =     22884.87169210
  Solvation  Ediel_sol  =         0.00000000
  ---------------------------------------------------
  free energy    TOTEN  =      -239.39167727 eV

  energy without entropy =     -239.39167727  energy(sigma->0) =     -239.39167727


--------------------------------------------------------------------------------------------------------




--------------------------------------- Iteration      1(   8)  ---------------------------------------


    EDDIAG:  cpu time    7.6748: real time    7.7020
  RMM-DIIS:  cpu time   56.7814: real time   57.0175
    ORTHCH:  cpu time    1.3278: real time    1.3296
 BZINTS: Fermi energy:  6.619684;272.000000 electrons
         Band energy:1170.098418;  BLOECHL correction: -0.089196
       DOS:  cpu time    0.3569: real time    0.3567
    --------------------------------------------
      LOOP:  cpu time   66.1409: real time   66.4057

 eigenvalue-minimisations  : 74433
 total energy-change (2. order) :-0.8256331E-05  (-0.1715168E-04)
 number of electron     271.9999933 magnetization      63.7623347
 augmentation part      271.9999933 magnetization      63.7623347

 Free energy of the ion-electron system (eV)
  ---------------------------------------------------
  alpha Z        PSCENC =      1846.49885247
  Ewald energy   TEWEN  =    -21359.62396939
  -Hartree energ DENC   =     -4364.75424490
  -exchange      EXHF   =         0.00000000
  -V(xc)+E(xc)   XCENC  =       353.56099934
  PAW double counting   =     26384.77086161   -27154.81429466
  entropy T*S    EENTRO =         0.00000000
  eigenvalues    EBANDS =      1170.09841791
  atomic energy  EATOM  =     22884.87169210
  Solvation  Ediel_sol  =         0.00000000
  ---------------------------------------------------
  free energy    TOTEN  =      -239.39168553 eV

  energy without entropy =     -239.39168553  energy(sigma->0) =     -239.39168553


--------------------------------------------------------------------------------------------------------




--------------------------------------- Iteration      1(   9)  ---------------------------------------


    EDDIAG:  cpu time    7.6578: real time    7.6676
  RMM-DIIS:  cpu time   38.4752: real time   38.6108
    ORTHCH:  cpu time    1.3228: real time    1.3245
 BZINTS: Fermi energy:  6.619684;272.000000 electrons
         Band energy:1170.098417;  BLOECHL correction: -0.089196
       DOS:  cpu time    0.3509: real time    0.3512
    --------------------------------------------
      LOOP:  cpu time   47.8067: real time   47.9541

 eigenvalue-minimisations  : 48923
 total energy-change (2. order) :-0.1009052E-05  (-0.1033909E-05)
 number of electron     271.9999933 magnetization      63.7623347
 augmentation part      271.9999933 magnetization      63.7623347

 Free energy of the ion-electron system (eV)
  ---------------------------------------------------
  alpha Z        PSCENC =      1846.49885247
  Ewald energy   TEWEN  =    -21359.62396939
  -Hartree energ DENC   =     -4364.75424490
  -exchange      EXHF   =         0.00000000
  -V(xc)+E(xc)   XCENC  =       353.56099934
  PAW double counting   =     26384.77086161   -27154.81429466
  entropy T*S    EENTRO =         0.00000000
  eigenvalues    EBANDS =      1170.09841690
  atomic energy  EATOM  =     22884.87169210
  Solvation  Ediel_sol  =         0.00000000
  ---------------------------------------------------
  free energy    TOTEN  =      -239.39168653 eV

  energy without entropy =     -239.39168653  energy(sigma->0) =     -239.39168653


--------------------------------------------------------------------------------------------------------




--------------------------------------- Iteration      1(  10)  ---------------------------------------


    EDDIAG:  cpu time    7.6668: real time    7.6722
  RMM-DIIS:  cpu time   26.5140: real time   26.6282
    ORTHCH:  cpu time    1.3018: real time    1.3255
 BZINTS: Fermi energy:  6.619684;272.000000 electrons
         Band energy:1170.098417;  BLOECHL correction: -0.089196
       DOS:  cpu time    0.3729: real time    0.3732
    --------------------------------------------
      LOOP:  cpu time   35.8555: real time   35.9991

 eigenvalue-minimisations  : 32936
 total energy-change (2. order) :-0.1109474E-06  (-0.1097215E-06)
 number of electron     271.9999933 magnetization      63.7623347
 augmentation part      271.9999933 magnetization      63.7623347

 Free energy of the ion-electron system (eV)
  ---------------------------------------------------
  alpha Z        PSCENC =      1846.49885247
  Ewald energy   TEWEN  =    -21359.62396939
  -Hartree energ DENC   =     -4364.75424490
  -exchange      EXHF   =         0.00000000
  -V(xc)+E(xc)   XCENC  =       353.56099934
  PAW double counting   =     26384.77086161   -27154.81429466
  entropy T*S    EENTRO =         0.00000000
  eigenvalues    EBANDS =      1170.09841679
  atomic energy  EATOM  =     22884.87169210
  Solvation  Ediel_sol  =         0.00000000
  ---------------------------------------------------
  free energy    TOTEN  =      -239.39168665 eV

  energy without entropy =     -239.39168665  energy(sigma->0) =     -239.39168665


--------------------------------------------------------------------------------------------------------




 average (electrostatic) potential at core
  the test charge radii are     0.9791  1.0103
  (the norm of the test charge is              1.0000)
       1 -84.7361       2 -84.7157       3 -84.6944       4 -84.7175       5 -84.7386
       6 -84.7441       7 -84.7566       8 -84.7705       9 -42.5799      10 -42.5652
      11 -42.5359      12 -42.6196      13 -42.5931      14 -42.5480      15 -42.5527
      16 -42.6394      17 -42.5764      18 -42.5590      19 -42.5513      20 -42.5964
      21 -42.5960      22 -42.5565      23 -42.5373      24 -42.5511      25 -42.5995
      26 -42.6778      27 -42.5688      28 -42.5729      29 -42.5727      30 -42.5909
      31 -42.5835      32 -42.5750
 
 
 
 E-fermi :   6.6197     XC(G=0): -13.0476     alpha+bet :-14.0976


 spin component 1

 k-point     1 :       0.0000    0.0000    0.0000
  band No.  band energies     occupation 
      1      -1.9984      1.00000
      2       0.6687      1.00000
      3       0.6818      1.00000
      4       0.7120      1.00000
      5       0.7646      1.00000
      6       0.7837      1.00000
      7       0.8427      1.00000
      8       1.6317      1.00000
      9       1.6424      1.00000
     10       1.6544      1.00000
     11       1.6802      1.00000
     12       1.6871      1.00000
     13       1.6884      1.00000
     14       1.6980      1.00000
     15       2.2409      1.00000
     16       2.2438      1.00000
     17       2.2484      1.00000
     18       2.4242      1.00000
     19       2.4497      1.00000
     20       2.4618      1.00000
     21       2.4696      1.00000
     22       2.4883      1.00000
     23       2.4904      1.00000
     24       2.4979      1.00000
     25       2.4992      1.00000
     26       2.5261      1.00000
     27       2.5394      1.00000
     28       2.5542      1.00000
     29       2.5639      1.00000
     30       2.5692      1.00000
     31       2.5805      1.00000
     32       2.5863      1.00000
     33       2.6032      1.00000
     34       2.6142      1.00000
     35       2.6593      1.00000
     36       3.1165      1.00000
     37       3.1493      1.00000
     38       3.1586      1.00000
     39       3.1736      1.00000
     40       3.1889      1.00000
     41       3.2018      1.00000
     42       3.4201      1.00000
     43       3.4294      1.00000
     44       3.4301      1.00000
     45       3.4452      1.00000
     46       3.4537      1.00000
     47       3.4683      1.00000
     48       3.4762      1.00000
     49       3.4949      1.00000
     50       3.4978      1.00000
     51       3.5008      1.00000
     52       3.5085      1.00000
     53       3.5187      1.00000
     54       3.5234      1.00000
     55       3.5284      1.00000
     56       3.5390      1.00000
     57       3.5467      1.00000
     58       3.5480      1.00000
     59       3.5580      1.00000
     60       3.5688      1.00000
     61       3.5755      1.00000
     62       3.5830      1.00000
     63       3.5946      1.00000
     64       3.5980      1.00000
     65       3.6123      1.00000
     66       3.6449      1.00000
     67       3.6592      1.00000
     68       3.6703      1.00000
     69       3.6867      1.00000
     70       3.6971      1.00000
     71       3.7087      1.00000
     72       3.7135      1.00000
     73       3.7270      1.00000
     74       3.7409      1.00000
     75       3.7584      1.00000
     76       3.7767      1.00000
     77       3.7931      1.00000
     78       4.0762      1.00000
     79       4.0864      1.00000
     80       4.0943      1.00000
     81       4.1007      1.00000
     82       4.1036      1.00000
     83       4.1138      1.00000
     84       4.1317      1.00000
     85       4.1335      1.00000
     86       4.1976      1.00000
     87       4.1989      1.00000
     88       4.2025      1.00000
     89       4.6517      1.00000
     90       4.6654      1.00000
     91       4.6722      1.00000
     92       4.6753      1.00000
     93       4.7018      1.00000
     94       4.7308      1.00000
     95       4.7718      1.00000
     96       4.7863      1.00000
     97       4.8018      1.00000
     98       4.8049      1.00000
     99       4.8131      1.00000
    100       4.8199      1.00000
    101       4.8343      1.00000
    102       4.8383      1.00000
    103       4.8422      1.00000
    104       4.8578      1.00000
    105       4.8704      1.00000
    106       4.8758      1.00000
    107       5.0732      1.00000
    108       5.0787      1.00000
    109       5.0968      1.00000
    110       5.1003      1.00000
    111       5.1077      1.00000
    112       5.1148      1.00000
    113       5.1263      1.00000
    114       5.1327      1.00000
    115       5.1463      1.00000
    116       5.1649      1.00000
    117       5.1681      1.00000
    118       5.1911      1.00000
    119       5.2121      1.00000
    120       5.2200      1.00000
    121       5.2306      1.00000
    122       5.2406      1.00000
    123       5.2505      1.00000
    124       5.2723      1.00000
    125       5.3017      1.00000
    126       5.3064      1.00000
    127       5.3226      1.00000
    128       5.3299      1.00000
    129       5.3323      1.00000
    130       5.3532      1.00000
    131       5.3544      1.00000
    132       5.3622      1.00000
    133       5.3759      1.00000
    134       5.3878      1.00000
    135       5.3889      1.00000
    136       5.4093      1.00000
    137       5.4111      1.00000
    138       5.4397      1.00000
    139       5.6630      1.00000
    140       5.6930      1.00000
    141       5.7023      1.00000
    142       5.7095      1.00000
    143       5.7242      1.00000
    144       5.7345      1.00000
    145       6.0711      1.00000
    146       6.0858      1.00000
    147       6.1110      1.00000
    148       6.1289      1.00000
    149       6.1468      1.00000
    150       6.1579      1.00000
    151       6.1616      1.00000
    152       6.1771      1.00000
    153       6.1773      1.00000
    154       6.1849      1.00000
    155       6.1911      1.00000
    156       6.2962      1.00000
    157       6.3231      1.00000
    158       6.3381      1.00000
    159       6.3467      1.00000
    160       6.3637      1.00000
    161       6.4032      1.00000
    162       6.4180      1.00000
    163       6.4252      1.00000
    164       6.4584      1.00000
    165       6.4747      1.00000
    166       6.4876      1.00000
    167       6.4915      1.00000
    168       6.4941      0.62696
    169       6.5086      0.53790
    170       6.5227      0.45629
    171       6.5864      0.05741
    172       7.8672      0.00000
    173       7.8729      0.00000
    174       7.8749      0.00000
    175       7.8791      0.00000
    176       7.8827      0.00000
    177       7.8999      0.00000
    178       7.9052      0.00000
    179       7.9141      0.00000
    180       7.9213      0.00000
    181       7.9333      0.00000
    182       7.9398      0.00000
    183       7.9517      0.00000
    184       9.2022      0.00000
    185       9.2055      0.00000
    186       9.2125      0.00000
    187      12.7887      0.00000
    188      12.8000      0.00000
    189      12.8095      0.00000
    190      12.8187      0.00000
    191      14.3893      0.00000
    192      14.4391      0.00000
    193      14.4528      0.00000
    194      14.5101      0.00000
    195      14.5294      0.00000
    196      14.5341      0.00000
    197      14.5464      0.00000
    198      14.5523      0.00000
    199      14.5698      0.00000
    200      14.6143      0.00000
    201      14.6286      0.00000
    202      14.6893      0.00000
    203      16.1344      0.00000
    204      16.1471      0.00000

 k-point     2 :       0.2000    0.0000    0.0000
  band No.  band energies     occupation 
      1      -1.8697      1.00000
      2      -0.0965      1.00000
      3       0.7845      1.00000
      4       0.8322      1.00000
      5       0.8501      1.00000
      6       0.8862      1.00000
      7       1.4038      1.00000
      8       1.6704      1.00000
      9       1.7036      1.00000
     10       1.7187      1.00000
     11       1.7243      1.00000
     12       1.7318      1.00000
     13       1.7346      1.00000
     14       1.7473      1.00000
     15       2.0058      1.00000
     16       2.0481      1.00000
     17       2.0573      1.00000
     18       2.0946      1.00000
     19       2.2753      1.00000
     20       2.2963      1.00000
     21       2.3015      1.00000
     22       2.3584      1.00000
     23       2.3670      1.00000
     24       2.3747      1.00000
     25       2.3851      1.00000
     26       2.4467      1.00000
     27       2.4818      1.00000
     28       2.6224      1.00000
     29       2.6486      1.00000
     30       2.6585      1.00000
     31       2.6800      1.00000
     32       2.8217      1.00000
     33       2.8371      1.00000
     34       2.8423      1.00000
     35       2.8695      1.00000
     36       2.8737      1.00000
     37       3.0551      1.00000
     38       3.0645      1.00000
     39       3.1729      1.00000
     40       3.1845      1.00000
     41       3.1927      1.00000
     42       3.2161      1.00000
     43       3.3991      1.00000
     44       3.4082      1.00000
     45       3.4113      1.00000
     46       3.4132      1.00000
     47       3.4200      1.00000
     48       3.4303      1.00000
     49       3.4349      1.00000
     50       3.4384      1.00000
     51       3.4513      1.00000
     52       3.4652      1.00000
     53       3.4869      1.00000
     54       3.4902      1.00000
     55       3.4975      1.00000
     56       3.5053      1.00000
     57       3.5088      1.00000
     58       3.5113      1.00000
     59       3.5318      1.00000
     60       3.5680      1.00000
     61       3.5888      1.00000
     62       3.5948      1.00000
     63       3.6142      1.00000
     64       3.7127      1.00000
     65       3.7197      1.00000
     66       3.7278      1.00000
     67       3.7368      1.00000
     68       3.7648      1.00000
     69       3.7677      1.00000
     70       3.7740      1.00000
     71       3.7772      1.00000
     72       3.8443      1.00000
     73       3.8746      1.00000
     74       3.9019      1.00000
     75       3.9253      1.00000
     76       4.0597      1.00000
     77       4.0709      1.00000
     78       4.0756      1.00000
     79       4.0826      1.00000
     80       4.0910      1.00000
     81       4.0945      1.00000
     82       4.1266      1.00000
     83       4.1285      1.00000
     84       4.1470      1.00000
     85       4.1530      1.00000
     86       4.1680      1.00000
     87       4.2386      1.00000
     88       4.2427      1.00000
     89       4.4802      1.00000
     90       4.4950      1.00000
     91       4.5092      1.00000
     92       4.5375      1.00000
     93       4.6555      1.00000
     94       4.6740      1.00000
     95       4.6887      1.00000
     96       4.7007      1.00000
     97       4.7435      1.00000
     98       4.8084      1.00000
     99       4.8118      1.00000
    100       4.8643      1.00000
    101       4.8733      1.00000
    102       4.8809      1.00000
    103       4.8925      1.00000
    104       4.9341      1.00000
    105       4.9430      1.00000
    106       4.9526      1.00000
    107       4.9717      1.00000
    108       5.0448      1.00000
    109       5.0946      1.00000
    110       5.1080      1.00000
    111       5.1317      1.00000
    112       5.1451      1.00000
    113       5.1831      1.00000
    114       5.1985      1.00000
    115       5.2040      1.00000
    116       5.2179      1.00000
    117       5.2255      1.00000
    118       5.2274      1.00000
    119       5.2329      1.00000
    120       5.2398      1.00000
    121       5.2608      1.00000
    122       5.2632      1.00000
    123       5.2694      1.00000
    124       5.2788      1.00000
    125       5.2888      1.00000
    126       5.3299      1.00000
    127       5.3651      1.00000
    128       5.3754      1.00000
    129       5.4527      1.00000
    130       5.4630      1.00000
    131       5.4909      1.00000
    132       5.4976      1.00000
    133       5.5066      1.00000
    134       5.5140      1.00000
    135       5.5587      1.00000
    136       5.5643      1.00000
    137       5.5708      1.00000
    138       5.5796      1.00000
    139       5.5829      1.00000
    140       5.5854      1.00000
    141       5.5927      1.00000
    142       5.6059      1.00000
    143       5.6190      1.00000
    144       5.7726      1.00000
    145       5.7812      1.00000
    146       5.7892      1.00000
    147       5.7954      1.00000
    148       5.8351      1.00000
    149       6.0340      1.00000
    150       6.0460      1.00000
    151       6.0580      1.00000
    152       6.0672      1.00000
    153       6.0706      1.00000
    154       6.1121      1.00000
    155       6.1252      1.00000
    156       6.1326      1.00000
    157       6.1427      1.00000
    158       6.2650      1.00000
    159       6.2970      1.00000
    160       6.3092      1.00000
    161       6.3331      1.00000
    162       6.3461      1.00000
    163       6.3574      1.00000
    164       6.3924      1.00000
    165       6.4013      1.00000
    166       6.4125      1.00000
    167       6.5648      1.00000
    168       6.9746     -0.34734
    169       6.9836     -0.39402
    170       6.9880     -0.17271
    171       7.0022     -0.00763
    172       7.1690      0.00000
    173       7.1815      0.00000
    174       7.1916      0.00000
    175       7.1966      0.00000
    176       7.8431      0.00000
    177       7.8636      0.00000
    178       7.8780      0.00000
    179       7.8834      0.00000
    180       8.5816      0.00000
    181       8.8184      0.00000
    182       8.8517      0.00000
    183       8.8578      0.00000
    184       8.8803      0.00000
    185       9.6255      0.00000
    186       9.6299      0.00000
    187      13.0323      0.00000
    188      13.0608      0.00000
    189      13.0654      0.00000
    190      13.0922      0.00000
    191      13.1012      0.00000
    192      13.1413      0.00000
    193      13.3093      0.00000
    194      13.3636      0.00000
    195      13.3828      0.00000
    196      13.4371      0.00000
    197      14.6421      0.00000
    198      14.7004      0.00000
    199      14.7301      0.00000
    200      14.7900      0.00000
    201      16.0419      0.00000
    202      16.0462      0.00000
    203      16.1476      0.00000
    204      16.1965      0.00000

 k-point     3 :       0.4000    0.0000    0.0000
  band No.  band energies     occupation 
      1      -1.4929      1.00000
      2      -0.8737      1.00000
      3       1.0622      1.00000
      4       1.1098      1.00000
      5       1.1277      1.00000
      6       1.1609      1.00000
      7       1.5038      1.00000
      8       1.5435      1.00000
      9       1.5593      1.00000
     10       1.6073      1.00000
     11       1.6808      1.00000
     12       1.7432      1.00000
     13       1.8521      1.00000
     14       1.8619      1.00000
     15       1.8839      1.00000
     16       1.8917      1.00000
     17       1.9067      1.00000
     18       1.9231      1.00000
     19       2.1087      1.00000
     20       2.1131      1.00000
     21       2.1282      1.00000
     22       2.1357      1.00000
     23       2.1839      1.00000
     24       2.2380      1.00000
     25       2.4188      1.00000
     26       2.4486      1.00000
     27       2.4533      1.00000
     28       2.6181      1.00000
     29       2.7054      1.00000
     30       2.7115      1.00000
     31       2.7967      1.00000
     32       2.8102      1.00000
     33       2.8238      1.00000
     34       2.8353      1.00000
     35       3.0220      1.00000
     36       3.0328      1.00000
     37       3.0424      1.00000
     38       3.0526      1.00000
     39       3.1716      1.00000
     40       3.1846      1.00000
     41       3.1958      1.00000
     42       3.2088      1.00000
     43       3.2227      1.00000
     44       3.2328      1.00000
     45       3.2374      1.00000
     46       3.2644      1.00000
     47       3.3173      1.00000
     48       3.3238      1.00000
     49       3.3284      1.00000
     50       3.3490      1.00000
     51       3.3558      1.00000
     52       3.3782      1.00000
     53       3.3881      1.00000
     54       3.4089      1.00000
     55       3.4850      1.00000
     56       3.4929      1.00000
     57       3.5029      1.00000
     58       3.5064      1.00000
     59       3.5752      1.00000
     60       3.5979      1.00000
     61       3.6026      1.00000
     62       3.6240      1.00000
     63       3.7610      1.00000
     64       3.8180      1.00000
     65       3.8462      1.00000
     66       3.8490      1.00000
     67       3.8519      1.00000
     68       3.9612      1.00000
     69       3.9659      1.00000
     70       3.9853      1.00000
     71       4.0006      1.00000
     72       4.0037      1.00000
     73       4.0162      1.00000
     74       4.0288      1.00000
     75       4.0468      1.00000
     76       4.0698      1.00000
     77       4.2026      1.00000
     78       4.2138      1.00000
     79       4.2184      1.00000
     80       4.2261      1.00000
     81       4.2291      1.00000
     82       4.2343      1.00000
     83       4.2426      1.00000
     84       4.2568      1.00000
     85       4.2664      1.00000
     86       4.2728      1.00000
     87       4.2799      1.00000
     88       4.3048      1.00000
     89       4.3600      1.00000
     90       4.3655      1.00000
     91       4.4462      1.00000
     92       4.4644      1.00000
     93       4.4709      1.00000
     94       4.4749      1.00000
     95       4.5530      1.00000
     96       4.5565      1.00000
     97       4.7190      1.00000
     98       4.7273      1.00000
     99       4.8537      1.00000
    100       4.8584      1.00000
[...]
  0.000   0.000   0.000   0.000   0.180   0.000   0.000   0.000   0.000   0.000   0.000   0.000   0.000   0.000   0.000   0.000
  0.000   0.000   0.000   0.000   0.000   0.000   0.000   0.000   0.000   0.000   0.000   0.000   0.000   0.000   0.000   0.000
  0.000   0.000   0.000   0.000   0.000   0.000   0.000   0.000   0.000   0.000   0.000   0.000   0.000   0.000   0.000   0.000
  0.000   0.000   0.000   0.000   0.000   0.000   0.000   0.000   0.000   0.000   0.000   0.000   0.000   0.000   0.000   0.000
  0.000   0.000   0.000   0.000   0.000   0.000   0.000   0.000   0.000   0.000   0.000   0.000   0.000   0.000   0.000   0.000
  0.000   0.000   0.000   0.000   0.000   0.000   0.000   0.000   0.000   0.000   0.000   0.000   0.000   0.000   0.000   0.000
  0.000   0.000   0.000   0.000   0.000   0.000   0.000   0.000   0.000   0.000   0.100   0.000   0.000   0.000   0.000   0.000
  0.000   0.000   0.000   0.000   0.000   0.000   0.000   0.000   0.000   0.000   0.000   0.000   0.000   0.000   0.000   0.000
  0.000   0.000   0.000   0.000   0.000   0.000   0.000   0.000   0.000   0.000   0.000   0.000   0.000   0.000   0.000   0.000
  0.000   0.000   0.000   0.000   0.000   0.000   0.000   0.000   0.000   0.000   0.000   0.000   0.000   0.000   0.000   0.000
  0.000   0.000   0.000   0.000   0.000   0.000   0.000   0.000   0.000   0.000   0.000   0.000   0.000   0.000   0.000   0.000
  0.000   0.000   0.000   0.000   0.000   0.000   0.000   0.000   0.000   0.000   0.000   0.000   0.000   0.000   0.000   0.000
  0.000   0.000   0.000   0.000   0.000   0.000   0.000   0.000   0.000   0.000   0.000   0.000   0.000   0.000   0.000   0.000
  0.000   0.000   0.000   0.000   0.000   0.000   0.000   0.000   0.000   0.000   0.000   0.000   0.000   0.000   0.000   0.000


------------------------ aborting loop because EDIFF is reached ----------------------------------------


 


 total charge     
 
# of ion       s       p       d       tot
------------------------------------------
    1        0.520   0.530   8.315   9.365
    2        0.515   0.520   8.314   9.349
    3        0.514   0.521   8.316   9.351
    4        0.519   0.528   8.317   9.364
    5        0.515   0.522   8.307   9.343
    6        0.517   0.533   8.307   9.357
    7        0.519   0.530   8.311   9.360
    8        0.517   0.528   8.299   9.344
    9        0.478   0.511   6.219   7.208
   10        0.487   0.524   6.241   7.251
   11        0.489   0.529   6.249   7.267
   12        0.479   0.507   6.208   7.194
   13        0.484   0.514   6.209   7.208
   14        0.486   0.524   6.235   7.245
   15        0.474   0.499   6.214   7.187
   16        0.482   0.511   6.211   7.204
   17        0.479   0.509   6.219   7.207
   18        0.480   0.513   6.223   7.216
   19        0.480   0.511   6.226   7.218
   20        0.482   0.514   6.233   7.228
   21        0.479   0.513   6.217   7.209
   22        0.474   0.503   6.226   7.203
   23        0.482   0.517   6.229   7.228
   24        0.489   0.532   6.243   7.264
   25        0.480   0.513   6.204   7.197
   26        0.473   0.501   6.177   7.151
   27        0.480   0.510   6.222   7.212
   28        0.476   0.507   6.221   7.203
   29        0.485   0.525   6.225   7.235
   30        0.484   0.517   6.217   7.218
   31        0.488   0.523   6.221   7.232
   32        0.480   0.515   6.205   7.200
--------------------------------------------------
tot         15.687  16.556 215.779 248.021
 


 magnetization (x)
 
# of ion       s       p       d       tot
------------------------------------------
    1       -0.029  -0.057   0.713   0.628
    2       -0.028  -0.054   0.709   0.627
    3       -0.029  -0.057   0.709   0.623
    4       -0.029  -0.056   0.703   0.618
    5       -0.030  -0.059   0.737   0.648
    6       -0.031  -0.068   0.747   0.648
    7       -0.030  -0.060   0.729   0.639
    8       -0.032  -0.068   0.761   0.661
    9       -0.011  -0.039   2.553   2.503
   10       -0.010  -0.037   2.495   2.447
   11       -0.018  -0.053   2.453   2.383
   12       -0.010  -0.032   2.586   2.545
   13       -0.014  -0.040   2.547   2.493
   14       -0.015  -0.046   2.506   2.445
   15       -0.013  -0.040   2.566   2.513
   16       -0.010  -0.032   2.583   2.541
   17       -0.011  -0.038   2.553   2.505
   18       -0.013  -0.042   2.536   2.481
   19       -0.013  -0.041   2.521   2.467
   20       -0.009  -0.031   2.533   2.493
   21       -0.013  -0.043   2.582   2.526
   22       -0.011  -0.040   2.553   2.502
   23       -0.015  -0.046   2.519   2.458
   24       -0.015  -0.050   2.489   2.424
   25       -0.012  -0.039   2.600   2.549
   26       -0.008  -0.032   2.673   2.633
   27       -0.012  -0.037   2.553   2.504
   28       -0.012  -0.044   2.570   2.514
   29       -0.015  -0.048   2.553   2.490
   30       -0.013  -0.040   2.541   2.489
   31       -0.015  -0.039   2.542   2.488
   32       -0.017  -0.051   2.581   2.514
--------------------------------------------------
tot         -0.541  -1.458  66.997  64.997
 
    CHARGE:  cpu time    1.6627: real time    1.6837
    FORLOC:  cpu time    0.0100: real time    0.0095
    FORNL :  cpu time   17.2234: real time   17.4312
    STRESS:  cpu time   52.1761: real time   52.3920
    FORCOR:  cpu time    0.0830: real time    0.0832
    FORHAR:  cpu time    0.0170: real time    0.0171
    OFIELD:  cpu time    0.0010: real time    0.0005

  FORCE on cell =-STRESS in cart. coord.  units (eV):
  Direction    XX          YY          ZZ          XY          YZ          ZX
  --------------------------------------------------------------------------------------
  Alpha Z  1846.49885  1846.49885  1846.49885
  Ewald   -7175.43523 -7067.74466 -7116.53242     2.18733     0.65674     0.28087
  Hartree  1404.21529  1504.73202  1459.41693     1.33220     1.77121     0.32528
  E(xc)   -1396.42666 -1396.24934 -1396.25080     0.01431    -0.00183    -0.07716
  Local    1297.90639  1093.68937  1185.97480    -2.68087    -3.08808    -0.40912
  n-local  -671.71258  -671.04035  -671.45883    -0.19802    -0.01753    -0.48203
  augment  2342.15303  2338.49550  2340.01689    -0.43373     0.41808    -0.17231
  Kinetic  2368.96185  2364.49969  2364.73094     0.18182     0.20838     0.57795
  Fock        0.00000     0.00000     0.00000     0.00000     0.00000     0.00000
  -------------------------------------------------------------------------------------
  Total      16.16094    12.88107    12.39638     0.40304    -0.05303     0.04346
  in kB      70.83682    56.46046    54.33596     1.76659    -0.23246     0.19051
  external pressure =       60.54 kB  Pullay stress =        0.00 kB


 VOLUME and BASIS-vectors are now :
 -----------------------------------------------------------------------------
  energy-cutoff  :      520.00
  volume of cell :      365.53
      direct lattice vectors                 reciprocal lattice vectors
     7.150000000  0.000000000  0.000000000     0.139860140  0.000000000  0.000000000
     0.000000000  7.150000000  0.000000000     0.000000000  0.139860140  0.000000000
     0.000000000  0.000000000  7.150000000     0.000000000  0.000000000  0.139860140

  length of vectors
     7.150000000  7.150000000  7.150000000     0.139860140  0.139860140  0.139860140


 FORCES acting on ions
    electron-ion (+dipol)            ewald-force                    non-local-force                 convergence-correction
 -----------------------------------------------------------------------------------------------
   -.898E+00 0.423E+02 0.746E+02   0.163E+01 -.426E+02 -.754E+02   -.614E-01 0.113E+00 0.444E+00   -.636E+00 0.107E+00 0.511E+00
   -.245E+02 -.229E+02 -.673E+02   0.250E+02 0.226E+02 0.680E+02   -.228E+00 -.324E-01 -.304E+00   -.386E+00 0.382E+00 -.361E+00
   -.954E+02 0.383E+01 -.455E+02   0.964E+02 -.396E+01 0.459E+02   -.486E+00 0.155E-01 -.147E+00   -.685E+00 0.274E+00 -.262E+00
   -.157E+01 -.449E+02 0.341E+02   0.206E+01 0.452E+02 -.349E+02   0.916E-03 -.179E+00 0.223E+00   -.472E+00 -.108E+00 0.667E+00
   0.265E+02 0.261E+02 -.812E+02   -.260E+02 -.257E+02 0.819E+02   0.362E-01 0.811E-01 -.431E+00   -.517E+00 -.408E+00 -.259E+00
   -.611E+02 -.152E+02 0.467E+02   0.618E+02 0.152E+02 -.472E+02   -.332E+00 -.112E+00 0.254E+00   -.562E+00 -.443E-01 0.336E+00
   0.119E+03 -.339E+01 0.300E+02   -.120E+03 0.312E+01 -.305E+02   0.543E+00 0.331E-01 0.146E+00   0.647E+00 0.256E+00 0.447E+00
   0.768E+02 -.383E+01 -.318E+02   -.778E+02 0.363E+01 0.324E+02   0.377E+00 -.214E-01 -.235E+00   0.533E+00 0.225E+00 -.457E+00
   0.237E+01 0.440E+02 -.675E+02   -.175E+01 -.441E+02 0.684E+02   -.132E+00 0.117E+00 -.721E+00   -.498E+00 -.594E-02 -.416E+00
   -.133E+02 0.160E+02 0.565E+02   0.139E+02 -.163E+02 -.572E+02   -.166E+00 0.288E+00 0.533E+00   -.531E+00 0.219E+00 0.301E+00
   -.538E+02 0.998E+01 0.424E+02   0.544E+02 -.990E+01 -.429E+02   -.238E+00 0.488E-02 0.207E+00   -.432E+00 0.803E-02 0.226E+00
   -.104E+03 -.163E+01 0.244E+02   0.105E+03 0.131E+01 -.249E+02   -.627E+00 -.798E-01 0.228E+00   -.500E+00 0.294E+00 0.556E+00
   -.887E+02 -.231E+01 -.416E+02   0.897E+02 0.238E+01 0.422E+02   -.668E+00 -.611E-01 -.373E+00   -.629E+00 -.192E+00 -.234E+00
   0.429E+01 0.148E+02 0.365E+02   -.488E+01 -.147E+02 -.370E+02   0.483E-01 0.309E+00 0.924E-01   0.492E+00 0.969E-01 0.269E+00
   0.154E+02 -.296E+02 -.186E+02   -.160E+02 0.295E+02 0.189E+02   0.260E+00 -.814E-01 -.224E-01   0.294E+00 0.240E+00 -.201E+00
   0.817E+02 0.469E+02 -.444E+02   -.827E+02 -.472E+02 0.448E+02   0.788E+00 0.414E+00 -.244E+00   0.553E+00 0.920E-01 -.200E+00
   0.800E+00 -.470E+02 -.247E+02   -.424E+00 0.471E+02 0.254E+02   0.747E-02 -.810E-01 -.321E+00   -.387E+00 0.190E-01 -.518E+00
   0.220E+02 -.190E+02 0.645E+02   -.215E+02 0.193E+02 -.653E+02   0.149E+00 -.215E+00 0.588E+00   -.577E+00 -.200E+00 0.226E+00
   -.630E+02 -.212E+01 -.229E+02   0.637E+02 0.183E+01 0.234E+02   -.176E+00 0.338E-01 -.247E+00   -.436E+00 0.267E+00 -.560E+00
   -.770E+02 0.812E+01 0.336E+02   0.777E+02 -.789E+01 -.342E+02   -.651E+00 0.103E-01 0.244E+00   -.512E+00 -.296E+00 0.367E+00
   -.831E+01 0.168E+02 -.388E+02   0.786E+01 -.166E+02 0.393E+02   0.897E-01 0.246E+00 -.160E+00   0.454E+00 0.227E-01 -.293E+00
   0.248E+02 0.181E+02 0.184E+02   -.256E+02 -.183E+02 -.187E+02   0.150E+00 0.148E+00 0.774E-02   0.554E+00 0.149E+00 0.206E+00
   0.158E+01 -.150E+02 -.133E+02   -.204E+01 0.150E+02 0.132E+02   0.190E-02 -.313E+00 -.140E+00   0.378E+00 -.104E+00 0.325E+00
   -.309E+02 0.341E+02 -.230E+02   0.307E+02 -.341E+02 0.232E+02   -.878E-01 0.372E-01 -.490E-01   0.347E+00 -.206E+00 -.136E+00
   0.568E+02 0.539E+02 0.486E+02   -.572E+02 -.542E+02 -.491E+02   0.849E-01 0.427E+00 0.154E+00   0.371E+00 -.302E-01 0.225E+00
   0.963E+02 -.467E+02 -.481E+02   -.972E+02 0.469E+02 0.485E+02   0.455E+00 -.426E+00 -.133E+00   0.570E+00 -.891E-01 -.177E+00
   -.317E+02 0.399E+01 -.315E+02   0.320E+02 -.378E+01 0.321E+02   -.316E+00 0.134E-01 -.236E+00   -.465E+00 -.245E+00 -.397E+00
   -.109E+02 -.157E+02 0.187E+02   0.105E+02 0.156E+02 -.185E+02   0.116E+00 -.260E+00 0.137E+00   0.373E+00 -.509E-01 -.341E+00
   -.277E+02 -.222E+02 0.225E+02   0.272E+02 0.225E+02 -.228E+02   -.401E-02 -.484E-01 0.422E-02   0.528E+00 -.165E+00 0.184E+00
   0.512E+02 -.560E+02 0.453E+02   -.519E+02 0.564E+02 -.458E+02   0.258E+00 -.429E+00 0.181E+00   0.467E+00 0.119E-01 0.274E+00
   0.766E+02 0.445E+01 0.324E+02   -.775E+02 -.434E+01 -.328E+02   0.769E+00 0.300E-01 0.329E+00   0.556E+00 -.168E+00 0.192E+00
   0.364E+02 0.390E+01 -.293E+02   -.369E+02 -.377E+01 0.297E+02   0.317E+00 -.362E-02 -.226E+00   0.501E+00 -.158E+00 -.249E+00
 -----------------------------------------------------------------------------------------------
   0.335E+00 -.169E+00 -.346E-01   0.654E-12 -.171E-12 0.103E-12   0.276E+00 -.211E-01 -.215E+00   -.608E+00 0.193E+00 0.248E+00
 
 
 POSITION                                       TOTAL-FORCE (eV/Angst)
 -----------------------------------------------------------------------------------
      7.14178      0.00039      3.58102         0.036473     -0.080193      0.215187
      0.01694      1.80028      5.35542        -0.091129      0.009685     -0.024590
      1.78494      7.14965      5.36038        -0.248301      0.159259     -0.007629
      7.14932      3.57172      3.56458         0.020701      0.028315      0.101850
      7.13493      5.37005      5.32730         0.022590      0.033238      0.040557
      1.78866      3.56825      1.81205        -0.212541     -0.095133      0.069183
      5.40579      1.78974      3.57696        -0.000855      0.009848      0.087772
      5.39643      1.78689      7.14224        -0.027821     -0.003278     -0.106635
      7.14201      0.00630      7.11598        -0.010744     -0.028063     -0.211351
      0.03504      1.77183      1.79336        -0.172279      0.233136      0.150725
      1.76434      7.13097      1.80663        -0.054661      0.096953     -0.116942
      1.73581      1.77929      3.56795         0.158379     -0.101241      0.287159
      1.76531      3.60473      5.33017        -0.255035     -0.184594     -0.033099
      3.59620      0.00788      3.59761        -0.043084      0.478679     -0.111547
      3.56240      1.79883      5.36934        -0.025049      0.052101      0.000491
      5.37213      0.02397      5.34104         0.364901      0.244093     -0.064482
      7.14530      3.55395      0.00580        -0.002815      0.082307     -0.084077
      7.14502      5.33892      1.80692         0.134066     -0.088417      0.056167
      1.75161      1.79015      0.01452         0.151140      0.012843     -0.297187
      1.78247      5.39338      3.58649        -0.513643     -0.051363      0.077793
      3.56627      7.13179      7.13140         0.094422      0.408633      0.053977
      3.60307      1.75642      1.78612        -0.138632      0.054295     -0.017200
      3.58192      3.57671      3.56384        -0.071775     -0.436813      0.041622
      3.54953      5.38679      5.34453         0.115737     -0.163201      0.006220
      5.41315      0.01448      1.81103         0.022145      0.010944     -0.067089
      5.40000      3.57256      5.33245         0.160769     -0.261871      0.033032
      1.78570      5.36098      7.14242        -0.485988     -0.023304     -0.035105
      3.55376      3.59738      0.03018         0.095872     -0.404328     -0.050365
      3.55888      5.36046      1.81226         0.067616      0.070837     -0.053595
      5.37885      3.52891      1.80942         0.076912     -0.010801     -0.037630
      5.34708      5.36587      3.58067         0.500983     -0.021822      0.186892
      5.34537      5.36048      7.14990         0.331644     -0.030745     -0.090102
 -----------------------------------------------------------------------------------
    total drift:                                0.003589      0.002006     -0.001823


--------------------------------------------------------------------------------------------------------



  FREE ENERGIE OF THE ION-ELECTRON SYSTEM (eV)
  ---------------------------------------------------
  free  energy   TOTEN  =      -239.39168665 eV

  energy  without entropy=     -239.39168665  energy(sigma->0) =     -239.39168665
 


--------------------------------------------------------------------------------------------------------


    POTLOK:  cpu time    0.0950: real time    0.0955


--------------------------------------------------------------------------------------------------------


     LOOP+:  cpu time  651.6979: real time  654.1427
    4ORBIT:  cpu time    0.0000: real time    0.0000
 


 total charge     
 
# of ion       s       p       d       tot
------------------------------------------
    1        0.520   0.530   8.315   9.365
    2        0.515   0.520   8.314   9.349
    3        0.514   0.521   8.316   9.351
    4        0.519   0.528   8.317   9.364
    5        0.515   0.522   8.307   9.343
    6        0.517   0.533   8.307   9.357
    7        0.519   0.530   8.311   9.360
    8        0.517   0.528   8.299   9.344
    9        0.478   0.511   6.219   7.208
   10        0.487   0.524   6.241   7.251
   11        0.489   0.529   6.249   7.267
   12        0.479   0.507   6.208   7.194
   13        0.484   0.514   6.209   7.208
   14        0.486   0.524   6.235   7.245
   15        0.474   0.499   6.214   7.187
   16        0.482   0.511   6.211   7.204
   17        0.479   0.509   6.219   7.207
   18        0.480   0.513   6.223   7.216
   19        0.480   0.511   6.226   7.218
   20        0.482   0.514   6.233   7.228
   21        0.479   0.513   6.217   7.209
   22        0.474   0.503   6.226   7.203
   23        0.482   0.517   6.229   7.228
   24        0.489   0.532   6.243   7.264
   25        0.480   0.513   6.204   7.197
   26        0.473   0.501   6.177   7.151
   27        0.480   0.510   6.222   7.212
   28        0.476   0.507   6.221   7.203
   29        0.485   0.525   6.225   7.235
   30        0.484   0.517   6.217   7.218
   31        0.488   0.523   6.221   7.232
   32        0.480   0.515   6.205   7.200
--------------------------------------------------
tot         15.687  16.556 215.779 248.021
 


 magnetization (x)
 
# of ion       s       p       d       tot
------------------------------------------
    1       -0.029  -0.057   0.713   0.628
    2       -0.028  -0.054   0.709   0.627
    3       -0.029  -0.057   0.709   0.623
    4       -0.029  -0.056   0.703   0.618
    5       -0.030  -0.059   0.737   0.648
    6       -0.031  -0.068   0.747   0.648
    7       -0.030  -0.060   0.729   0.639
    8       -0.032  -0.068   0.761   0.661
    9       -0.011  -0.039   2.553   2.503
   10       -0.010  -0.037   2.495   2.447
   11       -0.018  -0.053   2.453   2.383
   12       -0.010  -0.032   2.586   2.545
   13       -0.014  -0.040   2.547   2.493
   14       -0.015  -0.046   2.506   2.445
   15       -0.013  -0.040   2.566   2.513
   16       -0.010  -0.032   2.583   2.541
   17       -0.011  -0.038   2.553   2.505
   18       -0.013  -0.042   2.536   2.481
   19       -0.013  -0.041   2.521   2.467
   20       -0.009  -0.031   2.533   2.493
   21       -0.013  -0.043   2.582   2.526
   22       -0.011  -0.040   2.553   2.502
   23       -0.015  -0.046   2.519   2.458
   24       -0.015  -0.050   2.489   2.424
   25       -0.012  -0.039   2.600   2.549
   26       -0.008  -0.032   2.673   2.633
   27       -0.012  -0.037   2.553   2.504
   28       -0.012  -0.044   2.570   2.514
   29       -0.015  -0.048   2.553   2.490
   30       -0.013  -0.040   2.541   2.489
   31       -0.015  -0.039   2.542   2.488
   32       -0.017  -0.051   2.581   2.514
--------------------------------------------------
tot         -0.541  -1.458  66.997  64.997
 
 BZINTS: Fermi energy:  6.619684;272.000000 electrons
         Band energy:1170.098417;  BLOECHL correction: -0.089196

 total amount of memory used by VASP MPI-rank0   227937. kBytes
=======================================================================

   base      :      30000. kBytes
   nonlr-proj:       7915. kBytes
   fftplans  :       2563. kBytes
   grid      :       6379. kBytes
   one-center:        124. kBytes
   wavefun   :     180956. kBytes
 
  
  
 General timing and accounting informations for this job:
 ========================================================
  
                  Total CPU time used (sec):      696.322
                            User time (sec):      681.178
                          System time (sec):       15.144
                         Elapsed time (sec):      698.937
  
                   Maximum memory used (kb):      324132.
                   Average memory used (kb):           0.
  
                          Minor page faults:        16806
                          Major page faults:            0
                 Voluntary context switches:         1777
