  69  69   1   0
  0.2839954E+02  0.9929500E-09  0.9929500E-09  0.2108055E-08  0.1500000E-16
  1.000000000000000E-004
  CAR 
 SQS-NiFe                                
      1.72951689    -22.36213176  301     -0.81187881      1.00000000
    -22.362  0.0000E+00  0.0000E+00
    -22.282  0.0000E+00  0.0000E+00
    -22.202  0.0000E+00  0.0000E+00
    -22.121  0.0000E+00  0.0000E+00
    -22.041  0.0000E+00  0.0000E+00
    -21.961  0.0000E+00  0.0000E+00
    -21.880  0.0000E+00  0.0000E+00
    -21.800  0.0000E+00  0.0000E+00
    -21.720  0.0000E+00  0.0000E+00
    -21.639  0.0000E+00  0.0000E+00
    -21.559  0.0000E+00  0.0000E+00
    -21.479  0.4155E-16  0.3337E-17
    -21.398  0.3321E-14  0.2700E-15
    -21.318  0.1951E-12  0.1594E-13
    -21.238  0.8338E-11  0.6855E-12
    -21.158  0.2594E-09  0.2152E-10
    -21.077  0.5877E-08  0.4935E-09
    -20.997  0.9702E-07  0.8285E-08
    -20.917  0.1168E-05  0.1021E-06
    -20.836  0.1026E-04  0.9258E-06
    -20.756  0.6584E-04  0.6213E-05
    -20.676  0.3098E-03  0.3109E-04
    -20.595  0.1075E-02  0.1175E-03
    -20.515  0.2797E-02  0.3421E-03
    -20.435  0.5636E-02  0.7947E-03
    -20.354  0.9370E-02  0.1547E-02
    -20.274  0.1392E-01  0.2665E-02
    -20.194  0.1919E-01  0.4206E-02
    -20.114  0.2366E-01  0.6106E-02
    -20.033  0.2442E-01  0.8066E-02
    -19.953  0.2020E-01  0.9689E-02
    -19.873  0.1313E-01  0.1074E-01
    -19.792  0.6630E-02  0.1128E-01
    -19.712  0.2579E-02  0.1148E-01
    -19.632  0.7660E-03  0.1154E-01
    -19.551  0.1720E-03  0.1156E-01
    -19.471  0.2893E-04  0.1156E-01
    -19.391  0.3620E-05  0.1156E-01
    -19.311  0.3350E-06  0.1156E-01
    -19.230  0.2282E-07  0.1156E-01
    -19.150  0.1141E-08  0.1156E-01
    -19.070  0.4175E-10  0.1156E-01
    -18.989  0.1116E-11  0.1156E-01
    -18.909  0.2178E-13  0.1156E-01
    -18.829  0.3069E-15  0.1156E-01
    -18.748  0.3197E-17  0.1156E-01
    -18.668  0.0000E+00  0.1156E-01
    -18.588  0.0000E+00  0.1156E-01
    -18.507  0.0000E+00  0.1156E-01
    -18.427  0.0000E+00  0.1156E-01
    -18.347  0.0000E+00  0.1156E-01
    -18.267  0.0000E+00  0.1156E-01
    -18.186  0.0000E+00  0.1156E-01
    -18.106  0.0000E+00  0.1156E-01
    -18.026  0.0000E+00  0.1156E-01
    -17.945  0.0000E+00  0.1156E-01
    -17.865  0.0000E+00  0.1156E-01
    -17.785  0.0000E+00  0.1156E-01
    -17.704  0.0000E+00  0.1156E-01
    -17.624  0.0000E+00  0.1156E-01
    -17.544  0.0000E+00  0.1156E-01
    -17.463  0.0000E+00  0.1156E-01
    -17.383  0.0000E+00  0.1156E-01
    -17.303  0.0000E+00  0.1156E-01
    -17.223  0.0000E+00  0.1156E-01
    -17.142  0.0000E+00  0.1156E-01
    -17.062  0.0000E+00  0.1156E-01
    -16.982  0.0000E+00  0.1156E-01
    -16.901  0.0000E+00  0.1156E-01
    -16.821  0.0000E+00  0.1156E-01
    -16.741  0.0000E+00  0.1156E-01
    -16.660  0.0000E+00  0.1156E-01
    -16.580  0.0000E+00  0.1156E-01
    -16.500  0.0000E+00  0.1156E-01
    -16.420  0.0000E+00  0.1156E-01
    -16.339  0.0000E+00  0.1156E-01
    -16.259  0.0000E+00  0.1156E-01
    -16.179  0.0000E+00  0.1156E-01
    -16.098  0.0000E+00  0.1156E-01
    -16.018  0.0000E+00  0.1156E-01
    -15.938  0.0000E+00  0.1156E-01
    -15.857  0.0000E+00  0.1156E-01
    -15.777  0.0000E+00  0.1156E-01
    -15.697  0.0000E+00  0.1156E-01
    -15.616  0.0000E+00  0.1156E-01
    -15.536  0.0000E+00  0.1156E-01
    -15.456  0.0000E+00  0.1156E-01
    -15.376  0.0000E+00  0.1156E-01
    -15.295  0.0000E+00  0.1156E-01
    -15.215  0.0000E+00  0.1156E-01
    -15.135  0.0000E+00  0.1156E-01
    -15.054  0.0000E+00  0.1156E-01
    -14.974  0.0000E+00  0.1156E-01
    -14.894  0.0000E+00  0.1156E-01
    -14.813  0.0000E+00  0.1156E-01
    -14.733  0.0000E+00  0.1156E-01
    -14.653  0.0000E+00  0.1156E-01
    -14.572  0.0000E+00  0.1156E-01
    -14.492  0.0000E+00  0.1156E-01
    -14.412  0.0000E+00  0.1156E-01
    -14.332  0.0000E+00  0.1156E-01
    -14.251  0.0000E+00  0.1156E-01
    -14.171  0.0000E+00  0.1156E-01
    -14.091  0.0000E+00  0.1156E-01
    -14.010  0.0000E+00  0.1156E-01
    -13.930  0.0000E+00  0.1156E-01
    -13.850  0.0000E+00  0.1156E-01
    -13.769  0.0000E+00  0.1156E-01
    -13.689  0.0000E+00  0.1156E-01
    -13.609  0.0000E+00  0.1156E-01
    -13.529  0.0000E+00  0.1156E-01
    -13.448  0.0000E+00  0.1156E-01
    -13.368  0.0000E+00  0.1156E-01
    -13.288  0.0000E+00  0.1156E-01
    -13.207  0.0000E+00  0.1156E-01
    -13.127  0.0000E+00  0.1156E-01
    -13.047  0.0000E+00  0.1156E-01
    -12.966  0.0000E+00  0.1156E-01
    -12.886  0.0000E+00  0.1156E-01
    -12.806  0.0000E+00  0.1156E-01
    -12.725  0.0000E+00  0.1156E-01
    -12.645  0.0000E+00  0.1156E-01
    -12.565  0.0000E+00  0.1156E-01
    -12.485  0.0000E+00  0.1156E-01
    -12.404  0.0000E+00  0.1156E-01
    -12.324  0.0000E+00  0.1156E-01
    -12.244  0.0000E+00  0.1156E-01
    -12.163  0.0000E+00  0.1156E-01
    -12.083  0.0000E+00  0.1156E-01
    -12.003  0.0000E+00  0.1156E-01
    -11.922  0.0000E+00  0.1156E-01
    -11.842  0.0000E+00  0.1156E-01
    -11.762  0.0000E+00  0.1156E-01
    -11.682  0.0000E+00  0.1156E-01
    -11.601  0.0000E+00  0.1156E-01
    -11.521  0.0000E+00  0.1156E-01
    -11.441  0.0000E+00  0.1156E-01
    -11.360  0.0000E+00  0.1156E-01
    -11.280  0.0000E+00  0.1156E-01
    -11.200  0.0000E+00  0.1156E-01
    -11.119  0.0000E+00  0.1156E-01
    -11.039  0.0000E+00  0.1156E-01
    -10.959  0.0000E+00  0.1156E-01
    -10.878  0.0000E+00  0.1156E-01
    -10.798  0.0000E+00  0.1156E-01
    -10.718  0.0000E+00  0.1156E-01
    -10.638  0.0000E+00  0.1156E-01
    -10.557  0.0000E+00  0.1156E-01
    -10.477  0.0000E+00  0.1156E-01
    -10.397  0.0000E+00  0.1156E-01
    -10.316  0.0000E+00  0.1156E-01
    -10.236  0.0000E+00  0.1156E-01
    -10.156  0.0000E+00  0.1156E-01
    -10.075  0.0000E+00  0.1156E-01
     -9.995  0.0000E+00  0.1156E-01
     -9.915  0.0000E+00  0.1156E-01
     -9.834  0.0000E+00  0.1156E-01
     -9.754  0.3197E-17  0.1156E-01
     -9.674  0.2653E-15  0.1156E-01
     -9.594  0.1878E-13  0.1156E-01
     -9.513  0.9663E-12  0.1156E-01
     -9.433  0.3618E-10  0.1156E-01
     -9.353  0.9866E-09  0.1156E-01
     -9.272  0.1959E-07  0.1156E-01
     -9.192  0.2835E-06  0.1156E-01
     -9.112  0.2991E-05  0.1156E-01
     -9.031  0.2301E-04  0.1156E-01
     -8.951  0.1292E-03  0.1157E-01
     -8.871  0.5292E-03  0.1162E-01
     -8.791  0.1583E-02  0.1174E-01
     -8.710  0.3459E-02  0.1202E-01
     -8.630  0.5520E-02  0.1246E-01
     -8.550  0.6436E-02  0.1298E-01
     -8.469  0.5482E-02  0.1342E-01
     -8.389  0.3412E-02  0.1369E-01
     -8.309  0.1551E-02  0.1382E-01
     -8.228  0.5149E-03  0.1386E-01
     -8.148  0.1248E-03  0.1387E-01
     -8.068  0.2208E-04  0.1387E-01
     -7.987  0.2857E-05  0.1387E-01
     -7.907  0.3764E-06  0.1387E-01
     -7.827  0.1344E-05  0.1387E-01
     -7.747  0.1202E-04  0.1387E-01
     -7.666  0.8105E-04  0.1388E-01
     -7.586  0.4098E-03  0.1391E-01
     -7.506  0.1571E-02  0.1404E-01
     -7.425  0.4627E-02  0.1441E-01
     -7.345  0.1060E-01  0.1526E-01
     -7.265  0.1909E-01  0.1680E-01
     -7.184  0.2727E-01  0.1899E-01
     -7.104  0.3131E-01  0.2150E-01
     -7.024  0.2983E-01  0.2389E-01
     -6.943  0.2531E-01  0.2593E-01
     -6.863  0.2140E-01  0.2765E-01
     -6.783  0.2007E-01  0.2926E-01
     -6.703  0.2203E-01  0.3103E-01
     -6.622  0.2771E-01  0.3325E-01
     -6.542  0.3622E-01  0.3616E-01
     -6.462  0.4477E-01  0.3976E-01
     -6.381  0.5054E-01  0.4381E-01
     -6.301  0.5228E-01  0.4801E-01
     -6.221  0.4974E-01  0.5201E-01
     -6.140  0.4338E-01  0.5549E-01
     -6.060  0.3482E-01  0.5829E-01
     -5.980  0.2620E-01  0.6039E-01
     -5.900  0.1911E-01  0.6193E-01
     -5.819  0.1432E-01  0.6308E-01
     -5.739  0.1211E-01  0.6405E-01
     -5.659  0.1291E-01  0.6509E-01
     -5.578  0.1730E-01  0.6647E-01
     -5.498  0.2418E-01  0.6842E-01
     -5.418  0.2991E-01  0.7082E-01
     -5.337  0.3103E-01  0.7331E-01
     -5.257  0.2785E-01  0.7555E-01
     -5.177  0.2450E-01  0.7751E-01
     -5.096  0.2553E-01  0.7956E-01
     -5.016  0.3255E-01  0.8218E-01
     -4.936  0.4282E-01  0.8562E-01
     -4.856  0.5035E-01  0.8966E-01
     -4.775  0.5017E-01  0.9369E-01
     -4.695  0.4324E-01  0.9716E-01
     -4.615  0.3610E-01  0.1001E+00
     -4.534  0.3552E-01  0.1029E+00
     -4.454  0.4477E-01  0.1065E+00
     -4.374  0.6368E-01  0.1116E+00
     -4.293  0.8903E-01  0.1188E+00
     -4.213  0.1146E+00  0.1280E+00
     -4.133  0.1327E+00  0.1386E+00
     -4.052  0.1373E+00  0.1497E+00
     -3.972  0.1280E+00  0.1599E+00
     -3.892  0.1107E+00  0.1688E+00
     -3.812  0.9258E-01  0.1763E+00
     -3.731  0.7741E-01  0.1825E+00
     -3.651  0.6792E-01  0.1879E+00
     -3.571  0.6925E-01  0.1935E+00
     -3.490  0.8702E-01  0.2005E+00
     -3.410  0.1203E+00  0.2101E+00
     -3.330  0.1582E+00  0.2228E+00
     -3.249  0.1854E+00  0.2377E+00
     -3.169  0.1932E+00  0.2533E+00
     -3.089  0.1834E+00  0.2680E+00
     -3.009  0.1643E+00  0.2812E+00
     -2.928  0.1465E+00  0.2929E+00
     -2.848  0.1391E+00  0.3041E+00
     -2.768  0.1433E+00  0.3156E+00
     -2.687  0.1524E+00  0.3279E+00
     -2.607  0.1572E+00  0.3405E+00
     -2.527  0.1524E+00  0.3527E+00
     -2.446  0.1418E+00  0.3641E+00
     -2.366  0.1358E+00  0.3750E+00
     -2.286  0.1401E+00  0.3863E+00
     -2.205  0.1488E+00  0.3982E+00
     -2.125  0.1533E+00  0.4105E+00
     -2.045  0.1520E+00  0.4227E+00
     -1.965  0.1468E+00  0.4345E+00
     -1.884  0.1361E+00  0.4455E+00
     -1.804  0.1178E+00  0.4549E+00
     -1.724  0.9532E-01  0.4626E+00
     -1.643  0.7722E-01  0.4688E+00
     -1.563  0.7095E-01  0.4745E+00
     -1.483  0.7939E-01  0.4809E+00
     -1.402  0.1015E+00  0.4890E+00
     -1.322  0.1334E+00  0.4997E+00
     -1.242  0.1694E+00  0.5133E+00
     -1.161  0.2049E+00  0.5298E+00
     -1.081  0.2389E+00  0.5490E+00
     -1.001  0.2695E+00  0.5706E+00
     -0.921  0.2911E+00  0.5940E+00
     -0.840  0.3001E+00  0.6181E+00
     -0.760  0.2977E+00  0.6420E+00
     -0.680  0.2875E+00  0.6651E+00
     -0.599  0.2712E+00  0.6868E+00
     -0.519  0.2479E+00  0.7068E+00
     -0.439  0.2144E+00  0.7240E+00
     -0.358  0.1689E+00  0.7375E+00
     -0.278  0.1159E+00  0.7468E+00
     -0.198  0.6683E-01  0.7522E+00
     -0.118  0.3154E-01  0.7547E+00
     -0.037  0.1195E-01  0.7557E+00
      0.043  0.3582E-02  0.7560E+00
      0.123  0.8365E-03  0.7561E+00
      0.204  0.1502E-03  0.7561E+00
      0.284  0.2049E-04  0.7561E+00
      0.364  0.2102E-05  0.7561E+00
      0.445  0.1608E-06  0.7561E+00
      0.525  0.9117E-08  0.7561E+00
      0.605  0.3813E-09  0.7561E+00
      0.686  0.1172E-10  0.7561E+00
      0.766  0.2643E-12  0.7561E+00
      0.846  0.4350E-14  0.7561E+00
      0.926  0.5114E-16  0.7561E+00
      1.007  0.0000E+00  0.7561E+00
      1.087  0.0000E+00  0.7561E+00
      1.167  0.0000E+00  0.7561E+00
      1.248  0.0000E+00  0.7561E+00
      1.328  0.0000E+00  0.7561E+00
      1.408  0.0000E+00  0.7561E+00
      1.489  0.0000E+00  0.7561E+00
      1.569  0.0000E+00  0.7561E+00
      1.649  0.0000E+00  0.7561E+00
      1.730  0.0000E+00  0.7561E+00
      1.72951689    -22.36213176  301     -0.81187881      1.00000000
    -22.362  0.0000E+00  0.0000E+00  0.0000E+00
    -22.282  0.0000E+00  0.0000E+00  0.0000E+00
    -22.202  0.0000E+00  0.0000E+00  0.0000E+00
    -22.121  0.0000E+00  0.0000E+00  0.0000E+00
    -22.041  0.0000E+00  0.0000E+00  0.0000E+00
    -21.961  0.0000E+00  0.0000E+00  0.0000E+00
    -21.880  0.0000E+00  0.0000E+00  0.0000E+00
    -21.800  0.0000E+00  0.0000E+00  0.0000E+00
    -21.720  0.0000E+00  0.0000E+00  0.0000E+00
    -21.639  0.0000E+00  0.0000E+00  0.0000E+00
    -21.559  0.0000E+00  0.0000E+00  0.0000E+00
    -21.479  0.5330E-24  0.3795E-24  0.5627E-24
    -21.398  0.4260E-22  0.3033E-22  0.4497E-22
    -21.318  0.2502E-20  0.1782E-20  0.2642E-20
    -21.238  0.1069E-18  0.7614E-19  0.1129E-18
    -21.158  0.3327E-17  0.2369E-17  0.3512E-17
    -21.077  0.7536E-16  0.5366E-16  0.7957E-16
    -20.997  0.1244E-14  0.8857E-15  0.1314E-14
    -20.917  0.1497E-13  0.1066E-13  0.1581E-13
    -20.836  0.1313E-12  0.9350E-13  0.1388E-12
    -20.756  0.8403E-12  0.5987E-12  0.8896E-12
    -20.676  0.3927E-11  0.2801E-11  0.4174E-11
    -20.595  0.1341E-10  0.9591E-11  0.1440E-10
    -20.515  0.3357E-10  0.2417E-10  0.3690E-10
    -20.435  0.6206E-10  0.4549E-10  0.7204E-10
    -20.354  0.8664E-10  0.6634E-10  0.1129E-09
    -20.274  0.9699E-10  0.8135E-10  0.1539E-09
    -20.194  0.9826E-10  0.9410E-10  0.1950E-09
    -20.114  0.1012E-09  0.1073E-09  0.2266E-09
    -20.033  0.1022E-09  0.1113E-09  0.2257E-09
    -19.953  0.8906E-10  0.9498E-10  0.1823E-09
    -19.873  0.6129E-10  0.6308E-10  0.1163E-09
    -19.792  0.3215E-10  0.3193E-10  0.5782E-10
    -19.712  0.1270E-10  0.1222E-10  0.2224E-10
    -19.632  0.3764E-11  0.3526E-11  0.6560E-11
    -19.551  0.8336E-12  0.7642E-12  0.1468E-11
    -19.471  0.1376E-12  0.1240E-12  0.2469E-12
    -19.391  0.1687E-13  0.1501E-13  0.3092E-13
    -19.311  0.1532E-14  0.1349E-14  0.2867E-14
    -19.230  0.1027E-15  0.8974E-16  0.1957E-15
    -19.150  0.5063E-17  0.4401E-17  0.9805E-17
    -19.070  0.1832E-18  0.1586E-18  0.3594E-18
    -18.989  0.4857E-20  0.4192E-20  0.9624E-20
    -18.909  0.9414E-22  0.8109E-22  0.1880E-21
    -18.829  0.1318E-23  0.1132E-23  0.2651E-23
    -18.748  0.1354E-25  0.1160E-25  0.2770E-25
    -18.668  0.0000E+00  0.0000E+00  0.0000E+00
    -18.588  0.0000E+00  0.0000E+00  0.0000E+00
    -18.507  0.0000E+00  0.0000E+00  0.0000E+00
    -18.427  0.0000E+00  0.0000E+00  0.0000E+00
    -18.347  0.0000E+00  0.0000E+00  0.0000E+00
    -18.267  0.0000E+00  0.0000E+00  0.0000E+00
    -18.186  0.0000E+00  0.0000E+00  0.0000E+00
    -18.106  0.0000E+00  0.0000E+00  0.0000E+00
    -18.026  0.0000E+00  0.0000E+00  0.0000E+00
    -17.945  0.0000E+00  0.0000E+00  0.0000E+00
    -17.865  0.0000E+00  0.0000E+00  0.0000E+00
    -17.785  0.0000E+00  0.0000E+00  0.0000E+00
    -17.704  0.0000E+00  0.0000E+00  0.0000E+00
    -17.624  0.0000E+00  0.0000E+00  0.0000E+00
    -17.544  0.0000E+00  0.0000E+00  0.0000E+00
    -17.463  0.0000E+00  0.0000E+00  0.0000E+00
    -17.383  0.0000E+00  0.0000E+00  0.0000E+00
    -17.303  0.0000E+00  0.0000E+00  0.0000E+00
    -17.223  0.0000E+00  0.0000E+00  0.0000E+00
    -17.142  0.0000E+00  0.0000E+00  0.0000E+00
    -17.062  0.0000E+00  0.0000E+00  0.0000E+00
    -16.982  0.0000E+00  0.0000E+00  0.0000E+00
    -16.901  0.0000E+00  0.0000E+00  0.0000E+00
    -16.821  0.0000E+00  0.0000E+00  0.0000E+00
    -16.741  0.0000E+00  0.0000E+00  0.0000E+00
    -16.660  0.0000E+00  0.0000E+00  0.0000E+00
    -16.580  0.0000E+00  0.0000E+00  0.0000E+00
    -16.500  0.0000E+00  0.0000E+00  0.0000E+00
    -16.420  0.0000E+00  0.0000E+00  0.0000E+00
    -16.339  0.0000E+00  0.0000E+00  0.0000E+00
    -16.259  0.0000E+00  0.0000E+00  0.0000E+00
    -16.179  0.0000E+00  0.0000E+00  0.0000E+00
    -16.098  0.0000E+00  0.0000E+00  0.0000E+00
    -16.018  0.0000E+00  0.0000E+00  0.0000E+00
    -15.938  0.0000E+00  0.0000E+00  0.0000E+00
    -15.857  0.0000E+00  0.0000E+00  0.0000E+00
    -15.777  0.0000E+00  0.0000E+00  0.0000E+00
    -15.697  0.0000E+00  0.0000E+00  0.0000E+00
    -15.616  0.0000E+00  0.0000E+00  0.0000E+00
    -15.536  0.0000E+00  0.0000E+00  0.0000E+00
    -15.456  0.0000E+00  0.0000E+00  0.0000E+00
    -15.376  0.0000E+00  0.0000E+00  0.0000E+00
    -15.295  0.0000E+00  0.0000E+00  0.0000E+00
    -15.215  0.0000E+00  0.0000E+00  0.0000E+00
    -15.135  0.0000E+00  0.0000E+00  0.0000E+00
    -15.054  0.0000E+00  0.0000E+00  0.0000E+00
    -14.974  0.0000E+00  0.0000E+00  0.0000E+00
    -14.894  0.0000E+00  0.0000E+00  0.0000E+00
    -14.813  0.0000E+00  0.0000E+00  0.0000E+00
    -14.733  0.0000E+00  0.0000E+00  0.0000E+00
    -14.653  0.0000E+00  0.0000E+00  0.0000E+00
    -14.572  0.0000E+00  0.0000E+00  0.0000E+00
    -14.492  0.0000E+00  0.0000E+00  0.0000E+00
    -14.412  0.0000E+00  0.0000E+00  0.0000E+00
    -14.332  0.0000E+00  0.0000E+00  0.0000E+00
    -14.251  0.0000E+00  0.0000E+00  0.0000E+00
    -14.171  0.0000E+00  0.0000E+00  0.0000E+00
    -14.091  0.0000E+00  0.0000E+00  0.0000E+00
    -14.010  0.0000E+00  0.0000E+00  0.0000E+00
    -13.930  0.0000E+00  0.0000E+00  0.0000E+00
    -13.850  0.0000E+00  0.0000E+00  0.0000E+00
    -13.769  0.0000E+00  0.0000E+00  0.0000E+00
    -13.689  0.0000E+00  0.0000E+00  0.0000E+00
    -13.609  0.0000E+00  0.0000E+00  0.0000E+00
    -13.529  0.0000E+00  0.0000E+00  0.0000E+00
    -13.448  0.0000E+00  0.0000E+00  0.0000E+00
    -13.368  0.0000E+00  0.0000E+00  0.0000E+00
    -13.288  0.0000E+00  0.0000E+00  0.0000E+00
    -13.207  0.0000E+00  0.0000E+00  0.0000E+00
    -13.127  0.0000E+00  0.0000E+00  0.0000E+00
    -13.047  0.0000E+00  0.0000E+00  0.0000E+00
    -12.966  0.0000E+00  0.0000E+00  0.0000E+00
    -12.886  0.0000E+00  0.0000E+00  0.0000E+00
    -12.806  0.0000E+00  0.0000E+00  0.0000E+00
    -12.725  0.0000E+00  0.0000E+00  0.0000E+00
    -12.645  0.0000E+00  0.0000E+00  0.0000E+00
    -12.565  0.0000E+00  0.0000E+00  0.0000E+00
    -12.485  0.0000E+00  0.0000E+00  0.0000E+00
    -12.404  0.0000E+00  0.0000E+00  0.0000E+00
    -12.324  0.0000E+00  0.0000E+00  0.0000E+00
    -12.244  0.0000E+00  0.0000E+00  0.0000E+00
    -12.163  0.0000E+00  0.0000E+00  0.0000E+00
    -12.083  0.0000E+00  0.0000E+00  0.0000E+00
    -12.003  0.0000E+00  0.0000E+00  0.0000E+00
    -11.922  0.0000E+00  0.0000E+00  0.0000E+00
    -11.842  0.0000E+00  0.0000E+00  0.0000E+00
    -11.762  0.0000E+00  0.0000E+00  0.0000E+00
    -11.682  0.0000E+00  0.0000E+00  0.0000E+00
    -11.601  0.0000E+00  0.0000E+00  0.0000E+00
    -11.521  0.0000E+00  0.0000E+00  0.0000E+00
    -11.441  0.0000E+00  0.0000E+00  0.0000E+00
    -11.360  0.0000E+00  0.0000E+00  0.0000E+00
    -11.280  0.0000E+00  0.0000E+00  0.0000E+00
    -11.200  0.0000E+00  0.0000E+00  0.0000E+00
    -11.119  0.0000E+00  0.0000E+00  0.0000E+00
    -11.039  0.0000E+00  0.0000E+00  0.0000E+00
    -10.959  0.0000E+00  0.0000E+00  0.0000E+00
    -10.878  0.0000E+00  0.0000E+00  0.0000E+00
    -10.798  0.0000E+00  0.0000E+00  0.0000E+00
    -10.718  0.0000E+00  0.0000E+00  0.0000E+00
    -10.638  0.0000E+00  0.0000E+00  0.0000E+00
    -10.557  0.0000E+00  0.0000E+00  0.0000E+00
    -10.477  0.0000E+00  0.0000E+00  0.0000E+00
    -10.397  0.0000E+00  0.0000E+00  0.0000E+00
    -10.316  0.0000E+00  0.0000E+00  0.0000E+00
    -10.236  0.0000E+00  0.0000E+00  0.0000E+00
    -10.156  0.0000E+00  0.0000E+00  0.0000E+00
    -10.075  0.0000E+00  0.0000E+00  0.0000E+00
     -9.995  0.0000E+00  0.0000E+00  0.0000E+00
     -9.915  0.0000E+00  0.0000E+00  0.0000E+00
     -9.834  0.0000E+00  0.0000E+00  0.0000E+00
     -9.754  0.1266E-16  0.1630E-17  0.2204E-20
     -9.674  0.1051E-14  0.1353E-15  0.1829E-18
     -9.594  0.7436E-13  0.9578E-14  0.1295E-16
     -9.513  0.3826E-11  0.4929E-12  0.6662E-15
     -9.433  0.1433E-09  0.1846E-10  0.2495E-13
     -9.353  0.3907E-08  0.5032E-09  0.6802E-12
     -9.272  0.7758E-07  0.9993E-08  0.1351E-10
     -9.192  0.1123E-05  0.1446E-06  0.1955E-09
     -9.112  0.1184E-04  0.1526E-05  0.2062E-08
     -9.031  0.9112E-04  0.1174E-04  0.1586E-07
     -8.951  0.5115E-03  0.6589E-04  0.8906E-07
     -8.871  0.2096E-02  0.2699E-03  0.3649E-06
     -8.791  0.6269E-02  0.8075E-03  0.1091E-05
     -8.710  0.1370E-01  0.1764E-02  0.2385E-05
     -8.630  0.2186E-01  0.2816E-02  0.3806E-05
     -8.550  0.2548E-01  0.3283E-02  0.4437E-05
     -8.469  0.2171E-01  0.2796E-02  0.3780E-05
     -8.389  0.1351E-01  0.1740E-02  0.2352E-05
     -8.309  0.6141E-02  0.7911E-03  0.1069E-05
     -8.228  0.2039E-02  0.2626E-03  0.3550E-06
     -8.148  0.4942E-03  0.6367E-04  0.8606E-07
     -8.068  0.8744E-04  0.1126E-04  0.1530E-07
     -7.987  0.1134E-04  0.1457E-05  0.3743E-08
     -7.907  0.1936E-05  0.1797E-06  0.2968E-07
     -7.827  0.1054E-04  0.5332E-06  0.3584E-06
     -7.747  0.9157E-04  0.4714E-05  0.3203E-05
     -7.666  0.5853E-03  0.3140E-04  0.2114E-04
     -7.586  0.2737E-02  0.1559E-03  0.1037E-03
     -7.506  0.9378E-02  0.5815E-03  0.3818E-03
     -7.425  0.2360E-01  0.1648E-02  0.1067E-02
     -7.345  0.4384E-01  0.3599E-02  0.2298E-02
     -7.265  0.6071E-01  0.6155E-02  0.3875E-02
     -7.184  0.6445E-01  0.8457E-02  0.5207E-02
     -7.104  0.5674E-01  0.9787E-02  0.5714E-02
     -7.024  0.4889E-01  0.1033E-01  0.5404E-02
     -6.943  0.4752E-01  0.1083E-01  0.4923E-02
     -6.863  0.4828E-01  0.1156E-01  0.4979E-02
     -6.783  0.4527E-01  0.1242E-01  0.5887E-02
     -6.703  0.4092E-01  0.1384E-01  0.7745E-02
     -6.622  0.4293E-01  0.1655E-01  0.1052E-01
     -6.542  0.5399E-01  0.1996E-01  0.1363E-01
     -6.462  0.6841E-01  0.2218E-01  0.1584E-01
     -6.381  0.7966E-01  0.2235E-01  0.1636E-01
     -6.301  0.8676E-01  0.2156E-01  0.1559E-01
     -6.221  0.8982E-01  0.2093E-01  0.1444E-01
     -6.140  0.8466E-01  0.2026E-01  0.1343E-01
     -6.060  0.6836E-01  0.1889E-01  0.1246E-01
     -5.980  0.4630E-01  0.1651E-01  0.1103E-01
     -5.900  0.2838E-01  0.1337E-01  0.8949E-02
     -5.819  0.2164E-01  0.1067E-01  0.7084E-02
     -5.739  0.3019E-01  0.1047E-01  0.7314E-02
     -5.659  0.5774E-01  0.1473E-01  0.1218E-01
     -5.578  0.1023E+00  0.2368E-01  0.2392E-01
     -5.498  0.1492E+00  0.3388E-01  0.4190E-01
     -5.418  0.1792E+00  0.3953E-01  0.6010E-01
     -5.337  0.1862E+00  0.3755E-01  0.6983E-01
     -5.257  0.1767E+00  0.3101E-01  0.6762E-01
     -5.177  0.1559E+00  0.2666E-01  0.6011E-01
     -5.096  0.1243E+00  0.2883E-01  0.5960E-01
     -5.016  0.8906E-01  0.3608E-01  0.7529E-01
     -4.936  0.6209E-01  0.4316E-01  0.1071E+00
     -4.856  0.4676E-01  0.4538E-01  0.1423E+00
     -4.775  0.3676E-01  0.4111E-01  0.1608E+00
     -4.695  0.2880E-01  0.3258E-01  0.1517E+00
     -4.615  0.2914E-01  0.2514E-01  0.1285E+00
     -4.534  0.4808E-01  0.2468E-01  0.1215E+00
     -4.454  0.8959E-01  0.3441E-01  0.1602E+00
     -4.374  0.1448E+00  0.5367E-01  0.2680E+00
     -4.293  0.1980E+00  0.7816E-01  0.4597E+00
     -4.213  0.2390E+00  0.1009E+00  0.7209E+00
     -4.133  0.2605E+00  0.1142E+00  0.9741E+00
     -4.052  0.2498E+00  0.1134E+00  0.1094E+01
     -3.972  0.2027E+00  0.9997E-01  0.1008E+01
     -3.892  0.1394E+00  0.8017E-01  0.7764E+00
     -3.812  0.8798E-01  0.6045E-01  0.5274E+00
     -3.731  0.5796E-01  0.4398E-01  0.3469E+00
     -3.651  0.4145E-01  0.3173E-01  0.2559E+00
     -3.571  0.2962E-01  0.2508E-01  0.2637E+00
     -3.490  0.2074E-01  0.2603E-01  0.3968E+00
     -3.410  0.1642E-01  0.3535E-01  0.6812E+00
     -3.330  0.1617E-01  0.5224E-01  0.1108E+01
     -3.249  0.1692E-01  0.7499E-01  0.1606E+01
     -3.169  0.1616E-01  0.9848E-01  0.2028E+01
     -3.089  0.1395E-01  0.1118E+00  0.2197E+01
     -3.009  0.1214E-01  0.1064E+00  0.2046E+01
     -2.928  0.1232E-01  0.8790E-01  0.1730E+01
     -2.848  0.1501E-01  0.7281E-01  0.1501E+01
     -2.768  0.1970E-01  0.7221E-01  0.1492E+01
     -2.687  0.2530E-01  0.8395E-01  0.1662E+01
     -2.607  0.3069E-01  0.9808E-01  0.1874E+01
     -2.527  0.3568E-01  0.1054E+00  0.1986E+01
     -2.446  0.4174E-01  0.1049E+00  0.1996E+01
     -2.366  0.5067E-01  0.1053E+00  0.2074E+01
     -2.286  0.6177E-01  0.1142E+00  0.2339E+01
     -2.205  0.7167E-01  0.1295E+00  0.2679E+01
     -2.125  0.7844E-01  0.1454E+00  0.2912E+01
     -2.045  0.8338E-01  0.1598E+00  0.2997E+01
     -1.965  0.8568E-01  0.1668E+00  0.2933E+01
     -1.884  0.7986E-01  0.1533E+00  0.2625E+01
     -1.804  0.6324E-01  0.1156E+00  0.2056E+01
     -1.724  0.4168E-01  0.6947E-01  0.1417E+01
     -1.643  0.2393E-01  0.3420E-01  0.9567E+00
     -1.563  0.1422E-01  0.1660E-01  0.8011E+00
     -1.483  0.1167E-01  0.1286E-01  0.9720E+00
     -1.402  0.1359E-01  0.1746E-01  0.1443E+01
     -1.322  0.1752E-01  0.2638E-01  0.2073E+01
     -1.242  0.2123E-01  0.3669E-01  0.2579E+01
     -1.161  0.2321E-01  0.4720E-01  0.2752E+01
     -1.081  0.2355E-01  0.5830E-01  0.2689E+01
     -1.001  0.2337E-01  0.6895E-01  0.2700E+01
     -0.921  0.2326E-01  0.7528E-01  0.3005E+01
     -0.840  0.2272E-01  0.7431E-01  0.3566E+01
     -0.760  0.2149E-01  0.6840E-01  0.4133E+01
     -0.680  0.2075E-01  0.6370E-01  0.4397E+01
     -0.599  0.2257E-01  0.6303E-01  0.4217E+01
     -0.519  0.2708E-01  0.6251E-01  0.3718E+01
     -0.439  0.3094E-01  0.5733E-01  0.3079E+01
     -0.358  0.2991E-01  0.4746E-01  0.2345E+01
     -0.278  0.2316E-01  0.3555E-01  0.1553E+01
     -0.198  0.1405E-01  0.2350E-01  0.8470E+00
     -0.118  0.6623E-02  0.1299E-01  0.3684E+00
     -0.037  0.2412E-02  0.5693E-02  0.1259E+00
      0.043  0.6768E-03  0.1912E-02  0.3365E-01
      0.123  0.1457E-03  0.4829E-03  0.7017E-02
      0.204  0.2396E-04  0.9076E-04  0.1139E-02
      0.284  0.2991E-05  0.1262E-04  0.1429E-03
      0.364  0.2815E-06  0.1294E-05  0.1377E-04
      0.445  0.1985E-07  0.9761E-07  0.1008E-05
      0.525  0.1042E-08  0.5405E-08  0.5547E-07
      0.605  0.4053E-10  0.2194E-09  0.2279E-08
      0.686  0.1163E-11  0.6524E-11  0.6936E-10
      0.766  0.2451E-13  0.1419E-12  0.1556E-11
      0.846  0.3771E-15  0.2256E-14  0.2551E-13
      0.926  0.3911E-17  0.2456E-16  0.3013E-15
      1.007  0.0000E+00  0.0000E+00  0.0000E+00
      1.087  0.0000E+00  0.0000E+00  0.0000E+00
      1.167  0.0000E+00  0.0000E+00  0.0000E+00
      1.248  0.0000E+00  0.0000E+00  0.0000E+00
      1.328  0.0000E+00  0.0000E+00  0.0000E+00
      1.408  0.0000E+00  0.0000E+00  0.0000E+00
      1.489  0.0000E+00  0.0000E+00  0.0000E+00
      1.569  0.0000E+00  0.0000E+00  0.0000E+00
      1.649  0.0000E+00  0.0000E+00  0.0000E+00
      1.730  0.0000E+00  0.0000E+00  0.0000E+00
      1.72951689    -22.36213176  301     -0.81187881      1.00000000
    -22.362  0.0000E+00  0.0000E+00  0.0000E+00
    -22.282  0.0000E+00  0.0000E+00  0.0000E+00
    -22.202  0.0000E+00  0.0000E+00  0.0000E+00
    -22.121  0.0000E+00  0.0000E+00  0.0000E+00
    -22.041  0.0000E+00  0.0000E+00  0.0000E+00
    -21.961  0.0000E+00  0.0000E+00  0.0000E+00
    -21.880  0.0000E+00  0.0000E+00  0.0000E+00
    -21.800  0.0000E+00  0.0000E+00  0.0000E+00
    -21.720  0.0000E+00  0.0000E+00  0.0000E+00
    -21.639  0.0000E+00  0.0000E+00  0.0000E+00
    -21.559  0.0000E+00  0.0000E+00  0.0000E+00
    -21.479  0.1509E-19  0.5658E-20  0.6103E-21
    -21.398  0.1206E-17  0.4522E-18  0.4878E-19
    -21.318  0.7086E-16  0.2657E-16  0.2865E-17
    -21.238  0.3028E-14  0.1135E-14  0.1225E-15
    -21.158  0.9421E-13  0.3532E-13  0.3812E-14
    -21.077  0.2134E-11  0.8004E-12  0.8645E-13
    -20.997  0.3523E-10  0.1322E-10  0.1431E-11
    -20.917  0.4240E-09  0.1592E-09  0.1732E-10
    -20.836  0.3723E-08  0.1401E-08  0.1545E-09
    -20.756  0.2388E-07  0.9034E-08  0.1030E-08
    -20.676  0.1121E-06  0.4302E-07  0.5312E-08
    -20.595  0.3878E-06  0.1541E-06  0.2250E-07
    -20.515  0.1003E-05  0.4315E-06  0.8438E-07
    -20.435  0.2008E-05  0.1015E-05  0.2878E-06
    -20.354  0.3352E-05  0.2162E-05  0.8506E-06
    -20.274  0.5144E-05  0.4232E-05  0.2027E-05
    -20.194  0.7539E-05  0.7139E-05  0.3708E-05
    -20.114  0.9858E-05  0.9647E-05  0.5088E-05
    -20.033  0.1048E-04  0.9989E-05  0.5189E-05
    -19.953  0.8570E-05  0.7769E-05  0.3921E-05
    -19.873  0.5251E-05  0.4502E-05  0.2194E-05
    -19.792  0.2387E-05  0.1938E-05  0.9089E-06
    -19.712  0.8016E-06  0.6187E-06  0.2791E-06
    -19.632  0.1985E-06  0.1465E-06  0.6355E-07
    -19.551  0.3623E-07  0.2570E-07  0.1074E-07
    -19.471  0.4874E-08  0.3344E-08  0.1348E-08
    -19.391  0.4836E-09  0.3229E-09  0.1259E-09
    -19.311  0.3543E-10  0.2315E-10  0.8761E-11
    -19.230  0.1921E-11  0.1235E-11  0.4548E-12
    -19.150  0.7718E-13  0.4908E-13  0.1764E-13
    -19.070  0.2304E-14  0.1455E-14  0.5126E-15
    -18.989  0.5118E-16  0.3224E-16  0.1116E-16
    -18.909  0.8483E-18  0.5359E-18  0.1835E-18
    -18.829  0.9829E-20  0.6149E-20  0.2031E-20
    -18.748  0.6186E-22  0.4058E-22  0.1327E-22
    -18.668  0.0000E+00  0.0000E+00  0.0000E+00
    -18.588  0.0000E+00  0.0000E+00  0.0000E+00
    -18.507  0.0000E+00  0.0000E+00  0.0000E+00
    -18.427  0.0000E+00  0.0000E+00  0.0000E+00
    -18.347  0.0000E+00  0.0000E+00  0.0000E+00
    -18.267  0.0000E+00  0.0000E+00  0.0000E+00
    -18.186  0.0000E+00  0.0000E+00  0.0000E+00
    -18.106  0.0000E+00  0.0000E+00  0.0000E+00
    -18.026  0.0000E+00  0.0000E+00  0.0000E+00
    -17.945  0.0000E+00  0.0000E+00  0.0000E+00
    -17.865  0.0000E+00  0.0000E+00  0.0000E+00
    -17.785  0.0000E+00  0.0000E+00  0.0000E+00
    -17.704  0.0000E+00  0.0000E+00  0.0000E+00
    -17.624  0.0000E+00  0.0000E+00  0.0000E+00
    -17.544  0.0000E+00  0.0000E+00  0.0000E+00
    -17.463  0.0000E+00  0.0000E+00  0.0000E+00
    -17.383  0.0000E+00  0.0000E+00  0.0000E+00
    -17.303  0.0000E+00  0.0000E+00  0.0000E+00
    -17.223  0.0000E+00  0.0000E+00  0.0000E+00
    -17.142  0.0000E+00  0.0000E+00  0.0000E+00
    -17.062  0.0000E+00  0.0000E+00  0.0000E+00
    -16.982  0.0000E+00  0.0000E+00  0.0000E+00
    -16.901  0.0000E+00  0.0000E+00  0.0000E+00
    -16.821  0.0000E+00  0.0000E+00  0.0000E+00
    -16.741  0.0000E+00  0.0000E+00  0.0000E+00
    -16.660  0.0000E+00  0.0000E+00  0.0000E+00
    -16.580  0.0000E+00  0.0000E+00  0.0000E+00
    -16.500  0.0000E+00  0.0000E+00  0.0000E+00
    -16.420  0.0000E+00  0.0000E+00  0.0000E+00
    -16.339  0.0000E+00  0.0000E+00  0.0000E+00
    -16.259  0.0000E+00  0.0000E+00  0.0000E+00
    -16.179  0.0000E+00  0.0000E+00  0.0000E+00
    -16.098  0.0000E+00  0.0000E+00  0.0000E+00
    -16.018  0.0000E+00  0.0000E+00  0.0000E+00
    -15.938  0.0000E+00  0.0000E+00  0.0000E+00
    -15.857  0.0000E+00  0.0000E+00  0.0000E+00
    -15.777  0.0000E+00  0.0000E+00  0.0000E+00
    -15.697  0.0000E+00  0.0000E+00  0.0000E+00
    -15.616  0.0000E+00  0.0000E+00  0.0000E+00
    -15.536  0.0000E+00  0.0000E+00  0.0000E+00
    -15.456  0.0000E+00  0.0000E+00  0.0000E+00
    -15.376  0.0000E+00  0.0000E+00  0.0000E+00
    -15.295  0.0000E+00  0.0000E+00  0.0000E+00
    -15.215  0.0000E+00  0.0000E+00  0.0000E+00