       N       E                     dE             d eps       ncg     rms          rms(c)
DAV:   1     0.521529245199E+04    0.52153E+04   -0.26106E+05   654   0.188E+03
DAV:   2     0.959023119932E+02   -0.51194E+04   -0.50130E+04   654   0.426E+02
DAV:   3    -0.397759131530E+03   -0.49366E+03   -0.44596E+03   849   0.164E+02
DAV:   4    -0.498263802612E+03   -0.10050E+03   -0.94061E+02  1254   0.520E+01
DAV:   5    -0.511446104420E+03   -0.13182E+02   -0.12235E+02  1128   0.193E+01    0.447E+01
RMM:   6    -0.131019046108E+04   -0.79874E+03   -0.12150E+03   992   0.946E+01    0.195E+02
RMM:   7    -0.568992958845E+03    0.74120E+03   -0.39768E+02   655   0.726E+01    0.970E+01
RMM:   8    -0.518379782297E+03    0.50613E+02   -0.59491E+01   675   0.214E+01    0.617E+01
RMM:   9    -0.517624396836E+03    0.75539E+00   -0.29341E+01  1070   0.501E+00    0.556E+01
RMM:  10    -0.517631548725E+03   -0.71519E-02   -0.59381E+00  1051   0.249E+00    0.565E+01
RMM:  11    -0.517021986025E+03    0.60956E+00   -0.32378E+00  1035   0.186E+00    0.551E+01
RMM:  12    -0.520002197336E+03   -0.29802E+01   -0.70773E+00   797   0.584E+00    0.630E+01
RMM:  13    -0.519400716433E+03    0.60148E+00   -0.87220E+00   882   0.556E+00    0.601E+01
RMM:  14    -0.530828479629E+03   -0.11428E+02   -0.33787E+01   768   0.134E+01    0.750E+01
RMM:  15    -0.516496397914E+03    0.14332E+02   -0.18055E+01   686   0.115E+01    0.509E+01
RMM:  16    -0.512192236735E+03    0.43042E+01   -0.10520E+01   863   0.614E+00    0.390E+01
RMM:  17    -0.511430748422E+03    0.76149E+00   -0.58512E+00   962   0.362E+00    0.358E+01
RMM:  18    -0.516885305888E+03   -0.54546E+01   -0.10399E+01   741   0.806E+00    0.530E+01
RMM:  19    -0.515580024212E+03    0.13053E+01   -0.97009E+00   665   0.918E+00    0.486E+01
RMM:  20    -0.514192480817E+03    0.13875E+01   -0.74418E+00   771   0.644E+00    0.462E+01
RMM:  21    -0.513180757973E+03    0.10117E+01   -0.51413E+00   763   0.542E+00    0.442E+01
RMM:  22    -0.509573380178E+03    0.36074E+01   -0.18339E+00   703   0.372E+00    0.294E+01
RMM:  23    -0.508634947271E+03    0.93843E+00   -0.12371E+00   807   0.248E+00    0.247E+01
RMM:  24    -0.508998311744E+03   -0.36336E+00   -0.17416E+00   814   0.284E+00    0.273E+01
RMM:  25    -0.508603611725E+03    0.39470E+00   -0.10054E+00   715   0.274E+00    0.242E+01
RMM:  26    -0.508447092244E+03    0.15652E+00   -0.78388E-01   700   0.251E+00    0.235E+01
RMM:  27    -0.508274281621E+03    0.17281E+00   -0.11745E+00   900   0.203E+00    0.213E+01
RMM:  28    -0.507662437125E+03    0.61184E+00   -0.66328E-01   821   0.168E+00    0.153E+01
RMM:  29    -0.507430264457E+03    0.23217E+00   -0.39138E-01   853   0.121E+00    0.124E+01
RMM:  30    -0.507522173439E+03   -0.91909E-01   -0.47012E-01   867   0.140E+00    0.133E+01
RMM:  31    -0.507490875728E+03    0.31298E-01   -0.24110E-01   794   0.113E+00    0.125E+01
RMM:  32    -0.507435114074E+03    0.55762E-01   -0.13632E-01   733   0.104E+00    0.118E+01
RMM:  33    -0.507398787889E+03    0.36326E-01   -0.18766E-01   944   0.764E-01    0.109E+01
RMM:  34    -0.507305298650E+03    0.93489E-01   -0.29453E-01   853   0.106E+00    0.878E+00
RMM:  35    -0.507191891994E+03    0.11341E+00   -0.19317E-01   818   0.957E-01    0.589E+00
RMM:  36    -0.507185519960E+03    0.63720E-02   -0.17683E-01   936   0.720E-01    0.542E+00
RMM:  37    -0.507165021367E+03    0.20499E-01   -0.87573E-02   849   0.585E-01    0.429E+00
RMM:  38    -0.507155070978E+03    0.99504E-02   -0.43415E-02   779   0.503E-01    0.403E+00
RMM:  39    -0.507153736230E+03    0.13347E-02   -0.47367E-02   968   0.335E-01    0.371E+00
RMM:  40    -0.507136191331E+03    0.17545E-01   -0.34118E-02   857   0.347E-01    0.243E+00
RMM:  41    -0.507130987794E+03    0.52035E-02   -0.27321E-02   945   0.264E-01    0.179E+00
RMM:  42    -0.507136319803E+03   -0.53320E-02   -0.31382E-02   874   0.331E-01    0.211E+00
RMM:  43    -0.507128605566E+03    0.77142E-02   -0.12261E-02   758   0.283E-01    0.115E+00
RMM:  44    -0.507128386707E+03    0.21886E-03   -0.11594E-02   934   0.170E-01    0.103E+00
RMM:  45    -0.507128703286E+03   -0.31658E-03   -0.98300E-03   900   0.167E-01    0.931E-01
RMM:  46    -0.507127033210E+03    0.16701E-02   -0.52338E-03   806   0.146E-01    0.427E-01
RMM:  47    -0.507127537426E+03   -0.50422E-03   -0.54323E-03  1006   0.974E-02    0.499E-01
RMM:  48    -0.507127345805E+03    0.19162E-03   -0.22998E-03   857   0.740E-02    0.286E-01
RMM:  49    -0.507127341402E+03    0.44022E-05   -0.16959E-03   908   0.500E-02    0.199E-01
RMM:  50    -0.507127638435E+03   -0.29703E-03   -0.13776E-03   894   0.527E-02    0.293E-01
RMM:  51    -0.507127553552E+03    0.84883E-04   -0.87902E-04   796   0.467E-02    0.105E-01
RMM:  52    -0.507127689324E+03   -0.13577E-03   -0.84168E-04   915   0.367E-02    0.178E-01
RMM:  53    -0.507127755920E+03   -0.66595E-04   -0.51476E-04   797   0.308E-02    0.113E-01
RMM:  54    -0.507127779698E+03   -0.23778E-04   -0.40258E-04   820   0.238E-02    0.676E-02
RMM:  55    -0.507127870133E+03   -0.90435E-04   -0.34385E-04   918   0.181E-02    0.876E-02
RMM:  56    -0.507127926903E+03   -0.56769E-04   -0.29201E-04   805   0.222E-02    0.925E-02
RMM:  57    -0.507127936657E+03   -0.97540E-05   -0.20907E-04   778   0.156E-02    0.443E-02
RMM:  58    -0.507127965767E+03   -0.29111E-04   -0.18027E-04   789   0.120E-02    0.432E-02
RMM:  59    -0.507128017962E+03   -0.52194E-04   -0.15295E-04   818   0.100E-02    0.411E-02
RMM:  60    -0.507128054929E+03   -0.36968E-04   -0.16540E-04   720   0.972E-03    0.301E-02
RMM:  61    -0.507128083609E+03   -0.28679E-04   -0.11627E-04   759   0.956E-03    0.458E-02
RMM:  62    -0.507128113316E+03   -0.29708E-04   -0.10484E-04   684   0.859E-03    0.324E-02
RMM:  63    -0.507128130446E+03   -0.17130E-04   -0.84572E-05   560   0.657E-03    0.213E-02
RMM:  64    -0.507128153836E+03   -0.23390E-04   -0.77018E-05   518   0.528E-03    0.199E-02
RMM:  65    -0.507128183335E+03   -0.29499E-04   -0.66713E-05   509   0.489E-03    0.128E-02
RMM:  66    -0.507128219569E+03   -0.36233E-04   -0.64176E-05   607   0.591E-03    0.283E-02
RMM:  67    -0.507128231907E+03   -0.12338E-04   -0.54433E-05   469   0.568E-03    0.125E-02
RMM:  68    -0.507128244802E+03   -0.12895E-04   -0.48724E-05   442   0.309E-03    0.101E-02
RMM:  69    -0.507128266265E+03   -0.21463E-04   -0.43868E-05   439   0.312E-03    0.110E-02
RMM:  70    -0.507128283849E+03   -0.17584E-04   -0.40231E-05   437   0.342E-03    0.871E-03
RMM:  71    -0.507128305284E+03   -0.21435E-04   -0.36831E-05   439   0.293E-03    0.106E-02
RMM:  72    -0.507128315200E+03   -0.99161E-05   -0.33546E-05   429   0.311E-03    0.552E-03
RMM:  73    -0.507128328112E+03   -0.12912E-04   -0.30593E-05   425   0.191E-03    0.617E-03
RMM:  74    -0.507128345875E+03   -0.17763E-04   -0.28466E-05   422   0.264E-03    0.836E-03
RMM:  75    -0.507128359617E+03   -0.13742E-04   -0.26202E-05   419   0.230E-03    0.467E-03
RMM:  76    -0.507128359623E+03   -0.61700E-08   -0.24109E-05   416   0.240E-03    0.126E-02
RMM:  77    -0.507128369440E+03   -0.98163E-05   -0.22213E-05   409   0.241E-03    0.529E-03
RMM:  78    -0.507128378953E+03   -0.95136E-05   -0.20670E-05   409   0.155E-03    0.545E-03
RMM:  79    -0.507128387131E+03   -0.81782E-05   -0.19142E-05   410   0.177E-03    0.415E-03
RMM:  80    -0.507128395822E+03   -0.86910E-05   -0.58364E-05   402   0.146E-03    0.301E-03
RMM:  81    -0.507128400309E+03   -0.44869E-05   -0.16298E-05   406   0.161E-03    0.616E-03
RMM:  82    -0.507128404009E+03   -0.36994E-05   -0.21977E-05   397   0.173E-03    0.236E-03
RMM:  83    -0.507128405402E+03   -0.13933E-05   -0.14081E-05   360   0.840E-04    0.209E-03
RMM:  84    -0.507128408326E+03   -0.29239E-05   -0.15225E-05   337   0.852E-04    0.163E-03
RMM:  85    -0.507128409737E+03   -0.14113E-05   -0.12144E-05   295   0.738E-04    0.126E-03
RMM:  86    -0.507128411303E+03   -0.15660E-05   -0.11495E-05   344   0.732E-04    0.241E-03
RMM:  87    -0.507128412745E+03   -0.14416E-05   -0.98970E-06   337   0.801E-04    0.118E-03
RMM:  88    -0.507128413753E+03   -0.10084E-05   -0.90088E-06   199   0.512E-04    0.101E-03
RMM:  89    -0.507128414776E+03   -0.10224E-05   -0.79965E-06   199   0.518E-04    0.773E-04
RMM:  90    -0.507128415673E+03   -0.89697E-06   -0.72815E-06   188   0.492E-04
   1 F= -.52049031E+03 E0= -.51790383E+03  d E =-.517295E+01
       N       E                     dE             d eps       ncg     rms          rms(c)
DAV:   1    -0.507116532293E+03    0.11882E-01   -0.12367E+00   678   0.144E+00    0.181E-01
RMM:   2    -0.507121232307E+03   -0.47000E-02   -0.44744E-02   870   0.372E-01    0.381E-01
RMM:   3    -0.507121879068E+03   -0.64676E-03   -0.53552E-03   763   0.157E-01    0.635E-01
RMM:   4    -0.507122735150E+03   -0.85608E-03   -0.30851E-03   881   0.104E-01    0.835E-01
RMM:   5    -0.507121535503E+03    0.11996E-02   -0.93835E-04   680   0.832E-02    0.439E-01
RMM:   6    -0.507121064963E+03    0.47054E-03   -0.76554E-04   723   0.701E-02    0.263E-01
RMM:   7    -0.507121453233E+03   -0.38827E-03   -0.15480E-03   818   0.819E-02    0.445E-01
RMM:   8    -0.507122700663E+03   -0.12474E-02   -0.29508E-03   745   0.128E-01    0.791E-01
RMM:   9    -0.507121223022E+03    0.14776E-02   -0.13494E-03   658   0.121E-01    0.300E-01
RMM:  10    -0.507121155441E+03    0.67580E-04   -0.11906E-03   719   0.831E-02    0.304E-01
RMM:  11    -0.507121578596E+03   -0.42315E-03   -0.15073E-03   792   0.845E-02    0.487E-01
RMM:  12    -0.507121099753E+03    0.47884E-03   -0.47823E-04   660   0.687E-02    0.244E-01
RMM:  13    -0.507120913370E+03    0.18638E-03   -0.26673E-04   707   0.416E-02    0.954E-02
RMM:  14    -0.507120935660E+03   -0.22290E-04   -0.22268E-04   882   0.275E-02    0.140E-01
RMM:  15    -0.507120932912E+03    0.27483E-05   -0.13271E-04   772   0.269E-02    0.133E-01
RMM:  16    -0.507120887232E+03    0.45680E-04   -0.56012E-05   676   0.228E-02    0.534E-02
RMM:  17    -0.507120892662E+03   -0.54306E-05   -0.65225E-05   894   0.150E-02    0.686E-02
RMM:  18    -0.507120907878E+03   -0.15216E-04   -0.57377E-05   798   0.168E-02    0.100E-01
RMM:  19    -0.507120884524E+03    0.23354E-04   -0.22650E-05   686   0.145E-02    0.385E-02
RMM:  20    -0.507120883158E+03    0.13662E-05   -0.18739E-05   789   0.879E-03    0.368E-02
RMM:  21    -0.507120887853E+03   -0.46947E-05   -0.18789E-05   807   0.909E-03    0.543E-02
RMM:  22    -0.507120880907E+03    0.69461E-05   -0.71376E-06   601   0.798E-03    0.207E-02
RMM:  23    -0.507120880200E+03    0.70676E-06   -0.33417E-06   482   0.458E-03
   2 F= -.52048275E+03 E0= -.51789627E+03  d E =-.517296E+01
       N       E                     dE             d eps       ncg     rms          rms(c)
DAV:   1    -0.507117686826E+03    0.31941E-02   -0.49530E+00   654   0.288E+00    0.346E-01
RMM:   2    -0.507135871952E+03   -0.18185E-01   -0.17056E-01   876   0.741E-01    0.821E-01
RMM:   3    -0.507136775232E+03   -0.90328E-03   -0.19430E-02   751   0.295E-01    0.103E+00
RMM:   4    -0.507138460831E+03   -0.16856E-02   -0.10183E-02   835   0.202E-01    0.124E+00
RMM:   5    -0.507136491636E+03    0.19692E-02   -0.28741E-03   724   0.134E-01    0.873E-01
RMM:   6    -0.507134955156E+03    0.15365E-02   -0.23264E-03   750   0.112E-01    0.515E-01
RMM:   7    -0.507136130841E+03   -0.11757E-02   -0.45546E-03   804   0.143E-01    0.827E-01
RMM:   8    -0.507141913364E+03   -0.57825E-02   -0.13532E-02   775   0.258E-01    0.160E+00
RMM:   9    -0.507135986915E+03    0.59264E-02   -0.61505E-03   659   0.257E-01    0.691E-01
RMM:  10    -0.507135037322E+03    0.94959E-03   -0.43575E-03   697   0.168E-01    0.542E-01
RMM:  11    -0.507136810871E+03   -0.17735E-02   -0.66838E-03   820   0.168E-01    0.941E-01
RMM:  12    -0.507135290469E+03    0.15204E-02   -0.22206E-03   664   0.140E-01    0.538E-01
RMM:  13    -0.507134375812E+03    0.91466E-03   -0.94273E-04   675   0.856E-02    0.210E-01
RMM:  14    -0.507134359309E+03    0.16503E-04   -0.83937E-04   895   0.502E-02    0.224E-01
RMM:  15    -0.507134464721E+03   -0.10541E-03   -0.68128E-04   806   0.557E-02    0.294E-01
RMM:  16    -0.507134240604E+03    0.22412E-03   -0.27191E-04   673   0.506E-02    0.114E-01
RMM:  17    -0.507134244578E+03   -0.39739E-05   -0.25402E-04   906   0.286E-02    0.125E-01
RMM:  18    -0.507134316078E+03   -0.71500E-04   -0.23615E-04   797   0.347E-02    0.200E-01
RMM:  19    -0.507134234046E+03    0.82032E-04   -0.99100E-05   691   0.300E-02    0.102E-01
RMM:  20    -0.507134211757E+03    0.22289E-04   -0.64991E-05   782   0.191E-02    0.631E-02
RMM:  21    -0.507134221183E+03   -0.94258E-05   -0.63303E-05   855   0.164E-02    0.844E-02
RMM:  22    -0.507134209294E+03    0.11889E-04   -0.29115E-05   725   0.148E-02    0.535E-02
RMM:  23    -0.507134203088E+03    0.62058E-05   -0.16702E-05   740   0.105E-02    0.321E-02
RMM:  24    -0.507134203623E+03   -0.53491E-06   -0.15594E-05   775   0.747E-03    0.319E-02
RMM:  25    -0.507134205546E+03   -0.19232E-05   -0.98340E-06   706   0.758E-03    0.391E-02
RMM:  26    -0.507134201890E+03    0.36557E-05   -0.42526E-06   520   0.625E-03    0.154E-02
RMM:  27    -0.507134202146E+03   -0.25584E-06   -0.25959E-06   453   0.394E-03
   3 F= -.52049611E+03 E0= -.51790939E+03  d E =-.517344E+01
       N       E                     dE             d eps       ncg     rms          rms(c)
DAV:   1    -0.507115922831E+03    0.18279E-01   -0.24701E+00   654   0.204E+00    0.245E-01
RMM:   2    -0.507126339435E+03   -0.10417E-01   -0.92057E-02   874   0.548E-01    0.776E-01
RMM:   3    -0.507126224667E+03    0.11477E-03   -0.10746E-02   725   0.232E-01    0.776E-01
RMM:   4    -0.507127101800E+03   -0.87713E-03   -0.67493E-03   779   0.176E-01    0.874E-01
RMM:   5    -0.507125791104E+03    0.13107E-02   -0.18538E-03   676   0.124E-01    0.601E-01
RMM:   6    -0.507125194662E+03    0.59644E-03   -0.12514E-03   802   0.728E-02    0.403E-01
RMM:   7    -0.507125157982E+03    0.36680E-04   -0.12425E-03   810   0.732E-02    0.383E-01
RMM:   8    -0.507127084632E+03   -0.19267E-02   -0.47650E-03   786   0.149E-01    0.875E-01
RMM:   9    -0.507126592697E+03    0.49194E-03   -0.32435E-03   655   0.169E-01    0.768E-01
RMM:  10    -0.507125052040E+03    0.15407E-02   -0.18983E-03   660   0.141E-01    0.293E-01
RMM:  11    -0.507125316894E+03   -0.26485E-03   -0.22218E-03   788   0.977E-02    0.443E-01
RMM:  12    -0.507125325246E+03   -0.83520E-05   -0.11693E-03   701   0.887E-02    0.426E-01
RMM:  13    -0.507124835627E+03    0.48962E-03   -0.45775E-04   662   0.672E-02    0.164E-01
RMM:  14    -0.507124790758E+03    0.44869E-04   -0.35074E-04   869   0.345E-02    0.133E-01
RMM:  15    -0.507124808315E+03   -0.17557E-04   -0.19418E-04   810   0.299E-02    0.159E-01
RMM:  16    -0.507124750563E+03    0.57752E-04   -0.90933E-05   692   0.279E-02    0.913E-02
RMM:  17    -0.507124735223E+03    0.15340E-04   -0.71556E-05   844   0.172E-02    0.574E-02
RMM:  18    -0.507124750978E+03   -0.15755E-04   -0.73514E-05   826   0.185E-02    0.929E-02
RMM:  19    -0.507124751214E+03   -0.23653E-06   -0.62990E-05   747   0.197E-02    0.930E-02
RMM:  20    -0.507124730389E+03    0.20825E-04   -0.27829E-05   703   0.151E-02    0.392E-02
RMM:  21    -0.507124732501E+03   -0.21124E-05   -0.29455E-05   879   0.104E-02    0.479E-02
RMM:  22    -0.507124735602E+03   -0.31011E-05   -0.20799E-05   783   0.105E-02    0.573E-02
RMM:  23    -0.507124727837E+03    0.77651E-05   -0.76371E-06   620   0.841E-03    0.261E-02
RMM:  24    -0.507124726185E+03    0.16520E-05   -0.35974E-06   518   0.447E-03    0.129E-02
RMM:  25    -0.507124726802E+03   -0.61651E-06   -0.32275E-06   472   0.436E-03
   4 F= -.52048659E+03 E0= -.51789996E+03  d E =-.517327E+01
       N       E                     dE             d eps       ncg     rms          rms(c)
DAV:   1    -0.507112333230E+03    0.12393E-01   -0.49481E+00   654   0.291E+00    0.376E-01
RMM:   2    -0.507134671695E+03   -0.22338E-01   -0.19742E-01   906   0.814E-01    0.113E+00
RMM:   3    -0.507132328715E+03    0.23430E-02   -0.20482E-02   689   0.354E-01    0.927E-01
RMM:   4    -0.507134177812E+03   -0.18491E-02   -0.13378E-02   793   0.237E-01    0.118E+00
RMM:   5    -0.507131511130E+03    0.26667E-02   -0.32246E-03   680   0.163E-01    0.687E-01
RMM:   6    -0.507131404421E+03    0.10671E-03   -0.28033E-03   817   0.111E-01    0.723E-01
RMM:   7    -0.507133303025E+03   -0.18986E-02   -0.52297E-03   835   0.150E-01    0.109E+00
RMM:   8    -0.507138815495E+03   -0.55125E-02   -0.14712E-02   790   0.261E-01    0.171E+00
RMM:   9    -0.507133402427E+03    0.54131E-02   -0.78049E-03   654   0.274E-01    0.982E-01
RMM:  10    -0.507130653131E+03    0.27493E-02   -0.52070E-03   682   0.195E-01    0.431E-01
RMM:  11    -0.507132214841E+03   -0.15617E-02   -0.65458E-03   835   0.159E-01    0.875E-01
RMM:  12    -0.507131421512E+03    0.79333E-03   -0.26956E-03   685   0.140E-01    0.618E-01
RMM:  13    -0.507130291407E+03    0.11301E-02   -0.11900E-03   658   0.105E-01    0.212E-01
RMM:  14    -0.507130243760E+03    0.47647E-04   -0.10259E-03   897   0.559E-02    0.209E-01
RMM:  15    -0.507130295687E+03   -0.51926E-04   -0.44930E-04   749   0.523E-02    0.265E-01
RMM:  16    -0.507130140872E+03    0.15481E-03   -0.23540E-04   705   0.422E-02    0.131E-01
RMM:  17    -0.507130123708E+03    0.17164E-04   -0.20469E-04   857   0.285E-02    0.109E-01
RMM:  18    -0.507130199438E+03   -0.75729E-04   -0.21821E-04   805   0.326E-02    0.200E-01
RMM:  19    -0.507130134186E+03    0.65251E-04   -0.10454E-04   680   0.301E-02    0.119E-01
RMM:  20    -0.507130098786E+03    0.35400E-04   -0.65840E-05   733   0.216E-02    0.582E-02
RMM:  21    -0.507130109474E+03   -0.10688E-04   -0.72173E-05   880   0.169E-02    0.835E-02
RMM:  22    -0.507130110006E+03   -0.53205E-06   -0.41208E-05   783   0.152E-02    0.860E-02
RMM:  23    -0.507130093684E+03    0.16322E-04   -0.18492E-05   711   0.126E-02    0.377E-02
RMM:  24    -0.507130092150E+03    0.15346E-05   -0.14973E-05   775   0.714E-03    0.290E-02
RMM:  25    -0.507130095302E+03   -0.31521E-05   -0.13582E-05   761   0.755E-03    0.418E-02
RMM:  26    -0.507130091320E+03    0.39815E-05   -0.53233E-06   561   0.678E-03    0.179E-02
RMM:  27    -0.507130091582E+03   -0.26179E-06   -0.32705E-06   491   0.463E-03
   5 F= -.52049201E+03 E0= -.51790552E+03  d E =-.517297E+01
       N       E                     dE             d eps       ncg     rms          rms(c)
DAV:   1    -0.507100820766E+03    0.29271E-01   -0.24567E+00   654   0.207E+00    0.305E-01
RMM:   2    -0.507113919493E+03   -0.13099E-01   -0.10460E-01   908   0.579E-01    0.111E+00
RMM:   3    -0.507112889169E+03    0.10303E-02   -0.10681E-02   695   0.262E-01    0.102E+00
RMM:   4    -0.507116099832E+03   -0.32107E-02   -0.10363E-02   829   0.210E-01    0.150E+00
RMM:   5    -0.507113795725E+03    0.23041E-02   -0.49357E-03   739   0.164E-01    0.105E+00
RMM:   6    -0.507110941734E+03    0.28540E-02   -0.20662E-03   667   0.141E-01    0.481E-01
RMM:   7    -0.507110972366E+03   -0.30632E-04   -0.26568E-03   762   0.118E-01    0.561E-01
RMM:   8    -0.507113843178E+03   -0.28708E-02   -0.85073E-03   777   0.201E-01    0.108E+00
RMM:   9    -0.507111727023E+03    0.21162E-02   -0.40649E-03   668   0.198E-01    0.691E-01
RMM:  10    -0.507110614950E+03    0.11121E-02   -0.23639E-03   679   0.134E-01    0.369E-01
RMM:  11    -0.507111716155E+03   -0.11012E-02   -0.40634E-03   816   0.134E-01    0.727E-01
RMM:  12    -0.507110675626E+03    0.10405E-02   -0.14393E-03   669   0.114E-01    0.391E-01
RMM:  13    -0.507110273529E+03    0.40210E-03   -0.70153E-04   724   0.691E-02    0.203E-01
RMM:  14    -0.507110378592E+03   -0.10506E-03   -0.68312E-04   843   0.520E-02    0.290E-01
RMM:  15    -0.507110271459E+03    0.10713E-03   -0.30331E-04   703   0.473E-02    0.187E-01
RMM:  16    -0.507110176747E+03    0.94712E-04   -0.15359E-04   679   0.366E-02    0.105E-01
RMM:  17    -0.507110179711E+03   -0.29634E-05   -0.15920E-04   860   0.248E-02    0.108E-01
RMM:  18    -0.507110234737E+03   -0.55027E-04   -0.16068E-04   793   0.290E-02    0.171E-01
RMM:  19    -0.507110179880E+03    0.54857E-04   -0.75634E-05   692   0.266E-02    0.921E-02
RMM:  20    -0.507110161928E+03    0.17953E-04   -0.51881E-05   788   0.169E-02    0.575E-02
RMM:  21    -0.507110175713E+03   -0.13785E-04   -0.55105E-05   869   0.149E-02    0.882E-02
RMM:  22    -0.507110166297E+03    0.94154E-05   -0.24550E-05   728   0.133E-02    0.574E-02
RMM:  23    -0.507110158758E+03    0.75392E-05   -0.12716E-05   703   0.922E-03    0.277E-02
RMM:  24    -0.507110160214E+03   -0.14559E-05   -0.11314E-05   719   0.633E-03    0.321E-02
RMM:  25    -0.507110161751E+03   -0.15371E-05   -0.68364E-06   636   0.656E-03    0.298E-02
RMM:  26    -0.507110160414E+03    0.13369E-05   -0.31257E-06   480   0.542E-03    0.157E-02
RMM:  27    -0.507110161633E+03   -0.12183E-05   -0.28455E-06   477   0.423E-03    0.231E-02
RMM:  28    -0.507110163554E+03   -0.19216E-05   -0.31022E-06   487   0.509E-03    0.247E-02
RMM:  29    -0.507110162924E+03    0.63073E-06   -0.16471E-06   411   0.457E-03
   6 F= -.52047166E+03 E0= -.51788427E+03  d E =-.517478E+01
       N       E                     dE             d eps       ncg     rms          rms(c)
DAV:   1    -0.507128448758E+03   -0.18285E-01   -0.49628E+00   654   0.300E+00    0.401E-01
RMM:   2    -0.507150037793E+03   -0.21589E-01   -0.17952E-01   881   0.750E-01    0.133E+00
RMM:   3    -0.507148971957E+03    0.10658E-02   -0.20509E-02   699   0.368E-01    0.128E+00
RMM:   4    -0.507154378688E+03   -0.54067E-02   -0.19940E-02   889   0.265E-01    0.192E+00
RMM:   5    -0.507149894389E+03    0.44843E-02   -0.71996E-03   732   0.204E-01    0.130E+00
RMM:   6    -0.507145563803E+03    0.43306E-02   -0.39804E-03   701   0.180E-01    0.608E-01
RMM:   7    -0.507146506513E+03   -0.94271E-03   -0.64067E-03   801   0.173E-01    0.886E-01
RMM:   8    -0.507151462478E+03   -0.49560E-02   -0.12773E-02   788   0.254E-01    0.155E+00
RMM:   9    -0.507146148592E+03    0.53139E-02   -0.57450E-03   658   0.245E-01    0.697E-01
RMM:  10    -0.507145448299E+03    0.70029E-03   -0.48997E-03   721   0.172E-01    0.601E-01
RMM:  11    -0.507148109121E+03   -0.26608E-02   -0.81866E-03   809   0.194E-01    0.113E+00
RMM:  12    -0.507145919066E+03    0.21901E-02   -0.31767E-03   670   0.170E-01    0.678E-01
RMM:  13    -0.507144614289E+03    0.13048E-02   -0.15027E-03   679   0.113E-01    0.281E-01
RMM:  14    -0.507144572335E+03    0.41954E-04   -0.13481E-03   878   0.677E-02    0.280E-01
RMM:  15    -0.507144636471E+03   -0.64136E-04   -0.75490E-04   806   0.609E-02    0.316E-01
RMM:  16    -0.507144388117E+03    0.24835E-03   -0.27216E-04   697   0.490E-02    0.124E-01
RMM:  17    -0.507144390953E+03   -0.28361E-05   -0.30025E-04   902   0.323E-02    0.140E-01
RMM:  18    -0.507144471989E+03   -0.81036E-04   -0.29218E-04   783   0.397E-02    0.208E-01
RMM:  19    -0.507144367842E+03    0.10415E-03   -0.11457E-04   691   0.338E-02    0.843E-02
RMM:  20    -0.507144367245E+03    0.59741E-06   -0.97448E-05   853   0.201E-02    0.929E-02
RMM:  21    -0.507144398499E+03   -0.31255E-04   -0.98252E-05   799   0.226E-02    0.136E-01
RMM:  22    -0.507144358151E+03    0.40348E-04   -0.37362E-05   703   0.190E-02    0.535E-02
RMM:  23    -0.507144354082E+03    0.40695E-05   -0.29131E-05   839   0.107E-02    0.441E-02
RMM:  24    -0.507144362029E+03   -0.79468E-05   -0.28591E-05   845   0.106E-02    0.632E-02
RMM:  25    -0.507144355162E+03    0.68663E-05   -0.11201E-05   681   0.947E-03    0.287E-02
RMM:  26    -0.507144354092E+03    0.10704E-05   -0.68804E-06   617   0.572E-03    0.196E-02
RMM:  27    -0.507144359185E+03   -0.50932E-05   -0.10970E-05   713   0.701E-03    0.391E-02
RMM:  28    -0.507144358070E+03    0.11147E-05   -0.41133E-06   517   0.633E-03    0.193E-02
RMM:  29    -0.507144358008E+03    0.62355E-07   -0.22198E-06   446   0.422E-03
   7 F= -.52050664E+03 E0= -.51792079E+03  d E =-.517169E+01
