       N       E                     dE             d eps       ncg     rms          rms(c)
DAV:   1    -0.458637045973E+03   -0.45864E+03   -0.88467E-02  8487   0.268E+00    0.806E-01
RMM:   2    -0.458775552105E+03   -0.13851E+00   -0.12455E-01  8354   0.116E+00    0.361E+00
RMM:   3    -0.458739483826E+03    0.36068E-01   -0.35983E-02  8418   0.530E-01    0.227E+00
RMM:   4    -0.458720664152E+03    0.18820E-01   -0.17241E-02  8294   0.322E-01    0.151E+00
RMM:   5    -0.458715873621E+03    0.47905E-02   -0.56128E-03  8234   0.208E-01    0.719E-01
RMM:   6    -0.458714043291E+03    0.18303E-02   -0.29704E-03  8353   0.151E-01    0.313E-01
RMM:   7    -0.458714076398E+03   -0.33107E-04   -0.14018E-03  8419   0.942E-02    0.473E-01
RMM:   8    -0.458712911160E+03    0.11652E-02   -0.91279E-04  8358   0.836E-02    0.168E-01
RMM:   9    -0.458713045197E+03   -0.13404E-03   -0.70548E-04  8424   0.663E-02    0.321E-01
RMM:  10    -0.458712430702E+03    0.61449E-03   -0.43522E-04  8328   0.577E-02    0.111E-01
RMM:  11    -0.458712553086E+03   -0.12238E-03   -0.23584E-04  8402   0.393E-02    0.144E-01
RMM:  12    -0.458712699801E+03   -0.14672E-03   -0.98250E-05  8381   0.265E-02    0.691E-02
RMM:  13    -0.458712855302E+03   -0.15550E-03   -0.46794E-05  8201   0.178E-02    0.586E-02
RMM:  14    -0.458713310528E+03   -0.45523E-03   -0.32767E-05  8203   0.135E-02    0.622E-02
RMM:  15    -0.458713546438E+03   -0.23591E-03   -0.21867E-05  8270   0.118E-02    0.335E-02
RMM:  16    -0.458714121234E+03   -0.57480E-03   -0.22576E-05  8204   0.940E-03    0.453E-02
RMM:  17    -0.458714434328E+03   -0.31309E-03   -0.13341E-05  8329   0.817E-03    0.222E-02
RMM:  18    -0.458714833863E+03   -0.39954E-03   -0.13245E-05  8247   0.695E-03    0.344E-02
RMM:  19    -0.458715436147E+03   -0.60228E-03   -0.23264E-05  8255   0.731E-03    0.270E-02
RMM:  20    -0.458715719236E+03   -0.28309E-03   -0.12665E-05  8348   0.613E-03    0.281E-02
RMM:  21    -0.458716174463E+03   -0.45523E-03   -0.28337E-05  8145   0.614E-03    0.148E-02
RMM:  22    -0.458716262800E+03   -0.88338E-04   -0.64000E-06  7339   0.406E-03    0.111E-02
RMM:  23    -0.458716364922E+03   -0.10212E-03   -0.74770E-06  7239   0.342E-03    0.941E-03
RMM:  24    -0.458716385125E+03   -0.20204E-04   -0.17397E-06  5860   0.249E-03    0.571E-03
RMM:  25    -0.458716409680E+03   -0.24555E-04   -0.21982E-06  5708   0.231E-03    0.684E-03
RMM:  26    -0.458716414904E+03   -0.52241E-05   -0.89377E-07  5346   0.220E-03    0.284E-03
RMM:  27    -0.458716417401E+03   -0.24969E-05   -0.49663E-07  5050   0.128E-03    0.378E-03
RMM:  28    -0.458716417704E+03   -0.30272E-06   -0.25219E-07  4812   0.126E-03
   1 F= -.47455523E+03 E0= -.47455523E+03  d E =0.000000E+00  mag=    78.3292
