 vasp.5.4.4.18Apr17-6-g9f103f2a35 (build Dec 15 2018 21:27:11) complex          
  
 executed on             LinuxIFC date 2022.02.19  17:31:11
 running on   72 total cores
 distrk:  each k-point on   72 cores,    1 groups
 distr:  one band on NCORES_PER_BAND=  24 cores,    3 groups


--------------------------------------------------------------------------------------------------------


 INCAR:
 POTCAR:    PAW_PBE Ni 02Aug2007                  
 POTCAR:    PAW_PBE Fe 06Sep2000                  
 POTCAR:    PAW_PBE O 08Apr2002                   
 POTCAR:    PAW_PBE H 15Jun2001                   

 ----------------------------------------------------------------------------- 
|                                                                             |
|           W    W    AA    RRRRR   N    N  II  N    N   GGGG   !!!           |
|           W    W   A  A   R    R  NN   N  II  NN   N  G    G  !!!           |
|           W    W  A    A  R    R  N N  N  II  N N  N  G       !!!           |
|           W WW W  AAAAAA  RRRRR   N  N N  II  N  N N  G  GGG   !            |
|           WW  WW  A    A  R   R   N   NN  II  N   NN  G    G                |
|           W    W  A    A  R    R  N    N  II  N    N   GGGG   !!!           |
|                                                                             |
|      For optimal performance we recommend to set                            |
|        NCORE= 4 - approx SQRT( number of cores)                             |
|      NCORE specifies how many cores store one orbital (NPAR=cpu/NCORE).     |
|      This setting can  greatly improve the performance of VASP for DFT.     |
|      The default,   NCORE=1            might be grossly inefficient         |
|      on modern multi-core architectures or massively parallel machines.     |
|      Do your own testing !!!!                                               |
|      Unfortunately you need to use the default for GW and RPA calculations. |
|      (for HF NCORE is supported but not extensively tested yet)             |
|                                                                             |
 ----------------------------------------------------------------------------- 

 POTCAR:    PAW_PBE Ni 02Aug2007                  
   VRHFIN =Ni:                                                                  
   LEXCH  = PE                                                                  
   EATOM  =  1077.6739 eV,   79.2068 Ry                                         
                                                                                
   TITEL  = PAW_PBE Ni 02Aug2007                                                
   LULTRA =        F    use ultrasoft PP ?                                      
   IUNSCR =        1    unscreen: 0-lin 1-nonlin 2-no                           
   RPACOR =    2.000    partial core radius                                     
   POMASS =   58.690; ZVAL   =   10.000    mass and valenz                      
   RCORE  =    2.300    outmost cutoff radius                                   
   RWIGS  =    2.430; RWIGS  =    1.286    wigner-seitz radius (au A)           
   ENMAX  =  269.532; ENMIN  =  202.149 eV                                      
   RCLOC  =    1.201    cutoff for local pot                                    
   LCOR   =        T    correct aug charges                                     
   LPAW   =        T    paw PP                                                  
   EAUG   =  544.565                                                            
   DEXC   =    0.000                                                            
   RMAX   =    2.357    core radius for proj-oper                               
   RAUG   =    1.300    factor for augmentation sphere                          
   RDEP   =    2.390    radius for radial grids                                 
   RDEPT  =    1.838    core radius for aug-charge                              
                                                                                
   Atomic configuration                                                         
    9 entries                                                                   
     n  l   j            E        occ.                                          
     1  0  0.50     -8206.4253   2.0000                                         
     2  0  0.50      -976.1748   2.0000                                         
     2  1  1.50      -839.0571   6.0000                                         
     3  0  0.50      -105.9991   2.0000                                         
     3  1  1.50       -66.4603   6.0000                                         
     3  2  2.50        -4.6458   9.0000                                         
     4  0  0.50        -4.4926   1.0000                                         
     4  1  1.50        -4.0817   0.0000                                         
     4  3  2.50        -1.3606   0.0000                                         
   Description                                                                  
     l       E           TYP  RCUT    TYP  RCUT                                 
     2     -4.6457903     23  2.300                                             
     2     -6.0063729     23  2.300                                             
     0     -4.4925590     23  2.300                                             
     0      5.0102601     23  2.300                                             
     1     -2.7211652     23  2.300                                             
     1     16.5183231     23  2.300                                             
  local pseudopotential read in
  partial core-charges read in
  partial kinetic energy density read in
  atomic valenz-charges read in
  non local Contribution for L=           2  read in
    real space projection operators read in
  non local Contribution for L=           2  read in
    real space projection operators read in
  non local Contribution for L=           0  read in
    real space projection operators read in
  non local Contribution for L=           0  read in
    real space projection operators read in
  non local Contribution for L=           1  read in
    real space projection operators read in
  non local Contribution for L=           1  read in
    real space projection operators read in
    PAW grid and wavefunctions read in
 
   number of l-projection  operators is LMAX  =           6
   number of lm-projection operators is LMMAX =          18
 
 POTCAR:    PAW_PBE Fe 06Sep2000                  
   VRHFIN =Fe:  d7 s1                                                           
   LEXCH  = PE                                                                  
   EATOM  =   594.3153 eV,   43.6809 Ry                                         
                                                                                
   TITEL  = PAW_PBE Fe 06Sep2000                                                
   LULTRA =        F    use ultrasoft PP ?                                      
   IUNSCR =        1    unscreen: 0-lin 1-nonlin 2-no                           
   RPACOR =    2.000    partial core radius                                     
   POMASS =   55.847; ZVAL   =    8.000    mass and valenz                      
   RCORE  =    2.300    outmost cutoff radius                                   
   RWIGS  =    2.460; RWIGS  =    1.302    wigner-seitz radius (au A)           
   ENMAX  =  267.882; ENMIN  =  200.911 eV                                      
   RCLOC  =    1.701    cutoff for local pot                                    
   LCOR   =        T    correct aug charges                                     
   LPAW   =        T    paw PP                                                  
   EAUG   =  511.368                                                            
   DEXC   =    0.000                                                            
   RMAX   =    2.356    core radius for proj-oper                               
   RAUG   =    1.300    factor for augmentation sphere                          
   RDEP   =    2.442    radius for radial grids                                 
   RDEPT  =    1.890    core radius for aug-charge                              
                                                                                
   Atomic configuration                                                         
    9 entries                                                                   
     n  l   j            E        occ.                                          
     1  0  0.50     -6993.8440   2.0000                                         
     2  0  0.50      -814.6047   2.0000                                         
     2  1  1.50      -693.3689   6.0000                                         
     3  0  0.50       -89.4732   2.0000                                         
     3  1  1.50       -55.6373   6.0000                                         
     3  2  2.50        -3.8151   7.0000                                         
     4  0  0.50        -4.2551   1.0000                                         
     4  1  1.50        -3.4015   0.0000                                         
     4  3  2.50        -1.3606   0.0000                                         
   Description                                                                  
     l       E           TYP  RCUT    TYP  RCUT                                 
     2     -3.8151135     23  2.300                                             
     2     -5.1756961     23  2.300                                             
     0     -4.2550963     23  2.300                                             
     0      7.2035603     23  2.300                                             
     1     -2.7211652     23  2.300                                             
     1     18.4316424     23  2.300                                             
  local pseudopotential read in
  partial core-charges read in
  partial kinetic energy density read in
  atomic valenz-charges read in
  non local Contribution for L=           2  read in
    real space projection operators read in
  non local Contribution for L=           2  read in
    real space projection operators read in
  non local Contribution for L=           0  read in
    real space projection operators read in
  non local Contribution for L=           0  read in
    real space projection operators read in
  non local Contribution for L=           1  read in
    real space projection operators read in
  non local Contribution for L=           1  read in
    real space projection operators read in
    PAW grid and wavefunctions read in
 
   number of l-projection  operators is LMAX  =           6
   number of lm-projection operators is LMMAX =          18
 
 POTCAR:    PAW_PBE O 08Apr2002                   
   VRHFIN =O: s2p4                                                              
   LEXCH  = PE                                                                  
   EATOM  =   432.3788 eV,   31.7789 Ry                                         
                                                                                
   TITEL  = PAW_PBE O 08Apr2002                                                 
   LULTRA =        F    use ultrasoft PP ?                                      
   IUNSCR =        1    unscreen: 0-lin 1-nonlin 2-no                           
   RPACOR =    1.200    partial core radius                                     
   POMASS =   16.000; ZVAL   =    6.000    mass and valenz                      
   RCORE  =    1.520    outmost cutoff radius                                   
   RWIGS  =    1.550; RWIGS  =    0.820    wigner-seitz radius (au A)           
   ENMAX  =  400.000; ENMIN  =  300.000 eV                                      
   ICORE  =        2    local potential                                         
   LCOR   =        T    correct aug charges                                     
   LPAW   =        T    paw PP                                                  
   EAUG   =  605.392                                                            
   DEXC   =    0.000                                                            
   RMAX   =    1.553    core radius for proj-oper                               
   RAUG   =    1.300    factor for augmentation sphere                          
   RDEP   =    1.550    radius for radial grids                                 
   RDEPT  =    1.329    core radius for aug-charge                              
                                                                                
   Atomic configuration                                                         
    4 entries                                                                   
     n  l   j            E        occ.                                          
     1  0  0.50      -514.6923   2.0000                                         
     2  0  0.50       -23.9615   2.0000                                         
     2  1  0.50        -9.0305   4.0000                                         
     3  2  1.50        -9.5241   0.0000                                         
   Description                                                                  
     l       E           TYP  RCUT    TYP  RCUT                                 
     0    -23.9615318     23  1.200                                             
     0     -9.5240782     23  1.200                                             
     1     -9.0304911     23  1.520                                             
     1      8.1634956     23  1.520                                             
     2     -9.5240782      7  1.500                                             
  local pseudopotential read in
  partial core-charges read in
  partial kinetic energy density read in
  kinetic energy density of atom read in
  atomic valenz-charges read in
  non local Contribution for L=           0  read in
    real space projection operators read in
  non local Contribution for L=           0  read in
    real space projection operators read in
  non local Contribution for L=           1  read in
    real space projection operators read in
  non local Contribution for L=           1  read in
    real space projection operators read in
    PAW grid and wavefunctions read in
 
   number of l-projection  operators is LMAX  =           4
   number of lm-projection operators is LMMAX =           8
 
 POTCAR:    PAW_PBE H 15Jun2001                   
   VRHFIN =H: ultrasoft test                                                    
   LEXCH  = PE                                                                  
   EATOM  =    12.4884 eV,    0.9179 Ry                                         
                                                                                
   TITEL  = PAW_PBE H 15Jun2001                                                 
   LULTRA =        F    use ultrasoft PP ?                                      
   IUNSCR =        0    unscreen: 0-lin 1-nonlin 2-no                           
   RPACOR =    0.000    partial core radius                                     
   POMASS =    1.000; ZVAL   =    1.000    mass and valenz                      
   RCORE  =    1.100    outmost cutoff radius                                   
   RWIGS  =    0.700; RWIGS  =    0.370    wigner-seitz radius (au A)           
   ENMAX  =  250.000; ENMIN  =  200.000 eV                                      
   RCLOC  =    0.701    cutoff for local pot                                    
   LCOR   =        T    correct aug charges                                     
   LPAW   =        T    paw PP                                                  
   EAUG   =  400.000                                                            
   RMAX   =    1.123    core radius for proj-oper                               
   RAUG   =    1.200    factor for augmentation sphere                          
   RDEP   =    1.112    radius for radial grids                                 
   RDEPT  =    0.926    core radius for aug-charge                              
                                                                                
   Atomic configuration                                                         
    2 entries                                                                   
     n  l   j            E        occ.                                          
     1  0  0.50        -6.4927   1.0000                                         
     2  1  0.50        -3.4015   0.0000                                         
   Description                                                                  
     l       E           TYP  RCUT    TYP  RCUT                                 
     0     -6.4927494     23  1.100                                             
     0      6.8029130     23  1.100                                             
     1     -4.0817478     23  1.100                                             
  local pseudopotential read in
  atomic valenz-charges read in
  non local Contribution for L=           0  read in
    real space projection operators read in
  non local Contribution for L=           0  read in
    real space projection operators read in
  non local Contribution for L=           1  read in
    real space projection operators read in
    PAW grid and wavefunctions read in
 
   number of l-projection  operators is LMAX  =           3
   number of lm-projection operators is LMMAX =           5
 
 Optimization of the real space projectors (new method)

 maximal supplied QI-value         = 16.25
 optimisation between [QCUT,QGAM] = [ 11.54, 23.24] = [ 37.28,151.24] Ry 
 Optimized for a Real-space Cutoff    1.45 Angstroem

   l    n(q)    QCUT    max X(q) W(low)/X(q) W(high)/X(q)  e(spline) 
   2      9    11.539    60.317    0.19E-03    0.47E-04    0.16E-06
   2      9    11.539    55.921    0.19E-03    0.48E-04    0.16E-06
   0     10    11.539    51.690    0.80E-04    0.50E-04    0.24E-06
   0     10    11.539    30.015    0.73E-04    0.45E-04    0.22E-06
   1     10    11.539    18.849    0.87E-04    0.16E-03    0.71E-07
   1     10    11.539    14.624    0.73E-04    0.13E-03    0.64E-07
 Optimization of the real space projectors (new method)

 maximal supplied QI-value         = 16.25
 optimisation between [QCUT,QGAM] = [ 11.54, 23.24] = [ 37.28,151.24] Ry 
 Optimized for a Real-space Cutoff    1.53 Angstroem

   l    n(q)    QCUT    max X(q) W(low)/X(q) W(high)/X(q)  e(spline) 
   2     10    11.539    80.901    0.11E-03    0.14E-03    0.21E-06
   2     10    11.539    75.754    0.11E-03    0.14E-03    0.22E-06
   0     11    11.539    58.752    0.52E-04    0.18E-04    0.33E-06
   0     11    11.539    30.679    0.44E-04    0.16E-04    0.30E-06
   1     10    11.539    17.977    0.53E-04    0.29E-04    0.13E-06
   1     10    11.539    13.559    0.44E-04    0.25E-04    0.11E-06
 Optimization of the real space projectors (new method)

 maximal supplied QI-value         = 24.76
 optimisation between [QCUT,QGAM] = [ 11.64, 23.27] = [ 37.91,151.63] Ry 
 Optimized for a Real-space Cutoff    1.14 Angstroem

   l    n(q)    QCUT    max X(q) W(low)/X(q) W(high)/X(q)  e(spline) 
   0      8    11.635    20.381    0.10E-03    0.33E-03    0.24E-06
   0      8    11.635    15.268    0.11E-03    0.35E-03    0.26E-06
   1      7    11.635     5.964    0.24E-03    0.31E-03    0.30E-06
   1      7    11.635     5.382    0.22E-03    0.25E-03    0.26E-06
 Optimization of the real space projectors (new method)

 maximal supplied QI-value         = 34.20
 optimisation between [QCUT,QGAM] = [ 11.63, 23.26] = [ 37.87,151.49] Ry 
 Optimized for a Real-space Cutoff    1.21 Angstroem

   l    n(q)    QCUT    max X(q) W(low)/X(q) W(high)/X(q)  e(spline) 
   0      8    11.629    19.460    0.17E-03    0.34E-03    0.21E-06
   0      8    11.629    12.209    0.16E-03    0.33E-03    0.21E-06
   1      8    11.629     4.655    0.18E-03    0.16E-03    0.26E-06
  PAW_PBE Ni 02Aug2007                  :
 energy of atom  1       EATOM=-1077.6739
 kinetic energy error for atom=    0.0030 (will be added to EATOM!!)
  PAW_PBE Fe 06Sep2000                  :
 energy of atom  2       EATOM= -594.3153
 kinetic energy error for atom=    0.0026 (will be added to EATOM!!)
  PAW_PBE O 08Apr2002                   :
 energy of atom  3       EATOM= -432.3788
 kinetic energy error for atom=    0.0208 (will be added to EATOM!!)
  PAW_PBE H 15Jun2001                   :
 energy of atom  4       EATOM=  -12.4884
 kinetic energy error for atom=    0.0014 (will be added to EATOM!!)
 
 
 POSCAR: POSCAR                                  
  positions in direct lattice
  velocities in cartesian coordinates
 exchange correlation table for  LEXCH =        8
   RHO(1)=    0.500       N(1)  =     2000
   RHO(2)=  100.500       N(2)  =     4000

 VTST: version 3.2, (02/03/18)

 CHAIN: initializing optimizer
 
 OPT: Using VASP Dynamics algorithm
 CHAIN: Read ICHAIN            0
 
 POSCAR: POSCAR                                  
  positions in direct lattice
  velocities in cartesian coordinates
 


--------------------------------------------------------------------------------------------------------


 ion  position               nearest neighbor table
   1  0.999  0.001  0.191-  35 2.44  59 2.48  23 2.50  32 2.50   5 2.52  40 2.52  37 2.52   2 2.53
                             4 2.53  21 2.54  34 2.54  62 2.57
   2  0.248  0.999  0.192-  59 2.45  50 2.47   6 2.48  36 2.48  37 2.50   3 2.51  28 2.52   5 2.52
                            60 2.52  21 2.53   1 2.53   8 2.56
   3  0.499  0.002  0.192-  39 2.45  36 2.49  60 2.50  30 2.50  34 2.51   2 2.51   8 2.52  11 2.52
                             7 2.53  61 2.53  50 2.54  51 2.54
   4  0.998  0.251  0.192-  35 2.46  43 2.49  42 2.49  19 2.50  34 2.50  13 2.50   7 2.53   1 2.53
                            40 2.53  10 2.53   5 2.55  46 2.55
   5  0.249  0.249  0.191-  45 2.48  36 2.48  35 2.49  37 2.50  46 2.50   6 2.51   1 2.52  42 2.52
                             2 2.52  16 2.54   4 2.55  44 2.55
   6  0.333  0.164  0.287-  38 2.44  36 2.46  17 2.46   2 2.48   9 2.48   5 2.51  45 2.52  60 2.53
                            59 2.53  15 2.55  39 2.55  35 2.57
   7  0.749  0.253  0.193-  39 2.42  18 2.46  14 2.49  48 2.49  13 2.51  34 2.51   4 2.53   3 2.53
                            10 2.53  11 2.54  36 2.55  19 2.55
   8  0.418  0.084  0.094-  37 2.49  36 2.51  16 2.51   3 2.52  11 2.52  30 2.53  28 2.53  48 2.56
                             2 2.56
   9  0.418  0.085  0.382-  68 1.84  38 2.42  17 2.46   6 2.48  60 2.50  12 2.52  49 2.52  29 2.53
                            39 2.53  31 2.56
  10  0.832  0.165  0.289-  12 2.45  41 2.45  39 2.48  34 2.48  20 2.48  43 2.50  35 2.50  62 2.53
                             7 2.53   4 2.53  18 2.54  61 2.58
  11  0.668  0.085  0.096-  34 2.51  40 2.51  48 2.51   8 2.52   3 2.52  19 2.53  30 2.54  63 2.54
                             7 2.54
  12  0.666  0.085  0.383-  68 1.85  10 2.45  20 2.49  41 2.49  39 2.50   9 2.52  49 2.53  64 2.54
                            31 2.56  61 2.58
  13  0.999  0.499  0.193-  43 2.45  22 2.47  18 2.49  53 2.50   4 2.50  42 2.51   7 2.51  19 2.52
                            50 2.52  21 2.53  14 2.53  26 2.55
  14  0.748  0.499  0.192-  15 2.47  44 2.48  18 2.49   7 2.49  48 2.49  56 2.50  57 2.52  26 2.52
                            21 2.52  23 2.53  13 2.53  36 2.57
  15  0.584  0.419  0.287-  49 2.44  56 2.45  14 2.47  44 2.48  17 2.48  45 2.49  18 2.50  36 2.52
                             6 2.55  55 2.57  39 2.57  58 2.70
  16  0.420  0.333  0.094-  36 2.51   8 2.51  37 2.52  57 2.52  44 2.52  46 2.53  24 2.54  48 2.54
                             5 2.54
  17  0.416  0.329  0.381-  66 1.84  38 2.43   6 2.46   9 2.46  15 2.48  45 2.50  49 2.50  47 2.55
                            25 2.58  58 2.60
  18  0.830  0.416  0.287-  49 2.41   7 2.46  14 2.49  56 2.49  43 2.49  13 2.49  39 2.49  15 2.50
                            27 2.52  22 2.53  20 2.53  10 2.54
  19  0.919  0.335  0.096-  48 2.49   4 2.50  40 2.51  53 2.51  13 2.52  11 2.53  26 2.54  46 2.54
                             7 2.55
  20  0.913  0.331  0.384-  67 1.87  41 2.47  10 2.48  12 2.49  43 2.50  49 2.52  18 2.53  47 2.54
                            27 2.58  54 2.60
  21  0.998  0.749  0.193-  59 2.44  50 2.48  23 2.48  22 2.48  32 2.50  26 2.52  14 2.52   2 2.53
                            13 2.53  56 2.53   1 2.54  28 2.55
  22  0.081  0.665  0.287-  29 2.43  50 2.45  13 2.47  21 2.48  43 2.49  54 2.52  59 2.53  18 2.53
                            60 2.54  56 2.55  27 2.55  52 2.62
  23  0.753  0.752  0.192-  62 2.45  21 2.48  55 2.49  63 2.49   1 2.50  32 2.51  57 2.52  56 2.52
                            14 2.53  44 2.54  51 2.57  34 2.58
  24  0.417  0.584  0.096-  46 2.49  44 2.50  51 2.51  57 2.52  30 2.52  63 2.53  16 2.54  42 2.56
                            53 2.57
  25  0.410  0.581  0.382-  66 1.88  52 2.45  54 2.47  31 2.50  47 2.50  45 2.51  55 2.55  58 2.56
                            64 2.56  17 2.58
  26  0.916  0.585  0.095-  48 2.48  32 2.48  57 2.50  53 2.51  21 2.52  14 2.52  28 2.53  19 2.54
                            13 2.55
  27  0.909  0.584  0.384-  67 1.89  56 2.44  58 2.48  49 2.48  33 2.49  18 2.52  22 2.55  29 2.58
                            20 2.58  54 2.61
  28  0.167  0.835  0.095-  32 2.48  37 2.49  53 2.50   2 2.52  50 2.53   8 2.53  26 2.53  30 2.54
                            21 2.55
  29  0.167  0.836  0.377-  60 2.40  22 2.43  59 2.44  38 2.47  33 2.50  54 2.51   9 2.53  31 2.53
                            27 2.58
  30  0.417  0.833  0.097-  51 2.49   3 2.50  53 2.52  24 2.52   8 2.53  11 2.54  28 2.54  63 2.54
                            50 2.55
  31  0.414  0.830  0.385-  68 1.86  54 2.45  25 2.50  60 2.50  52 2.52  64 2.53  29 2.53   9 2.56
                            61 2.56  12 2.56
  32  0.920  0.833  0.095-  28 2.48  26 2.48   1 2.50  21 2.50  23 2.51  57 2.53  37 2.54  63 2.54
                            40 2.57
  33  0.919  0.835  0.380-  65 1.94  56 2.46  59 2.47  62 2.49  27 2.49  29 2.50  58 2.52  64 2.55
                            41 2.56  38 2.58
  34  0.749  0.005  0.193-  61 2.46  62 2.47  10 2.48   4 2.50  11 2.51   7 2.51   3 2.51  63 2.54
                             1 2.54  51 2.55  40 2.57  23 2.58
  35  0.077  0.160  0.285-   1 2.44   4 2.46  47 2.48   5 2.49  59 2.50  10 2.50  41 2.55  62 2.55
                             6 2.57  38 2.58  43 2.58  45 2.60
  36  0.493  0.245  0.192-   6 2.46   5 2.48   2 2.48   3 2.49  39 2.50  16 2.51   8 2.51  44 2.52
                            15 2.52   7 2.55  14 2.57  48 2.57
  37  0.171  0.083  0.095-  28 2.49   8 2.49   2 2.50   5 2.50  16 2.52   1 2.52  32 2.54  46 2.57
                            40 2.58
  38  0.178  0.086  0.382-  65 1.83   9 2.42  17 2.43   6 2.44  29 2.47  47 2.55  59 2.56  33 2.58
                            35 2.58  41 2.67
  39  0.586  0.166  0.286-   7 2.42   3 2.45  49 2.47  10 2.48  18 2.49  12 2.50  36 2.50   9 2.53
                            60 2.54   6 2.55  15 2.57  61 2.59
  40  0.917  0.086  0.094-  19 2.51  11 2.51   1 2.52  63 2.53   4 2.53  46 2.55  34 2.57  32 2.57
                            37 2.58
  41  0.914  0.086  0.384-  65 1.85  10 2.45  20 2.47  12 2.49  47 2.51  64 2.53  35 2.55  33 2.56
                            62 2.58  38 2.67
  42  0.246  0.497  0.194-  45 2.46  52 2.48  43 2.49   4 2.49  13 2.51  46 2.51   5 2.52  53 2.54
                            51 2.55  24 2.56  44 2.58  50 2.59
  43  0.076  0.416  0.288-  47 2.44  13 2.45  42 2.49  18 2.49  22 2.49   4 2.49  10 2.50  20 2.50
                            54 2.55  35 2.58  45 2.62  52 2.64
  44  0.503  0.500  0.191-  15 2.48  14 2.48  45 2.48  57 2.49  24 2.50  55 2.52  36 2.52  16 2.52
                            23 2.54   5 2.55  51 2.55  42 2.58
  45  0.336  0.415  0.285-  42 2.46  47 2.47   5 2.48  44 2.48  15 2.49  17 2.50  25 2.51   6 2.52
                            52 2.54  55 2.55  35 2.60  43 2.62
  46  0.171  0.337  0.096-  24 2.49   5 2.50  42 2.51  16 2.53  19 2.54   4 2.55  53 2.55  40 2.55
                            37 2.57
  47  0.165  0.331  0.378-  43 2.44  45 2.47  35 2.48  25 2.50  41 2.51  20 2.54  38 2.55  17 2.55
                            54 2.58
  48  0.673  0.336  0.096-  26 2.48  19 2.49  14 2.49   7 2.49  11 2.51  57 2.53  16 2.54   8 2.56
                            36 2.57
  49  0.667  0.335  0.378-  18 2.41  15 2.44  39 2.47  27 2.48  17 2.50  20 2.52   9 2.52  12 2.53
                            58 2.59
  50  0.245  0.753  0.193-  22 2.45  60 2.46   2 2.47  21 2.48  53 2.51  52 2.52  13 2.52  28 2.53
                             3 2.54  30 2.55  51 2.57  42 2.59
  51  0.498  0.750  0.193-  52 2.40  61 2.41  55 2.43  30 2.49  24 2.51  63 2.52   3 2.54  44 2.55
                            34 2.55  42 2.55  23 2.57  50 2.57
  52  0.344  0.671  0.286-  61 2.39  51 2.40  55 2.41  25 2.45  42 2.48  60 2.51  31 2.52  50 2.52
                            45 2.54  54 2.58  22 2.62  43 2.64
  53  0.165  0.586  0.097-  13 2.50  28 2.50  50 2.51  26 2.51  19 2.51  30 2.52  42 2.54  46 2.55
                            24 2.57
  54  0.170  0.589  0.384-  67 1.82  31 2.45  25 2.47  29 2.51  22 2.52  43 2.55  52 2.58  47 2.58
                            20 2.60  27 2.61
  55  0.584  0.673  0.285-  61 2.37  62 2.40  52 2.41  51 2.43  23 2.49  64 2.52  44 2.52  56 2.52
                            25 2.55  45 2.55  15 2.57  58 2.69
  56  0.827  0.660  0.289-  27 2.44  15 2.45  33 2.46  18 2.49  14 2.50  23 2.52  55 2.52  21 2.53
                            22 2.55  62 2.55  59 2.58  58 2.60
  57  0.668  0.584  0.095-  44 2.49  26 2.50  63 2.51  23 2.52  14 2.52  16 2.52  24 2.52  32 2.53
                            48 2.53
  58  0.667  0.591  0.392-  66 1.89  70 2.35  64 2.46  27 2.48  33 2.52  25 2.56  49 2.59  56 2.60
                            17 2.60  55 2.69  15 2.70
  59  0.081  0.915  0.284-  21 2.44  29 2.44   2 2.45  33 2.47   1 2.48  35 2.50  22 2.53   6 2.53
                            38 2.56  60 2.57  56 2.58  62 2.60
  60  0.335  0.915  0.288-  29 2.40  50 2.46   3 2.50   9 2.50  31 2.50  52 2.51   2 2.52  61 2.53
                             6 2.53  39 2.54  22 2.54  59 2.57
  61  0.581  0.906  0.286-  55 2.37  52 2.39  51 2.41  62 2.41  34 2.46  64 2.50  60 2.53   3 2.53
                            31 2.56  10 2.58  12 2.58  39 2.59
  62  0.821  0.910  0.287-  55 2.40  61 2.41  23 2.45  34 2.47  64 2.47  33 2.49  10 2.53  56 2.55
                            35 2.55   1 2.57  41 2.58  59 2.60
  63  0.668  0.834  0.097-  23 2.49  57 2.51  51 2.52  40 2.53  24 2.53  30 2.54  34 2.54  11 2.54
                            32 2.54
  64  0.666  0.833  0.384-  69 1.82  58 2.46  62 2.47  61 2.50  55 2.52  31 2.53  41 2.53  12 2.54
                            33 2.55  25 2.56
  65  0.012  0.013  0.434-  38 1.83  41 1.85  33 1.94
  66  0.481  0.486  0.438-  17 1.84  25 1.88  58 1.89
  67  0.004  0.504  0.436-  54 1.82  20 1.87  27 1.89
  68  0.499  0.002  0.436-   9 1.84  12 1.85  31 1.86
  69  0.678  0.835  0.469-  70 1.49  64 1.82
  70  0.721  0.720  0.489-  71 0.99  69 1.49  58 2.35
  71  0.621  0.639  0.505-  70 0.99
 

IMPORTANT INFORMATION: All symmetrisations will be switched off!
NOSYMM: (Re-)initialisation of all symmetry stuff for point group C_1.

 
 

Automatic generation of k-mesh.
 generate k-points for:    3    3    1
Space group operators:
 irot       det(A)        alpha          n_x          n_y          n_z        tau_x        tau_y        tau_z
    1     1.000000     0.000000     1.000000     0.000000     0.000000     0.000000     0.000000     0.000000
 
 Subroutine IBZKPT returns following result:
 ===========================================
 
 Found      5 irreducible k-points:
 
 Following reciprocal coordinates:
            Coordinates               Weight
  0.000000  0.000000  0.000000      1.000000
  0.333333  0.000000  0.000000      2.000000
  0.000000  0.333333  0.000000      2.000000
  0.333333  0.333333  0.000000      2.000000
 -0.333333  0.333333  0.000000      2.000000
 
 Following cartesian coordinates:
            Coordinates               Weight
  0.000000  0.000000  0.000000      1.000000
  0.033002  0.019054  0.000000      2.000000
  0.000000  0.038108  0.000000      2.000000
  0.033002  0.057162  0.000000      2.000000
 -0.033002  0.019054  0.000000      2.000000
 
 TETIRR: Found     24 inequivalent tetrahedra from       54


--------------------------------------------------------------------------------------------------------




 Dimension of arrays:
   k-points           NKPTS =      5   k-points in BZ     NKDIM =      5   number of bands    NBANDS=    405
   number of dos      NEDOS =    301   number of ions     NIONS =     71
   non local maximal  LDIM  =      6   non local SUM 2l+1 LMDIM =     18
   total plane-waves  NPLWV = ******
   max r-space proj   IRMAX =   8292   max aug-charges    IRDMAX=  19623
   dimension x,y,z NGX =    80 NGY =   80 NGZ =  160
   dimension x,y,z NGXF=   160 NGYF=  160 NGZF=  320
   support grid    NGXF=   160 NGYF=  160 NGZF=  320
   ions per type =              33  31   6   1
   NGX,Y,Z   is equivalent  to a cutoff of  13.17, 13.17, 12.52 a.u.
   NGXF,Y,Z  is equivalent  to a cutoff of  26.34, 26.34, 25.03 a.u.

 SYSTEM =  SQS-NiFe                                
 POSCAR =  POSCAR                                  

 Startparameter for this run:
   NWRITE =      2    write-flag & timer
   PREC   = accura    normal or accurate (medium, high low for compatibility)
   ISTART =      1    job   : 0-new  1-cont  2-samecut
   ICHARG =      1    charge: 1-file 2-atom 10-const
   ISPIN  =      2    spin polarized calculation?
   LNONCOLLINEAR =      F non collinear calculations
   LSORBIT =      F    spin-orbit coupling
   INIWAV =      1    electr: 0-lowe 1-rand  2-diag
   LASPH  =      F    aspherical Exc in radial PAW
   METAGGA=      F    non-selfconsistent MetaGGA calc.

 Electronic Relaxation 1
   ENCUT  =  520.0 eV  38.22 Ry    6.18 a.u.  18.78 18.78 39.52*2*pi/ulx,y,z
   ENINI  =  520.0     initial cutoff
   ENAUG  =  605.4 eV  augmentation charge cutoff
   NELM   =    200;   NELMIN=  2; NELMDL=  0     # of ELM steps 
   EDIFF  = 0.1E-05   stopping-criterion for ELM
   LREAL  =      T    real-space projection
   NLSPLINE    = F    spline interpolate recip. space projectors
   LCOMPAT=      F    compatible to vasp.4.4
   GGA_COMPAT  = T    GGA compatible to vasp.4.4-vasp.4.6
   LMAXPAW     = -100 max onsite density
   LMAXMIX     =    2 max onsite mixed and CHGCAR
   VOSKOWN=      0    Vosko Wilk Nusair interpolation
   ROPT   =   -0.00025  -0.00025  -0.00025  -0.00025
 Ionic relaxation
   EDIFFG = -.2E-01   stopping-criterion for IOM
   NSW    =      0    number of steps for IOM
   NBLOCK =      1;   KBLOCK =      1    inner block; outer block 
   IBRION =     -1    ionic relax: 0-MD 1-quasi-New 2-CG
   NFREE  =      0    steps in history (QN), initial steepest desc. (CG)
   ISIF   =      2    stress and relaxation
   IWAVPR =     10    prediction:  0-non 1-charg 2-wave 3-comb
   ISYM   =      0    0-nonsym 1-usesym 2-fastsym
   LCORR  =      T    Harris-Foulkes like correction to forces

   POTIM  = 0.5000    time-step for ionic-motion
   TEIN   =    0.0    initial temperature
   TEBEG  =    0.0;   TEEND  =   0.0 temperature during run
   SMASS  =  -3.00    Nose mass-parameter (am)
   estimated Nose-frequenzy (Omega)   =  0.10E-29 period in steps =****** mass=  -0.233E-26a.u.
   SCALEE = 1.0000    scale energy and forces
   NPACO  =    256;   APACO  = 16.0  distance and # of slots for P.C.
   PSTRESS=    0.0 pullay stress

  Mass of Ions in am
   POMASS =  58.69 55.85 16.00  1.00
  Ionic Valenz
   ZVAL   =  10.00  8.00  6.00  1.00
  Atomic Wigner-Seitz radii
   RWIGS  =  -1.00 -1.00 -1.00 -1.00
  virtual crystal weights 
   VCA    =   1.00  1.00  1.00  1.00
   NELECT =     615.0000    total number of electrons
   NUPDOWN=      -1.0000    fix difference up-down

 DOS related values:
   EMIN   =  10.00;   EMAX   =-10.00  energy-range for DOS
   EFERMI =   0.00
   ISMEAR =    -5;   SIGMA  =   0.20  broadening in eV -4-tet -1-fermi 0-gaus

 Electronic relaxation 2 (details)
   IALGO  =     68    algorithm
   LDIAG  =      T    sub-space diagonalisation (order eigenvalues)
   LSUBROT=      F    optimize rotation matrix (better conditioning)
   TURBO    =      0    0=normal 1=particle mesh
   IRESTART =      0    0=no restart 2=restart with 2 vectors
   NREBOOT  =      0    no. of reboots
   NMIN     =      0    reboot dimension
   EREF     =   0.00    reference energy to select bands
   IMIX   =      4    mixing-type and parameters
     AMIX     =   0.40;   BMIX     =  1.00
     AMIX_MAG =   1.60;   BMIX_MAG =  1.00
     AMIN     =   0.10
     WC   =   100.;   INIMIX=   1;  MIXPRE=   1;  MAXMIX= -45

 Intra band minimization:
   WEIMIN = 0.0000     energy-eigenvalue tresh-hold
   EBREAK =  0.62E-09  absolut break condition
   DEPER  =   0.30     relativ break condition  

   TIME   =   0.40     timestep for ELM

  volume/ion in A,a.u.               =      26.45       178.47
  Fermi-wavevector in a.u.,A,eV,Ry     =   1.128464  2.132488 17.326077  1.273431
  Thomas-Fermi vector in A             =   2.265154
 
 Write flags
   LWAVE        =      T    write WAVECAR
   LDOWNSAMPLE  =      F    k-point downsampling of WAVECAR
   LCHARG       =      T    write CHGCAR
   LVTOT        =      F    write LOCPOT, total local potential
   LVHAR        =      F    write LOCPOT, Hartree potential only
   LELF         =      F    write electronic localiz. function (ELF)
   LORBIT       =     11    0 simple, 1 ext, 2 COOP (PROOUT), +10 PAW based schemes


 Dipole corrections
   LMONO  =      F    monopole corrections only (constant potential shift)
   LDIPOL =      T    correct potential (dipole corrections)
   IDIPOL =      3    1-x, 2-y, 3-z, 4-all directions 
   EPSILON=  1.0000000 bulk dielectric constant

 Exchange correlation treatment:
   GGA     =    --    GGA type
   LEXCH   =     8    internal setting for exchange type
   VOSKOWN=      0    Vosko Wilk Nusair interpolation
   LHFCALC =     F    Hartree Fock is set to
   LHFONE  =     F    Hartree Fock one center treatment
   AEXX    =    0.0000 exact exchange contribution

 Linear response parameters
   LEPSILON=     F    determine dielectric tensor
   LRPA    =     F    only Hartree local field effects (RPA)
   LNABLA  =     F    use nabla operator in PAW spheres
   LVEL    =     F    velocity operator in full k-point grid
   LINTERFAST=   F  fast interpolation
   KINTER  =     0    interpolate to denser k-point grid
   CSHIFT  =0.1000    complex shift for real part using Kramers Kronig
   OMEGAMAX=  -1.0    maximum frequency
   DEG_THRESHOLD= 0.2000000E-02 threshold for treating states as degnerate
   RTIME   =   -0.100 relaxation time in fs
  (WPLASMAI=    0.000 imaginary part of plasma frequency in eV, 0.658/RTIME)
   DFIELD  = 0.0000000 0.0000000 0.0000000 field for delta impulse in time
 
 Orbital magnetization related:
   ORBITALMAG=     F  switch on orbital magnetization
   LCHIMAG   =     F  perturbation theory with respect to B field
   DQ        =  0.001000  dq finite difference perturbation B field
   LLRAUG    =     F  two centre corrections for induced B field



--------------------------------------------------------------------------------------------------------


 Static calculation
 charge density and potential will be updated during run
 spin polarized calculation
 RMM-DIIS sequential band-by-band and
  variant of blocked Davidson during initial phase
 perform sub-space diagonalisation
    before iterative eigenvector-optimisation
 modified Broyden-mixing scheme, WC =      100.0
 initial mixing is a Kerker type mixing with AMIX =  0.4000 and BMIX =      1.0000
 Hartree-type preconditioning will be used
 using additional bands           97
 real space projection scheme for non local part
 use partial core corrections
 calculate Harris-corrections to forces 
   (improved forces if not selfconsistent)
 use gradient corrections 
 use of overlap-Matrix (Vanderbilt PP)
 Fermi weights with tetrahedron method with Bloechl corrections


--------------------------------------------------------------------------------------------------------


  energy-cutoff  :      520.00
  volume of cell :     1877.75
      direct lattice vectors                 reciprocal lattice vectors
    10.100310000  0.000000000  0.000000000     0.099006862  0.057161638  0.000000000
    -5.050155000  8.747125050  0.000000000     0.000000000  0.114323277  0.000000000
     0.000000000  0.000000000 21.253800000     0.000000000  0.000000000  0.047050410

  length of vectors
    10.100310000 10.100310003 21.253800000     0.114323277  0.114323277  0.047050410


 
 old parameters found on file WAVECAR:
  energy-cutoff  :      520.00
  volume of cell :     1877.75
      direct lattice vectors                 reciprocal lattice vectors
    10.100310000  0.000000000  0.000000000     0.099006862  0.057161638  0.000000000
    -5.050155000  8.747125050  0.000000000     0.000000000  0.114323277  0.000000000
     0.000000000  0.000000000 21.253800000     0.000000000  0.000000000  0.047050410

  length of vectors

 
 k-points in units of 2pi/SCALE and weight: read from INCAR                         
   0.00000000  0.00000000  0.00000000       0.111
   0.03300229  0.01905388  0.00000000       0.222
   0.00000000  0.03810776  0.00000000       0.222
   0.03300229  0.05716164  0.00000000       0.222
  -0.03300229  0.01905388  0.00000000       0.222
 
 k-points in reciprocal lattice and weights: read from INCAR                         
   0.00000000  0.00000000  0.00000000       0.111
   0.33333333  0.00000000  0.00000000       0.222
   0.00000000  0.33333333  0.00000000       0.222
   0.33333333  0.33333333  0.00000000       0.222
  -0.33333333  0.33333333  0.00000000       0.222
 
 position of ions in fractional coordinates (direct lattice) 
   0.99904300  0.00064200  0.19052300
   0.24849100  0.99862800  0.19205500
   0.49902500  0.00192700  0.19180600
   0.99813900  0.25067400  0.19194200
   0.24921500  0.24886200  0.19118600
   0.33331889  0.16447136  0.28676395
   0.74893500  0.25278100  0.19317500
   0.41837500  0.08394000  0.09411800
   0.41757605  0.08535192  0.38226899
   0.83171964  0.16531378  0.28936321
   0.66797000  0.08472300  0.09569300
   0.66646432  0.08504172  0.38262913
   0.99908600  0.49910800  0.19304000
   0.74816900  0.49871100  0.19204600
   0.58375118  0.41878270  0.28661005
   0.41961000  0.33337100  0.09414000
   0.41589599  0.32851070  0.38065606
   0.83021152  0.41588386  0.28733643
   0.91855900  0.33501600  0.09568700
   0.91337564  0.33062052  0.38434046
   0.99765800  0.74896900  0.19256000
   0.08142379  0.66517317  0.28689222
   0.75346500  0.75172800  0.19162900
   0.41737300  0.58352400  0.09623400
   0.41026635  0.58119990  0.38160595
   0.91550800  0.58461900  0.09542900
   0.90892135  0.58420647  0.38362654
   0.16682900  0.83490800  0.09456700
   0.16672298  0.83593038  0.37687380
   0.41715300  0.83338800  0.09679300
   0.41414916  0.83046292  0.38459597
   0.91985100  0.83263700  0.09539800
   0.91878959  0.83542107  0.37953137
   0.74918200  0.00453800  0.19311300
   0.07673852  0.16024935  0.28465916
   0.49319000  0.24544000  0.19167800
   0.17139600  0.08339300  0.09535900
   0.17795186  0.08609476  0.38229144
   0.58647417  0.16588697  0.28550831
   0.91693100  0.08581500  0.09410100
   0.91359915  0.08614790  0.38395570
   0.24596400  0.49669300  0.19369900
   0.07649162  0.41594264  0.28754764
   0.50297300  0.49962100  0.19096300
   0.33561950  0.41549184  0.28541457
   0.17081400  0.33724200  0.09550500
   0.16480260  0.33139192  0.37769315
   0.67264700  0.33598100  0.09600300
   0.66672081  0.33532953  0.37847743
   0.24490500  0.75270000  0.19343600
   0.49840300  0.74988300  0.19260700
   0.34365297  0.67102646  0.28587892
   0.16470600  0.58627100  0.09733100
   0.17027609  0.58930856  0.38406345
   0.58363964  0.67298523  0.28547277
   0.82675757  0.66035620  0.28883524
   0.66762500  0.58426200  0.09519900
   0.66703067  0.59060237  0.39206600
   0.08142648  0.91524681  0.28445847
   0.33508480  0.91486338  0.28793548
   0.58099500  0.90648499  0.28573263
   0.82125953  0.91024297  0.28660703
   0.66841400  0.83351100  0.09659800
   0.66561024  0.83330920  0.38373071
   0.01186216  0.01271662  0.43419018
   0.48148514  0.48644532  0.43770824
   0.00384069  0.50376521  0.43556809
   0.49945934  0.00234979  0.43581202
   0.67765162  0.83522558  0.46908791
   0.72120134  0.72005418  0.48861561
   0.62118852  0.63901855  0.50472545
 
 position of ions in cartesian coordinates  (Angst):
  10.08740180  0.00561565  4.04933774
  -2.53339006  8.73512399  4.08189856
   5.03057555  0.01685571  4.07660636
   8.81557077  2.19267682  4.07949688
   1.26035708  2.17682703  4.06342901
   2.53601819  1.43865159  6.09482358
   6.28789244  2.21110702  4.10570281
   3.80180719  0.73423368  2.00036515
   3.78660712  0.74658395  8.12466871
   7.56576596  1.44602033  6.15006785
   6.31883979  0.74108268  2.03383988
   6.30202239  0.74387057  8.13232302
   7.57050555  4.36576009  4.10283355
   5.03817098  4.36228748  4.08170727
   3.78115036  3.66314462  6.09155270
   2.55461586  2.91603783  2.00083273
   2.54164843  2.87352419  8.09038770
   6.28511577  3.63778817  6.10699103
   7.58584793  2.93042685  2.03371236
   7.55569217  2.89197907  8.16869521
   6.29424553  6.55132550  4.09263173
  -2.53682209  5.81835292  6.09754978
   3.81388716  6.57545882  4.07284444
   1.26871004  5.10415740  2.04533819
   1.20866777  5.08382816  8.11057645
   6.29449804  5.11373550  2.02822888
   6.23005421  5.11012703  8.15352171
  -2.53139019  7.30304468  2.00990810
  -2.53762421  7.31198761  8.01000039
   0.00463604  7.28974905  2.05721906
  -0.01093163  7.26416305  8.17412584
   5.08583435  7.28317996  2.02757001
   5.06105384  7.30753254  8.06648376
   7.54405284  0.03969445  4.10438508
  -0.03420122  1.40172114  6.05008882
   3.74186185  2.14689437  4.07388588
   1.31000516  0.72944900  2.02674111
   1.36257707  0.75308162  8.12514580
   5.08581601  1.45103404  6.06813656
   8.82790830  0.75063454  2.00000383
   8.79257444  0.75354644  8.16051759
  -0.02406399  4.34463578  4.11683981
  -1.32798574  3.63830227  6.11148000
   2.55701973  4.37024736  4.05868941
   1.29156279  3.63435904  6.06614413
   0.02214998  2.94989795  2.02984417
  -0.00902323  2.89872655  8.02741471
   5.09718709  2.93886782  2.04042856
   5.04062076  2.93316930  8.04408362
  -1.32763525  6.58396103  4.11125006
   1.24699942  6.55932037  4.09363066
   0.08221392  5.86955232  6.07601349
  -1.29717776  5.12818575  2.06865361
  -1.25625831  5.15475564  8.16280782
   2.49626153  5.88668598  6.06738118
   5.01560660  5.77621825  6.13884643
   3.79260580  5.11061278  2.02334051
   3.75458308  5.16607279  8.33289225
  -3.79970556  8.00577832  6.04582349
  -1.23574154  8.00242442  6.11972300
   1.29033992  7.92913756  6.07290407
   3.69810779  7.96200910  6.09148844
   2.54182886  7.29082495  2.05307457
   2.51452916  7.28905979  8.15573586
   0.05559056  0.11123390  9.22819127
   2.40652487  4.25499808  9.30296335
  -2.50530022  4.40649729  9.25747710
   5.03282740  0.02055392  9.26266161
   2.62647275  7.30582259  9.96990054
   3.64797185  6.29840398 10.38493836
   3.04705389  5.58957520 10.72733383
 


--------------------------------------------------------------------------------------------------------


 k-point  1 :   0.0000 0.0000 0.0000  plane waves:   50641
 k-point  2 :   0.3333 0.0000 0.0000  plane waves:   50572
 k-point  3 :   0.0000 0.3333 0.0000  plane waves:   50572
 k-point  4 :   0.3333 0.3333 0.0000  plane waves:   50583
 k-point  5 :  -0.3333 0.3333 0.0000  plane waves:   50572

 maximum and minimum number of plane-waves per node :      2130     2087

 maximum number of plane-waves:     50641
 maximum index in each direction: 
   IXMAX=   19   IYMAX=   18   IZMAX=   39
   IXMIN=  -19   IYMIN=  -19   IZMIN=  -39


 real space projection operators:
  total allocation   :      67332.08 KBytes
  max/ min on nodes  :       3400.08       2424.77


 parallel 3D FFT for wavefunctions:
    minimum data exchange during FFTs selected (reduces bandwidth)
 parallel 3D FFT for charge:
    minimum data exchange during FFTs selected (reduces bandwidth)


 total amount of memory used by VASP MPI-rank0   116656. kBytes
=======================================================================

   base      :      30000. kBytes
   nonlr-proj:      14058. kBytes
   fftplans  :       6403. kBytes
   grid      :      18928. kBytes
   one-center:         93. kBytes
   wavefun   :      47174. kBytes
 
     INWAV:  cpu time   11.3722: real time   11.6926
 Broyden mixing: mesh for mixing (old mesh)
   NGX = 37   NGY = 37   NGZ = 79
  (NGX  =160   NGY  =160   NGZ  =320)
  gives a total of 108151 points

 initial charge density was supplied:
 number of electron     615.0000051 magnetization      78.5071722
 keeping initial charge density in first step


--------------------------------------------------------------------------------------------------------


 Maximum index for non-local projection operator          761
 Maximum index for augmentation-charges         1120 (set IRDMAX)


--------------------------------------------------------------------------------------------------------


 First call to EWALD:  gamma=   0.144
 Maximum number of real-space cells 4x 4x 2
 Maximum number of reciprocal cells 2x 2x 4

    FEWALD:  cpu time    0.0037: real time    0.0037


--------------------------------------- Iteration      1(   1)  ---------------------------------------


    POTLOK:  cpu time    0.4187: real time    0.4267
    SETDIJ:  cpu time    0.0256: real time    0.0254
     EDDAV:  cpu time   39.9264: real time   39.9408
 BZINTS: Fermi energy:  0.077013;615.000000 electrons
         Band energy:***********;  BLOECHL correction: -0.006136
       DOS:  cpu time    0.0504: real time    0.0504
    CHARGE:  cpu time    1.0399: real time    1.0400
    MIXING:  cpu time    0.0063: real time    0.0063
    --------------------------------------------
      LOOP:  cpu time   41.4675: real time   41.4896

 eigenvalue-minimisations  :  8487
 total energy-change (2. order) :-0.4586370E+03  (-0.8846711E-02)
 number of electron     615.0000051 magnetization      78.4887893
 augmentation part      336.1229399 magnetization      65.3132025

 DIPCOR: dipole corrections for dipol
 direction  3 min pos   233,
 dipolmoment           0.000000      0.000000      0.256327 electrons x Angstroem
 Tr[quadrupol]    -10542.758188

 energy correction for charged system         0.000000 eV
 dipol+quadrupol energy correction           -0.003166 eV
 added-field ion interaction         -8.449799 eV  (added to PSCEN)


 Broyden mixing:
  rms(total) = 0.80574E-01    rms(broyden)= 0.80424E-01
  rms(prec ) = 0.84186E-01
  weight for this iteration     100.00

 Free energy of the ion-electron system (eV)
  ---------------------------------------------------
  alpha Z        PSCENC =      1466.21780313
  Ewald energy   TEWEN  =    196782.09606158
  -Hartree energ DENC   =   -252387.96603428
  -exchange      EXHF   =         0.00000000
  -V(xc)+E(xc)   XCENC  =      1316.20857685
  PAW double counting   =     62050.93443952   -64606.72235686
  entropy T*S    EENTRO =         0.00000000
  eigenvalues    EBANDS =     -1672.87386803
  atomic energy  EATOM  =     56593.46833210
  Solvation  Ediel_sol  =         0.00000000
  ---------------------------------------------------
  free energy    TOTEN  =      -458.63704597 eV

  energy without entropy =     -458.63704597  energy(sigma->0) =     -458.63704597


--------------------------------------------------------------------------------------------------------




--------------------------------------- Iteration      1(   2)  ---------------------------------------


    POTLOK:  cpu time    0.4232: real time    0.4351
    SETDIJ:  cpu time    0.0253: real time    0.0253
    EDDIAG:  cpu time    5.5836: real time    5.5853
  RMM-DIIS:  cpu time   20.3100: real time   20.3175
    ORTHCH:  cpu time    1.5668: real time    1.5670
 BZINTS: Fermi energy:  0.070363;615.000000 electrons
         Band energy:***********;  BLOECHL correction: -0.006567
       DOS:  cpu time    0.0495: real time    0.0495
    CHARGE:  cpu time    1.0275: real time    1.0276
    MIXING:  cpu time    0.0066: real time    0.0066
    --------------------------------------------
      LOOP:  cpu time   28.9925: real time   29.0139

 eigenvalue-minimisations  :  8354
 total energy-change (2. order) :-0.1385061E+00  (-0.1245518E-01)
 number of electron     615.0000051 magnetization      78.4864953
 augmentation part      336.1886825 magnetization      65.2930338

 DIPCOR: dipole corrections for dipol
 direction  3 min pos   241,
 dipolmoment           0.000000      0.000000      0.222456 electrons x Angstroem
 Tr[quadrupol]    -10543.039960

 energy correction for charged system         0.000000 eV
 dipol+quadrupol energy correction           -0.002385 eV
 added-field ion interaction         -0.327669 eV  (added to PSCEN)


 Broyden mixing:
  rms(total) = 0.36085E+00    rms(broyden)= 0.36082E+00
  rms(prec ) = 0.44331E+00
  weight for this iteration     100.00

 eigenvalues of (default mixing * dielectric matrix)
  average eigenvalue GAMMA=   0.1646
  0.1646

 Free energy of the ion-electron system (eV)
  ---------------------------------------------------
  alpha Z        PSCENC =      1474.34071427
  Ewald energy   TEWEN  =    196782.09606158
  -Hartree energ DENC   =   -252387.52850237
  -exchange      EXHF   =         0.00000000
  -V(xc)+E(xc)   XCENC  =      1316.17298806
  PAW double counting   =     62049.21273135   -64604.74061293
  entropy T*S    EENTRO =         0.00000000
  eigenvalues    EBANDS =     -1681.79726418
  atomic energy  EATOM  =     56593.46833210
  Solvation  Ediel_sol  =         0.00000000
  ---------------------------------------------------
  free energy    TOTEN  =      -458.77555210 eV

  energy without entropy =     -458.77555210  energy(sigma->0) =     -458.77555210


--------------------------------------------------------------------------------------------------------




--------------------------------------- Iteration      1(   3)  ---------------------------------------


    POTLOK:  cpu time    0.4199: real time    0.4320
    SETDIJ:  cpu time    0.0251: real time    0.0251
    EDDIAG:  cpu time    5.6006: real time    5.6030
  RMM-DIIS:  cpu time   20.4736: real time   20.4796
    ORTHCH:  cpu time    1.5592: real time    1.5593
 BZINTS: Fermi energy:  0.059761;615.000000 electrons
         Band energy:***********;  BLOECHL correction: -0.007656
       DOS:  cpu time    0.0504: real time    0.0504
    CHARGE:  cpu time    1.0358: real time    1.0359
    MIXING:  cpu time    0.0066: real time    0.0065
    --------------------------------------------
      LOOP:  cpu time   29.1711: real time   29.1918

 eigenvalue-minimisations  :  8418
 total energy-change (2. order) : 0.3606828E-01  (-0.3598278E-02)
 number of electron     615.0000051 magnetization      78.4799776
 augmentation part      336.1291781 magnetization      65.3268757

 DIPCOR: dipole corrections for dipol
 direction  3 min pos   241,
 dipolmoment           0.000000      0.000000      0.287624 electrons x Angstroem
 Tr[quadrupol]    -10543.057935

 energy correction for charged system         0.000000 eV
 dipol+quadrupol energy correction           -0.003986 eV
 added-field ion interaction         -0.423659 eV  (added to PSCEN)


 Broyden mixing:
  rms(total) = 0.22678E+00    rms(broyden)= 0.22673E+00
  rms(prec ) = 0.31506E+00
  weight for this iteration     100.00

 eigenvalues of (default mixing * dielectric matrix)
  average eigenvalue GAMMA=   0.2003
  0.3271  0.0734

 Free energy of the ion-electron system (eV)
  ---------------------------------------------------
  alpha Z        PSCENC =      1474.24312283
  Ewald energy   TEWEN  =    196782.09606158
  -Hartree energ DENC   =   -252388.95037755
  -exchange      EXHF   =         0.00000000
  -V(xc)+E(xc)   XCENC  =      1316.19918853
  PAW double counting   =     62050.49267049   -64606.13225681
  entropy T*S    EENTRO =         0.00000000
  eigenvalues    EBANDS =     -1680.15622500
  atomic energy  EATOM  =     56593.46833210
  Solvation  Ediel_sol  =         0.00000000
  ---------------------------------------------------
  free energy    TOTEN  =      -458.73948383 eV

  energy without entropy =     -458.73948383  energy(sigma->0) =     -458.73948383


--------------------------------------------------------------------------------------------------------




--------------------------------------- Iteration      1(   4)  ---------------------------------------


    POTLOK:  cpu time    0.4331: real time    0.4338
    SETDIJ:  cpu time    0.0253: real time    0.0253
    EDDIAG:  cpu time    5.5738: real time    5.5756
  RMM-DIIS:  cpu time   20.1606: real time   20.1669
    ORTHCH:  cpu time    1.5620: real time    1.5622
 BZINTS: Fermi energy:  0.068962;615.000000 electrons
         Band energy:***********;  BLOECHL correction: -0.004905
       DOS:  cpu time    0.0495: real time    0.0495
    CHARGE:  cpu time    1.0282: real time    1.0283
    MIXING:  cpu time    0.0067: real time    0.0067
    --------------------------------------------
      LOOP:  cpu time   28.8391: real time   28.8482

 eigenvalue-minimisations  :  8294
 total energy-change (2. order) : 0.1881967E-01  (-0.1724132E-02)
 number of electron     615.0000051 magnetization      78.4725684
 augmentation part      336.1055374 magnetization      65.2260485

 DIPCOR: dipole corrections for dipol
 direction  3 min pos   241,
 dipolmoment           0.000000      0.000000      0.240042 electrons x Angstroem
 Tr[quadrupol]    -10543.028863

 energy correction for charged system         0.000000 eV
 dipol+quadrupol energy correction           -0.002776 eV
 added-field ion interaction         -0.353573 eV  (added to PSCEN)


 Broyden mixing:
  rms(total) = 0.15124E+00    rms(broyden)= 0.15121E+00
  rms(prec ) = 0.18906E+00
  weight for this iteration     100.00

 eigenvalues of (default mixing * dielectric matrix)
  average eigenvalue GAMMA=   0.2349
  0.5242  0.1244  0.0562

 Free energy of the ion-electron system (eV)
  ---------------------------------------------------
  alpha Z        PSCENC =      1474.31441901
  Ewald energy   TEWEN  =    196782.09606158
  -Hartree energ DENC   =   -252388.58617652
  -exchange      EXHF   =         0.00000000
  -V(xc)+E(xc)   XCENC  =      1316.20535475
  PAW double counting   =     62050.94835211   -64606.76563912
  entropy T*S    EENTRO =         0.00000000
  eigenvalues    EBANDS =     -1680.40136808
  atomic energy  EATOM  =     56593.46833210
  Solvation  Ediel_sol  =         0.00000000
  ---------------------------------------------------
  free energy    TOTEN  =      -458.72066415 eV

  energy without entropy =     -458.72066415  energy(sigma->0) =     -458.72066415


--------------------------------------------------------------------------------------------------------




--------------------------------------- Iteration      1(   5)  ---------------------------------------


    POTLOK:  cpu time    0.4218: real time    0.4339
    SETDIJ:  cpu time    0.0251: real time    0.0252
    EDDIAG:  cpu time    5.5985: real time    5.5995
  RMM-DIIS:  cpu time   20.0701: real time   20.0773
    ORTHCH:  cpu time    1.5613: real time    1.5623
 BZINTS: Fermi energy:  0.066248;615.000000 electrons
         Band energy:***********;  BLOECHL correction: -0.006495
       DOS:  cpu time    0.0507: real time    0.0506
    CHARGE:  cpu time    1.0309: real time    1.0311
    MIXING:  cpu time    0.0068: real time    0.0068
    --------------------------------------------
      LOOP:  cpu time   28.7653: real time   28.7866

 eigenvalue-minimisations  :  8234
 total energy-change (2. order) : 0.4790531E-02  (-0.5612788E-03)
 number of electron     615.0000051 magnetization      78.4685966
 augmentation part      336.1138415 magnetization      65.2625546

 DIPCOR: dipole corrections for dipol
 direction  3 min pos   241,
 dipolmoment           0.000000      0.000000      0.251850 electrons x Angstroem
 Tr[quadrupol]    -10543.040966

 energy correction for charged system         0.000000 eV
 dipol+quadrupol energy correction           -0.003056 eV
 added-field ion interaction         -0.370966 eV  (added to PSCEN)


 Broyden mixing:
  rms(total) = 0.71927E-01    rms(broyden)= 0.71914E-01
  rms(prec ) = 0.79049E-01
  weight for this iteration     100.00

 eigenvalues of (default mixing * dielectric matrix)
  average eigenvalue GAMMA=   0.2263
  0.4888  0.2320  0.0580  0.1266

 Free energy of the ion-electron system (eV)
  ---------------------------------------------------
  alpha Z        PSCENC =      1474.29674580
  Ewald energy   TEWEN  =    196782.09606158
  -Hartree energ DENC   =   -252388.66311988
  -exchange      EXHF   =         0.00000000
  -V(xc)+E(xc)   XCENC  =      1316.16136431
  PAW double counting   =     62050.42176772   -64606.15459305
  entropy T*S    EENTRO =         0.00000000
  eigenvalues    EBANDS =     -1680.34243220
  atomic energy  EATOM  =     56593.46833210
  Solvation  Ediel_sol  =         0.00000000
  ---------------------------------------------------
  free energy    TOTEN  =      -458.71587362 eV

  energy without entropy =     -458.71587362  energy(sigma->0) =     -458.71587362


--------------------------------------------------------------------------------------------------------




--------------------------------------- Iteration      1(   6)  ---------------------------------------


    POTLOK:  cpu time    0.4193: real time    0.4325
    SETDIJ:  cpu time    0.0252: real time    0.0252
    EDDIAG:  cpu time    5.6172: real time    5.6181
  RMM-DIIS:  cpu time   20.4307: real time   20.4370
    ORTHCH:  cpu time    1.5600: real time    1.5609
 BZINTS: Fermi energy:  0.066625;615.000000 electrons
         Band energy:***********;  BLOECHL correction: -0.006499
       DOS:  cpu time    0.0508: real time    0.0508
    CHARGE:  cpu time    1.0314: real time    1.0315
    MIXING:  cpu time    0.0069: real time    0.0068
    --------------------------------------------
      LOOP:  cpu time   29.1413: real time   29.1628

 eigenvalue-minimisations  :  8353
 total energy-change (2. order) : 0.1830331E-02  (-0.2970369E-03)
 number of electron     615.0000051 magnetization      78.4552813
 augmentation part      336.1210576 magnetization      65.2468368

 DIPCOR: dipole corrections for dipol
 direction  3 min pos   241,
 dipolmoment           0.000000      0.000000      0.252006 electrons x Angstroem
 Tr[quadrupol]    -10543.047778

 energy correction for charged system         0.000000 eV
 dipol+quadrupol energy correction           -0.003060 eV
 added-field ion interaction         -0.371195 eV  (added to PSCEN)


 Broyden mixing:
  rms(total) = 0.31310E-01    rms(broyden)= 0.31305E-01
  rms(prec ) = 0.34917E-01
  weight for this iteration     100.00

 eigenvalues of (default mixing * dielectric matrix)
  average eigenvalue GAMMA=   0.3646
  0.7495  0.7495  0.0575  0.1152  0.1513

 Free energy of the ion-electron system (eV)
  ---------------------------------------------------
  alpha Z        PSCENC =      1474.29651296
  Ewald energy   TEWEN  =    196782.09606158
  -Hartree energ DENC   =   -252388.70515817
  -exchange      EXHF   =         0.00000000
  -V(xc)+E(xc)   XCENC  =      1316.13709755
  PAW double counting   =     62050.01250671   -64605.68490609
  entropy T*S    EENTRO =         0.00000000
  eigenvalues    EBANDS =     -1680.33448993
  atomic energy  EATOM  =     56593.46833210
  Solvation  Ediel_sol  =         0.00000000
  ---------------------------------------------------
  free energy    TOTEN  =      -458.71404329 eV

  energy without entropy =     -458.71404329  energy(sigma->0) =     -458.71404329


--------------------------------------------------------------------------------------------------------




--------------------------------------- Iteration      1(   7)  ---------------------------------------


    POTLOK:  cpu time    0.4192: real time    0.4333
    SETDIJ:  cpu time    0.0253: real time    0.0253
    EDDIAG:  cpu time    5.5859: real time    5.5868
  RMM-DIIS:  cpu time   20.5365: real time   20.5447
    ORTHCH:  cpu time    1.5605: real time    1.5606
 BZINTS: Fermi energy:  0.065138;615.000000 electrons
         Band energy:***********;  BLOECHL correction: -0.006558
       DOS:  cpu time    0.0508: real time    0.0507
    CHARGE:  cpu time    1.0292: real time    1.0301
    MIXING:  cpu time    0.0071: real time    0.0071
    --------------------------------------------
      LOOP:  cpu time   29.2146: real time   29.2387

 eigenvalue-minimisations  :  8419
 total energy-change (2. order) :-0.3310677E-04  (-0.1401758E-03)
 number of electron     615.0000051 magnetization      78.4487664
 augmentation part      336.1349855 magnetization      65.2359919

 DIPCOR: dipole corrections for dipol
 direction  3 min pos   241,
 dipolmoment           0.000000      0.000000      0.253567 electrons x Angstroem
 Tr[quadrupol]    -10543.038244

 energy correction for charged system         0.000000 eV
 dipol+quadrupol energy correction           -0.003098 eV
 added-field ion interaction         -0.373494 eV  (added to PSCEN)


 Broyden mixing:
  rms(total) = 0.47295E-01    rms(broyden)= 0.47293E-01
  rms(prec ) = 0.52548E-01
  weight for this iteration     100.00

 eigenvalues of (default mixing * dielectric matrix)
  average eigenvalue GAMMA=   0.3544
  0.8223  0.8223  0.0575  0.1704  0.1409  0.1130

 Free energy of the ion-electron system (eV)
  ---------------------------------------------------
  alpha Z        PSCENC =      1474.29417578
  Ewald energy   TEWEN  =    196782.09606158
  -Hartree energ DENC   =   -252388.30419574
  -exchange      EXHF   =         0.00000000
  -V(xc)+E(xc)   XCENC  =      1316.10770980
  PAW double counting   =     62049.20029886   -64604.80489205
  entropy T*S    EENTRO =         0.00000000
  eigenvalues    EBANDS =     -1680.77156674
  atomic energy  EATOM  =     56593.46833210
  Solvation  Ediel_sol  =         0.00000000
  ---------------------------------------------------
  free energy    TOTEN  =      -458.71407640 eV

  energy without entropy =     -458.71407640  energy(sigma->0) =     -458.71407640


--------------------------------------------------------------------------------------------------------




--------------------------------------- Iteration      1(   8)  ---------------------------------------


    POTLOK:  cpu time    0.4222: real time    0.4350
    SETDIJ:  cpu time    0.0254: real time    0.0253
    EDDIAG:  cpu time    5.5819: real time    5.5831
  RMM-DIIS:  cpu time   20.4235: real time   20.4308
    ORTHCH:  cpu time    1.5611: real time    1.5613
 BZINTS: Fermi energy:  0.068966;615.000000 electrons
         Band energy:***********;  BLOECHL correction: -0.006525
       DOS:  cpu time    0.0495: real time    0.0495
    CHARGE:  cpu time    1.0287: real time    1.0288
    MIXING:  cpu time    0.0075: real time    0.0074
    --------------------------------------------
      LOOP:  cpu time   29.1000: real time   29.1213

 eigenvalue-minimisations  :  8358
 total energy-change (2. order) : 0.1165237E-02  (-0.9127871E-04)
 number of electron     615.0000051 magnetization      78.4372885
 augmentation part      336.1263296 magnetization      65.2378165

 DIPCOR: dipole corrections for dipol
 direction  3 min pos   239,
 dipolmoment           0.000000      0.000000      0.254377 electrons x Angstroem
 Tr[quadrupol]    -10542.981258

 energy correction for charged system         0.000000 eV
 dipol+quadrupol energy correction           -0.003118 eV
 added-field ion interaction         -2.377391 eV  (added to PSCEN)


 Broyden mixing:
  rms(total) = 0.16800E-01    rms(broyden)= 0.16797E-01
  rms(prec ) = 0.18584E-01
  weight for this iteration     100.00

 eigenvalues of (default mixing * dielectric matrix)
  average eigenvalue GAMMA=   0.4217
  0.9729  0.9729  0.5518  0.0575  0.1560  0.1277  0.1131

 Free energy of the ion-electron system (eV)
  ---------------------------------------------------
  alpha Z        PSCENC =      1472.29025928
  Ewald energy   TEWEN  =    196782.09606158
  -Hartree energ DENC   =   -252388.64764485
  -exchange      EXHF   =         0.00000000
  -V(xc)+E(xc)   XCENC  =      1316.10554146
  PAW double counting   =     62049.01781425   -64604.62683832
  entropy T*S    EENTRO =         0.00000000
  eigenvalues    EBANDS =     -1678.41643668
  atomic energy  EATOM  =     56593.46833210
  Solvation  Ediel_sol  =         0.00000000
  ---------------------------------------------------
  free energy    TOTEN  =      -458.71291116 eV

  energy without entropy =     -458.71291116  energy(sigma->0) =     -458.71291116


--------------------------------------------------------------------------------------------------------




--------------------------------------- Iteration      1(   9)  ---------------------------------------


    POTLOK:  cpu time    0.4205: real time    0.4357
    SETDIJ:  cpu time    0.0254: real time    0.0253
    EDDIAG:  cpu time    5.5919: real time    5.5929
  RMM-DIIS:  cpu time   20.5553: real time   20.5646
    ORTHCH:  cpu time    1.5640: real time    1.5642
 BZINTS: Fermi energy:  0.071057;615.000000 electrons
         Band energy:***********;  BLOECHL correction: -0.006553
       DOS:  cpu time    0.0484: real time    0.0484
    CHARGE:  cpu time    1.0289: real time    1.0289
    MIXING:  cpu time    0.0075: real time    0.0075
    --------------------------------------------
      LOOP:  cpu time   29.2420: real time   29.2676

 eigenvalue-minimisations  :  8424
 total energy-change (2. order) :-0.1340369E-03  (-0.7054781E-04)
 number of electron     615.0000051 magnetization      78.4240912
 augmentation part      336.1230162 magnetization      65.2268129

 DIPCOR: dipole corrections for dipol
 direction  3 min pos   238,
 dipolmoment           0.000000      0.000000      0.253265 electrons x Angstroem
 Tr[quadrupol]    -10542.952586

 energy correction for charged system         0.000000 eV
 dipol+quadrupol energy correction           -0.003091 eV
 added-field ion interaction         -3.363977 eV  (added to PSCEN)


 Broyden mixing:
  rms(total) = 0.32090E-01    rms(broyden)= 0.32089E-01
  rms(prec ) = 0.35632E-01
  weight for this iteration     100.00

 eigenvalues of (default mixing * dielectric matrix)
  average eigenvalue GAMMA=   0.4431
  1.1469  1.1469  0.6512  0.0575  0.1551  0.1551  0.1114  0.1211

 Free energy of the ion-electron system (eV)
  ---------------------------------------------------
  alpha Z        PSCENC =      1471.30370041
  Ewald energy   TEWEN  =    196782.09606158
  -Hartree energ DENC   =   -252388.86746171
  -exchange      EXHF   =         0.00000000
  -V(xc)+E(xc)   XCENC  =      1316.09500393
  PAW double counting   =     62048.58887021   -64604.21142697
  entropy T*S    EENTRO =         0.00000000
  eigenvalues    EBANDS =     -1677.18612476
  atomic energy  EATOM  =     56593.46833210
  Solvation  Ediel_sol  =         0.00000000
  ---------------------------------------------------
  free energy    TOTEN  =      -458.71304520 eV

  energy without entropy =     -458.71304520  energy(sigma->0) =     -458.71304520


--------------------------------------------------------------------------------------------------------




--------------------------------------- Iteration      1(  10)  ---------------------------------------


    POTLOK:  cpu time    0.4191: real time    0.4318
    SETDIJ:  cpu time    0.0252: real time    0.0252
    EDDIAG:  cpu time    5.5981: real time    5.5997
  RMM-DIIS:  cpu time   20.3749: real time   20.3815
    ORTHCH:  cpu time    1.5652: real time    1.5653
 BZINTS: Fermi energy:  0.076236;615.000000 electrons
         Band energy:***********;  BLOECHL correction: -0.006517
       DOS:  cpu time    0.0507: real time    0.0507
    CHARGE:  cpu time    1.0295: real time    1.0297
    MIXING:  cpu time    0.0078: real time    0.0078
    --------------------------------------------
      LOOP:  cpu time   29.0706: real time   29.0918

 eigenvalue-minimisations  :  8328
 total energy-change (2. order) : 0.6144948E-03  (-0.4352238E-04)
 number of electron     615.0000051 magnetization      78.4171247
 augmentation part      336.1198247 magnetization      65.2181886

 DIPCOR: dipole corrections for dipol
 direction  3 min pos   235,
 dipolmoment           0.000000      0.000000      0.253004 electrons x Angstroem
 Tr[quadrupol]    -10542.849960

 energy correction for charged system         0.000000 eV
 dipol+quadrupol energy correction           -0.003084 eV
 added-field ion interaction         -6.348349 eV  (added to PSCEN)


 Broyden mixing:
  rms(total) = 0.11056E-01    rms(broyden)= 0.11054E-01
  rms(prec ) = 0.12347E-01
  weight for this iteration     100.00

 eigenvalues of (default mixing * dielectric matrix)
  average eigenvalue GAMMA=   0.4642
  1.2609  1.2609  0.6662  0.3959  0.0575  0.1634  0.1417  0.1194  0.1117

 Free energy of the ion-electron system (eV)
  ---------------------------------------------------
  alpha Z        PSCENC =      1468.31933464
  Ewald energy   TEWEN  =    196782.09606158
  -Hartree energ DENC   =   -252388.93105801
  -exchange      EXHF   =         0.00000000
  -V(xc)+E(xc)   XCENC  =      1316.08569481
  PAW double counting   =     62048.11120035   -64603.74666886
  entropy T*S    EENTRO =         0.00000000
  eigenvalues    EBANDS =     -1674.11532732
  atomic energy  EATOM  =     56593.46833210
  Solvation  Ediel_sol  =         0.00000000
  ---------------------------------------------------
  free energy    TOTEN  =      -458.71243070 eV

  energy without entropy =     -458.71243070  energy(sigma->0) =     -458.71243070


--------------------------------------------------------------------------------------------------------




--------------------------------------- Iteration      1(  11)  ---------------------------------------


    POTLOK:  cpu time    0.4220: real time    0.4348
    SETDIJ:  cpu time    0.0253: real time    0.0253
    EDDIAG:  cpu time    5.5767: real time    5.5784
  RMM-DIIS:  cpu time   20.5376: real time   20.5446
    ORTHCH:  cpu time    1.5644: real time    1.5646
 BZINTS: Fermi energy:  0.078029;615.000000 electrons
         Band energy:***********;  BLOECHL correction: -0.006525
       DOS:  cpu time    0.0426: real time    0.0426
    CHARGE:  cpu time    1.0297: real time    1.0298
    MIXING:  cpu time    0.0078: real time    0.0077
    --------------------------------------------
      LOOP:  cpu time   29.2060: real time   29.2278

 eigenvalue-minimisations  :  8402
 total energy-change (2. order) :-0.1223833E-03  (-0.2358416E-04)
 number of electron     615.0000051 magnetization      78.4065402
 augmentation part      336.1232609 magnetization      65.2095219

 DIPCOR: dipole corrections for dipol
 direction  3 min pos   234,
 dipolmoment           0.000000      0.000000      0.253202 electrons x Angstroem
 Tr[quadrupol]    -10542.822058

 energy correction for charged system         0.000000 eV
 dipol+quadrupol energy correction           -0.003089 eV
 added-field ion interaction         -7.350044 eV  (added to PSCEN)


 Broyden mixing:
  rms(total) = 0.14378E-01    rms(broyden)= 0.14377E-01
  rms(prec ) = 0.16115E-01
  weight for this iteration     100.00

 eigenvalues of (default mixing * dielectric matrix)
  average eigenvalue GAMMA=   0.5092
  1.8451  1.0813  0.8136  0.6164  0.0575  0.1642  0.1538  0.1318  0.1109  0.1172

 Free energy of the ion-electron system (eV)
  ---------------------------------------------------
  alpha Z        PSCENC =      1467.31763541
  Ewald energy   TEWEN  =    196782.09606158
  -Hartree energ DENC   =   -252389.04730678
  -exchange      EXHF   =         0.00000000
  -V(xc)+E(xc)   XCENC  =      1316.08128129
  PAW double counting   =     62047.77084451   -64603.37955454
  entropy T*S    EENTRO =         0.00000000
  eigenvalues    EBANDS =     -1673.01984668
  atomic energy  EATOM  =     56593.46833210
  Solvation  Ediel_sol  =         0.00000000
  ---------------------------------------------------
  free energy    TOTEN  =      -458.71255309 eV

  energy without entropy =     -458.71255309  energy(sigma->0) =     -458.71255309


--------------------------------------------------------------------------------------------------------




--------------------------------------- Iteration      1(  12)  ---------------------------------------


    POTLOK:  cpu time    0.4232: real time    0.4351
    SETDIJ:  cpu time    0.0253: real time    0.0253
    EDDIAG:  cpu time    5.6213: real time    5.6229
  RMM-DIIS:  cpu time   20.4467: real time   20.4537
    ORTHCH:  cpu time    1.5674: real time    1.5676
 BZINTS: Fermi energy:  0.079131;615.000000 electrons
         Band energy:***********;  BLOECHL correction: -0.006537
       DOS:  cpu time    0.0471: real time    0.0471
    CHARGE:  cpu time    1.0512: real time    1.0513
    MIXING:  cpu time    0.0081: real time    0.0081
    --------------------------------------------
      LOOP:  cpu time   29.1903: real time   29.2111

 eigenvalue-minimisations  :  8381
 total energy-change (2. order) :-0.1467156E-03  (-0.9824991E-05)
 number of electron     615.0000051 magnetization      78.4024711
 augmentation part      336.1268753 magnetization      65.2083305

 DIPCOR: dipole corrections for dipol
 direction  3 min pos   233,
 dipolmoment           0.000000      0.000000      0.253760 electrons x Angstroem
 Tr[quadrupol]    -10542.783153

 energy correction for charged system         0.000000 eV
 dipol+quadrupol energy correction           -0.003103 eV
 added-field ion interaction         -8.365183 eV  (added to PSCEN)


 Broyden mixing:
  rms(total) = 0.69055E-02    rms(broyden)= 0.69046E-02
  rms(prec ) = 0.75259E-02
  weight for this iteration     100.00

 eigenvalues of (default mixing * dielectric matrix)
  average eigenvalue GAMMA=   0.4981
  1.9563  1.0724  0.8546  0.6271  0.2360  0.0575  0.1713  0.1465  0.1298  0.1112
  0.1168

 Free energy of the ion-electron system (eV)
  ---------------------------------------------------
  alpha Z        PSCENC =      1466.30248255
  Ewald energy   TEWEN  =    196782.09606158
  -Hartree energ DENC   =   -252388.88917847
  -exchange      EXHF   =         0.00000000
  -V(xc)+E(xc)   XCENC  =      1316.08213879
  PAW double counting   =     62047.39116851   -64602.97880250
  entropy T*S    EENTRO =         0.00000000
  eigenvalues    EBANDS =     -1672.18490237
  atomic energy  EATOM  =     56593.46833210
  Solvation  Ediel_sol  =         0.00000000
  ---------------------------------------------------
  free energy    TOTEN  =      -458.71269980 eV

  energy without entropy =     -458.71269980  energy(sigma->0) =     -458.71269980


--------------------------------------------------------------------------------------------------------




--------------------------------------- Iteration      1(  13)  ---------------------------------------


    POTLOK:  cpu time    0.4241: real time    0.4375
    SETDIJ:  cpu time    0.0253: real time    0.0253
    EDDIAG:  cpu time    5.6148: real time    5.6166
  RMM-DIIS:  cpu time   19.9129: real time   19.9209
    ORTHCH:  cpu time    1.5642: real time    1.5644
[...]
   0.113E+02 -.383E+02 0.860E+03   -.112E+02 0.383E+02 -.861E+03   -.107E+00 -.110E+00 -.336E+00   -.358E-03 0.233E-03 0.534E-02
   0.630E+02 -.480E+02 0.229E+04   -.635E+02 0.483E+02 -.229E+04   0.404E+00 -.374E+00 -.237E+01   -.963E-03 -.944E-04 0.171E-02
   -.160E+02 -.788E+02 -.195E+04   0.166E+02 0.792E+02 0.195E+04   -.615E+00 -.419E+00 0.155E+01   -.127E-03 -.739E-03 0.112E-02
   0.215E+02 0.408E+02 -.536E+03   -.216E+02 -.406E+02 0.536E+03   0.123E+00 -.144E+00 0.567E+00   0.585E-03 -.766E-03 0.556E-02
   -.194E+02 0.103E+02 0.229E+04   0.196E+02 -.104E+02 -.228E+04   -.189E+00 0.453E-01 -.277E+01   0.658E-03 -.543E-04 0.178E-02
   0.122E+02 -.982E+02 -.193E+04   -.129E+02 0.994E+02 0.193E+04   0.646E+00 -.115E+01 0.206E+01   -.531E-03 -.535E-03 0.644E-03
   -.458E+02 -.438E+02 0.803E+03   0.457E+02 0.437E+02 -.804E+03   0.146E+00 0.221E+00 -.339E+00   -.380E-03 -.378E-03 0.442E-02
   -.129E+03 -.181E+02 -.594E+03   0.130E+03 0.180E+02 0.594E+03   -.625E+00 0.104E+00 0.368E+00   -.666E-03 -.354E-03 0.469E-02
   0.688E+02 -.335E+02 0.854E+03   -.690E+02 0.334E+02 -.854E+03   0.426E-01 0.321E+00 -.266E+00   -.989E-04 0.463E-03 0.453E-02
   0.709E+02 -.346E+02 -.510E+03   -.714E+02 0.344E+02 0.509E+03   0.591E+00 0.123E+00 0.833E+00   -.203E-03 -.428E-03 0.435E-02
   0.291E+01 -.495E+01 0.226E+04   -.285E+01 0.464E+01 -.226E+04   -.405E-01 0.174E+00 -.280E+01   -.314E-03 -.986E-04 0.163E-02
   0.113E+02 0.127E+02 -.194E+04   -.117E+02 -.126E+02 0.194E+04   0.425E+00 -.763E-01 0.475E+01   -.778E-03 -.427E-03 0.144E-02
   0.429E+02 -.637E+01 0.228E+04   -.431E+02 0.630E+01 -.227E+04   0.153E+00 -.211E+00 -.251E+01   0.368E-03 0.123E-02 0.120E-02
   0.171E+02 0.419E+01 -.201E+04   -.170E+02 -.382E+01 0.201E+04   -.972E-01 -.361E+00 0.394E+01   0.647E-03 0.214E-04 0.145E-02
   -.102E+03 0.466E+02 0.807E+03   0.102E+03 -.468E+02 -.807E+03   -.104E-01 0.148E+00 -.203E+00   -.523E-03 -.345E-03 0.510E-02
   -.158E+01 0.415E+02 0.832E+03   0.156E+01 -.415E+02 -.831E+03   0.264E+00 0.712E-01 -.574E+00   0.757E-03 0.458E-03 0.530E-02
   0.642E+01 0.533E+02 -.494E+03   -.589E+01 -.531E+02 0.495E+03   -.539E+00 -.123E+00 -.545E+00   -.532E-04 0.885E-03 0.454E-02
   -.730E+02 0.227E+02 0.223E+04   0.734E+02 -.227E+02 -.222E+04   -.384E+00 0.104E+00 -.292E+01   -.538E-03 -.655E-03 0.171E-02
   -.122E+03 -.241E+01 -.195E+04   0.123E+03 0.286E+01 0.195E+04   -.732E+00 -.440E+00 0.109E+01   -.910E-03 0.650E-04 0.139E-02
   0.193E+02 0.252E+02 -.507E+03   -.196E+02 -.246E+02 0.507E+03   0.271E+00 -.653E+00 0.483E+00   0.844E-03 0.186E-02 0.454E-02
   0.640E+02 -.460E+02 -.594E+03   -.637E+02 0.459E+02 0.594E+03   -.326E+00 0.357E-01 -.734E+00   0.154E-03 0.909E-03 0.488E-02
   0.531E+02 -.104E+01 0.227E+04   -.533E+02 0.106E+01 -.227E+04   0.242E+00 0.816E-01 -.291E+01   0.475E-03 0.537E-03 0.152E-02
   -.966E+02 0.295E+02 -.192E+04   0.975E+02 -.297E+02 0.192E+04   -.942E+00 0.188E+00 0.239E+01   0.789E-03 0.624E-03 0.846E-03
   0.412E+02 -.349E+02 -.547E+03   -.412E+02 0.352E+02 0.547E+03   0.686E-02 -.332E+00 0.368E+00   -.638E-03 -.451E-03 0.491E-02
   -.375E+02 0.261E+02 -.542E+03   0.374E+02 -.260E+02 0.541E+03   0.481E-01 -.132E+00 0.819E+00   0.122E-03 0.244E-03 0.519E-02
   -.683E-01 0.208E+02 -.504E+03   0.492E+00 -.212E+02 0.503E+03   -.469E+00 0.468E+00 0.443E+00   0.111E-02 0.769E-03 0.509E-02
   -.563E+01 -.145E+02 -.546E+03   0.509E+01 0.141E+02 0.545E+03   0.568E+00 0.383E+00 0.306E+00   -.515E-03 0.230E-04 0.470E-02
   0.147E+01 0.437E+01 0.223E+04   -.130E+01 -.414E+01 -.223E+04   -.356E+00 -.102E+00 -.235E+01   0.935E-03 -.301E-03 0.202E-02
   0.187E+02 -.250E+02 -.175E+04   -.187E+02 0.250E+02 0.175E+04   -.727E-01 -.387E-01 0.421E+00   0.259E-03 0.990E-03 0.425E-03
   -.480E+02 -.901E+02 -.194E+04   0.476E+02 0.875E+02 0.197E+04   0.395E+00 0.271E+01 -.267E+02   -.218E-03 -.202E-03 -.129E-02
   0.437E+02 0.976E+02 -.196E+04   -.466E+02 -.994E+02 0.198E+04   0.293E+01 0.176E+01 -.249E+02   0.409E-03 0.306E-03 -.642E-03
   -.499E+02 -.320E+01 -.201E+04   0.481E+02 0.316E+01 0.204E+04   0.180E+01 0.553E-01 -.266E+02   -.385E-03 0.108E-03 -.134E-02
   0.377E+02 -.244E+02 -.203E+04   -.375E+02 0.240E+02 0.206E+04   -.309E+00 0.426E+00 -.281E+02   0.388E-03 -.279E-04 -.127E-02
   0.126E+03 -.153E+03 -.188E+04   -.146E+03 0.176E+03 0.189E+04   0.197E+02 -.228E+02 -.129E+02   0.101E-03 0.133E-03 -.189E-02
   -.174E+03 0.682E+02 -.188E+04   0.216E+03 -.570E+02 0.188E+04   -.412E+02 -.112E+02 -.107E+01   -.996E-04 0.171E-03 -.202E-02
   0.398E+02 0.663E+02 -.336E+03   -.446E+02 -.721E+02 0.339E+03   0.483E+01 0.581E+01 -.281E+01   0.339E-04 0.569E-04 -.339E-03
 -----------------------------------------------------------------------------------------------
   0.104E+02 0.212E+02 0.125E+03   0.711E-12 -.128E-12 0.864E-11   -.104E+02 -.212E+02 -.126E+03   0.386E-03 0.713E-03 0.223E+00
 
 
 POSITION                                       TOTAL-FORCE (eV/Angst)
 -----------------------------------------------------------------------------------
     10.08740      0.00562      4.04934        -0.020789      0.073711     -0.310653
     -2.53339      8.73512      4.08190        -0.007127     -0.009991     -0.115656
      5.03058      0.01686      4.07661        -0.023010     -0.018285     -0.241430
      8.81557      2.19268      4.07950        -0.084002     -0.102762     -0.181984
      1.26036      2.17683      4.06343        -0.194934     -0.076009     -0.042691
      2.53602      1.43865      6.09482        -0.015134      0.001474     -0.015684
      6.28789      2.21111      4.10570         0.170151     -0.080059     -0.344886
      3.80181      0.73423      2.00037         0.098559      0.009767      0.459099
      3.78661      0.74658      8.12467         0.031718     -0.002528     -0.010000
      7.56577      1.44602      6.15007         0.019222     -0.027612     -0.002115
      6.31884      0.74108      2.03384         0.014519     -0.036142      0.427478
      6.30202      0.74387      8.13232         0.029863     -0.010457      0.002817
      7.57051      4.36576      4.10283         0.040460      0.097734     -0.412085
      5.03817      4.36229      4.08171        -0.075383     -0.009546     -0.193537
      3.78115      3.66314      6.09155        -0.014453     -0.000616     -0.002666
      2.55462      2.91604      2.00083         0.072227      0.121025      0.379739
      2.54165      2.87352      8.09039         0.021948      0.030928     -0.013416
      6.28512      3.63779      6.10699        -0.012408     -0.012635     -0.011778
      7.58585      2.93043      2.03371         0.128668      0.027940      0.432221
      7.55569      2.89198      8.16870        -0.000219     -0.003320     -0.001392
      6.29425      6.55133      4.09263         0.029054     -0.064173     -0.208115
     -2.53682      5.81835      6.09755         0.024832      0.004553     -0.020907
      3.81389      6.57546      4.07284        -0.308305     -0.011890     -0.152784
      1.26871      5.10416      2.04534        -0.046979      0.002357      0.352406
      1.20867      5.08383      8.11058         0.006254      0.050413      0.006287
      6.29450      5.11374      2.02823        -0.011309      0.074733      0.408476
      6.23005      5.11013      8.15352         0.008607      0.016943      0.028967
     -2.53139      7.30304      2.00991         0.025901     -0.148305      0.329279
     -2.53762      7.31199      8.01000        -0.017685     -0.004061      0.001948
      0.00464      7.28975      2.05722        -0.020836      0.044841      0.226664
     -0.01093      7.26416      8.17413         0.021997     -0.013926     -0.010855
      5.08583      7.28318      2.02757        -0.186969      0.075980      0.331259
      5.06105      7.30753      8.06648         0.035625      0.014545      0.032522
      7.54405      0.03969      4.10439         0.194485      0.011930     -0.334578
     -0.03420      1.40172      6.05009         0.017610      0.027097     -0.027044
      3.74186      2.14689      4.07389         0.019402     -0.059425     -0.460923
      1.31001      0.72945      2.02674        -0.035651     -0.037799      0.221097
      1.36258      0.75308      8.12515        -0.031762     -0.013765      0.022909
      5.08582      1.45103      6.06814        -0.005915     -0.002097     -0.056394
      8.82791      0.75063      2.00000        -0.026681     -0.096619      0.132410
      8.79257      0.75355      8.16052        -0.002103      0.008760      0.005459
     -0.02406      4.34464      4.11684         0.062968      0.090070     -0.417614
     -1.32799      3.63830      6.11148        -0.031277      0.005415     -0.044779
      2.55702      4.37025      4.05869        -0.175967      0.226725     -0.304943
      1.29156      3.63436      6.06614         0.000433     -0.018987     -0.043359
      0.02215      2.94990      2.02984         0.010407     -0.139519      0.066382
     -0.00902      2.89873      8.02741         0.007192      0.003562     -0.015463
      5.09719      2.93887      2.04043        -0.050273     -0.266793      0.077493
      5.04062      2.93317      8.04408        -0.015582      0.018298     -0.017097
     -1.32764      6.58396      4.11125         0.130380     -0.049803     -0.441808
      1.24700      6.55932      4.09363         0.253735     -0.001611      0.341054
      0.08221      5.86955      6.07601        -0.001223     -0.005312      0.035184
     -1.29718      5.12819      2.06865         0.063265      0.097271      0.218454
     -1.25626      5.15476      8.16281         0.014166      0.002464     -0.010517
      2.49626      5.88669      6.06738         0.014104     -0.055380      0.008787
      5.01561      5.77622      6.13885        -0.011519      0.003176     -0.016649
      3.79261      5.11061      2.02334         0.063670      0.098658     -0.068507
      3.75458      5.16607      8.33289        -0.036703      0.021291     -0.013411
     -3.79971      8.00578      6.04582         0.009191     -0.008522     -0.028192
     -1.23574      8.00242      6.11972        -0.003811     -0.004809     -0.035369
      1.29034      7.92914      6.07290        -0.039201      0.036817      0.006409
      3.69811      7.96201      6.09149         0.020990      0.014286      0.010303
      2.54183      7.29082      2.05307        -0.169851      0.126399      0.050430
      2.51453      7.28906      8.15574        -0.008972     -0.051639      0.047184
      0.05559      0.11123      9.22819        -0.004899      0.020155     -0.019064
      2.40652      4.25500      9.30296         0.015425     -0.003614      0.034743
     -2.50530      4.40650      9.25748        -0.011082      0.021442      0.017018
      5.03283      0.02055      9.26266        -0.010864      0.005347     -0.002652
      2.62647      7.30582      9.96990         0.002388      0.001931     -0.077082
      3.64797      6.29840     10.38494         0.018955     -0.023122      0.010776
      3.04705      5.58958     10.72733         0.014503     -0.016907      0.002825
 -----------------------------------------------------------------------------------
    total drift:                                0.000635     -0.005686     -0.003287


--------------------------------------------------------------------------------------------------------



  FREE ENERGIE OF THE ION-ELECTRON SYSTEM (eV)
  ---------------------------------------------------
  free  energy   TOTEN  =      -474.55522792 eV

  energy  without entropy=     -474.55522792  energy(sigma->0) =     -474.55522792
 


--------------------------------------------------------------------------------------------------------


    POTLOK:  cpu time    0.4508: real time    0.4510


--------------------------------------------------------------------------------------------------------


 stress matrix after NEB project (eV)
    -32.96543     -0.41325      0.52725
     -0.41325    -35.47187      0.26352
      0.52725      0.26352     -9.26670
  FORCES: max atom, RMS     0.077143    0.028290
  FORCE total and by dimension    0.238375    0.077082
  Stress total and by dimension   49.314111   35.471874
 writing wavefunctions
     LOOP+:  cpu time  877.9501: real time  931.4101
    4ORBIT:  cpu time    0.0000: real time    0.0000
 


 total charge     
 
# of ion       s       p       d       tot
------------------------------------------
    1        0.506   0.508   8.327   9.341
    2        0.504   0.512   8.332   9.348
    3        0.511   0.511   8.328   9.349
    4        0.507   0.510   8.320   9.336
    5        0.509   0.521   8.322   9.352
    6        0.519   0.534   8.323   9.375
    7        0.502   0.504   8.322   9.328
    8        0.488   0.369   8.313   9.169
    9        0.511   0.527   8.336   9.374
   10        0.518   0.524   8.348   9.389
   11        0.494   0.376   8.310   9.181
   12        0.505   0.511   8.340   9.356
   13        0.503   0.504   8.317   9.324
   14        0.504   0.512   8.319   9.335
   15        0.515   0.524   8.328   9.367
   16        0.499   0.393   8.312   9.204
   17        0.512   0.533   8.340   9.384
   18        0.511   0.512   8.338   9.361
   19        0.493   0.381   8.320   9.193
   20        0.496   0.497   8.342   9.334
   21        0.496   0.495   8.320   9.311
   22        0.511   0.514   8.332   9.357
   23        0.514   0.520   8.333   9.367
   24        0.507   0.396   8.310   9.213
   25        0.505   0.513   8.336   9.354
   26        0.492   0.376   8.320   9.188
   27        0.488   0.484   8.334   9.306
   28        0.494   0.369   8.319   9.182
   29        0.494   0.391   8.364   9.249
   30        0.490   0.373   8.322   9.184
   31        0.501   0.501   8.334   9.336
   32        0.497   0.389   8.302   9.188
   33        0.491   0.482   8.354   9.326
   34        0.479   0.513   6.176   7.168
   35        0.475   0.512   6.206   7.193
   36        0.470   0.500   6.181   7.151
   37        0.464   0.388   6.110   6.963
   38        0.485   0.530   6.193   7.209
   39        0.476   0.512   6.197   7.185
   40        0.463   0.381   6.131   6.975
   41        0.468   0.505   6.209   7.182
   42        0.481   0.518   6.227   7.227
   43        0.477   0.510   6.203   7.190
   44        0.478   0.510   6.197   7.185
   45        0.483   0.513   6.212   7.208
   46        0.468   0.386   6.141   6.995
   47        0.462   0.396   6.203   7.060
   48        0.468   0.389   6.109   6.966
   49        0.460   0.395   6.156   7.011
   50        0.475   0.510   6.196   7.181
   51        0.490   0.537   6.230   7.257
   52        0.504   0.554   6.243   7.301
   53        0.465   0.387   6.129   6.982
   54        0.477   0.511   6.182   7.170
   55        0.503   0.555   6.263   7.321
   56        0.477   0.513   6.168   7.158
   57        0.469   0.391   6.137   6.998
   58        0.432   0.471   6.169   7.072
   59        0.479   0.516   6.190   7.185
   60        0.480   0.516   6.195   7.191
   61        0.506   0.559   6.265   7.330
   62        0.500   0.546   6.223   7.269
   63        0.470   0.390   6.135   6.995
   64        0.484   0.552   6.237   7.273
   65        1.582   3.365   0.000   4.947
   66        1.577   3.366   0.000   4.943
   67        1.580   3.353   0.000   4.933
   68        1.583   3.334   0.000   4.917
   69        1.603   3.249   0.000   4.852
   70        1.592   3.379   0.000   4.971
   71        0.597   0.113   0.000   0.710
--------------------------------------------------
tot         41.465  50.689 466.627 558.782
 


 magnetization (x)
 
# of ion       s       p       d       tot
------------------------------------------
    1       -0.015  -0.038   0.631   0.577
    2       -0.019  -0.038   0.666   0.608
    3       -0.014  -0.029   0.548   0.504
    4       -0.020  -0.047   0.726   0.660
    5       -0.025  -0.051   0.700   0.623
    6       -0.018  -0.048   0.652   0.586
    7       -0.018  -0.036   0.678   0.624
    8       -0.019  -0.031   0.678   0.628
    9       -0.016  -0.024   0.543   0.503
   10       -0.010  -0.025   0.383   0.348
   11       -0.018  -0.030   0.694   0.646
   12       -0.013  -0.020   0.418   0.385
   13       -0.017  -0.036   0.727   0.674
   14       -0.021  -0.042   0.703   0.640
   15       -0.024  -0.051   0.688   0.614
   16       -0.029  -0.050   0.704   0.625
   17       -0.016  -0.027   0.544   0.501
   18       -0.015  -0.038   0.696   0.643
   19       -0.022  -0.035   0.671   0.615
   20       -0.014  -0.020   0.510   0.476
   21       -0.013  -0.032   0.700   0.654
   22       -0.018  -0.043   0.670   0.609
   23       -0.009  -0.028   0.343   0.307
   24       -0.021  -0.037   0.646   0.588
   25       -0.009  -0.013   0.395   0.373
   26       -0.020  -0.029   0.668   0.619
   27       -0.014  -0.026   0.530   0.489
   28       -0.015  -0.028   0.670   0.628
   29       -0.023  -0.018   0.741   0.701
   30       -0.012  -0.027   0.510   0.471
   31       -0.007  -0.007   0.370   0.356
   32       -0.020  -0.040   0.693   0.633
   33       -0.016  -0.027   0.300   0.258
   34        0.016  -0.004   2.511   2.524
   35       -0.003  -0.034   2.621   2.584
   36        0.005  -0.020   2.724   2.708
   37        0.011  -0.009   2.909   2.911
   38        0.009   0.002   2.623   2.634
   39        0.006  -0.016   2.648   2.638
   40        0.007  -0.016   2.830   2.820
   41        0.016   0.004   2.496   2.516
   42       -0.001  -0.026   2.380   2.353
   43        0.000  -0.026   2.629   2.603
   44        0.007  -0.010   2.558   2.555
   45        0.003  -0.018   2.534   2.519
   46        0.009  -0.019   2.821   2.811
   47       -0.008  -0.011   2.828   2.809
   48        0.015  -0.010   2.914   2.920
   49        0.007  -0.000   2.943   2.950
   50        0.009  -0.010   2.531   2.530
   51       -0.021  -0.034  -1.918  -1.973
   52       -0.022  -0.031  -1.955  -2.009
   53        0.006  -0.007   2.841   2.840
   54        0.018   0.011   2.610   2.639
   55       -0.016  -0.029  -1.736  -1.781
   56        0.015  -0.002   2.601   2.614
   57        0.010  -0.007   2.831   2.834
   58        0.012   0.006   2.680   2.698
   59        0.004  -0.016   2.695   2.683
   60        0.010  -0.008   2.597   2.598
   61       -0.014  -0.023  -1.832  -1.869
   62       -0.031  -0.048  -2.048  -2.126
   63        0.016  -0.004   2.775   2.787
   64        0.009   0.023   2.155   2.187
   65        0.003   0.088   0.000   0.091
   66        0.003   0.100   0.000   0.103
   67        0.002   0.083   0.000   0.086
   68        0.002   0.084   0.000   0.086
   69        0.002   0.110   0.000   0.112
   70        0.002   0.036   0.000   0.038
   71        0.001   0.000   0.000   0.001
--------------------------------------------------
tot         -0.443  -0.958  79.589  78.187
 
 BZINTS: Fermi energy:  0.075932;615.000000 electrons
         Band energy:***********;  BLOECHL correction: -0.006539

 total amount of memory used by VASP MPI-rank0   116656. kBytes
=======================================================================

   base      :      30000. kBytes
   nonlr-proj:      14058. kBytes
   fftplans  :       6403. kBytes
   grid      :      18928. kBytes
   one-center:         93. kBytes
   wavefun   :      47174. kBytes
 
  
  
 General timing and accounting informations for this job:
 ========================================================
  
                  Total CPU time used (sec):     1046.512
                            User time (sec):      895.060
                          System time (sec):      151.451
                         Elapsed time (sec):     1105.045
  
                   Maximum memory used (kb):      351332.
                   Average memory used (kb):           0.
  
                          Minor page faults:     15429052
                          Major page faults:            0
                 Voluntary context switches:         4809
