SQS-NiFe                                
           1
    10.100310    0.000000    0.000000
    -5.050155    8.747125    0.000000
     0.000000    0.000000   21.253800
   Ni   Fe   O    H 
  33  31   6   1
Direct configuration=     1
   0.99904300  0.00064200  0.19052300
   0.24849100  0.99862800  0.19205500
   0.49902500  0.00192700  0.19180600
   0.99813900  0.25067400  0.19194200
   0.24921500  0.24886200  0.19118600
   0.33331889  0.16447136  0.28676395
   0.74893500  0.25278100  0.19317500
   0.41837500  0.08394000  0.09411800
   0.41757605  0.08535192  0.38226899
   0.83171964  0.16531378  0.28936321
   0.66797000  0.08472300  0.09569300
   0.66646432  0.08504172  0.38262913
   0.99908600  0.49910800  0.19304000
   0.74816900  0.49871100  0.19204600
   0.58375118  0.41878270  0.28661005
   0.41961000  0.33337100  0.09414000
   0.41589599  0.32851070  0.38065606
   0.83021152  0.41588386  0.28733643
   0.91855900  0.33501600  0.09568700
   0.91337564  0.33062052  0.38434046
   0.99765800  0.74896900  0.19256000
   0.08142379  0.66517317  0.28689222
   0.75346500  0.75172800  0.19162900
   0.41737300  0.58352400  0.09623400
   0.41026635  0.58119990  0.38160595
   0.91550800  0.58461900  0.09542900
   0.90892135  0.58420647  0.38362654
   0.16682900  0.83490800  0.09456700
   0.16672298  0.83593038  0.37687380
   0.41715300  0.83338800  0.09679300
   0.41414916  0.83046292  0.38459597
   0.91985100  0.83263700  0.09539800
   0.91878959  0.83542107  0.37953137
   0.74918200  0.00453800  0.19311300
   0.07673852  0.16024935  0.28465916
   0.49319000  0.24544000  0.19167800
   0.17139600  0.08339300  0.09535900
   0.17795186  0.08609476  0.38229144
   0.58647417  0.16588697  0.28550831
   0.91693100  0.08581500  0.09410100
   0.91359915  0.08614790  0.38395570
   0.24596400  0.49669300  0.19369900
   0.07649162  0.41594264  0.28754764
   0.50297300  0.49962100  0.19096300
   0.33561950  0.41549184  0.28541457
   0.17081400  0.33724200  0.09550500
   0.16480260  0.33139192  0.37769315
   0.67264700  0.33598100  0.09600300
   0.66672081  0.33532953  0.37847743
   0.24490500  0.75270000  0.19343600
   0.49840300  0.74988300  0.19260700
   0.34365297  0.67102646  0.28587892
   0.16470600  0.58627100  0.09733100
   0.17027609  0.58930856  0.38406345
   0.58363964  0.67298523  0.28547277
   0.82675757  0.66035620  0.28883524
   0.66762500  0.58426200  0.09519900
   0.66703067  0.59060237  0.39206600
   0.08142648  0.91524681  0.28445847
   0.33508480  0.91486338  0.28793548
   0.58099500  0.90648499  0.28573263
   0.82125953  0.91024297  0.28660703
   0.66841400  0.83351100  0.09659800
   0.66561024  0.83330920  0.38373071
   0.01186216  0.01271662  0.43419018
   0.48148514  0.48644532  0.43770824
   0.00384069  0.50376521  0.43556809
   0.49945934  0.00234979  0.43581202
   0.67765162  0.83522558  0.46908791
   0.72120134  0.72005418  0.48861561
   0.62118852  0.63901855  0.50472545
