  71  71   1   0
  0.2557372E+02  0.9967380E-09  0.9967380E-09  0.2110375E-08  0.1500000E-16
  1.000000000000000E-004
  CAR 
 SQS-NiFe                                
      7.51045756    -23.87472527  301      0.51847176      1.00000000
    -23.875  0.0000E+00  0.0000E+00
    -23.770  0.0000E+00  0.0000E+00
    -23.665  0.0000E+00  0.0000E+00
    -23.561  0.0000E+00  0.0000E+00
    -23.456  0.0000E+00  0.0000E+00
    -23.352  0.0000E+00  0.0000E+00
    -23.247  0.0000E+00  0.0000E+00
    -23.142  0.0000E+00  0.0000E+00
    -23.038  0.2387E-17  0.2498E-18
    -22.933  0.7711E-15  0.8093E-16
    -22.829  0.1642E-12  0.1726E-13
    -22.724  0.2043E-10  0.2155E-11
    -22.619  0.1486E-08  0.1576E-09
    -22.515  0.6334E-07  0.6784E-08
    -22.410  0.1584E-05  0.1725E-06
    -22.305  0.2330E-04  0.2610E-05
    -22.201  0.2020E-03  0.2374E-04
    -22.096  0.1034E-02  0.1319E-03
    -21.992  0.3131E-02  0.4595E-03
    -21.887  0.5616E-02  0.1047E-02
    -21.782  0.5972E-02  0.1672E-02
    -21.678  0.3764E-02  0.2066E-02
    -21.573  0.1406E-02  0.2213E-02
    -21.469  0.3106E-03  0.2245E-02
    -21.364  0.4055E-04  0.2249E-02
    -21.259  0.3122E-05  0.2250E-02
    -21.155  0.1414E-06  0.2250E-02
    -21.050  0.3760E-08  0.2250E-02
    -20.945  0.5861E-10  0.2250E-02
    -20.841  0.5344E-12  0.2250E-02
    -20.736  0.2846E-14  0.2250E-02
    -20.632  0.9550E-17  0.2250E-02
    -20.527  0.0000E+00  0.2250E-02
    -20.422  0.0000E+00  0.2250E-02
    -20.318  0.0000E+00  0.2250E-02
    -20.213  0.0000E+00  0.2250E-02
    -20.109  0.0000E+00  0.2250E-02
    -20.004  0.0000E+00  0.2250E-02
    -19.899  0.0000E+00  0.2250E-02
    -19.795  0.0000E+00  0.2250E-02
    -19.690  0.2710E-15  0.2250E-02
    -19.585  0.6919E-13  0.2250E-02
    -19.481  0.1041E-10  0.2250E-02
    -19.376  0.9201E-09  0.2250E-02
    -19.272  0.4783E-07  0.2250E-02
    -19.167  0.1467E-05  0.2250E-02
    -19.062  0.2665E-04  0.2253E-02
    -18.958  0.2879E-03  0.2283E-02
    -18.853  0.1857E-02  0.2477E-02
    -18.748  0.7193E-02  0.3230E-02
    -18.644  0.1682E-01  0.4989E-02
    -18.539  0.2386E-01  0.7486E-02
    -18.435  0.2066E-01  0.9647E-02
    -18.330  0.1095E-01  0.1079E-01
    -18.225  0.3560E-02  0.1116E-01
    -18.121  0.7100E-03  0.1124E-01
    -18.016  0.8656E-04  0.1125E-01
    -17.912  0.6420E-05  0.1125E-01
    -17.807  0.2889E-06  0.1125E-01
    -17.702  0.5788E-07  0.1125E-01
    -17.598  0.1300E-05  0.1125E-01
    -17.493  0.1980E-04  0.1125E-01
    -17.388  0.1778E-03  0.1127E-01
    -17.284  0.9427E-03  0.1137E-01
    -17.179  0.2956E-02  0.1168E-01
    -17.075  0.5490E-02  0.1225E-01
    -16.970  0.6045E-02  0.1288E-01
    -16.865  0.3945E-02  0.1330E-01
    -16.761  0.1526E-02  0.1346E-01
    -16.656  0.3492E-03  0.1349E-01
    -16.552  0.4722E-04  0.1350E-01
    -16.447  0.3765E-05  0.1350E-01
    -16.342  0.1767E-06  0.1350E-01
    -16.238  0.4869E-08  0.1350E-01
    -16.133  0.7865E-10  0.1350E-01
    -16.028  0.7433E-12  0.1350E-01
    -15.924  0.4102E-14  0.1350E-01
    -15.819  0.1432E-16  0.1350E-01
    -15.715  0.0000E+00  0.1350E-01
    -15.610  0.0000E+00  0.1350E-01
    -15.505  0.0000E+00  0.1350E-01
    -15.401  0.0000E+00  0.1350E-01
    -15.296  0.0000E+00  0.1350E-01
    -15.191  0.0000E+00  0.1350E-01
    -15.087  0.0000E+00  0.1350E-01
    -14.982  0.0000E+00  0.1350E-01
    -14.878  0.0000E+00  0.1350E-01
    -14.773  0.0000E+00  0.1350E-01
    -14.668  0.0000E+00  0.1350E-01
    -14.564  0.0000E+00  0.1350E-01
    -14.459  0.0000E+00  0.1350E-01
    -14.355  0.0000E+00  0.1350E-01
    -14.250  0.0000E+00  0.1350E-01
    -14.145  0.0000E+00  0.1350E-01
    -14.041  0.0000E+00  0.1350E-01
    -13.936  0.0000E+00  0.1350E-01
    -13.831  0.0000E+00  0.1350E-01
    -13.727  0.0000E+00  0.1350E-01
    -13.622  0.0000E+00  0.1350E-01
    -13.518  0.0000E+00  0.1350E-01
    -13.413  0.0000E+00  0.1350E-01
    -13.308  0.0000E+00  0.1350E-01
    -13.204  0.0000E+00  0.1350E-01
    -13.099  0.0000E+00  0.1350E-01
    -12.995  0.0000E+00  0.1350E-01
    -12.890  0.0000E+00  0.1350E-01
    -12.785  0.0000E+00  0.1350E-01
    -12.681  0.0000E+00  0.1350E-01
    -12.576  0.0000E+00  0.1350E-01
    -12.471  0.0000E+00  0.1350E-01
    -12.367  0.0000E+00  0.1350E-01
    -12.262  0.0000E+00  0.1350E-01
    -12.158  0.0000E+00  0.1350E-01
    -12.053  0.0000E+00  0.1350E-01
    -11.948  0.0000E+00  0.1350E-01
    -11.844  0.0000E+00  0.1350E-01
    -11.739  0.0000E+00  0.1350E-01
    -11.635  0.0000E+00  0.1350E-01
    -11.530  0.0000E+00  0.1350E-01
    -11.425  0.0000E+00  0.1350E-01
    -11.321  0.0000E+00  0.1350E-01
    -11.216  0.0000E+00  0.1350E-01
    -11.111  0.0000E+00  0.1350E-01
    -11.007  0.0000E+00  0.1350E-01
    -10.902  0.0000E+00  0.1350E-01
    -10.798  0.0000E+00  0.1350E-01
    -10.693  0.0000E+00  0.1350E-01
    -10.588  0.0000E+00  0.1350E-01
    -10.484  0.0000E+00  0.1350E-01
    -10.379  0.0000E+00  0.1350E-01
    -10.274  0.0000E+00  0.1350E-01
    -10.170  0.0000E+00  0.1350E-01
    -10.065  0.0000E+00  0.1350E-01
     -9.961  0.0000E+00  0.1350E-01
     -9.856  0.0000E+00  0.1350E-01
     -9.751  0.0000E+00  0.1350E-01
     -9.647  0.0000E+00  0.1350E-01
     -9.542  0.0000E+00  0.1350E-01
     -9.438  0.0000E+00  0.1350E-01
     -9.333  0.0000E+00  0.1350E-01
     -9.228  0.1588E-15  0.1350E-01
     -9.124  0.3920E-13  0.1350E-01
     -9.019  0.5660E-11  0.1350E-01
     -8.914  0.4777E-09  0.1350E-01
     -8.810  0.2361E-07  0.1350E-01
     -8.705  0.6844E-06  0.1350E-01
     -8.601  0.1167E-04  0.1350E-01
     -8.496  0.1173E-03  0.1351E-01
     -8.391  0.6979E-03  0.1358E-01
     -8.287  0.2485E-02  0.1384E-01
     -8.182  0.5439E-02  0.1441E-01
     -8.078  0.7879E-02  0.1524E-01
     -7.973  0.8689E-02  0.1615E-01
     -7.868  0.8067E-02  0.1699E-01
     -7.764  0.5809E-02  0.1760E-01
     -7.659  0.2807E-02  0.1789E-01
     -7.554  0.8390E-03  0.1798E-01
     -7.450  0.1503E-03  0.1800E-01
     -7.345  0.1596E-04  0.1800E-01
     -7.241  0.1008E-05  0.1800E-01
     -7.136  0.3326E-06  0.1800E-01
     -7.031  0.5801E-05  0.1800E-01
     -6.927  0.6697E-04  0.1801E-01
     -6.822  0.4566E-03  0.1805E-01
     -6.717  0.1849E-02  0.1825E-01
     -6.613  0.4527E-02  0.1872E-01
     -6.508  0.7194E-02  0.1947E-01
     -6.404  0.9436E-02  0.2046E-01
     -6.299  0.1455E-01  0.2198E-01
     -6.194  0.2453E-01  0.2455E-01
     -6.090  0.3425E-01  0.2813E-01
     -5.985  0.3501E-01  0.3179E-01
     -5.881  0.2490E-01  0.3440E-01
     -5.776  0.1280E-01  0.3574E-01
     -5.671  0.7566E-02  0.3653E-01
     -5.567  0.9537E-02  0.3753E-01
     -5.462  0.1509E-01  0.3911E-01
     -5.357  0.2136E-01  0.4134E-01
     -5.253  0.2626E-01  0.4409E-01
     -5.148  0.3213E-01  0.4745E-01
     -5.044  0.4139E-01  0.5178E-01
     -4.939  0.4643E-01  0.5664E-01
     -4.834  0.4003E-01  0.6082E-01
     -4.730  0.2783E-01  0.6374E-01
     -4.625  0.2137E-01  0.6597E-01
     -4.521  0.2634E-01  0.6873E-01
     -4.416  0.3555E-01  0.7245E-01
     -4.311  0.3667E-01  0.7628E-01
     -4.207  0.2739E-01  0.7915E-01
     -4.102  0.1656E-01  0.8088E-01
     -3.997  0.1340E-01  0.8228E-01
     -3.893  0.1976E-01  0.8435E-01
     -3.788  0.3257E-01  0.8776E-01
     -3.684  0.4701E-01  0.9268E-01
     -3.579  0.5875E-01  0.9882E-01
     -3.474  0.6762E-01  0.1059E+00
     -3.370  0.7424E-01  0.1137E+00
     -3.265  0.8323E-01  0.1224E+00
     -3.161  0.1035E+00  0.1332E+00
     -3.056  0.1266E+00  0.1464E+00
     -2.951  0.1321E+00  0.1603E+00
     -2.847  0.1156E+00  0.1723E+00
     -2.742  0.9418E-01  0.1822E+00
     -2.637  0.9445E-01  0.1921E+00
     -2.533  0.1168E+00  0.2043E+00
     -2.428  0.1289E+00  0.2178E+00
     -2.324  0.1193E+00  0.2303E+00
     -2.219  0.1151E+00  0.2423E+00
     -2.114  0.1302E+00  0.2559E+00
     -2.010  0.1452E+00  0.2711E+00
     -1.905  0.1497E+00  0.2868E+00
     -1.800  0.1538E+00  0.3029E+00
     -1.696  0.1583E+00  0.3194E+00
     -1.591  0.1603E+00  0.3362E+00
     -1.487  0.1712E+00  0.3541E+00
     -1.382  0.1980E+00  0.3748E+00
     -1.277  0.2276E+00  0.3987E+00
     -1.173  0.2425E+00  0.4240E+00
     -1.068  0.2366E+00  0.4488E+00
     -0.964  0.2085E+00  0.4706E+00
     -0.859  0.1705E+00  0.4884E+00
     -0.754  0.1529E+00  0.5044E+00
     -0.650  0.1696E+00  0.5222E+00
     -0.545  0.1999E+00  0.5431E+00
     -0.440  0.2171E+00  0.5658E+00
     -0.336  0.2215E+00  0.5890E+00
     -0.231  0.2248E+00  0.6125E+00
     -0.127  0.2202E+00  0.6355E+00
     -0.022  0.2000E+00  0.6564E+00
      0.083  0.1747E+00  0.6747E+00
      0.187  0.1627E+00  0.6917E+00
      0.292  0.1776E+00  0.7103E+00
      0.396  0.2143E+00  0.7327E+00
      0.501  0.2371E+00  0.7575E+00
      0.606  0.2094E+00  0.7794E+00
      0.710  0.1423E+00  0.7943E+00
      0.815  0.7727E-01  0.8024E+00
      0.920  0.3724E-01  0.8063E+00
      1.024  0.2163E-01  0.8086E+00
      1.129  0.2019E-01  0.8107E+00
      1.233  0.1996E-01  0.8128E+00
      1.338  0.1817E-01  0.8147E+00
      1.443  0.2304E-01  0.8171E+00
      1.547  0.3330E-01  0.8206E+00
      1.652  0.3561E-01  0.8243E+00
      1.757  0.2878E-01  0.8273E+00
      1.861  0.2773E-01  0.8302E+00
      1.966  0.3701E-01  0.8341E+00
      2.070  0.4140E-01  0.8384E+00
      2.175  0.3072E-01  0.8416E+00
      2.280  0.1496E-01  0.8432E+00
      2.384  0.7784E-02  0.8440E+00
      2.489  0.1405E-01  0.8455E+00
      2.593  0.3113E-01  0.8487E+00
      2.698  0.4678E-01  0.8536E+00
      2.803  0.4694E-01  0.8585E+00
      2.907  0.3412E-01  0.8621E+00
      3.012  0.2556E-01  0.8648E+00
      3.117  0.3311E-01  0.8682E+00
      3.221  0.4991E-01  0.8735E+00
      3.326  0.5718E-01  0.8794E+00
      3.430  0.4632E-01  0.8843E+00
      3.535  0.2707E-01  0.8871E+00
      3.640  0.1250E-01  0.8884E+00
      3.744  0.6999E-02  0.8892E+00
      3.849  0.6684E-02  0.8899E+00
      3.953  0.6366E-02  0.8905E+00
      4.058  0.6712E-02  0.8912E+00
      4.163  0.1236E-01  0.8925E+00
      4.267  0.2265E-01  0.8949E+00
      4.372  0.2909E-01  0.8979E+00
      4.477  0.2609E-01  0.9007E+00
      4.581  0.1825E-01  0.9026E+00
      4.686  0.1254E-01  0.9039E+00
      4.790  0.1229E-01  0.9052E+00
      4.895  0.1670E-01  0.9069E+00
      5.000  0.1907E-01  0.9089E+00
      5.104  0.1507E-01  0.9105E+00
      5.209  0.1046E-01  0.9116E+00
      5.313  0.1093E-01  0.9127E+00
      5.418  0.1437E-01  0.9142E+00
      5.523  0.1551E-01  0.9159E+00
      5.627  0.1169E-01  0.9171E+00
      5.732  0.5689E-02  0.9177E+00
      5.837  0.1712E-02  0.9178E+00
      5.941  0.3114E-03  0.9179E+00
      6.046  0.3385E-04  0.9179E+00
      6.150  0.2187E-05  0.9179E+00
      6.255  0.8364E-07  0.9179E+00
      6.360  0.1888E-08  0.9179E+00
      6.464  0.2508E-10  0.9179E+00
      6.569  0.1957E-12  0.9179E+00
      6.674  0.8953E-15  0.9179E+00
      6.778  0.2387E-17  0.9179E+00
      6.883  0.0000E+00  0.9179E+00
      6.987  0.0000E+00  0.9179E+00
      7.092  0.0000E+00  0.9179E+00
      7.197  0.0000E+00  0.9179E+00
      7.301  0.0000E+00  0.9179E+00
      7.406  0.0000E+00  0.9179E+00
      7.510  0.0000E+00  0.9179E+00
      7.51045756    -23.87472527  301      0.51847176      1.00000000
    -23.875  0.0000E+00  0.0000E+00  0.0000E+00
    -23.770  0.0000E+00  0.0000E+00  0.0000E+00
    -23.665  0.0000E+00  0.0000E+00  0.0000E+00
    -23.561  0.0000E+00  0.0000E+00  0.0000E+00
    -23.456  0.0000E+00  0.0000E+00  0.0000E+00
    -23.352  0.0000E+00  0.0000E+00  0.0000E+00
    -23.247  0.0000E+00  0.0000E+00  0.0000E+00
    -23.142  0.0000E+00  0.0000E+00  0.0000E+00
    -23.038  0.4012E-26  0.3253E-26  0.1524E-27
    -22.933  0.1296E-23  0.1051E-23  0.4924E-25
    -22.829  0.2760E-21  0.2238E-21  0.1049E-22
    -22.724  0.3433E-19  0.2784E-19  0.1305E-20
    -22.619  0.2497E-17  0.2025E-17  0.9490E-19
    -22.515  0.1064E-15  0.8631E-16  0.4044E-17
    -22.410  0.2662E-14  0.2159E-14  0.1012E-15
    -22.305  0.3916E-13  0.3175E-13  0.1488E-14
    -22.201  0.3394E-12  0.2753E-12  0.1290E-13
    -22.096  0.1738E-11  0.1409E-11  0.6603E-13
    -21.992  0.5261E-11  0.4267E-11  0.1999E-12
    -21.887  0.9437E-11  0.7653E-11  0.3586E-12
    -21.782  0.1003E-10  0.8137E-11  0.3813E-12
    -21.678  0.6325E-11  0.5129E-11  0.2403E-12
    -21.573  0.2362E-11  0.1915E-11  0.8976E-13
    -21.469  0.5220E-12  0.4233E-12  0.1984E-13
    -21.364  0.6814E-13  0.5526E-13  0.2590E-14
    -21.259  0.5245E-14  0.4254E-14  0.1993E-15
    -21.155  0.2376E-15  0.1927E-15  0.9028E-17
    -21.050  0.6318E-17  0.5124E-17  0.2401E-18
    -20.945  0.9848E-19  0.7986E-19  0.3742E-20
    -20.841  0.8980E-21  0.7282E-21  0.3412E-22
    -20.736  0.4782E-23  0.3878E-23  0.1817E-24
    -20.632  0.1605E-25  0.1301E-25  0.6098E-27
    -20.527  0.0000E+00  0.0000E+00  0.0000E+00
    -20.422  0.0000E+00  0.0000E+00  0.0000E+00
    -20.318  0.0000E+00  0.0000E+00  0.0000E+00
    -20.213  0.0000E+00  0.0000E+00  0.0000E+00
    -20.109  0.0000E+00  0.0000E+00  0.0000E+00
    -20.004  0.0000E+00  0.0000E+00  0.0000E+00
    -19.899  0.0000E+00  0.0000E+00  0.0000E+00
    -19.795  0.0000E+00  0.0000E+00  0.0000E+00
    -19.690  0.6288E-23  0.4067E-23  0.1093E-23
    -19.585  0.1589E-20  0.1031E-20  0.2758E-21
    -19.481  0.2363E-18  0.1537E-18  0.4090E-19
    -19.376  0.2059E-16  0.1345E-16  0.3553E-17
    -19.272  0.1054E-14  0.6911E-15  0.1812E-15
    -19.167  0.3177E-13  0.2094E-13  0.5439E-14
    -19.062  0.5658E-12  0.3750E-12  0.9637E-13
    -18.958  0.5975E-11  0.3987E-11  0.1011E-11
    -18.853  0.3756E-10  0.2527E-10  0.6309E-11
    -18.748  0.1412E-09  0.9600E-10  0.2351E-10
    -18.644  0.3190E-09  0.2197E-09  0.5255E-10
    -18.539  0.4355E-09  0.3047E-09  0.7088E-10
    -18.435  0.3613E-09  0.2575E-09  0.5800E-10
    -18.330  0.1831E-09  0.1333E-09  0.2895E-10
    -18.225  0.5689E-10  0.4239E-10  0.8860E-11
    -18.121  0.1086E-10  0.8289E-11  0.1667E-11
    -18.016  0.1274E-11  0.9944E-12  0.1930E-12
    -17.912  0.9149E-13  0.7285E-13  0.1370E-13
    -17.807  0.4000E-14  0.3248E-14  0.5947E-15
    -17.702  0.2601E-15  0.6013E-15  0.7236E-16
    -17.598  0.4009E-14  0.1334E-13  0.1472E-14
    -17.493  0.6106E-13  0.2033E-12  0.2243E-13
    -17.388  0.5483E-12  0.1825E-11  0.2014E-12
    -17.284  0.2907E-11  0.9677E-11  0.1068E-11
    -17.179  0.9115E-11  0.3035E-10  0.3348E-11
    -17.075  0.1693E-10  0.5636E-10  0.6219E-11
    -16.970  0.1864E-10  0.6205E-10  0.6847E-11
    -16.865  0.1217E-10  0.4050E-10  0.4469E-11
    -16.761  0.4705E-11  0.1566E-10  0.1728E-11
    -16.656  0.1077E-11  0.3585E-11  0.3955E-12
    -16.552  0.1456E-12  0.4847E-12  0.5348E-13
    -16.447  0.1161E-13  0.3865E-13  0.4265E-14
    -16.342  0.5448E-15  0.1814E-14  0.2001E-15
    -16.238  0.1501E-16  0.4998E-16  0.5515E-17
    -16.133  0.2425E-18  0.8074E-18  0.8908E-19
    -16.028  0.2292E-20  0.7630E-20  0.8419E-21
    -15.924  0.1265E-22  0.4211E-22  0.4646E-23
    -15.819  0.4417E-25  0.1471E-24  0.1623E-25
    -15.715  0.0000E+00  0.0000E+00  0.0000E+00
    -15.610  0.0000E+00  0.0000E+00  0.0000E+00
    -15.505  0.0000E+00  0.0000E+00  0.0000E+00
    -15.401  0.0000E+00  0.0000E+00  0.0000E+00
    -15.296  0.0000E+00  0.0000E+00  0.0000E+00
    -15.191  0.0000E+00  0.0000E+00  0.0000E+00
    -15.087  0.0000E+00  0.0000E+00  0.0000E+00
    -14.982  0.0000E+00  0.0000E+00  0.0000E+00
    -14.878  0.0000E+00  0.0000E+00  0.0000E+00
    -14.773  0.0000E+00  0.0000E+00  0.0000E+00
    -14.668  0.0000E+00  0.0000E+00  0.0000E+00
    -14.564  0.0000E+00  0.0000E+00  0.0000E+00
    -14.459  0.0000E+00  0.0000E+00  0.0000E+00
    -14.355  0.0000E+00  0.0000E+00  0.0000E+00
    -14.250  0.0000E+00  0.0000E+00  0.0000E+00
    -14.145  0.0000E+00  0.0000E+00  0.0000E+00
    -14.041  0.0000E+00  0.0000E+00  0.0000E+00
    -13.936  0.0000E+00  0.0000E+00  0.0000E+00
    -13.831  0.0000E+00  0.0000E+00  0.0000E+00
    -13.727  0.0000E+00  0.0000E+00  0.0000E+00
    -13.622  0.0000E+00  0.0000E+00  0.0000E+00
    -13.518  0.0000E+00  0.0000E+00  0.0000E+00
    -13.413  0.0000E+00  0.0000E+00  0.0000E+00
    -13.308  0.0000E+00  0.0000E+00  0.0000E+00
    -13.204  0.0000E+00  0.0000E+00  0.0000E+00
    -13.099  0.0000E+00  0.0000E+00  0.0000E+00
    -12.995  0.0000E+00  0.0000E+00  0.0000E+00
    -12.890  0.0000E+00  0.0000E+00  0.0000E+00
    -12.785  0.0000E+00  0.0000E+00  0.0000E+00
    -12.681  0.0000E+00  0.0000E+00  0.0000E+00
    -12.576  0.0000E+00  0.0000E+00  0.0000E+00
    -12.471  0.0000E+00  0.0000E+00  0.0000E+00
    -12.367  0.0000E+00  0.0000E+00  0.0000E+00
    -12.262  0.0000E+00  0.0000E+00  0.0000E+00
    -12.158  0.0000E+00  0.0000E+00  0.0000E+00
    -12.053  0.0000E+00  0.0000E+00  0.0000E+00
    -11.948  0.0000E+00  0.0000E+00  0.0000E+00
    -11.844  0.0000E+00  0.0000E+00  0.0000E+00
    -11.739  0.0000E+00  0.0000E+00  0.0000E+00
    -11.635  0.0000E+00  0.0000E+00  0.0000E+00
    -11.530  0.0000E+00  0.0000E+00  0.0000E+00
    -11.425  0.0000E+00  0.0000E+00  0.0000E+00
    -11.321  0.0000E+00  0.0000E+00  0.0000E+00
    -11.216  0.0000E+00  0.0000E+00  0.0000E+00
    -11.111  0.0000E+00  0.0000E+00  0.0000E+00
    -11.007  0.0000E+00  0.0000E+00  0.0000E+00
    -10.902  0.0000E+00  0.0000E+00  0.0000E+00
    -10.798  0.0000E+00  0.0000E+00  0.0000E+00
    -10.693  0.0000E+00  0.0000E+00  0.0000E+00
    -10.588  0.0000E+00  0.0000E+00  0.0000E+00
    -10.484  0.0000E+00  0.0000E+00  0.0000E+00
    -10.379  0.0000E+00  0.0000E+00  0.0000E+00
    -10.274  0.0000E+00  0.0000E+00  0.0000E+00
    -10.170  0.0000E+00  0.0000E+00  0.0000E+00
    -10.065  0.0000E+00  0.0000E+00  0.0000E+00
     -9.961  0.0000E+00  0.0000E+00  0.0000E+00
     -9.856  0.0000E+00  0.0000E+00  0.0000E+00
     -9.751  0.0000E+00  0.0000E+00  0.0000E+00
     -9.647  0.0000E+00  0.0000E+00  0.0000E+00
     -9.542  0.0000E+00  0.0000E+00  0.0000E+00
     -9.438  0.0000E+00  0.0000E+00  0.0000E+00
     -9.333  0.0000E+00  0.0000E+00  0.0000E+00
     -9.228  0.9397E-16  0.1288E-16  0.6602E-20
     -9.124  0.2320E-13  0.3180E-14  0.1630E-17
     -9.019  0.3350E-11  0.4592E-12  0.2354E-15
     -8.914  0.2827E-09  0.3876E-10  0.1987E-13
     -8.810  0.1398E-07  0.1916E-08  0.9833E-12
     -8.705  0.4055E-06  0.5557E-07  0.2863E-10
     -8.601  0.6926E-05  0.9491E-06  0.4950E-09
     -8.496  0.7013E-04  0.9601E-05  0.5218E-08
     -8.391  0.4279E-03  0.5842E-04  0.3598E-07
     -8.287  0.1648E-02  0.2232E-03  0.1867E-06
     -8.182  0.4473E-02  0.5940E-03  0.8154E-06
     -8.078  0.9897E-02  0.1277E-02  0.2787E-05
     -7.973  0.1807E-01  0.2280E-02  0.6436E-05
     -7.868  0.2370E-01  0.2960E-02  0.9228E-05
     -7.764  0.1986E-01  0.2472E-02  0.7959E-05
     -7.659  0.1011E-01  0.1257E-02  0.4086E-05
     -7.554  0.3070E-02  0.3815E-03  0.1244E-05
     -7.450  0.5526E-03  0.6867E-04  0.2241E-06
     -7.345  0.5876E-04  0.7301E-05  0.2389E-07
     -7.241  0.3767E-05  0.4612E-06  0.4387E-08
     -7.136  0.2987E-05  0.1412E-06  0.9664E-07
     -7.031  0.5591E-04  0.2439E-05  0.1894E-05
     -6.927  0.6453E-03  0.2815E-04  0.2186E-04
     -6.822  0.4395E-02  0.1918E-03  0.1489E-03
     -6.717  0.1770E-01  0.7747E-03  0.6000E-03
     -6.613  0.4237E-01  0.1879E-02  0.1441E-02
     -6.508  0.6120E-01  0.2913E-02  0.2133E-02
     -6.404  0.5727E-01  0.3802E-02  0.2328E-02
     -6.299  0.4676E-01  0.6862E-02  0.3263E-02
     -6.194  0.5407E-01  0.1466E-01  0.6650E-02
     -6.090  0.7281E-01  0.2449E-01  0.1159E-01
     -5.985  0.7512E-01  0.2781E-01  0.1382E-01
     -5.881  0.5106E-01  0.2065E-01  0.1075E-01
     -5.776  0.2204E-01  0.1019E-01  0.5508E-02
     -5.671  0.8542E-02  0.4828E-02  0.2585E-02
     -5.567  0.1583E-01  0.6615E-02  0.3294E-02
     -5.462  0.4682E-01  0.1465E-01  0.7253E-02
     -5.357  0.9130E-01  0.2465E-01  0.1287E-01
     -5.253  0.1202E+00  0.2873E-01  0.1737E-01
     -5.148  0.1233E+00  0.2691E-01  0.2024E-01
     -5.044  0.1122E+00  0.2620E-01  0.2156E-01
     -4.939  0.8789E-01  0.2485E-01  0.1867E-01
     -4.834  0.5395E-01  0.1807E-01  0.1215E-01
     -4.730  0.3193E-01  0.1127E-01  0.8961E-02
     -4.625  0.4621E-01  0.1382E-01  0.1700E-01
     -4.521  0.1025E+00  0.2784E-01  0.3692E-01
     -4.416  0.1736E+00  0.4340E-01  0.5561E-01
     -4.311  0.2110E+00  0.4650E-01  0.5735E-01
     -4.207  0.1820E+00  0.3468E-01  0.4288E-01
     -4.102  0.1078E+00  0.1829E-01  0.2815E-01
     -3.997  0.4750E-01  0.8028E-02  0.2733E-01
     -3.893  0.2571E-01  0.5943E-02  0.4390E-01
     -3.788  0.2400E-01  0.1002E-01  0.7955E-01
     -3.684  0.2822E-01  0.2035E-01  0.1303E+00
     -3.579  0.4555E-01  0.3755E-01  0.1775E+00
     -3.474  0.8497E-01  0.5812E-01  0.2140E+00
     -3.370  0.1401E+00  0.7274E-01  0.2765E+00
     -3.265  0.1968E+00  0.7921E-01  0.4532E+00
     -3.161  0.2371E+00  0.8908E-01  0.7776E+00
     -3.056  0.2400E+00  0.1037E+00  0.1046E+01
     -2.951  0.2000E+00  0.1070E+00  0.1001E+01
     -2.847  0.1333E+00  0.8828E-01  0.7201E+00
     -2.742  0.6931E-01  0.5894E-01  0.5044E+00
     -2.637  0.3342E-01  0.4281E-01  0.5193E+00
     -2.533  0.2481E-01  0.4448E-01  0.6859E+00
     -2.428  0.2369E-01  0.4711E-01  0.8143E+00
     -2.324  0.1903E-01  0.4669E-01  0.8923E+00
     -2.219  0.1563E-01  0.5728E-01  0.1109E+01
     -2.114  0.1740E-01  0.7586E-01  0.1450E+01
     -2.010  0.1935E-01  0.8036E-01  0.1647E+01
     -1.905  0.1879E-01  0.7001E-01  0.1674E+01
     -1.800  0.1963E-01  0.6177E-01  0.1688E+01
     -1.696  0.2226E-01  0.5678E-01  0.1621E+01
     -1.591  0.2630E-01  0.5681E-01  0.1527E+01
     -1.487  0.4328E-01  0.8767E-01  0.1821E+01
     -1.382  0.8406E-01  0.1646E+00  0.2717E+01
     -1.277  0.1266E+00  0.2383E+00  0.3786E+01
     -1.173  0.1304E+00  0.2337E+00  0.4440E+01
     -1.068  0.9597E-01  0.1596E+00  0.4491E+01
     -0.964  0.5771E-01  0.8732E-01  0.3809E+01
     -0.859  0.3255E-01  0.4677E-01  0.2569E+01
     -0.754  0.1860E-01  0.2866E-01  0.1615E+01
     -0.650  0.1196E-01  0.2229E-01  0.1458E+01
     -0.545  0.9514E-02  0.2088E-01  0.1831E+01
     -0.440  0.9596E-02  0.2013E-01  0.2402E+01
     -0.336  0.1223E-01  0.1914E-01  0.3151E+01
     -0.231  0.1775E-01  0.1951E-01  0.3864E+01
     -0.127  0.2423E-01  0.2274E-01  0.3958E+01
     -0.022  0.2662E-01  0.3080E-01  0.3370E+01
      0.083  0.2211E-01  0.4463E-01  0.2734E+01
      0.187  0.1590E-01  0.5945E-01  0.2495E+01
      0.292  0.1477E-01  0.7044E-01  0.2668E+01
      0.396  0.1805E-01  0.7924E-01  0.3088E+01
      0.501  0.2081E-01  0.8193E-01  0.3329E+01
      0.606  0.2111E-01  0.6928E-01  0.2928E+01
      0.710  0.1981E-01  0.4538E-01  0.1941E+01
      0.815  0.1737E-01  0.2429E-01  0.9255E+00
      0.920  0.1750E-01  0.1422E-01  0.3292E+00
      1.024  0.2711E-01  0.1606E-01  0.1424E+00
      1.129  0.4103E-01  0.2351E-01  0.1375E+00
      1.233  0.4154E-01  0.2711E-01  0.1372E+00
      1.338  0.2744E-01  0.3383E-01  0.1080E+00
      1.443  0.1613E-01  0.6558E-01  0.1077E+00
      1.547  0.1349E-01  0.1170E+00  0.1427E+00
      1.652  0.1204E-01  0.1409E+00  0.1534E+00
      1.757  0.1113E-01  0.1140E+00  0.1351E+00
      1.861  0.1843E-01  0.7727E-01  0.1596E+00
      1.966  0.3395E-01  0.6879E-01  0.2411E+00
      2.070  0.4309E-01  0.7118E-01  0.2806E+00
      2.175  0.3474E-01  0.5549E-01  0.2123E+00
      2.280  0.1939E-01  0.2995E-01  0.1072E+00
      2.384  0.1738E-01  0.2302E-01  0.6972E-01
      2.489  0.4048E-01  0.5725E-01  0.1447E+00
      2.593  0.7718E-01  0.1389E+00  0.2939E+00
      2.698  0.9040E-01  0.2315E+00  0.3781E+00
      2.803  0.6437E-01  0.2649E+00  0.3037E+00
      2.907  0.3001E-01  0.2172E+00  0.1683E+00
      3.012  0.1782E-01  0.1618E+00  0.1183E+00
      3.117  0.3104E-01  0.1948E+00  0.1824E+00
      3.221  0.5521E-01  0.3061E+00  0.2758E+00
      3.326  0.6556E-01  0.3618E+00  0.2864E+00
      3.430  0.5007E-01  0.2811E+00  0.1953E+00
      3.535  0.2471E-01  0.1443E+00  0.8788E-01
      3.640  0.8060E-02  0.5067E-01  0.2974E-01
      3.744  0.1918E-02  0.1264E-01  0.1589E-01
      3.849  0.8392E-03  0.2817E-02  0.1783E-01
      3.953  0.2832E-02  0.4344E-02  0.1873E-01
      4.058  0.1202E-01  0.1964E-01  0.2484E-01
      4.163  0.3322E-01  0.6022E-01  0.5519E-01
      4.267  0.5660E-01  0.1175E+00  0.1057E+00
      4.372  0.6017E-01  0.1496E+00  0.1351E+00
      4.477  0.4154E-01  0.1275E+00  0.1175E+00
      4.581  0.2050E-01  0.7493E-01  0.7925E-01
      4.686  0.8652E-02  0.3558E-01  0.5081E-01
      4.790  0.3538E-02  0.2829E-01  0.3881E-01
      4.895  0.1360E-02  0.4140E-01  0.4085E-01
      5.000  0.6536E-03  0.4828E-01  0.4285E-01
      5.104  0.9053E-03  0.3773E-01  0.3229E-01
      5.209  0.2305E-02  0.2768E-01  0.1921E-01
      5.313  0.4997E-02  0.3517E-01  0.1865E-01
      5.418  0.7984E-02  0.5572E-01  0.3073E-01
      5.523  0.9040E-02  0.6887E-01  0.4130E-01
      5.627  0.6834E-02  0.5686E-01  0.3584E-01
      5.732  0.3271E-02  0.2942E-01  0.1905E-01
      5.837  0.9589E-03  0.9248E-02  0.6085E-02
      5.941  0.1694E-03  0.1742E-02  0.1159E-02
      6.046  0.1787E-04  0.1951E-03  0.1309E-03
      6.150  0.1121E-05  0.1294E-04  0.8743E-05
      6.255  0.4167E-07  0.5064E-06  0.3444E-06
      6.360  0.9154E-09  0.1167E-07  0.7977E-08
      6.464  0.1186E-10  0.1579E-09  0.1085E-09
      6.569  0.9045E-13  0.1253E-11  0.8639E-12
      6.674  0.4050E-15  0.5816E-14  0.4023E-14
      6.778  0.9335E-18  0.1691E-16  0.1193E-16
      6.883  0.0000E+00  0.0000E+00  0.0000E+00
      6.987  0.0000E+00  0.0000E+00  0.0000E+00
      7.092  0.0000E+00  0.0000E+00  0.0000E+00
      7.197  0.0000E+00  0.0000E+00  0.0000E+00
      7.301  0.0000E+00  0.0000E+00  0.0000E+00
      7.406  0.0000E+00  0.0000E+00  0.0000E+00
      7.510  0.0000E+00  0.0000E+00  0.0000E+00
      7.51045756    -23.87472527  301      0.51847176      1.00000000
    -23.875  0.0000E+00  0.0000E+00  0.0000E+00
    -23.770  0.0000E+00  0.0000E+00  0.0000E+00
    -23.665  0.0000E+00  0.0000E+00  0.0000E+00
    -23.561  0.0000E+00  0.0000E+00  0.0000E+00
    -23.456  0.0000E+00  0.0000E+00  0.0000E+00
    -23.352  0.0000E+00  0.0000E+00  0.0000E+00
    -23.247  0.0000E+00  0.0000E+00  0.0000E+00
    -23.142  0.0000E+00  0.0000E+00  0.0000E+00
    -23.038  0.3953E-20  0.4082E-20  0.2608E-20
    -22.933  0.1277E-17  0.1319E-17  0.8425E-18
    -22.829  0.2720E-15  0.2808E-15  0.1794E-15
    -22.724  0.3383E-13  0.3493E-13  0.2232E-13
    -22.619  0.2461E-11  0.2541E-11  0.1624E-11
    -22.515  0.1049E-09  0.1083E-09  0.6919E-10
    -22.410  0.2623E-08  0.2709E-08  0.1731E-08
    -22.305  0.3859E-07  0.3985E-07  0.2546E-07
    -22.201  0.3345E-06  0.3454E-06  0.2207E-06
    -22.096  0.1712E-05  0.1768E-05  0.1130E-05
    -21.992  0.5185E-05  0.5354E-05  0.3421E-05
    -21.887  0.9300E-05  0.9604E-05  0.6136E-05
    -21.782  0.9888E-05  0.1021E-04  0.6524E-05
    -21.678  0.6233E-05  0.6436E-05  0.4112E-05
    -21.573  0.2328E-05  0.2404E-05  0.1536E-05
    -21.469  0.5144E-06  0.5312E-06  0.3394E-06
    -21.364  0.6715E-07  0.6935E-07  0.4431E-07
    -21.259  0.5169E-08  0.5338E-08  0.3410E-08
    -21.155  0.2341E-09  0.2418E-09  0.1545E-09
    -21.050  0.6226E-11  0.6430E-11  0.4108E-11
    -20.945  0.9705E-13  0.1002E-12  0.6403E-13
    -20.841  0.8849E-15  0.9138E-15  0.5838E-15
    -20.736  0.4712E-17  0.4866E-17  0.3109E-17
    -20.632  0.1581E-19  0.1633E-19  0.1043E-19
    -20.527  0.0000E+00  0.0000E+00  0.0000E+00
    -20.422  0.0000E+00  0.0000E+00  0.0000E+00
    -20.318  0.0000E+00  0.0000E+00  0.0000E+00
    -20.213  0.0000E+00  0.0000E+00  0.0000E+00
    -20.109  0.0000E+00  0.0000E+00  0.0000E+00
    -20.004  0.0000E+00  0.0000E+00  0.0000E+00
    -19.899  0.0000E+00  0.0000E+00  0.0000E+00
    -19.795  0.0000E+00  0.0000E+00  0.0000E+00
    -19.690  0.1633E-14  0.2046E-14  0.1772E-14
    -19.585  0.4128E-12  0.5176E-12  0.4481E-12
    -19.481  0.6115E-10  0.7672E-10  0.6640E-10
    -19.376  0.5298E-08  0.6653E-08  0.5755E-08
    -19.272  0.2690E-06  0.3380E-06  0.2923E-06
    -19.167  0.8016E-05  0.1008E-04  0.8714E-05
    -19.062  0.1405E-03  0.1769E-03  0.1528E-03
    -18.958  0.1451E-02  0.1829E-02  0.1579E-02
    -18.853  0.8855E-02  0.1117E-01  0.9640E-02
    -18.748  0.3197E-01  0.4037E-01  0.3482E-01
    -18.644  0.6838E-01  0.8647E-01  0.7452E-01
    -18.539  0.8676E-01  0.1099E+00  0.9462E-01
    -18.435  0.6532E-01  0.8288E-01  0.7129E-01
    -18.330  0.2917E-01  0.3709E-01  0.3186E-01
    -18.225  0.7719E-02  0.9841E-02  0.8440E-02
    -18.121  0.1209E-02  0.1546E-02  0.1323E-02
    -18.016  0.1118E-03  0.1435E-03  0.1225E-03
    -17.912  0.6091E-05  0.7866E-05  0.6693E-05
    -17.807  0.1953E-06  0.2541E-06  0.2152E-06
    -17.702  0.4290E-08  0.5888E-08  0.5307E-08
    -17.598  0.1596E-07  0.2746E-07  0.3226E-07
    -17.493  0.2426E-06  0.4176E-06  0.4909E-06
    -17.388  0.2179E-05  0.3750E-05  0.4408E-05
    -17.284  0.1155E-04  0.1988E-04  0.2337E-04
    -17.179  0.3622E-04  0.6234E-04  0.7328E-04
    -17.075  0.6727E-04  0.1158E-03  0.1361E-03
    -16.970  0.7406E-04  0.1275E-03  0.1498E-03
    -16.865  0.4834E-04  0.8321E-04  0.9780E-04
    -16.761  0.1869E-04  0.3218E-04  0.3782E-04
    -16.656  0.4279E-05  0.7365E-05  0.8656E-05
    -16.552  0.5786E-06  0.9959E-06  0.1171E-05
    -16.447  0.4613E-07  0.7941E-07  0.9334E-07
    -16.342  0.2165E-08  0.3726E-08  0.4380E-08
    -16.238  0.5966E-10  0.1027E-09  0.1207E-09
    -16.133  0.9636E-12  0.1659E-11  0.1950E-11
    -16.028  0.9107E-14  0.1568E-13  0.1843E-13
    -15.924  0.5026E-16  0.8650E-16  0.1017E-15
    -15.819  0.1755E-18  0.3021E-18  0.3551E-18
    -15.715  0.0000E+00  0.0000E+00  0.0000E+00
    -15.610  0.0000E+00  0.0000E+00  0.0000E+00
    -15.505  0.0000E+00  0.0000E+00  0.0000E+00
    -15.401  0.0000E+00  0.0000E+00  0.0000E+00
    -15.296  0.0000E+00  0.0000E+00  0.0000E+00
    -15.191  0.0000E+00  0.0000E+00  0.0000E+00
    -15.087  0.0000E+00  0.0000E+00  0.0000E+00
    -14.982  0.0000E+00  0.0000E+00  0.0000E+00
    -14.878  0.0000E+00  0.0000E+00  0.0000E+00
    -14.773  0.0000E+00  0.0000E+00  0.0000E+00
    -14.668  0.0000E+00  0.0000E+00  0.0000E+00
    -14.564  0.0000E+00  0.0000E+00  0.0000E+00