       N       E                     dE             d eps       ncg     rms          rms(c)
DAV:   1     0.626637276668E+04    0.62664E+04   -0.35206E+05   816   0.214E+03
DAV:   2     0.458336660774E+03   -0.58080E+04   -0.56047E+04   816   0.472E+02
DAV:   3    -0.264671941573E+03   -0.72301E+03   -0.65599E+03   816   0.191E+02
DAV:   4    -0.367284197346E+03   -0.10261E+03   -0.90117E+02  1209   0.581E+01
DAV:   5    -0.375444628758E+03   -0.81604E+01   -0.77768E+01   867   0.143E+01    0.107E+01
RMM:   6    -0.437642141096E+03   -0.62198E+02   -0.33510E+01   824   0.139E+01    0.103E+02
RMM:   7    -0.389190576883E+03    0.48452E+02   -0.25204E+01   822   0.131E+01    0.474E+01
RMM:   8    -0.375708336488E+03    0.13482E+02   -0.80052E+00   825   0.739E+00    0.182E+01
RMM:   9    -0.374720211116E+03    0.98813E+00   -0.86295E-01   830   0.209E+00    0.814E+00
RMM:  10    -0.375296564867E+03   -0.57635E+00   -0.91240E-01   822   0.230E+00    0.156E+01
RMM:  11    -0.374581715340E+03    0.71485E+00   -0.47334E-01   822   0.182E+00    0.555E+00
RMM:  12    -0.374574148015E+03    0.75673E-02   -0.27715E-01   823   0.132E+00    0.578E+00
RMM:  13    -0.374712398504E+03   -0.13825E+00   -0.20509E-01   824   0.119E+00    0.908E+00
RMM:  14    -0.374498193116E+03    0.21421E+00   -0.15778E-01   822   0.106E+00    0.340E+00
RMM:  15    -0.374560242095E+03   -0.62049E-01   -0.12807E-01   820   0.907E-01    0.534E+00
RMM:  16    -0.374504746279E+03    0.55496E-01   -0.76826E-02   823   0.758E-01    0.394E+00
RMM:  17    -0.374479828471E+03    0.24918E-01   -0.26947E-02   821   0.429E-01    0.298E+00
RMM:  18    -0.374470227784E+03    0.96007E-02   -0.21084E-02   818   0.359E-01    0.238E+00
RMM:  19    -0.374450958430E+03    0.19269E-01   -0.11167E-02   823   0.278E-01    0.764E-01
RMM:  20    -0.374449692340E+03    0.12661E-02   -0.33634E-03   818   0.146E-01    0.577E-01
RMM:  21    -0.374450362580E+03   -0.67024E-03   -0.20334E-03   821   0.116E-01    0.704E-01
RMM:  22    -0.374448863491E+03    0.14991E-02   -0.10799E-03   818   0.906E-02    0.351E-01
RMM:  23    -0.374448651788E+03    0.21170E-03   -0.27607E-04   815   0.416E-02    0.263E-01
RMM:  24    -0.374448772772E+03   -0.12098E-03   -0.26702E-04   821   0.412E-02    0.307E-01
RMM:  25    -0.374448490792E+03    0.28198E-03   -0.19611E-04   822   0.377E-02    0.131E-01
RMM:  26    -0.374448479469E+03    0.11324E-04   -0.71650E-05   812   0.209E-02    0.107E-01
RMM:  27    -0.374448479519E+03   -0.49986E-07   -0.43295E-05   818   0.166E-02    0.814E-02
RMM:  28    -0.374448467000E+03    0.12519E-04   -0.18434E-05   811   0.115E-02    0.406E-02
RMM:  29    -0.374448482891E+03   -0.15891E-04   -0.16754E-05   808   0.103E-02    0.552E-02
RMM:  30    -0.374448488267E+03   -0.53756E-05   -0.10883E-05   799   0.891E-03    0.310E-02
RMM:  31    -0.374448490949E+03   -0.26820E-05   -0.46100E-06   651   0.573E-03    0.240E-02
RMM:  32    -0.374448501903E+03   -0.10955E-04   -0.30811E-06   519   0.472E-03    0.301E-02
RMM:  33    -0.374448505455E+03   -0.35519E-05   -0.18371E-06   452   0.417E-03    0.151E-02
RMM:  34    -0.374448507762E+03   -0.23071E-05   -0.72606E-07   429   0.238E-03    0.886E-03
RMM:  35    -0.374448517310E+03   -0.95480E-05   -0.78593E-07   445   0.216E-03    0.116E-02
RMM:  36    -0.374448526003E+03   -0.86923E-05   -0.74350E-07   449   0.226E-03    0.470E-03
RMM:  37    -0.374448529752E+03   -0.37491E-05   -0.27814E-07   431   0.128E-03    0.640E-03
RMM:  38    -0.374448537697E+03   -0.79449E-05   -0.35871E-07   440   0.124E-03    0.771E-03
RMM:  39    -0.374448542420E+03   -0.47235E-05   -0.24750E-07   434   0.118E-03    0.352E-03
RMM:  40    -0.374448548234E+03   -0.58140E-05   -0.29339E-07   437   0.106E-03    0.563E-03
RMM:  41    -0.374448559629E+03   -0.11395E-04   -0.95081E-07   469   0.128E-03    0.312E-03
RMM:  42    -0.374448561463E+03   -0.18340E-05   -0.16366E-07   426   0.829E-04    0.206E-03
RMM:  43    -0.374448566507E+03   -0.50439E-05   -0.50246E-07   452   0.842E-04    0.383E-03
RMM:  44    -0.374448567642E+03   -0.11352E-05   -0.13825E-07   401   0.738E-04    0.221E-03
RMM:  45    -0.374448568064E+03   -0.42164E-06   -0.32792E-08   195   0.407E-04
   1 F= -.39266584E+03 E0= -.39064765E+03  d E =-.403638E+01
       N       E                     dE             d eps       ncg     rms          rms(c)
DAV:   1    -0.374444931410E+03    0.36362E-02   -0.12439E+00   831   0.116E+00    0.226E-01
RMM:   2    -0.374449615799E+03   -0.46844E-02   -0.29707E-02   822   0.274E-01    0.716E-01
RMM:   3    -0.374447570429E+03    0.20454E-02   -0.28701E-03   817   0.125E-01    0.343E-01
RMM:   4    -0.374449641350E+03   -0.20709E-02   -0.86427E-04   826   0.739E-02    0.943E-01
RMM:   5    -0.374448762249E+03    0.87910E-03   -0.90668E-04   820   0.783E-02    0.682E-01
RMM:   6    -0.374447489217E+03    0.12730E-02   -0.85995E-04   818   0.800E-02    0.283E-01
RMM:   7    -0.374447818529E+03   -0.32931E-03   -0.59381E-04   815   0.624E-02    0.408E-01
RMM:   8    -0.374447870516E+03   -0.51987E-04   -0.72774E-04   819   0.696E-02    0.385E-01
RMM:   9    -0.374447327729E+03    0.54279E-03   -0.51158E-04   816   0.614E-02    0.144E-01
RMM:  10    -0.374447348888E+03   -0.21158E-04   -0.14838E-04   818   0.310E-02    0.167E-01
RMM:  11    -0.374447299759E+03    0.49128E-04   -0.84112E-05   818   0.245E-02    0.116E-01
RMM:  12    -0.374447255113E+03    0.44647E-04   -0.36409E-05   814   0.166E-02    0.402E-02
RMM:  13    -0.374447256912E+03   -0.17994E-05   -0.15754E-05   807   0.100E-02    0.452E-02
RMM:  14    -0.374447250474E+03    0.64378E-05   -0.75387E-06   771   0.760E-03    0.237E-02
RMM:  15    -0.374447248956E+03    0.15185E-05   -0.20801E-06   439   0.414E-03    0.128E-02
RMM:  16    -0.374447250696E+03   -0.17404E-05   -0.16584E-06   443   0.346E-03    0.243E-02
RMM:  17    -0.374447249362E+03    0.13339E-05   -0.15280E-06   426   0.382E-03    0.840E-03
RMM:  18    -0.374447249533E+03   -0.17112E-06   -0.57876E-07   417   0.218E-03
   2 F= -.39266445E+03 E0= -.39064621E+03  d E =-.403648E+01
       N       E                     dE             d eps       ncg     rms          rms(c)
DAV:   1    -0.374438117687E+03    0.91317E-02   -0.49647E+00   816   0.232E+00    0.459E-01
RMM:   2    -0.374457370974E+03   -0.19253E-01   -0.12281E-01   824   0.555E-01    0.146E+00
RMM:   3    -0.374449451696E+03    0.79193E-02   -0.11847E-02   818   0.256E-01    0.781E-01
RMM:   4    -0.374457185843E+03   -0.77341E-02   -0.34329E-03   825   0.147E-01    0.188E+00
RMM:   5    -0.374453875105E+03    0.33107E-02   -0.38907E-03   820   0.162E-01    0.139E+00
RMM:   6    -0.374448642437E+03    0.52327E-02   -0.34984E-03   817   0.162E-01    0.578E-01
RMM:   7    -0.374449465270E+03   -0.82283E-03   -0.21021E-03   819   0.118E-01    0.732E-01
RMM:   8    -0.374450098587E+03   -0.63332E-03   -0.27177E-03   819   0.134E-01    0.778E-01
RMM:   9    -0.374448090917E+03    0.20077E-02   -0.20393E-03   818   0.123E-01    0.347E-01
RMM:  10    -0.374448341182E+03   -0.25027E-03   -0.85788E-04   819   0.750E-02    0.441E-01
RMM:  11    -0.374447931132E+03    0.41005E-03   -0.50988E-04   822   0.601E-02    0.274E-01
RMM:  12    -0.374447657099E+03    0.27403E-03   -0.20152E-04   817   0.392E-02    0.833E-02
RMM:  13    -0.374447654814E+03    0.22855E-05   -0.56021E-05   814   0.187E-02    0.772E-02
RMM:  14    -0.374447642113E+03    0.12700E-04   -0.24766E-05   816   0.131E-02    0.538E-02
RMM:  15    -0.374447632461E+03    0.96523E-05   -0.11100E-05   801   0.914E-03    0.225E-02
RMM:  16    -0.374447637935E+03   -0.54737E-05   -0.56271E-06   703   0.604E-03    0.438E-02
RMM:  17    -0.374447633867E+03    0.40677E-05   -0.43646E-06   618   0.579E-03    0.203E-02
RMM:  18    -0.374447633308E+03    0.55914E-06   -0.19822E-06   435   0.407E-03
   3 F= -.39266498E+03 E0= -.39064680E+03  d E =-.403636E+01
       N       E                     dE             d eps       ncg     rms          rms(c)
DAV:   1    -0.374442983227E+03    0.46506E-02   -0.24717E+00   816   0.161E+00    0.307E-01
RMM:   2    -0.374451125443E+03   -0.81422E-02   -0.56738E-02   838   0.357E-01    0.890E-01
RMM:   3    -0.374448461217E+03    0.26642E-02   -0.50773E-03   820   0.166E-01    0.514E-01
RMM:   4    -0.374451063954E+03   -0.26027E-02   -0.20805E-03   823   0.117E-01    0.107E+00
RMM:   5    -0.374452477971E+03   -0.14140E-02   -0.14904E-03   820   0.102E-01    0.129E+00
RMM:   6    -0.374448240960E+03    0.42370E-02   -0.15413E-03   817   0.106E-01    0.419E-01
RMM:   7    -0.374448522599E+03   -0.28164E-03   -0.11170E-03   818   0.858E-02    0.477E-01
RMM:   8    -0.374448729579E+03   -0.20698E-03   -0.12041E-03   818   0.900E-02    0.518E-01
RMM:   9    -0.374447949295E+03    0.78028E-03   -0.81008E-04   816   0.782E-02    0.269E-01
RMM:  10    -0.374447933059E+03    0.16236E-04   -0.41851E-04   818   0.523E-02    0.252E-01
RMM:  11    -0.374447757405E+03    0.17565E-03   -0.22768E-04   821   0.398E-02    0.139E-01
RMM:  12    -0.374447687031E+03    0.70374E-04   -0.69307E-05   814   0.227E-02    0.482E-02
RMM:  13    -0.374447696913E+03   -0.98820E-05   -0.27446E-05   811   0.133E-02    0.689E-02
RMM:  14    -0.374447683005E+03    0.13908E-04   -0.13687E-05   812   0.103E-02    0.401E-02
RMM:  15    -0.374447678663E+03    0.43428E-05   -0.48952E-06   678   0.600E-03    0.195E-02
RMM:  16    -0.374447680491E+03   -0.18283E-05   -0.33047E-06   524   0.482E-03    0.287E-02
RMM:  17    -0.374447678328E+03    0.21626E-05   -0.26722E-06   467   0.495E-03    0.123E-02
RMM:  18    -0.374447678952E+03   -0.62358E-06   -0.13540E-06   430   0.334E-03
   4 F= -.39266499E+03 E0= -.39064685E+03  d E =-.403629E+01
       N       E                     dE             d eps       ncg     rms          rms(c)
DAV:   1    -0.374437945137E+03    0.97332E-02   -0.49487E+00   816   0.231E+00    0.437E-01
RMM:   2    -0.374455049145E+03   -0.17104E-01   -0.11728E-01   843   0.524E-01    0.130E+00
RMM:   3    -0.374448806416E+03    0.62427E-02   -0.10478E-02   818   0.238E-01    0.650E-01
RMM:   4    -0.374456060609E+03   -0.72542E-02   -0.41619E-03   823   0.166E-01    0.173E+00
RMM:   5    -0.374454632699E+03    0.14279E-02   -0.28161E-03   824   0.140E-01    0.154E+00
RMM:   6    -0.374448512718E+03    0.61200E-02   -0.29282E-03   817   0.146E-01    0.577E-01
RMM:   7    -0.374449559976E+03   -0.10473E-02   -0.23973E-03   819   0.126E-01    0.759E-01
RMM:   8    -0.374449051899E+03    0.50808E-03   -0.22823E-03   818   0.125E-01    0.619E-01
RMM:   9    -0.374448067029E+03    0.98487E-03   -0.16756E-03   816   0.111E-01    0.402E-01
RMM:  10    -0.374448379513E+03   -0.31248E-03   -0.98566E-04   818   0.812E-02    0.494E-01
RMM:  11    -0.374447638114E+03    0.74140E-03   -0.60675E-04   822   0.666E-02    0.205E-01
RMM:  12    -0.374447487517E+03    0.15060E-03   -0.15894E-04   816   0.339E-02    0.771E-02
RMM:  13    -0.374447511077E+03   -0.23560E-04   -0.70044E-05   817   0.211E-02    0.108E-01
RMM:  14    -0.374447470093E+03    0.40985E-04   -0.36915E-05   816   0.168E-02    0.456E-02
RMM:  15    -0.374447465365E+03    0.47275E-05   -0.10844E-05   793   0.869E-03    0.299E-02
RMM:  16    -0.374447470343E+03   -0.49779E-05   -0.67088E-06   764   0.665E-03    0.486E-02
RMM:  17    -0.374447463432E+03    0.69111E-05   -0.50436E-06   703   0.630E-03    0.159E-02
RMM:  18    -0.374447465205E+03   -0.17733E-05   -0.34680E-06   547   0.499E-03    0.242E-02
RMM:  19    -0.374447465081E+03    0.12416E-06   -0.24195E-06   461   0.467E-03
   5 F= -.39266470E+03 E0= -.39064653E+03  d E =-.403634E+01
       N       E                     dE             d eps       ncg     rms          rms(c)
DAV:   1    -0.374440576702E+03    0.68885E-02   -0.23875E+00   816   0.158E+00    0.384E-01
RMM:   2    -0.374456767897E+03   -0.16191E-01   -0.66332E-02   824   0.412E-01    0.178E+00
RMM:   3    -0.374449352081E+03    0.74158E-02   -0.70809E-03   820   0.203E-01    0.124E+00
RMM:   4    -0.374446912469E+03    0.24396E-02   -0.22710E-03   827   0.117E-01    0.856E-01
RMM:   5    -0.374448447378E+03   -0.15349E-02   -0.31338E-03   820   0.142E-01    0.101E+00
RMM:   6    -0.374445841106E+03    0.26063E-02   -0.25551E-03   819   0.138E-01    0.526E-01
RMM:   7    -0.374446208603E+03   -0.36750E-03   -0.16708E-03   818   0.106E-01    0.585E-01
RMM:   8    -0.374447296064E+03   -0.10875E-02   -0.20316E-03   823   0.116E-01    0.754E-01
RMM:   9    -0.374445431866E+03    0.18642E-02   -0.14951E-03   818   0.106E-01    0.313E-01
RMM:  10    -0.374445591351E+03   -0.15949E-03   -0.62708E-04   822   0.641E-02    0.390E-01
RMM:  11    -0.374445296166E+03    0.29519E-03   -0.45895E-04   821   0.572E-02    0.239E-01
RMM:  12    -0.374445101201E+03    0.19496E-03   -0.20822E-04   816   0.390E-02    0.100E-01
RMM:  13    -0.374445103448E+03   -0.22464E-05   -0.74575E-05   818   0.221E-02    0.105E-01
RMM:  14    -0.374445070442E+03    0.33006E-04   -0.32979E-05   816   0.159E-02    0.600E-02
RMM:  15    -0.374445059990E+03    0.10452E-04   -0.87649E-06   773   0.801E-03    0.244E-02
RMM:  16    -0.374445063734E+03   -0.37441E-05   -0.75498E-06   749   0.685E-03    0.352E-02
RMM:  17    -0.374445061560E+03    0.21742E-05   -0.54958E-06   665   0.632E-03    0.189E-02
RMM:  18    -0.374445061014E+03    0.54567E-06   -0.19291E-06   440   0.394E-03
   6 F= -.39266188E+03 E0= -.39064267E+03  d E =-.403842E+01
       N       E                     dE             d eps       ncg     rms          rms(c)
DAV:   1    -0.374443115621E+03    0.19459E-02   -0.44945E+00   816   0.205E+00    0.644E-01
RMM:   2    -0.374482161999E+03   -0.39046E-01   -0.13226E-01   820   0.594E-01    0.285E+00
RMM:   3    -0.374462196455E+03    0.19966E-01   -0.17506E-02   819   0.333E-01    0.212E+00
RMM:   4    -0.374455860381E+03    0.63361E-02   -0.66195E-03   824   0.202E-01    0.152E+00
RMM:   5    -0.374459503985E+03   -0.36436E-02   -0.96440E-03   818   0.243E-01    0.169E+00
RMM:   6    -0.374451968261E+03    0.75357E-02   -0.73399E-03   820   0.231E-01    0.862E-01
RMM:   7    -0.374454298496E+03   -0.23302E-02   -0.55083E-03   818   0.189E-01    0.113E+00
RMM:   8    -0.374455340869E+03   -0.10424E-02   -0.58514E-03   822   0.200E-01    0.117E+00
RMM:   9    -0.374450363849E+03    0.49770E-02   -0.38947E-03   817   0.171E-01    0.417E-01
RMM:  10    -0.374450459636E+03   -0.95787E-04   -0.11343E-03   819   0.854E-02    0.467E-01
RMM:  11    -0.374450288510E+03    0.17113E-03   -0.82461E-04   822   0.754E-02    0.382E-01
RMM:  12    -0.374449789108E+03    0.49940E-03   -0.46094E-04   816   0.579E-02    0.140E-01
RMM:  13    -0.374449779193E+03    0.99153E-05   -0.14703E-04   816   0.307E-02    0.132E-01
RMM:  14    -0.374449739761E+03    0.39431E-04   -0.63323E-05   821   0.220E-02    0.939E-02
RMM:  15    -0.374449717146E+03    0.22615E-04   -0.22309E-05   810   0.127E-02    0.420E-02
RMM:  16    -0.374449735869E+03   -0.18723E-04   -0.24293E-05   809   0.123E-02    0.671E-02
RMM:  17    -0.374449734361E+03    0.15085E-05   -0.17441E-05   810   0.110E-02    0.339E-02
RMM:  18    -0.374449733846E+03    0.51444E-06   -0.63411E-06   715   0.669E-03
   7 F= -.39266748E+03 E0= -.39065030E+03  d E =-.403436E+01
       N       E                     dE             d eps       ncg     rms          rms(c)
DAV:   1    -0.374439953759E+03    0.97806E-02   -0.23125E+00   816   0.165E+00    0.426E-01
RMM:   2    -0.374457986562E+03   -0.18033E-01   -0.72073E-02   840   0.384E-01    0.186E+00
RMM:   3    -0.374450289398E+03    0.76972E-02   -0.82358E-03   823   0.214E-01    0.135E+00
RMM:   4    -0.374448062231E+03    0.22272E-02   -0.31359E-03   827   0.135E-01    0.991E-01
RMM:   5    -0.374451486960E+03   -0.34247E-02   -0.52194E-03   819   0.182E-01    0.133E+00
RMM:   6    -0.374446468029E+03    0.50189E-02   -0.39233E-03   818   0.173E-01    0.581E-01
RMM:   7    -0.374446358646E+03    0.10938E-03   -0.19960E-03   817   0.114E-01    0.535E-01
RMM:   8    -0.374447526187E+03   -0.11675E-02   -0.22002E-03   822   0.120E-01    0.734E-01
RMM:   9    -0.374445822659E+03    0.17035E-02   -0.15946E-03   817   0.109E-01    0.344E-01
RMM:  10    -0.374445879033E+03   -0.56374E-04   -0.69924E-04   817   0.680E-02    0.367E-01
RMM:  11    -0.374445654336E+03    0.22470E-03   -0.41308E-04   818   0.531E-02    0.255E-01
RMM:  12    -0.374445409985E+03    0.24435E-03   -0.20748E-04   814   0.392E-02    0.836E-02
RMM:  13    -0.374445399814E+03    0.10172E-04   -0.39417E-05   812   0.155E-02    0.658E-02
RMM:  14    -0.374445404872E+03   -0.50578E-05   -0.22148E-05   815   0.120E-02    0.761E-02
RMM:  15    -0.374445388387E+03    0.16484E-04   -0.11980E-05   790   0.937E-03    0.271E-02
RMM:  16    -0.374445391809E+03   -0.34223E-05   -0.96663E-06   787   0.784E-03    0.369E-02
RMM:  17    -0.374445387601E+03    0.42088E-05   -0.59299E-06   699   0.665E-03    0.171E-02
RMM:  18    -0.374445387341E+03    0.25924E-06   -0.18790E-06   441   0.383E-03
   8 F= -.39266267E+03 E0= -.39064461E+03  d E =-.403612E+01
       N       E                     dE             d eps       ncg     rms          rms(c)
DAV:   1    -0.374439922737E+03    0.54649E-02   -0.49926E+00   816   0.235E+00    0.654E-01
RMM:   2    -0.374448737930E+03   -0.88152E-02   -0.11024E-01   828   0.380E-01    0.938E-01
RMM:   3    -0.374496238164E+03   -0.47500E-01   -0.19158E-02   819   0.340E-01    0.431E+00
RMM:   4    -0.374464469234E+03    0.31769E-01   -0.12820E-02   824   0.295E-01    0.246E+00
RMM:   5    -0.374446880441E+03    0.17589E-01   -0.10276E-02   818   0.269E-01    0.934E-01
RMM:   6    -0.374446004759E+03    0.87568E-03   -0.46707E-03   819   0.177E-01    0.797E-01
RMM:   7    -0.374447804890E+03   -0.18001E-02   -0.42212E-03   821   0.167E-01    0.103E+00
RMM:   8    -0.374444459332E+03    0.33456E-02   -0.31297E-03   819   0.151E-01    0.402E-01
RMM:   9    -0.374445343436E+03   -0.88410E-03   -0.18671E-03   819   0.112E-01    0.654E-01
RMM:  10    -0.374444653155E+03    0.69028E-03   -0.12878E-03   823   0.965E-02    0.474E-01
RMM:  11    -0.374443883413E+03    0.76974E-03   -0.59925E-04   818   0.667E-02    0.136E-01
RMM:  12    -0.374443949140E+03   -0.65726E-04   -0.26685E-04   818   0.410E-02    0.182E-01
RMM:  13    -0.374443849173E+03    0.99967E-04   -0.12470E-04   820   0.309E-02    0.104E-01
RMM:  14    -0.374443811540E+03    0.37633E-04   -0.39055E-05   811   0.166E-02    0.398E-02
RMM:  15    -0.374443825682E+03   -0.14142E-04   -0.17894E-05   814   0.107E-02    0.739E-02
RMM:  16    -0.374443811834E+03    0.13849E-04   -0.11794E-05   810   0.923E-03    0.296E-02
RMM:  17    -0.374443812754E+03   -0.92069E-06   -0.83185E-06   767   0.751E-03
   9 F= -.39266108E+03 E0= -.39064271E+03  d E =-.403676E+01
       N       E                     dE             d eps       ncg     rms          rms(c)
DAV:   1    -0.374443033098E+03    0.77874E-03   -0.25953E+00   816   0.175E+00    0.368E-01
RMM:   2    -0.374448804441E+03   -0.57713E-02   -0.45972E-02   862   0.273E-01    0.727E-01
RMM:   3    -0.374451312704E+03   -0.25083E-02   -0.50961E-03   819   0.179E-01    0.124E+00
RMM:   4    -0.374460941628E+03   -0.96289E-02   -0.41673E-03   818   0.164E-01    0.221E+00
RMM:   5    -0.374450587707E+03    0.10354E-01   -0.37255E-03   818   0.162E-01    0.102E+00
RMM:   6    -0.374447195326E+03    0.33924E-02   -0.25406E-03   816   0.134E-01    0.355E-01
RMM:   7    -0.374447491763E+03   -0.29644E-03   -0.12433E-03   818   0.895E-02    0.444E-01
RMM:   8    -0.374447307194E+03    0.18457E-03   -0.82897E-04   818   0.758E-02    0.380E-01
RMM:   9    -0.374446876778E+03    0.43042E-03   -0.45040E-04   816   0.583E-02    0.176E-01
RMM:  10    -0.374446996078E+03   -0.11930E-03   -0.30596E-04   816   0.447E-02    0.245E-01
RMM:  11    -0.374446812039E+03    0.18404E-03   -0.15487E-04   818   0.342E-02    0.109E-01
RMM:  12    -0.374446772881E+03    0.39158E-04   -0.54444E-05   812   0.196E-02    0.391E-02
RMM:  13    -0.374446785105E+03   -0.12224E-04   -0.23294E-05   812   0.124E-02    0.661E-02
RMM:  14    -0.374446771105E+03    0.14001E-04   -0.12263E-05   806   0.977E-03    0.311E-02
RMM:  15    -0.374446769102E+03    0.20028E-05   -0.32951E-06   537   0.493E-03    0.170E-02
RMM:  16    -0.374446770625E+03   -0.15232E-05   -0.25836E-06   460   0.439E-03    0.231E-02
RMM:  17    -0.374446769287E+03    0.13377E-05   -0.20095E-06   431   0.444E-03    0.951E-03
RMM:  18    -0.374446769935E+03   -0.64746E-06   -0.78501E-07   420   0.252E-03
  10 F= -.39266404E+03 E0= -.39064580E+03  d E =-.403649E+01
       N       E                     dE             d eps       ncg     rms          rms(c)
DAV:   1    -0.374441657761E+03    0.51115E-02   -0.51581E+00   816   0.245E+00    0.545E-01
RMM:   2    -0.374449703956E+03   -0.80462E-02   -0.86447E-02   837   0.357E-01    0.649E-01
RMM:   3    -0.374474321299E+03   -0.24617E-01   -0.12613E-02   822   0.270E-01    0.298E+00
RMM:   4    -0.374465709764E+03    0.86115E-02   -0.80839E-03   819   0.232E-01    0.232E+00
RMM:   5    -0.374451890659E+03    0.13819E-01   -0.79856E-03   817   0.239E-01    0.110E+00
RMM:   6    -0.374448624838E+03    0.32658E-02   -0.38606E-03   818   0.164E-01    0.527E-01
RMM:   7    -0.374451069452E+03   -0.24446E-02   -0.32151E-03   819   0.145E-01    0.954E-01
RMM:   8    -0.374448206537E+03    0.28629E-02   -0.21131E-03   819   0.127E-01    0.365E-01
RMM:   9    -0.374448191041E+03    0.15496E-04   -0.85343E-04   817   0.769E-02    0.380E-01
RMM:  10    -0.374448224129E+03   -0.33088E-04   -0.70203E-04   820   0.694E-02    0.371E-01
RMM:  11    -0.374447734866E+03    0.48926E-03   -0.36829E-04   818   0.532E-02    0.105E-01
RMM:  12    -0.374447751475E+03   -0.16609E-04   -0.12180E-04   818   0.280E-02    0.121E-01
RMM:  13    -0.374447727801E+03    0.23674E-04   -0.61799E-05   818   0.212E-02    0.926E-02
RMM:  14    -0.374447697208E+03    0.30594E-04   -0.26044E-05   811   0.141E-02    0.291E-02
RMM:  15    -0.374447701494E+03   -0.42868E-05   -0.78407E-06   773   0.712E-03    0.433E-02
RMM:  16    -0.374447700114E+03    0.13804E-05   -0.56620E-06   729   0.625E-03    0.273E-02
RMM:  17    -0.374447698952E+03    0.11622E-05   -0.40280E-06   607   0.562E-03    0.140E-02
RMM:  18    -0.374447703975E+03   -0.50230E-05   -0.27975E-06   489   0.448E-03    0.335E-02
RMM:  19    -0.374447702106E+03    0.18685E-05   -0.20232E-06   453   0.443E-03    0.101E-02
RMM:  20    -0.374447702343E+03   -0.23619E-06   -0.50414E-07   419   0.200E-03
  11 F= -.39266498E+03 E0= -.39064688E+03  d E =-.403621E+01
       N       E                     dE             d eps       ncg     rms          rms(c)
DAV:   1    -0.374447408588E+03    0.29352E-03   -0.24521E+00   816   0.174E+00    0.410E-01
RMM:   2    -0.374450984736E+03   -0.35761E-02   -0.45860E-02   841   0.273E-01    0.346E-01
RMM:   3    -0.374459942244E+03   -0.89575E-02   -0.87078E-03   818   0.226E-01    0.161E+00
RMM:   4    -0.374459034394E+03    0.90785E-03   -0.47287E-03   820   0.186E-01    0.172E+00
RMM:   5    -0.374451871829E+03    0.71626E-02   -0.21690E-03   818   0.123E-01    0.695E-01
RMM:   6    -0.374451024765E+03    0.84706E-03   -0.16487E-03   817   0.104E-01    0.456E-01
RMM:   7    -0.374452432395E+03   -0.14076E-02   -0.16235E-03   819   0.103E-01    0.753E-01
RMM:   8    -0.374450562934E+03    0.18695E-02   -0.11423E-03   818   0.934E-02    0.199E-01
RMM:   9    -0.374450597803E+03   -0.34869E-04   -0.42236E-04   816   0.530E-02    0.234E-01
RMM:  10    -0.374450602842E+03   -0.50394E-05   -0.24129E-04   819   0.406E-02    0.238E-01
RMM:  11    -0.374450419233E+03    0.18361E-03   -0.13198E-04   813   0.315E-02    0.709E-02
RMM:  12    -0.374450431710E+03   -0.12478E-04   -0.50027E-05   813   0.182E-02    0.849E-02
RMM:  13    -0.374450423662E+03    0.80481E-05   -0.27447E-05   812   0.142E-02    0.622E-02
RMM:  14    -0.374450411545E+03    0.12118E-04   -0.12756E-05   799   0.980E-03    0.231E-02
RMM:  15    -0.374450415404E+03   -0.38597E-05   -0.41442E-06   625   0.527E-03    0.324E-02
RMM:  16    -0.374450419994E+03   -0.45892E-05   -0.36842E-06   554   0.535E-03    0.230E-02
RMM:  17    -0.374450421716E+03   -0.17222E-05   -0.25875E-06   483   0.473E-03    0.121E-02
RMM:  18    -0.374450428304E+03   -0.65881E-05   -0.17067E-06   451   0.353E-03    0.236E-02
RMM:  19    -0.374450430456E+03   -0.21521E-05   -0.11847E-06   436   0.334E-03    0.711E-03
RMM:  20    -0.374450431512E+03   -0.10558E-05   -0.28140E-07   422   0.145E-03    0.468E-03
RMM:  21    -0.374450435695E+03   -0.41828E-05   -0.36505E-07   432   0.143E-03    0.750E-03
RMM:  22    -0.374450439980E+03   -0.42853E-05   -0.36216E-07   434   0.150E-03    0.326E-03
RMM:  23    -0.374450441554E+03   -0.15738E-05   -0.13548E-07   416   0.878E-04    0.284E-03
RMM:  24    -0.374450448476E+03   -0.69221E-05   -0.51942E-07   445   0.104E-03    0.630E-03
RMM:  25    -0.374450451342E+03   -0.28664E-05   -0.25766E-07   429   0.103E-03    0.295E-03
RMM:  26    -0.374450452950E+03   -0.16078E-05   -0.12454E-07   414   0.725E-04    0.268E-03
RMM:  27    -0.374450455955E+03   -0.30049E-05   -0.22580E-07   423   0.693E-04    0.174E-03
RMM:  28    -0.374450456582E+03   -0.62690E-06   -0.50858E-08   315   0.498E-04
  12 F= -.39266755E+03 E0= -.39064975E+03  d E =-.403559E+01
       N       E                     dE             d eps       ncg     rms          rms(c)
DAV:   1    -0.374436229515E+03    0.14226E-01   -0.45461E+00   816   0.236E+00    0.573E-01
RMM:   2    -0.374446941385E+03   -0.10712E-01   -0.11953E-01   861   0.388E-01    0.756E-01
RMM:   3    -0.374467774816E+03   -0.20833E-01   -0.11052E-02   823   0.235E-01    0.294E+00
RMM:   4    -0.374451952464E+03    0.15822E-01   -0.70005E-03   828   0.209E-01    0.161E+00
RMM:   5    -0.374445941291E+03    0.60112E-02   -0.64147E-03   818   0.208E-01    0.865E-01
RMM:   6    -0.374451495562E+03   -0.55543E-02   -0.82217E-03   823   0.232E-01    0.145E+00
RMM:   7    -0.374447247570E+03    0.42480E-02   -0.60980E-03   819   0.212E-01    0.935E-01
RMM:   8    -0.374444312400E+03    0.29352E-02   -0.31957E-03   818   0.150E-01    0.385E-01
RMM:   9    -0.374445158072E+03   -0.84567E-03   -0.16755E-03   820   0.105E-01    0.622E-01
RMM:  10    -0.374444419303E+03    0.73877E-03   -0.10390E-03   823   0.886E-02    0.426E-01
RMM:  11    -0.374443807114E+03    0.61219E-03   -0.49159E-04   818   0.598E-02    0.126E-01
RMM:  12    -0.374443836406E+03   -0.29291E-04   -0.19143E-04   819   0.350E-02    0.157E-01
RMM:  13    -0.374443747525E+03    0.88881E-04   -0.91067E-05   823   0.265E-02    0.616E-02
RMM:  14    -0.374443749903E+03   -0.23787E-05   -0.33784E-05   811   0.148E-02    0.598E-02
RMM:  15    -0.374443770007E+03   -0.20103E-04   -0.27123E-05   817   0.133E-02    0.746E-02
RMM:  16    -0.374443756330E+03    0.13676E-04   -0.14851E-05   801   0.106E-02    0.344E-02
RMM:  17    -0.374443759153E+03   -0.28226E-05   -0.68290E-06   752   0.663E-03    0.317E-02
RMM:  18    -0.374443770038E+03   -0.10885E-04   -0.53103E-06   664   0.600E-03    0.338E-02
RMM:  19    -0.374443769748E+03    0.29051E-06   -0.28374E-06   511   0.495E-03
  13 F= -.39266124E+03 E0= -.39064266E+03  d E =-.403716E+01
       N       E                     dE             d eps       ncg     rms          rms(c)
DAV:   1    -0.374443212005E+03    0.55803E-03   -0.12358E+00   816   0.118E+00    0.342E-01
RMM:   2    -0.374444845476E+03   -0.16335E-02   -0.25603E-02   867   0.195E-01    0.352E-01
RMM:   3    -0.374457215996E+03   -0.12371E-01   -0.39013E-03   821   0.152E-01    0.213E+00
RMM:   4    -0.374449813051E+03    0.74029E-02   -0.34591E-03   825   0.150E-01    0.129E+00
RMM:   5    -0.374445057795E+03    0.47553E-02   -0.28358E-03   818   0.144E-01    0.453E-01
RMM:   6    -0.374445505634E+03   -0.44784E-03   -0.18644E-03   817   0.110E-01    0.551E-01
RMM:   7    -0.374445480677E+03    0.24957E-04   -0.13465E-03   817   0.966E-02    0.529E-01
RMM:   8    -0.374444565701E+03    0.91498E-03   -0.79847E-04   818   0.772E-02    0.199E-01
RMM:   9    -0.374444703929E+03   -0.13823E-03   -0.37104E-04   816   0.492E-02    0.278E-01
RMM:  10    -0.374444564458E+03    0.13947E-03   -0.21396E-04   817   0.394E-02    0.193E-01
RMM:  11    -0.374444437038E+03    0.12742E-03   -0.90326E-05   813   0.260E-02    0.423E-02
RMM:  12    -0.374444454167E+03   -0.17130E-04   -0.26788E-05   812   0.130E-02    0.756E-02
RMM:  13    -0.374444440482E+03    0.13686E-04   -0.14987E-05   813   0.107E-02    0.382E-02
RMM:  14    -0.374444439110E+03    0.13711E-05   -0.69383E-06   743   0.710E-03    0.286E-02
RMM:  15    -0.374444443490E+03   -0.43792E-05   -0.64471E-06   745   0.655E-03    0.356E-02
RMM:  16    -0.374444442193E+03    0.12962E-05   -0.44572E-06   625   0.591E-03    0.132E-02
RMM:  17    -0.374444444464E+03   -0.22703E-05   -0.23706E-06   463   0.428E-03    0.175E-02
RMM:  18    -0.374444447318E+03   -0.28542E-05   -0.15036E-06   452   0.369E-03    0.193E-02
RMM:  19    -0.374444446826E+03    0.49222E-06   -0.61440E-07   427   0.246E-03
  14 F= -.39266171E+03 E0= -.39064341E+03  d E =-.403658E+01
       N       E                     dE             d eps       ncg     rms          rms(c)
DAV:   1    -0.374446298986E+03   -0.18517E-02   -0.30832E-01   882   0.422E-01    0.323E-01
RMM:   2    -0.374446465811E+03   -0.16682E-03   -0.13486E-02   816   0.124E-01    0.478E-01
RMM:   3    -0.374458877300E+03   -0.12411E-01   -0.41575E-03   820   0.162E-01    0.216E+00
RMM:   4    -0.374450579596E+03    0.82977E-02   -0.31611E-03   824   0.148E-01    0.122E+00
RMM:   5    -0.374445948790E+03    0.46308E-02   -0.24814E-03   818   0.133E-01    0.386E-01
RMM:   6    -0.374446086935E+03   -0.13815E-03   -0.11814E-03   819   0.885E-02    0.439E-01
RMM:   7    -0.374446491915E+03   -0.40498E-03   -0.10967E-03   819   0.859E-02    0.533E-01
RMM:   8    -0.374445600015E+03    0.89190E-03   -0.88875E-04   818   0.806E-02    0.217E-01
RMM:   9    -0.374445800411E+03   -0.20040E-03   -0.50528E-04   818   0.584E-02    0.318E-01
RMM:  10    -0.374445657467E+03    0.14294E-03   -0.32069E-04   821   0.485E-02    0.261E-01
RMM:  11    -0.374445428744E+03    0.22872E-03   -0.13565E-04   817   0.321E-02    0.606E-02
RMM:  12    -0.374445440526E+03   -0.11782E-04   -0.52365E-05   811   0.179E-02    0.780E-02
RMM:  13    -0.374445428743E+03    0.11783E-04   -0.24612E-05   816   0.135E-02    0.524E-02
RMM:  14    -0.374445419542E+03    0.92008E-05   -0.10074E-05   779   0.864E-03    0.180E-02
RMM:  15    -0.374445423217E+03   -0.36750E-05   -0.34088E-06   551   0.489E-03    0.338E-02
RMM:  16    -0.374445421332E+03    0.18855E-05   -0.23010E-06   467   0.451E-03    0.118E-02
RMM:  17    -0.374445421985E+03   -0.65313E-06   -0.11620E-06   422   0.308E-03
  15 F= -.39266272E+03 E0= -.39064465E+03  d E =-.403614E+01
       N       E                     dE             d eps       ncg     rms          rms(c)
DAV:   1    -0.374447437150E+03   -0.20158E-02   -0.13755E-01   897   0.272E-01    0.136E-01
RMM:   2    -0.374447882216E+03   -0.44507E-03   -0.25450E-03   817   0.675E-02    0.287E-01
RMM:   3    -0.374448321692E+03   -0.43948E-03   -0.55940E-04   818   0.609E-02    0.502E-01
RMM:   4    -0.374449125090E+03   -0.80340E-03   -0.49591E-04   817   0.566E-02    0.717E-01
RMM:   5    -0.374447955372E+03    0.11697E-02   -0.50101E-04   816   0.592E-02    0.302E-01
RMM:   6    -0.374447728117E+03    0.22725E-03   -0.34521E-04   816   0.490E-02    0.167E-01
RMM:   7    -0.374447913458E+03   -0.18534E-03   -0.31696E-04   818   0.454E-02    0.265E-01
RMM:   8    -0.374447704826E+03    0.20863E-03   -0.21498E-04   817   0.400E-02    0.126E-01
RMM:   9    -0.374447670963E+03    0.33863E-04   -0.74735E-05   812   0.230E-02    0.871E-02
RMM:  10    -0.374447681023E+03   -0.10059E-04   -0.46918E-05   816   0.178E-02    0.968E-02
RMM:  11    -0.374447649989E+03    0.31033E-04   -0.23876E-05   814   0.136E-02    0.355E-02
RMM:  12    -0.374447646642E+03    0.33472E-05   -0.74037E-06   737   0.707E-03    0.176E-02
RMM:  13    -0.374447650169E+03   -0.35266E-05   -0.36468E-06   567   0.514E-03    0.319E-02
RMM:  14    -0.374447647381E+03    0.27879E-05   -0.23961E-06   469   0.473E-03    0.118E-02
RMM:  15    -0.374447647627E+03   -0.24635E-06   -0.71196E-07   419   0.236E-03
  16 F= -.39266494E+03 E0= -.39064676E+03  d E =-.403636E+01
       N       E                     dE             d eps       ncg     rms          rms(c)
DAV:   1    -0.374447004046E+03    0.64333E-03   -0.28035E-01   900   0.390E-01    0.233E-01
RMM:   2    -0.374447505720E+03   -0.50167E-03   -0.70404E-03   818   0.957E-02    0.342E-01
RMM:   3    -0.374452863800E+03   -0.53581E-02   -0.18528E-03   817   0.108E-01    0.144E+00
RMM:   4    -0.374449549374E+03    0.33144E-02   -0.16082E-03   820   0.104E-01    0.858E-01
RMM:   5    -0.374447432295E+03    0.21171E-02   -0.14026E-03   818   0.998E-02    0.337E-01
RMM:   6    -0.374447384074E+03    0.48221E-04   -0.73092E-04   816   0.697E-02    0.311E-01
RMM:   7    -0.374447806926E+03   -0.42285E-03   -0.69812E-04   819   0.685E-02    0.446E-01
RMM:   8    -0.374447155346E+03    0.65158E-03   -0.53456E-04   817   0.632E-02    0.150E-01
RMM:   9    -0.374447245843E+03   -0.90497E-04   -0.25615E-04   818   0.416E-02    0.219E-01
RMM:  10    -0.374447169628E+03    0.76215E-04   -0.14754E-04   817   0.328E-02    0.171E-01
RMM:  11    -0.374447072765E+03    0.96863E-04   -0.61327E-05   816   0.216E-02    0.463E-02
RMM:  12    -0.374447075808E+03   -0.30430E-05   -0.23490E-05   808   0.120E-02    0.495E-02
RMM:  13    -0.374447073200E+03    0.26078E-05   -0.12274E-05   808   0.944E-03    0.398E-02
RMM:  14    -0.374447067729E+03    0.54706E-05   -0.57374E-06   699   0.661E-03    0.118E-02
RMM:  15    -0.374447070261E+03   -0.25322E-05   -0.20842E-06   450   0.390E-03    0.242E-02
RMM:  16    -0.374447069684E+03    0.57762E-06   -0.14783E-06   442   0.375E-03
  17 F= -.39266433E+03 E0= -.39064612E+03  d E =-.403643E+01
       N       E                     dE             d eps       ncg     rms          rms(c)
DAV:   1    -0.374448285022E+03   -0.12148E-02   -0.13815E-01   870   0.269E-01    0.150E-01
RMM:   2    -0.374448443861E+03   -0.15884E-03   -0.29328E-03   817   0.651E-02    0.164E-01
RMM:   3    -0.374449566073E+03   -0.11222E-02   -0.10628E-03   818   0.825E-02    0.590E-01
RMM:   4    -0.374449143762E+03    0.42231E-03   -0.62170E-04   823   0.682E-02    0.517E-01
RMM:   5    -0.374448623703E+03    0.52006E-03   -0.25252E-04   817   0.420E-02    0.310E-01
RMM:   6    -0.374448447782E+03    0.17592E-03   -0.23262E-04   818   0.391E-02    0.179E-01
RMM:   7    -0.374448673248E+03   -0.22547E-03   -0.31148E-04   818   0.454E-02    0.292E-01
RMM:   8    -0.374448396929E+03    0.27632E-03   -0.22625E-04   818   0.414E-02    0.103E-01
RMM:   9    -0.374448422929E+03   -0.26000E-04   -0.10011E-04   814   0.260E-02    0.138E-01
RMM:  10    -0.374448392517E+03    0.30411E-04   -0.57154E-05   816   0.203E-02    0.102E-01
RMM:  11    -0.374448356459E+03    0.36059E-04   -0.25909E-05   813   0.140E-02    0.270E-02
RMM:  12    -0.374448357082E+03   -0.62337E-06   -0.69667E-06   734   0.663E-03
  18 F= -.39266515E+03 E0= -.39064697E+03  d E =-.403636E+01
       N       E                     dE             d eps       ncg     rms          rms(c)
DAV:   1    -0.374447096141E+03    0.12603E-02   -0.26578E-01   843   0.357E-01    0.167E-01
RMM:   2    -0.374447785373E+03   -0.68923E-03   -0.38471E-03   816   0.817E-02    0.322E-01
RMM:   3    -0.374448253386E+03   -0.46801E-03   -0.88457E-04   818   0.743E-02    0.540E-01
RMM:   4    -0.374449478087E+03   -0.12247E-02   -0.68760E-04   820   0.654E-02    0.825E-01
RMM:   5    -0.374448378722E+03    0.10994E-02   -0.87915E-04   817   0.771E-02    0.501E-01
RMM:   6    -0.374447612907E+03    0.76582E-03   -0.68494E-04   817   0.706E-02    0.197E-01
RMM:   7    -0.374447741394E+03   -0.12849E-03   -0.42484E-04   817   0.527E-02    0.261E-01
RMM:   8    -0.374447670200E+03    0.71194E-04   -0.26421E-04   817   0.428E-02    0.221E-01
RMM:   9    -0.374447496799E+03    0.17340E-03   -0.13047E-04   816   0.312E-02    0.713E-02
RMM:  10    -0.374447494490E+03    0.23090E-05   -0.28010E-05   815   0.133E-02    0.614E-02
RMM:  11    -0.374447491306E+03    0.31840E-05   -0.13937E-05   814   0.987E-03    0.432E-02
RMM:  12    -0.374447486934E+03    0.43717E-05   -0.67129E-06   750   0.710E-03    0.168E-02
RMM:  13    -0.374447493635E+03   -0.67005E-05   -0.47147E-06   643   0.562E-03    0.317E-02
RMM:  14    -0.374447495553E+03   -0.19184E-05   -0.32663E-06   521   0.526E-03    0.196E-02
RMM:  15    -0.374447495926E+03   -0.37251E-06   -0.11503E-06   429   0.309E-03
  19 F= -.39266523E+03 E0= -.39064696E+03  d E =-.403655E+01
