 vasp.5.4.4.18Apr17-6-g9f103f2a35 (build Dec 15 2018 21:27:54) gamma-only       
  
 executed on             LinuxIFC date 2022.02.23  10:49:41
 running on   72 total cores
 distrk:  each k-point on   72 cores,    1 groups
 distr:  one band on NCORES_PER_BAND=  24 cores,    3 groups


--------------------------------------------------------------------------------------------------------


 INCAR:
 POTCAR:    PAW_PBE Ni 02Aug2007                  
 POTCAR:    PAW_PBE O 08Apr2002                   
 POTCAR:    PAW_PBE H 15Jun2001                   

 ----------------------------------------------------------------------------- 
|                                                                             |
|           W    W    AA    RRRRR   N    N  II  N    N   GGGG   !!!           |
|           W    W   A  A   R    R  NN   N  II  NN   N  G    G  !!!           |
|           W    W  A    A  R    R  N N  N  II  N N  N  G       !!!           |
|           W WW W  AAAAAA  RRRRR   N  N N  II  N  N N  G  GGG   !            |
|           WW  WW  A    A  R   R   N   NN  II  N   NN  G    G                |
|           W    W  A    A  R    R  N    N  II  N    N   GGGG   !!!           |
|                                                                             |
|      For optimal performance we recommend to set                            |
|        NCORE= 4 - approx SQRT( number of cores)                             |
|      NCORE specifies how many cores store one orbital (NPAR=cpu/NCORE).     |
|      This setting can  greatly improve the performance of VASP for DFT.     |
|      The default,   NCORE=1            might be grossly inefficient         |
|      on modern multi-core architectures or massively parallel machines.     |
|      Do your own testing !!!!                                               |
|      Unfortunately you need to use the default for GW and RPA calculations. |
|      (for HF NCORE is supported but not extensively tested yet)             |
|                                                                             |
 ----------------------------------------------------------------------------- 

 POTCAR:    PAW_PBE Ni 02Aug2007                  
   VRHFIN =Ni:                                                                  
   LEXCH  = PE                                                                  
   EATOM  =  1077.6739 eV,   79.2068 Ry                                         
                                                                                
   TITEL  = PAW_PBE Ni 02Aug2007                                                
   LULTRA =        F    use ultrasoft PP ?                                      
   IUNSCR =        1    unscreen: 0-lin 1-nonlin 2-no                           
   RPACOR =    2.000    partial core radius                                     
   POMASS =   58.690; ZVAL   =   10.000    mass and valenz                      
   RCORE  =    2.300    outmost cutoff radius                                   
   RWIGS  =    2.430; RWIGS  =    1.286    wigner-seitz radius (au A)           
   ENMAX  =  269.532; ENMIN  =  202.149 eV                                      
   RCLOC  =    1.201    cutoff for local pot                                    
   LCOR   =        T    correct aug charges                                     
   LPAW   =        T    paw PP                                                  
   EAUG   =  544.565                                                            
   DEXC   =    0.000                                                            
   RMAX   =    2.357    core radius for proj-oper                               
   RAUG   =    1.300    factor for augmentation sphere                          
   RDEP   =    2.390    radius for radial grids                                 
   RDEPT  =    1.838    core radius for aug-charge                              
                                                                                
   Atomic configuration                                                         
    9 entries                                                                   
     n  l   j            E        occ.                                          
     1  0  0.50     -8206.4253   2.0000                                         
     2  0  0.50      -976.1748   2.0000                                         
     2  1  1.50      -839.0571   6.0000                                         
     3  0  0.50      -105.9991   2.0000                                         
     3  1  1.50       -66.4603   6.0000                                         
     3  2  2.50        -4.6458   9.0000                                         
     4  0  0.50        -4.4926   1.0000                                         
     4  1  1.50        -4.0817   0.0000                                         
     4  3  2.50        -1.3606   0.0000                                         
   Description                                                                  
     l       E           TYP  RCUT    TYP  RCUT                                 
     2     -4.6457903     23  2.300                                             
     2     -6.0063729     23  2.300                                             
     0     -4.4925590     23  2.300                                             
     0      5.0102601     23  2.300                                             
     1     -2.7211652     23  2.300                                             
     1     16.5183231     23  2.300                                             
  local pseudopotential read in
  partial core-charges read in
  partial kinetic energy density read in
  atomic valenz-charges read in
  non local Contribution for L=           2  read in
    real space projection operators read in
  non local Contribution for L=           2  read in
    real space projection operators read in
  non local Contribution for L=           0  read in
    real space projection operators read in
  non local Contribution for L=           0  read in
    real space projection operators read in
  non local Contribution for L=           1  read in
    real space projection operators read in
  non local Contribution for L=           1  read in
    real space projection operators read in
    PAW grid and wavefunctions read in
 
   number of l-projection  operators is LMAX  =           6
   number of lm-projection operators is LMMAX =          18
 
 POTCAR:    PAW_PBE O 08Apr2002                   
   VRHFIN =O: s2p4                                                              
   LEXCH  = PE                                                                  
   EATOM  =   432.3788 eV,   31.7789 Ry                                         
                                                                                
   TITEL  = PAW_PBE O 08Apr2002                                                 
   LULTRA =        F    use ultrasoft PP ?                                      
   IUNSCR =        1    unscreen: 0-lin 1-nonlin 2-no                           
   RPACOR =    1.200    partial core radius                                     
   POMASS =   16.000; ZVAL   =    6.000    mass and valenz                      
   RCORE  =    1.520    outmost cutoff radius                                   
   RWIGS  =    1.550; RWIGS  =    0.820    wigner-seitz radius (au A)           
   ENMAX  =  400.000; ENMIN  =  300.000 eV                                      
   ICORE  =        2    local potential                                         
   LCOR   =        T    correct aug charges                                     
   LPAW   =        T    paw PP                                                  
   EAUG   =  605.392                                                            
   DEXC   =    0.000                                                            
   RMAX   =    1.553    core radius for proj-oper                               
   RAUG   =    1.300    factor for augmentation sphere                          
   RDEP   =    1.550    radius for radial grids                                 
   RDEPT  =    1.329    core radius for aug-charge                              
                                                                                
   Atomic configuration                                                         
    4 entries                                                                   
     n  l   j            E        occ.                                          
     1  0  0.50      -514.6923   2.0000                                         
     2  0  0.50       -23.9615   2.0000                                         
     2  1  0.50        -9.0305   4.0000                                         
     3  2  1.50        -9.5241   0.0000                                         
   Description                                                                  
     l       E           TYP  RCUT    TYP  RCUT                                 
     0    -23.9615318     23  1.200                                             
     0     -9.5240782     23  1.200                                             
     1     -9.0304911     23  1.520                                             
     1      8.1634956     23  1.520                                             
     2     -9.5240782      7  1.500                                             
  local pseudopotential read in
  partial core-charges read in
  partial kinetic energy density read in
  kinetic energy density of atom read in
  atomic valenz-charges read in
  non local Contribution for L=           0  read in
    real space projection operators read in
  non local Contribution for L=           0  read in
    real space projection operators read in
  non local Contribution for L=           1  read in
    real space projection operators read in
  non local Contribution for L=           1  read in
    real space projection operators read in
    PAW grid and wavefunctions read in
 
   number of l-projection  operators is LMAX  =           4
   number of lm-projection operators is LMMAX =           8
 
 POTCAR:    PAW_PBE H 15Jun2001                   
   VRHFIN =H: ultrasoft test                                                    
   LEXCH  = PE                                                                  
   EATOM  =    12.4884 eV,    0.9179 Ry                                         
                                                                                
   TITEL  = PAW_PBE H 15Jun2001                                                 
   LULTRA =        F    use ultrasoft PP ?                                      
   IUNSCR =        0    unscreen: 0-lin 1-nonlin 2-no                           
   RPACOR =    0.000    partial core radius                                     
   POMASS =    1.000; ZVAL   =    1.000    mass and valenz                      
   RCORE  =    1.100    outmost cutoff radius                                   
   RWIGS  =    0.700; RWIGS  =    0.370    wigner-seitz radius (au A)           
   ENMAX  =  250.000; ENMIN  =  200.000 eV                                      
   RCLOC  =    0.701    cutoff for local pot                                    
   LCOR   =        T    correct aug charges                                     
   LPAW   =        T    paw PP                                                  
   EAUG   =  400.000                                                            
   RMAX   =    1.123    core radius for proj-oper                               
   RAUG   =    1.200    factor for augmentation sphere                          
   RDEP   =    1.112    radius for radial grids                                 
   RDEPT  =    0.926    core radius for aug-charge                              
                                                                                
   Atomic configuration                                                         
    2 entries                                                                   
     n  l   j            E        occ.                                          
     1  0  0.50        -6.4927   1.0000                                         
     2  1  0.50        -3.4015   0.0000                                         
   Description                                                                  
     l       E           TYP  RCUT    TYP  RCUT                                 
     0     -6.4927494     23  1.100                                             
     0      6.8029130     23  1.100                                             
     1     -4.0817478     23  1.100                                             
  local pseudopotential read in
  atomic valenz-charges read in
  non local Contribution for L=           0  read in
    real space projection operators read in
  non local Contribution for L=           0  read in
    real space projection operators read in
  non local Contribution for L=           1  read in
    real space projection operators read in
    PAW grid and wavefunctions read in
 
   number of l-projection  operators is LMAX  =           3
   number of lm-projection operators is LMMAX =           5
 
 Optimization of the real space projectors (new method)

 maximal supplied QI-value         = 16.25
 optimisation between [QCUT,QGAM] = [ 11.54, 23.24] = [ 37.28,151.24] Ry 
 Optimized for a Real-space Cutoff    1.45 Angstroem

   l    n(q)    QCUT    max X(q) W(low)/X(q) W(high)/X(q)  e(spline) 
   2      9    11.539    60.317    0.19E-03    0.47E-04    0.16E-06
   2      9    11.539    55.921    0.19E-03    0.48E-04    0.16E-06
   0     10    11.539    51.690    0.80E-04    0.50E-04    0.24E-06
   0     10    11.539    30.015    0.73E-04    0.45E-04    0.22E-06
   1     10    11.539    18.849    0.87E-04    0.16E-03    0.71E-07
   1     10    11.539    14.624    0.73E-04    0.13E-03    0.64E-07
 Optimization of the real space projectors (new method)

 maximal supplied QI-value         = 24.76
 optimisation between [QCUT,QGAM] = [ 11.64, 23.27] = [ 37.91,151.63] Ry 
 Optimized for a Real-space Cutoff    1.14 Angstroem

   l    n(q)    QCUT    max X(q) W(low)/X(q) W(high)/X(q)  e(spline) 
   0      8    11.635    20.381    0.10E-03    0.33E-03    0.24E-06
   0      8    11.635    15.268    0.11E-03    0.35E-03    0.26E-06
   1      7    11.635     5.964    0.24E-03    0.31E-03    0.30E-06
   1      7    11.635     5.382    0.22E-03    0.25E-03    0.26E-06
 Optimization of the real space projectors (new method)

 maximal supplied QI-value         = 34.20
 optimisation between [QCUT,QGAM] = [ 11.63, 23.26] = [ 37.87,151.49] Ry 
 Optimized for a Real-space Cutoff    1.21 Angstroem

   l    n(q)    QCUT    max X(q) W(low)/X(q) W(high)/X(q)  e(spline) 
   0      8    11.629    19.460    0.17E-03    0.34E-03    0.21E-06
   0      8    11.629    12.209    0.16E-03    0.33E-03    0.21E-06
   1      8    11.629     4.655    0.18E-03    0.16E-03    0.26E-06
  PAW_PBE Ni 02Aug2007                  :
 energy of atom  1       EATOM=-1077.6739
 kinetic energy error for atom=    0.0030 (will be added to EATOM!!)
  PAW_PBE O 08Apr2002                   :
 energy of atom  2       EATOM= -432.3788
 kinetic energy error for atom=    0.0208 (will be added to EATOM!!)
  PAW_PBE H 15Jun2001                   :
 energy of atom  3       EATOM=  -12.4884
 kinetic energy error for atom=    0.0014 (will be added to EATOM!!)
 
 
 POSCAR: POSCAR                                  
  positions in direct lattice
  velocities in cartesian coordinates
 exchange correlation table for  LEXCH =        8
   RHO(1)=    0.500       N(1)  =     2000
   RHO(2)=  100.500       N(2)  =     4000

 VTST: version 3.2, (02/03/18)

 CHAIN: initializing optimizer
 
 OPT: Using VASP Dynamics algorithm
 CHAIN: Read ICHAIN            0
 
 POSCAR: POSCAR                                  
  positions in direct lattice
  velocities in cartesian coordinates
 


--------------------------------------------------------------------------------------------------------


 ion  position               nearest neighbor table
   1  0.113  0.226  0.095-  15 2.49  19 2.49   3 2.49   5 2.49  13 2.49  17 2.49  21 2.49  49 2.49
                            61 2.49
   2  0.108  0.228  0.382-  65 1.82  14 2.40  18 2.43  20 2.45  62 2.48  22 2.51  24 2.52   6 2.52
                             4 2.52  50 2.57
   3  0.196  0.142  0.191-   4 2.44   8 2.45  24 2.46   5 2.49  49 2.49   1 2.49   7 2.49  15 2.49
                            19 2.49  23 2.49  51 2.49  63 2.49
   4  0.029  0.059  0.285-  62 2.43  15 2.44   3 2.44  63 2.44   8 2.49  24 2.49  64 2.49  16 2.49
                            20 2.49  52 2.50  50 2.52   2 2.52
   5  0.363  0.226  0.095-   3 2.49  23 2.49   7 2.49   9 2.49   1 2.49  21 2.49  25 2.49  49 2.49
                            53 2.49
   6  0.359  0.224  0.387-  65 1.86  69 1.96  50 2.52   2 2.52  22 2.52  54 2.52  10 2.53  26 2.55
                            24 2.56   8 2.56  28 2.56
   7  0.446  0.142  0.191-  12 2.45   8 2.46  28 2.49   9 2.49  53 2.49   5 2.49  11 2.49   3 2.49
                            23 2.49  51 2.49  27 2.49  55 2.49
   8  0.280  0.060  0.286-  54 2.41   3 2.45   7 2.46  51 2.46  24 2.47  28 2.49   4 2.49  52 2.50
                            12 2.50  56 2.51  50 2.52   6 2.56
   9  0.613  0.226  0.095-   7 2.49  27 2.49  11 2.49  13 2.49   5 2.49  25 2.49  29 2.49  53 2.49
                            57 2.49
  10  0.613  0.225  0.383-  68 1.89  69 1.93  28 2.49  12 2.51  32 2.51  54 2.52  30 2.52  58 2.52
                            14 2.52   6 2.53  26 2.53
  11  0.696  0.142  0.191-  16 2.44  12 2.45  32 2.45  13 2.49  57 2.49   9 2.49  15 2.49   7 2.49
                            27 2.49  55 2.49  31 2.49  59 2.49
  12  0.530  0.060  0.285-  54 2.42  11 2.45   7 2.45  55 2.46  32 2.47  16 2.49  60 2.49  28 2.49
                             8 2.50  56 2.50  10 2.51  58 2.53
  13  0.863  0.226  0.095-  11 2.49  31 2.49  15 2.49   9 2.49   1 2.49  29 2.49  17 2.49  57 2.49
                            61 2.49
  14  0.868  0.228  0.383-  68 1.84   2 2.40  18 2.43  20 2.46  62 2.49  30 2.50  10 2.52  32 2.53
                            16 2.53  58 2.56
  15  0.946  0.142  0.191-   4 2.44  16 2.45  20 2.48   1 2.49  61 2.49  13 2.49   3 2.49  11 2.49
                            31 2.49  59 2.49  19 2.49  63 2.49
  16  0.779  0.059  0.285-  62 2.43  11 2.44  15 2.45  59 2.45  32 2.49  12 2.49  60 2.49  20 2.49
                             4 2.49  64 2.49  58 2.53  14 2.53
  17  0.113  0.476  0.095-  31 2.49  35 2.49  19 2.49  21 2.49  29 2.49  13 2.49  33 2.49   1 2.49
                            37 2.49
  18  0.111  0.473  0.383-  67 1.84   2 2.43  14 2.43  20 2.47  30 2.47  22 2.48  36 2.53  40 2.53
                            34 2.54  38 2.54
  19  0.196  0.392  0.191-  40 2.44  24 2.47  20 2.48  21 2.49   1 2.49  17 2.49  31 2.49  23 2.49
                            15 2.49  35 2.49  39 2.49   3 2.49
  20  0.029  0.309  0.287-   2 2.45  14 2.46  18 2.47  31 2.47  19 2.48  15 2.48  36 2.49  40 2.49
                            16 2.49  32 2.49   4 2.49  24 2.50
  21  0.363  0.476  0.095-  19 2.49  39 2.49  23 2.49  25 2.49  17 2.49   5 2.49  37 2.49   1 2.49
                            41 2.49
  22  0.362  0.477  0.377-  40 2.41  44 2.41  24 2.41  18 2.48  38 2.48   2 2.51  42 2.51   6 2.52
                            26 2.52
  23  0.446  0.392  0.191-  24 2.46  44 2.46  28 2.48  25 2.49   5 2.49  21 2.49  19 2.49  27 2.49
                             7 2.49  39 2.49  43 2.49   3 2.49
  24  0.280  0.308  0.286-  22 2.41   3 2.46  23 2.46  19 2.47   8 2.47  28 2.48   4 2.49  20 2.50
                            44 2.50  40 2.50   2 2.52   6 2.56
  25  0.613  0.476  0.095-  23 2.49  43 2.49  27 2.49  29 2.49  21 2.49   9 2.49  41 2.49   5 2.49
                            45 2.49
  26  0.615  0.479  0.387-  66 1.86  69 1.96  46 2.52  42 2.52  22 2.52  30 2.52  10 2.53   6 2.55
                            44 2.56  48 2.56  28 2.56
  27  0.696  0.392  0.191-  32 2.45  48 2.46  28 2.49  29 2.49   9 2.49  25 2.49  23 2.49  31 2.49
                            11 2.49  43 2.49  47 2.49   7 2.49
  28  0.529  0.310  0.287-  44 2.48  24 2.48  23 2.48  48 2.49   8 2.49  10 2.49  27 2.49   7 2.49
                            32 2.49  12 2.49   6 2.56  26 2.56
  29  0.863  0.476  0.095-  27 2.49  47 2.49  31 2.49  25 2.49  17 2.49  13 2.49  33 2.49  45 2.49
                             9 2.49
  30  0.866  0.477  0.377-  36 2.40  48 2.41  32 2.42  18 2.47  34 2.47  14 2.50  46 2.51  10 2.52
                            26 2.52
  31  0.946  0.392  0.191-  36 2.44  32 2.46  20 2.47  17 2.49  13 2.49  29 2.49  27 2.49  19 2.49
                            15 2.49  35 2.49  11 2.49  47 2.49
  32  0.778  0.308  0.285-  30 2.42  11 2.45  27 2.45  31 2.46  12 2.47  16 2.49  20 2.49  28 2.49
                            48 2.50  36 2.50  10 2.51  14 2.53
  33  0.113  0.726  0.095-  47 2.49  51 2.49  35 2.49  37 2.49  45 2.49  29 2.49  49 2.49  17 2.49
                            53 2.49
  34  0.111  0.727  0.383-  67 1.84  46 2.43  50 2.43  52 2.47  54 2.47  30 2.47  56 2.53  36 2.53
                            18 2.54  38 2.54
  35  0.196  0.642  0.191-  36 2.44  56 2.44  40 2.44  37 2.49  17 2.49  33 2.49  47 2.49  39 2.49
                            31 2.49  51 2.49  55 2.49  19 2.49
  36  0.030  0.559  0.284-  30 2.40  35 2.44  47 2.44  31 2.44  52 2.49  20 2.49  56 2.49  40 2.49
                            32 2.50  48 2.51  34 2.53  18 2.53
  37  0.363  0.726  0.095-  35 2.49  55 2.49  39 2.49  41 2.49  33 2.49  21 2.49  53 2.49  17 2.49
                            57 2.49
  38  0.366  0.727  0.383-  67 1.84  42 2.43  58 2.43  60 2.47  54 2.47  22 2.48  56 2.53  40 2.53
                            34 2.54  18 2.54
  39  0.446  0.642  0.191-  40 2.44  44 2.47  60 2.48  41 2.49  21 2.49  37 2.49  35 2.49  43 2.49
                            23 2.49  55 2.49  59 2.49  19 2.49
  40  0.279  0.559  0.285-  22 2.41  35 2.44  39 2.44  19 2.44  36 2.49  56 2.49  20 2.49  60 2.49
                            44 2.50  24 2.50  18 2.53  38 2.53
  41  0.613  0.726  0.095-  39 2.49  59 2.49  43 2.49  45 2.49  37 2.49  25 2.49  57 2.49  21 2.49
                            61 2.49
  42  0.611  0.730  0.382-  66 1.82  58 2.40  38 2.43  60 2.45  62 2.48  22 2.51  44 2.52  26 2.52
                            64 2.52  46 2.57
  43  0.696  0.642  0.191-  64 2.44  48 2.45  44 2.46  45 2.49  25 2.49  41 2.49  39 2.49  47 2.49
                            27 2.49  59 2.49  63 2.49  23 2.49
  44  0.531  0.559  0.286-  22 2.41  43 2.46  23 2.46  39 2.47  48 2.47  28 2.48  64 2.49  60 2.50
                            24 2.50  40 2.50  42 2.52  26 2.56
  45  0.863  0.726  0.095-  43 2.49  63 2.49  47 2.49  41 2.49  33 2.49  29 2.49  49 2.49  61 2.49
                            25 2.49
  46  0.869  0.730  0.382-  66 1.82  50 2.39  34 2.43  52 2.46  62 2.49  30 2.51  26 2.52  48 2.52
                            64 2.52  42 2.57
  47  0.946  0.642  0.191-  36 2.44  48 2.46  52 2.47  33 2.49  29 2.49  45 2.49  43 2.49  35 2.49
                            31 2.49  51 2.49  27 2.49  63 2.49
  48  0.778  0.559  0.286-  30 2.41  43 2.45  27 2.46  47 2.46  44 2.47  28 2.49  64 2.49  52 2.50
                            32 2.50  36 2.51  46 2.52  26 2.56
  49  0.113  0.976  0.095-  63 2.49   3 2.49  51 2.49  61 2.49  53 2.49   1 2.49   5 2.49  33 2.49
                            45 2.49
  50  0.109  0.970  0.382-  65 1.82  46 2.39  34 2.43  52 2.46  62 2.49  54 2.51   6 2.52   8 2.52
                             4 2.52   2 2.57
  51  0.196  0.892  0.191-  56 2.44   8 2.46  52 2.47  53 2.49  33 2.49  49 2.49  55 2.49  63 2.49
                            35 2.49  47 2.49   3 2.49   7 2.49
  52  0.030  0.809  0.286-  46 2.46  50 2.46  51 2.47  47 2.47  63 2.47  34 2.47  56 2.49  36 2.49
                             4 2.50  64 2.50   8 2.50  48 2.50
  53  0.363  0.976  0.095-  51 2.49   7 2.49  55 2.49  49 2.49  57 2.49   5 2.49   9 2.49  33 2.49
                            37 2.49
  54  0.361  0.973  0.377-  56 2.40   8 2.41  12 2.42  38 2.47  34 2.47  58 2.50  50 2.51  10 2.52
                             6 2.52
  55  0.446  0.892  0.191-  56 2.44  12 2.46  60 2.47  57 2.49  37 2.49  53 2.49  59 2.49  51 2.49
                            11 2.49  39 2.49   7 2.49  35 2.49
  56  0.279  0.809  0.284-  54 2.40  35 2.44  51 2.44  55 2.44  52 2.49  60 2.49  36 2.49  40 2.49
                            12 2.50   8 2.51  34 2.53  38 2.53
  57  0.613  0.976  0.095-  55 2.49  11 2.49  59 2.49  53 2.49  61 2.49   9 2.49  13 2.49  37 2.49
                            41 2.49
  58  0.611  0.971  0.383-  68 1.84  42 2.40  38 2.43  60 2.46  62 2.49  54 2.50  10 2.52  12 2.53
                            16 2.53  14 2.56
  59  0.696  0.892  0.191-  64 2.44  16 2.45  60 2.48  61 2.49  41 2.49  57 2.49  63 2.49  55 2.49
                            15 2.49  43 2.49  11 2.49  39 2.49
  60  0.529  0.809  0.287-  42 2.45  58 2.46  38 2.47  55 2.47  39 2.48  59 2.48  56 2.49  40 2.49
                            16 2.49  12 2.49  64 2.49  44 2.50
  61  0.863  0.976  0.095-  59 2.49  15 2.49  63 2.49  49 2.49  57 2.49  13 2.49   1 2.49  41 2.49
                            45 2.49
  62  0.862  0.976  0.378-  16 2.43   4 2.43  64 2.43  42 2.48   2 2.48  58 2.49  14 2.49  46 2.49
                            50 2.49
  63  0.946  0.892  0.191-  64 2.44   4 2.44  52 2.47  49 2.49  45 2.49  61 2.49  51 2.49  59 2.49
                             3 2.49  47 2.49  15 2.49  43 2.49
  64  0.779  0.809  0.285-  62 2.43  59 2.44  43 2.44  63 2.44  48 2.49  44 2.49   4 2.49  16 2.49
                            60 2.49  52 2.50  46 2.52  42 2.52
  65  0.180  0.134  0.436-   2 1.82  50 1.82   6 1.86
  66  0.704  0.659  0.436-  46 1.82  42 1.82  26 1.86
  67  0.196  0.642  0.435-  38 1.84  18 1.84  34 1.84
  68  0.701  0.138  0.437-  58 1.84  14 1.84  10 1.89
  69  0.533  0.305  0.447-  70 1.52  10 1.93   6 1.96  26 1.96
  70  0.553  0.285  0.517-  71 0.99  69 1.52
  71  0.611  0.229  0.512-  70 0.99
 

IMPORTANT INFORMATION: All symmetrisations will be switched off!
NOSYMM: (Re-)initialisation of all symmetry stuff for point group C_1.

 
 

Automatic generation of k-mesh.
 generate k-points for:    1    1    1
Space group operators:
 irot       det(A)        alpha          n_x          n_y          n_z        tau_x        tau_y        tau_z
    1     1.000000     0.000000     1.000000     0.000000     0.000000     0.000000     0.000000     0.000000
 
 Subroutine IBZKPT returns following result:
 ===========================================
 
 Found      1 irreducible k-points:
 
 Following reciprocal coordinates:
            Coordinates               Weight
  0.000000  0.000000  0.000000      1.000000
 
 Following cartesian coordinates:
            Coordinates               Weight
  0.000000  0.000000  0.000000      1.000000
 
 
 Subroutine IBZKPT_HF returns following result:
 ==============================================
 
 Found      1 k-points in 1st BZ
 the following      1 k-points will be used (e.g. in the exchange kernel)
 Following reciprocal coordinates:   # in IRBZ
  0.000000  0.000000  0.000000    1.00000000   1 t-inv F


--------------------------------------------------------------------------------------------------------




 Dimension of arrays:
   k-points           NKPTS =      1   k-points in BZ     NKDIM =      1   number of bands    NBANDS=    408
   number of dos      NEDOS =    301   number of ions     NIONS =     71
   non local maximal  LDIM  =      6   non local SUM 2l+1 LMDIM =     18
   total plane-waves  NPLWV = ******
   max r-space proj   IRMAX =   7188   max aug-charges    IRDMAX=  18478
   dimension x,y,z NGX =    80 NGY =   80 NGZ =  160
   dimension x,y,z NGXF=   160 NGYF=  160 NGZF=  320
   support grid    NGXF=   160 NGYF=  160 NGZF=  320
   ions per type =              64   6   1
   NGX,Y,Z   is equivalent  to a cutoff of  13.34, 13.34, 12.60 a.u.
   NGXF,Y,Z  is equivalent  to a cutoff of  26.69, 26.69, 25.21 a.u.

 SYSTEM =  SQS-NiFe                                
 POSCAR =  POSCAR                                  

 Startparameter for this run:
   NWRITE =      2    write-flag & timer
   PREC   = accura    normal or accurate (medium, high low for compatibility)
   ISTART =      0    job   : 0-new  1-cont  2-samecut
   ICHARG =      1    charge: 1-file 2-atom 10-const
   ISPIN  =      1    spin polarized calculation?
   LNONCOLLINEAR =      F non collinear calculations
   LSORBIT =      F    spin-orbit coupling
   INIWAV =      1    electr: 0-lowe 1-rand  2-diag
   LASPH  =      F    aspherical Exc in radial PAW
   METAGGA=      F    non-selfconsistent MetaGGA calc.

 Electronic Relaxation 1
   ENCUT  =  520.0 eV  38.22 Ry    6.18 a.u.  18.53 18.53 39.24*2*pi/ulx,y,z
   ENINI  =  520.0     initial cutoff
   ENAUG  =  605.4 eV  augmentation charge cutoff
   NELM   =    200;   NELMIN=  2; NELMDL= -5     # of ELM steps 
   EDIFF  = 0.1E-05   stopping-criterion for ELM
   LREAL  =      T    real-space projection
   NLSPLINE    = F    spline interpolate recip. space projectors
   LCOMPAT=      F    compatible to vasp.4.4
   GGA_COMPAT  = T    GGA compatible to vasp.4.4-vasp.4.6
   LMAXPAW     = -100 max onsite density
   LMAXMIX     =    2 max onsite mixed and CHGCAR
   VOSKOWN=      0    Vosko Wilk Nusair interpolation
   ROPT   =   -0.00025  -0.00025  -0.00025
 Ionic relaxation
   EDIFFG = -.2E-01   stopping-criterion for IOM
   NSW    =    889    number of steps for IOM
   NBLOCK =      1;   KBLOCK =    889    inner block; outer block 
   IBRION =      5    ionic relax: 0-MD 1-quasi-New 2-CG
   NFREE  =      2    steps in history (QN), initial steepest desc. (CG)
   ISIF   =      2    stress and relaxation
   IWAVPR =     11    prediction:  0-non 1-charg 2-wave 3-comb
   ISYM   =      0    0-nonsym 1-usesym 2-fastsym
   LCORR  =      T    Harris-Foulkes like correction to forces

   POTIM  = 0.0150    time-step for ionic-motion
   TEIN   =    0.0    initial temperature
   TEBEG  =    0.0;   TEEND  =   0.0 temperature during run
   SMASS  =  -3.00    Nose mass-parameter (am)
   estimated Nose-frequenzy (Omega)   =  0.10E-29 period in steps =****** mass=  -0.227E-26a.u.
   SCALEE = 1.0000    scale energy and forces
   NPACO  =    256;   APACO  = 16.0  distance and # of slots for P.C.
   PSTRESS=    0.0 pullay stress

  Mass of Ions in am
   POMASS =  58.69 16.00  1.00
  Ionic Valenz
   ZVAL   =  10.00  6.00  1.00
  Atomic Wigner-Seitz radii
   RWIGS  =  -1.00 -1.00 -1.00
  virtual crystal weights 
   VCA    =   1.00  1.00  1.00
   NELECT =     677.0000    total number of electrons
   NUPDOWN=      -1.0000    fix difference up-down

 DOS related values:
   EMIN   =  10.00;   EMAX   =-10.00  energy-range for DOS
   EFERMI =   0.00
   ISMEAR =     0;   SIGMA  =   0.20  broadening in eV -4-tet -1-fermi 0-gaus

 Electronic relaxation 2 (details)
   IALGO  =     68    algorithm
   LDIAG  =      T    sub-space diagonalisation (order eigenvalues)
   LSUBROT=      F    optimize rotation matrix (better conditioning)
   TURBO    =      0    0=normal 1=particle mesh
   IRESTART =      0    0=no restart 2=restart with 2 vectors
   NREBOOT  =      0    no. of reboots
   NMIN     =      0    reboot dimension
   EREF     =   0.00    reference energy to select bands
   IMIX   =      4    mixing-type and parameters
     AMIX     =   0.40;   BMIX     =  1.00
     AMIX_MAG =   1.60;   BMIX_MAG =  1.00
     AMIN     =   0.10
     WC   =   100.;   INIMIX=   1;  MIXPRE=   1;  MAXMIX= -45

 Intra band minimization:
   WEIMIN = 0.0010     energy-eigenvalue tresh-hold
   EBREAK =  0.61E-09  absolut break condition
   DEPER  =   0.30     relativ break condition  

   TIME   =   0.40     timestep for ELM

  volume/ion in A,a.u.               =      25.57       172.58
  Fermi-wavevector in a.u.,A,eV,Ry     =   1.178294  2.226653 18.890009  1.388376
  Thomas-Fermi vector in A             =   2.314625
 
 Write flags
   LWAVE        =      F    write WAVECAR
   LDOWNSAMPLE  =      F    k-point downsampling of WAVECAR
   LCHARG       =      F    write CHGCAR
   LVTOT        =      F    write LOCPOT, total local potential
   LVHAR        =      F    write LOCPOT, Hartree potential only
   LELF         =      F    write electronic localiz. function (ELF)
   LORBIT       =     10    0 simple, 1 ext, 2 COOP (PROOUT), +10 PAW based schemes


 Dipole corrections
   LMONO  =      F    monopole corrections only (constant potential shift)
   LDIPOL =      F    correct potential (dipole corrections)
   IDIPOL =      0    1-x, 2-y, 3-z, 4-all directions 
   EPSILON=  1.0000000 bulk dielectric constant

 Exchange correlation treatment:
   GGA     =    --    GGA type
   LEXCH   =     8    internal setting for exchange type
   VOSKOWN=      0    Vosko Wilk Nusair interpolation
   LHFCALC =     F    Hartree Fock is set to
   LHFONE  =     F    Hartree Fock one center treatment
   AEXX    =    0.0000 exact exchange contribution

 Linear response parameters
   LEPSILON=     F    determine dielectric tensor
   LRPA    =     F    only Hartree local field effects (RPA)
   LNABLA  =     F    use nabla operator in PAW spheres
   LVEL    =     F    velocity operator in full k-point grid
   LINTERFAST=   F  fast interpolation
   KINTER  =     0    interpolate to denser k-point grid
   CSHIFT  =0.1000    complex shift for real part using Kramers Kronig
   OMEGAMAX=  -1.0    maximum frequency
   DEG_THRESHOLD= 0.2000000E-02 threshold for treating states as degnerate
   RTIME   =   -0.100 relaxation time in fs
  (WPLASMAI=    0.000 imaginary part of plasma frequency in eV, 0.658/RTIME)
   DFIELD  = 0.0000000 0.0000000 0.0000000 field for delta impulse in time
 
 Orbital magnetization related:
   ORBITALMAG=     F  switch on orbital magnetization
   LCHIMAG   =     F  perturbation theory with respect to B field
   DQ        =  0.001000  dq finite difference perturbation B field
   LLRAUG    =     F  two centre corrections for induced B field



--------------------------------------------------------------------------------------------------------


 finite differences
   using selective dynamics as specified on POSCAR
 charge density and potential will be updated during run
 non-spin polarized calculation
 RMM-DIIS sequential band-by-band and
  variant of blocked Davidson during initial phase
 perform sub-space diagonalisation
    before iterative eigenvector-optimisation
 modified Broyden-mixing scheme, WC =      100.0
 initial mixing is a Kerker type mixing with AMIX =  0.4000 and BMIX =      1.0000
 Hartree-type preconditioning will be used
 using additional bands           69
 real space projection scheme for non local part
 use partial core corrections
 calculate Harris-corrections to forces 
   (improved forces if not selfconsistent)
 use gradient corrections 
 use of overlap-Matrix (Vanderbilt PP)
 Gauss-broadening in eV      SIGMA  =   0.20


--------------------------------------------------------------------------------------------------------


  energy-cutoff  :      520.00
  volume of cell :     1815.73
      direct lattice vectors                 reciprocal lattice vectors
     9.967380000  0.000000000  0.000000000     0.100327268  0.057923975  0.000000000
    -4.983690000  8.632004290  0.000000000     0.000000000  0.115847950  0.000000000
     0.000000000  0.000000000 21.103750000     0.000000000  0.000000000  0.047384943

  length of vectors
     9.967380000  9.967380001 21.103750000     0.115847950  0.115847950  0.047384943


 
 k-points in units of 2pi/SCALE and weight: read from INCAR                         
   0.00000000  0.00000000  0.00000000       1.000
 
 k-points in reciprocal lattice and weights: read from INCAR                         
   0.00000000  0.00000000  0.00000000       1.000
 
 position of ions in fractional coordinates (direct lattice) 
   0.11283300  0.22566700  0.09477000
   0.10842160  0.22761248  0.38244665
   0.19616700  0.14233300  0.19117800
   0.02948400  0.05907148  0.28470671
   0.36283300  0.22566700  0.09477000
   0.35906341  0.22379677  0.38681529
   0.44616700  0.14233300  0.19117800
   0.27950240  0.06018676  0.28559054
   0.61283300  0.22566700  0.09477000
   0.61326988  0.22524397  0.38280519
   0.69616700  0.14233300  0.19117800
   0.53035063  0.06001697  0.28521467
   0.86283300  0.22566700  0.09477000
   0.86753819  0.22774447  0.38275071
   0.94616700  0.14233300  0.19117800
   0.77929142  0.05921993  0.28488961
   0.11283300  0.47566700  0.09477000
   0.11115360  0.47264968  0.38267509
   0.19616700  0.39233300  0.19117800
   0.02929019  0.30924883  0.28655923
   0.36283300  0.47566700  0.09477000
   0.36153510  0.47698682  0.37700779
   0.44616700  0.39233300  0.19117800
   0.27954839  0.30798004  0.28585301
   0.61283300  0.47566700  0.09477000
   0.61474124  0.47948514  0.38682693
   0.69616700  0.39233300  0.19117800
   0.52894526  0.30957753  0.28724655
   0.86283300  0.47566700  0.09477000
   0.86579408  0.47727267  0.37655488
   0.94616700  0.39233300  0.19117800
   0.77849621  0.30815874  0.28521352
   0.11283300  0.72566700  0.09477000
   0.11137807  0.72714476  0.38257765
   0.19616700  0.64233300  0.19117800
   0.02968961  0.55910547  0.28446702
   0.36283300  0.72566700  0.09477000
   0.36589995  0.72738874  0.38266809
   0.44616700  0.64233300  0.19117800
   0.27945026  0.55906160  0.28456800
   0.61283300  0.72566700  0.09477000
   0.61090613  0.73011721  0.38244219
   0.69616700  0.64233300  0.19117800
   0.53052556  0.55896034  0.28585473
   0.86283300  0.72566700  0.09477000
   0.86886168  0.72992503  0.38231227
   0.94616700  0.64233300  0.19117800
   0.77832766  0.55900846  0.28559189
   0.11283300  0.97566700  0.09477000
   0.10860702  0.96967012  0.38231884
   0.19616700  0.89233300  0.19117800
   0.02973116  0.80878265  0.28631450
   0.36283300  0.97566700  0.09477000
   0.36124613  0.97272864  0.37655881
   0.44616700  0.89233300  0.19117800
   0.27940542  0.80882397  0.28446745
   0.61283300  0.97566700  0.09477000
   0.61078548  0.97099709  0.38275590
   0.69616700  0.89233300  0.19117800
   0.52926356  0.80922816  0.28655775
   0.86283300  0.97566700  0.09477000
   0.86244043  0.97608018  0.37761724
   0.94616700  0.89233300  0.19117800
   0.77943487  0.80902456  0.28470521
   0.17995949  0.13428962  0.43610977
   0.70425964  0.65860621  0.43609936
   0.19621204  0.64236558  0.43548149
   0.70083523  0.13770949  0.43677016
   0.53305639  0.30541475  0.44658477
   0.55290551  0.28509886  0.51653775
   0.61074154  0.22879281  0.51248014
 
 position of ions in cartesian coordinates  (Angst):
  -0.00000498  1.94795851  2.00000239
  -0.05367082  1.96475195  8.07105845
   1.24592748  1.22861907  4.03457272
  -0.00051570  0.50990529  6.00837916
   2.49184002  1.94795851  2.00000239
   2.46358776  1.93181465  8.16325311
   3.73777248  1.22861907  4.03457272
   2.48595452  0.51953236  6.02703146
   4.98368502  1.94795851  2.00000239
   4.99014787  1.94430689  8.07862498
   6.22961748  1.22861907  4.03457272
   4.98710032  0.51806675  6.01909902
   7.47553002  1.94795851  2.00000239
   7.51207495  1.96589120  8.07747522
   8.72146248  1.22861907  4.03457272
   7.47235992  0.51118671  6.01223904
  -1.24592748  4.10595958  2.00000239
  -1.24762925  4.07991404  8.07587946
   0.00000498  3.38662014  4.03457272
  -1.24925391  2.66943724  6.04747438
   1.24591752  4.10595958  2.00000239
   1.22640334  4.11735223  7.95627819
   2.49184998  3.38662014  4.03457272
   1.25148797  2.65848499  6.03257050
   3.73776252  4.10595958  2.00000239
   3.73775423  4.13891780  8.16349874
   4.98369498  3.38662014  4.03457272
   3.72935993  2.67227457  6.06197945
   6.22960752  4.10595958  2.00000239
   6.25111959  4.11981978  7.94671998
   7.47553998  3.38662014  4.03457272
   6.22379991  2.66002752  6.01907474
  -2.49184998  6.26396066  2.00000239
  -2.51371657  6.27671669  8.07382312
  -1.24591752  5.54462121  4.03457272
  -2.49048074  4.82620081  6.00332082
  -0.00000498  6.26396066  2.00000239
   0.02198384  6.27882270  8.07573168
   1.24592748  5.54462121  4.03457272
  -0.00080282  4.82582215  6.00545201
   2.49184002  6.26396066  2.00000239
   2.45045564  6.30237493  8.07096431
   3.73777248  5.54462121  4.03457272
   2.50226485  4.82494803  6.03260680
   4.98368502  6.26396066  2.00000239
   5.02255448  6.30071600  8.06822261
   6.22961748  5.54462121  4.03457272
   4.97196268  4.82536345  6.02705982
  -3.73777248  8.42196173  2.00000239
  -3.75000777  8.37019660  8.06836116
  -2.49184002  7.70262228  4.03457272
  -3.73438026  6.98141531  6.04230955
  -1.24592748  8.42196173  2.00000239
  -1.24710053  8.39659778  7.94680296
   0.00000498  7.70262228  4.03457272
  -1.24598796  6.98177195  6.00332990
   1.24591752  8.42196173  2.00000239
   1.24878251  8.38165102  8.07758477
   2.49184998  7.70262228  4.03457272
   1.24242872  6.98526091  6.04744311
   3.73776252  8.42196173  2.00000239
   3.73179041  8.42552831  7.96913977
   4.98369498  7.70262228  4.03457272
   3.73699593  6.98350345  6.00834748
   1.12446678  1.15918857  9.20355156
   3.73733423  5.68509164  9.20333177
  -1.24563103  5.54490248  9.19029239
   6.29918966  1.18870887  9.21748820
   3.79108316  2.63634140  9.42461333
   4.09017493  2.46097462 10.90088363
   4.94726054  1.97494052 10.81525279
 


--------------------------------------------------------------------------------------------------------


 use parallel FFT for orbitals z direction half grid
 k-point  1 :   0.0000 0.0000 0.0000  plane waves:   24475

 maximum and minimum number of plane-waves per node :      1022     1017

 maximum number of plane-waves:     24475
 maximum index in each direction: 
   IXMAX=   18   IYMAX=   18   IZMAX=   39
   IXMIN=  -18   IYMIN=  -18   IZMIN=    0


 real space projection operators:
  total allocation   :      63677.66 KBytes
  max/ min on nodes  :       3225.35       2346.26


 parallel 3D FFT for wavefunctions:
    minimum data exchange during FFTs selected (reduces bandwidth)
 parallel 3D FFT for charge:
    minimum data exchange during FFTs selected (reduces bandwidth)


 total amount of memory used by VASP MPI-rank0    54153. kBytes
=======================================================================

   base      :      30000. kBytes
   nonlr-proj:       3959. kBytes
   fftplans  :       5964. kBytes
   grid      :      11929. kBytes
   one-center:         23. kBytes
   wavefun   :       2278. kBytes
 
     INWAV:  cpu time    0.0001: real time    0.0007
 Broyden mixing: mesh for mixing (old mesh)
   NGX = 37   NGY = 37   NGZ = 79
  (NGX  =160   NGY  =160   NGZ  =320)
  gives a total of 108151 points

 initial charge density was supplied:
 number of electron     677.0000073 magnetization 
 keeping initial charge density in first step


--------------------------------------------------------------------------------------------------------


 Maximum index for non-local projection operator          709
 Maximum index for augmentation-charges         1178 (set IRDMAX)


--------------------------------------------------------------------------------------------------------


 First call to EWALD:  gamma=   0.145
 Maximum number of real-space cells 4x 4x 2
 Maximum number of reciprocal cells 2x 2x 4

    FEWALD:  cpu time    0.0086: real time    0.0086


--------------------------------------- Iteration      1(   1)  ---------------------------------------


    POTLOK:  cpu time    0.1809: real time    0.1980
    SETDIJ:  cpu time    0.0329: real time    0.0330
     EDDAV:  cpu time    2.4298: real time    2.5183
       DOS:  cpu time    0.0104: real time    0.0104
    --------------------------------------------
      LOOP:  cpu time    2.6540: real time    2.7598

 eigenvalue-minimisations  :   816
 total energy-change (2. order) : 0.6266373E+04  (-0.3520632E+05)
 number of electron     677.0000073 magnetization 
 augmentation part      677.0000073 magnetization 

 Free energy of the ion-electron system (eV)
  ---------------------------------------------------
  alpha Z        PSCENC =      1269.69210384
  Ewald energy   TEWEN  =    246835.73170100
  -Hartree energ DENC   =   -316394.37285328
  -exchange      EXHF   =         0.00000000
  -V(xc)+E(xc)   XCENC  =      2123.18984234
  PAW double counting   =     75311.06947939   -79711.10615186
  entropy T*S    EENTRO =        -0.29493481
  eigenvalues    EBANDS =      5254.88984829
  atomic energy  EATOM  =     71577.57373177
  Solvation  Ediel_sol  =         0.00000000
  ---------------------------------------------------
  free energy    TOTEN  =      6266.37276668 eV

  energy without entropy =     6266.66770149  energy(sigma->0) =     6266.52023409


--------------------------------------------------------------------------------------------------------




--------------------------------------- Iteration      1(   2)  ---------------------------------------


     EDDAV:  cpu time    2.3032: real time    2.3041
       DOS:  cpu time    0.0021: real time    0.0021
    --------------------------------------------
      LOOP:  cpu time    2.3062: real time    2.3063

 eigenvalue-minimisations  :   816
 total energy-change (2. order) :-0.5808036E+04  (-0.5604698E+04)
 number of electron     677.0000073 magnetization 
 augmentation part      677.0000073 magnetization 

 Free energy of the ion-electron system (eV)
  ---------------------------------------------------
  alpha Z        PSCENC =      1269.69210384
  Ewald energy   TEWEN  =    246835.73170100
  -Hartree energ DENC   =   -316394.37285328
  -exchange      EXHF   =         0.00000000
  -V(xc)+E(xc)   XCENC  =      2123.18984234
  PAW double counting   =     75311.06947939   -79711.10615186
  entropy T*S    EENTRO =        -0.57898589
  eigenvalues    EBANDS =      -552.86220654
  atomic energy  EATOM  =     71577.57373177
  Solvation  Ediel_sol  =         0.00000000
  ---------------------------------------------------
  free energy    TOTEN  =       458.33666077 eV

  energy without entropy =      458.91564666  energy(sigma->0) =      458.62615372


--------------------------------------------------------------------------------------------------------




--------------------------------------- Iteration      1(   3)  ---------------------------------------


     EDDAV:  cpu time    2.2855: real time    2.2977
       DOS:  cpu time    0.0011: real time    0.0011
    --------------------------------------------
      LOOP:  cpu time    2.2857: real time    2.2989

 eigenvalue-minimisations  :   816
 total energy-change (2. order) :-0.7230086E+03  (-0.6559921E+03)
 number of electron     677.0000073 magnetization 
 augmentation part      677.0000073 magnetization 

 Free energy of the ion-electron system (eV)
  ---------------------------------------------------
  alpha Z        PSCENC =      1269.69210384
  Ewald energy   TEWEN  =    246835.73170100
  -Hartree energ DENC   =   -316394.37285328
  -exchange      EXHF   =         0.00000000
  -V(xc)+E(xc)   XCENC  =      2123.18984234
  PAW double counting   =     75311.06947939   -79711.10615186
  entropy T*S    EENTRO =        -2.31589866
  eigenvalues    EBANDS =     -1274.13389612
  atomic energy  EATOM  =     71577.57373177
  Solvation  Ediel_sol  =         0.00000000
  ---------------------------------------------------
  free energy    TOTEN  =      -264.67194157 eV

  energy without entropy =     -262.35604291  energy(sigma->0) =     -263.51399224


--------------------------------------------------------------------------------------------------------




--------------------------------------- Iteration      1(   4)  ---------------------------------------


     EDDAV:  cpu time    3.1027: real time    3.1361
       DOS:  cpu time    0.0034: real time    0.0034
    --------------------------------------------
      LOOP:  cpu time    3.1061: real time    3.1395

 eigenvalue-minimisations  :  1209
 total energy-change (2. order) :-0.1026123E+03  (-0.9011703E+02)
 number of electron     677.0000073 magnetization 
 augmentation part      677.0000073 magnetization 

 Free energy of the ion-electron system (eV)
  ---------------------------------------------------
  alpha Z        PSCENC =      1269.69210384
  Ewald energy   TEWEN  =    246835.73170100
  -Hartree energ DENC   =   -316394.37285328
  -exchange      EXHF   =         0.00000000
  -V(xc)+E(xc)   XCENC  =      2123.18984234
  PAW double counting   =     75311.06947939   -79711.10615186
  entropy T*S    EENTRO =        -3.29437590
  eigenvalues    EBANDS =     -1375.76767465
  atomic energy  EATOM  =     71577.57373177
  Solvation  Ediel_sol  =         0.00000000
  ---------------------------------------------------
  free energy    TOTEN  =      -367.28419735 eV

  energy without entropy =     -363.98982144  energy(sigma->0) =     -365.63700940


--------------------------------------------------------------------------------------------------------




--------------------------------------- Iteration      1(   5)  ---------------------------------------


     EDDAV:  cpu time    2.3845: real time    2.3966
       DOS:  cpu time    0.0034: real time    0.0034
    CHARGE:  cpu time    0.1173: real time    0.1173
    MIXING:  cpu time    0.0125: real time    0.0125
    --------------------------------------------
      LOOP:  cpu time    2.5177: real time    2.5299

 eigenvalue-minimisations  :   867
 total energy-change (2. order) :-0.8160431E+01  (-0.7776770E+01)
 number of electron     677.0000067 magnetization 
 augmentation part      401.0844295 magnetization 

 Broyden mixing:
  rms(total) = 0.10675E+01    rms(broyden)= 0.10673E+01
  rms(prec ) = 0.13529E+01
  weight for this iteration     100.00

 Free energy of the ion-electron system (eV)
  ---------------------------------------------------
  alpha Z        PSCENC =      1269.69210384
  Ewald energy   TEWEN  =    246835.73170100
  -Hartree energ DENC   =   -316394.37285328
  -exchange      EXHF   =         0.00000000
  -V(xc)+E(xc)   XCENC  =      2123.18984234
  PAW double counting   =     75311.06947939   -79711.10615186
  entropy T*S    EENTRO =        -3.46636734
  eigenvalues    EBANDS =     -1383.75611462
  atomic energy  EATOM  =     71577.57373177
  Solvation  Ediel_sol  =         0.00000000
  ---------------------------------------------------
  free energy    TOTEN  =      -375.44462876 eV

  energy without entropy =     -371.97826142  energy(sigma->0) =     -373.71144509


--------------------------------------------------------------------------------------------------------




--------------------------------------- Iteration      1(   6)  ---------------------------------------


    POTLOK:  cpu time    0.1773: real time    0.1864
    SETDIJ:  cpu time    0.0098: real time    0.0098
    EDDIAG:  cpu time    0.3500: real time    0.3501
  RMM-DIIS:  cpu time    1.6252: real time    1.6267
    ORTHCH:  cpu time    0.0753: real time    0.0753
       DOS:  cpu time    0.0015: real time    0.0015
    CHARGE:  cpu time    0.1101: real time    0.1101
    MIXING:  cpu time    0.0052: real time    0.0067
    --------------------------------------------
      LOOP:  cpu time    2.3543: real time    2.3667

 eigenvalue-minimisations  :   824
 total energy-change (2. order) :-0.6219751E+02  (-0.3351014E+01)
 number of electron     677.0000091 magnetization 
 augmentation part      393.0486835 magnetization 

 Broyden mixing:
  rms(total) = 0.10319E+02    rms(broyden)= 0.10319E+02
  rms(prec ) = 0.12991E+02
  weight for this iteration     100.00

 eigenvalues of (default mixing * dielectric matrix)
  average eigenvalue GAMMA=   0.0763
  0.0763

 Free energy of the ion-electron system (eV)
  ---------------------------------------------------
  alpha Z        PSCENC =      1269.69210384
  Ewald energy   TEWEN  =    246835.73170100
  -Hartree energ DENC   =   -316610.91505821
  -exchange      EXHF   =         0.00000000
  -V(xc)+E(xc)   XCENC  =      2126.17866946
  PAW double counting   =     75617.22062537   -80029.23022152
  entropy T*S    EENTRO =        -1.72632527
  eigenvalues    EBANDS =     -1222.16736753
  atomic energy  EATOM  =     71577.57373177
  Solvation  Ediel_sol  =         0.00000000
  ---------------------------------------------------
  free energy    TOTEN  =      -437.64214110 eV

  energy without entropy =     -435.91581582  energy(sigma->0) =     -436.77897846


--------------------------------------------------------------------------------------------------------




--------------------------------------- Iteration      1(   7)  ---------------------------------------


    POTLOK:  cpu time    0.1772: real time    0.1879
    SETDIJ:  cpu time    0.0098: real time    0.0098
    EDDIAG:  cpu time    0.3366: real time    0.3366
  RMM-DIIS:  cpu time    1.6206: real time    1.6214
    ORTHCH:  cpu time    0.0748: real time    0.0748
       DOS:  cpu time    0.0017: real time    0.0016
    CHARGE:  cpu time    0.1091: real time    0.1091
    MIXING:  cpu time    0.0034: real time    0.0034
    --------------------------------------------
      LOOP:  cpu time    2.3332: real time    2.3448

 eigenvalue-minimisations  :   822
 total energy-change (2. order) : 0.4845156E+02  (-0.2520446E+01)
 number of electron     677.0000107 magnetization 
 augmentation part      396.5807807 magnetization 

 Broyden mixing:
  rms(total) = 0.47417E+01    rms(broyden)= 0.47416E+01
  rms(prec ) = 0.56287E+01
  weight for this iteration     100.00

 eigenvalues of (default mixing * dielectric matrix)
  average eigenvalue GAMMA=   0.0886
  0.0886  0.0886

 Free energy of the ion-electron system (eV)
  ---------------------------------------------------
  alpha Z        PSCENC =      1269.69210384
  Ewald energy   TEWEN  =    246835.73170100
  -Hartree energ DENC   =   -316552.67880990
  -exchange      EXHF   =         0.00000000
  -V(xc)+E(xc)   XCENC  =      2125.51806985
  PAW double counting   =     75606.45798802   -80014.96623529
  entropy T*S    EENTRO =        -2.57872503
  eigenvalues    EBANDS =     -1233.94040115
  atomic energy  EATOM  =     71577.57373177
  Solvation  Ediel_sol  =         0.00000000
  ---------------------------------------------------
  free energy    TOTEN  =      -389.19057688 eV

  energy without entropy =     -386.61185186  energy(sigma->0) =     -387.90121437


--------------------------------------------------------------------------------------------------------




--------------------------------------- Iteration      1(   8)  ---------------------------------------


    POTLOK:  cpu time    0.1787: real time    0.1896
    SETDIJ:  cpu time    0.0098: real time    0.0098
    EDDIAG:  cpu time    0.3377: real time    0.3377
  RMM-DIIS:  cpu time    1.6335: real time    1.6375
    ORTHCH:  cpu time    0.0753: real time    0.0753
       DOS:  cpu time    0.0016: real time    0.0016
    CHARGE:  cpu time    0.1116: real time    0.1116
    MIXING:  cpu time    0.0039: real time    0.0054
    --------------------------------------------
      LOOP:  cpu time    2.3528: real time    2.3683

 eigenvalue-minimisations  :   825
 total energy-change (2. order) : 0.1348224E+02  (-0.8005237E+00)
 number of electron     677.0000077 magnetization 
 augmentation part      398.7178226 magnetization 

 Broyden mixing:
  rms(total) = 0.18168E+01    rms(broyden)= 0.18165E+01
  rms(prec ) = 0.23608E+01
  weight for this iteration     100.00

 eigenvalues of (default mixing * dielectric matrix)
  average eigenvalue GAMMA=   0.0861
  0.0960  0.0960  0.0665

 Free energy of the ion-electron system (eV)
  ---------------------------------------------------
  alpha Z        PSCENC =      1269.69210384
  Ewald energy   TEWEN  =    246835.73170100
  -Hartree energ DENC   =   -316472.22967286
  -exchange      EXHF   =         0.00000000
  -V(xc)+E(xc)   XCENC  =      2125.42423445
  PAW double counting   =     75590.21938634   -79996.06759915
  entropy T*S    EENTRO =        -3.74533637
  eigenvalues    EBANDS =     -1302.30688552
  atomic energy  EATOM  =     71577.57373177
  Solvation  Ediel_sol  =         0.00000000
  ---------------------------------------------------
  free energy    TOTEN  =      -375.70833649 eV

  energy without entropy =     -371.96300012  energy(sigma->0) =     -373.83566830


--------------------------------------------------------------------------------------------------------




--------------------------------------- Iteration      1(   9)  ---------------------------------------


    POTLOK:  cpu time    0.1802: real time    0.1909
    SETDIJ:  cpu time    0.0105: real time    0.0105
    EDDIAG:  cpu time    0.3422: real time    0.3423
  RMM-DIIS:  cpu time    1.6435: real time    1.6438
    ORTHCH:  cpu time    0.0754: real time    0.0754
       DOS:  cpu time    0.0017: real time    0.0017
    CHARGE:  cpu time    0.1092: real time    0.1092
    MIXING:  cpu time    0.0037: real time    0.0036
    --------------------------------------------
      LOOP:  cpu time    2.3655: real time    2.3775

 eigenvalue-minimisations  :   830
 total energy-change (2. order) : 0.9881254E+00  (-0.8629462E-01)
 number of electron     677.0000075 magnetization 
 augmentation part      398.4731950 magnetization 

 Broyden mixing:
  rms(total) = 0.81357E+00    rms(broyden)= 0.81343E+00
  rms(prec ) = 0.10481E+01
  weight for this iteration     100.00

 eigenvalues of (default mixing * dielectric matrix)
  average eigenvalue GAMMA=   0.1508
  0.3492  0.1011  0.1011  0.0518

 Free energy of the ion-electron system (eV)
  ---------------------------------------------------
  alpha Z        PSCENC =      1269.69210384
  Ewald energy   TEWEN  =    246835.73170100
  -Hartree energ DENC   =   -316474.76471780
  -exchange      EXHF   =         0.00000000
  -V(xc)+E(xc)   XCENC  =      2125.36507144
  PAW double counting   =     75583.78999777   -79988.96941488
  entropy T*S    EENTRO =        -4.02999016
  eigenvalues    EBANDS =     -1299.10869410
  atomic energy  EATOM  =     71577.57373177
  Solvation  Ediel_sol  =         0.00000000
  ---------------------------------------------------
  free energy    TOTEN  =      -374.72021112 eV

  energy without entropy =     -370.69022096  energy(sigma->0) =     -372.70521604


--------------------------------------------------------------------------------------------------------




--------------------------------------- Iteration      1(  10)  ---------------------------------------


    POTLOK:  cpu time    0.1788: real time    0.1892
    SETDIJ:  cpu time    0.0099: real time    0.0099
    EDDIAG:  cpu time    0.3420: real time    0.3420
  RMM-DIIS:  cpu time    1.6051: real time    1.6061
    ORTHCH:  cpu time    0.0755: real time    0.0755
       DOS:  cpu time    0.0016: real time    0.0017
    CHARGE:  cpu time    0.1095: real time    0.1095
    MIXING:  cpu time    0.0038: real time    0.0038
    --------------------------------------------
      LOOP:  cpu time    2.3262: real time    2.3377

 eigenvalue-minimisations  :   822
 total energy-change (2. order) :-0.5763538E+00  (-0.9124007E-01)
 number of electron     677.0000077 magnetization 
 augmentation part      399.2096114 magnetization 

 Broyden mixing:
  rms(total) = 0.15592E+01    rms(broyden)= 0.15591E+01
  rms(prec ) = 0.19443E+01
  weight for this iteration     100.00

 eigenvalues of (default mixing * dielectric matrix)
  average eigenvalue GAMMA=   0.1896
  0.6113  0.0973  0.0973  0.0939  0.0484

 Free energy of the ion-electron system (eV)
  ---------------------------------------------------
  alpha Z        PSCENC =      1269.69210384
  Ewald energy   TEWEN  =    246835.73170100
  -Hartree energ DENC   =   -316459.01173344
  -exchange      EXHF   =         0.00000000
  -V(xc)+E(xc)   XCENC  =      2125.04317613
  PAW double counting   =     75544.60474005   -79944.21631410
  entropy T*S    EENTRO =        -3.65109885
  eigenvalues    EBANDS =     -1321.06287127
  atomic energy  EATOM  =     71577.57373177
  Solvation  Ediel_sol  =         0.00000000
  ---------------------------------------------------
  free energy    TOTEN  =      -375.29656487 eV

  energy without entropy =     -371.64546602  energy(sigma->0) =     -373.47101544


--------------------------------------------------------------------------------------------------------




--------------------------------------- Iteration      1(  11)  ---------------------------------------


    POTLOK:  cpu time    0.1811: real time    0.1912
    SETDIJ:  cpu time    0.0098: real time    0.0098
    EDDIAG:  cpu time    0.3401: real time    0.3401
  RMM-DIIS:  cpu time    1.6119: real time    1.6123
    ORTHCH:  cpu time    0.0750: real time    0.0750
       DOS:  cpu time    0.0019: real time    0.0019
    CHARGE:  cpu time    0.1108: real time    0.1108
    MIXING:  cpu time    0.0038: real time    0.0038
    --------------------------------------------
      LOOP:  cpu time    2.3344: real time    2.3449

 eigenvalue-minimisations  :   822
 total energy-change (2. order) : 0.7148495E+00  (-0.4733400E-01)
 number of electron     677.0000074 magnetization 
 augmentation part      399.7018668 magnetization 

 Broyden mixing:
  rms(total) = 0.55481E+00    rms(broyden)= 0.55469E+00
  rms(prec ) = 0.62058E+00
  weight for this iteration     100.00

 eigenvalues of (default mixing * dielectric matrix)
  average eigenvalue GAMMA=   0.2103
  0.7316  0.2064  0.0976  0.0976  0.0486  0.0798

 Free energy of the ion-electron system (eV)
  ---------------------------------------------------
  alpha Z        PSCENC =      1269.69210384
  Ewald energy   TEWEN  =    246835.73170100
  -Hartree energ DENC   =   -316441.87110246
  -exchange      EXHF   =         0.00000000
  -V(xc)+E(xc)   XCENC  =      2124.94925152
  PAW double counting   =     75508.24798236   -79903.92603668
  entropy T*S    EENTRO =        -3.94094345
  eigenvalues    EBANDS =     -1341.03840324
  atomic energy  EATOM  =     71577.57373177
  Solvation  Ediel_sol  =         0.00000000
  ---------------------------------------------------
  free energy    TOTEN  =      -374.58171534 eV

  energy without entropy =     -370.64077189  energy(sigma->0) =     -372.61124361


--------------------------------------------------------------------------------------------------------




--------------------------------------- Iteration      1(  12)  ---------------------------------------


    POTLOK:  cpu time    0.1825: real time    0.1932
    SETDIJ:  cpu time    0.0098: real time    0.0098
    EDDIAG:  cpu time    0.3394: real time    0.3395
  RMM-DIIS:  cpu time    1.6325: real time    1.6329
    ORTHCH:  cpu time    0.0748: real time    0.0756
       DOS:  cpu time    0.0021: real time    0.0021
    CHARGE:  cpu time    0.1100: real time    0.1100
    MIXING:  cpu time    0.0039: real time    0.0039
    --------------------------------------------
      LOOP:  cpu time    2.3550: real time    2.3672

 eigenvalue-minimisations  :   823
 total energy-change (2. order) : 0.7567325E-02  (-0.2771474E-01)
 number of electron     677.0000072 magnetization 
 augmentation part      399.6557078 magnetization 

 Broyden mixing:
  rms(total) = 0.57757E+00    rms(broyden)= 0.57751E+00
  rms(prec ) = 0.65717E+00
  weight for this iteration     100.00

 eigenvalues of (default mixing * dielectric matrix)
  average eigenvalue GAMMA=   0.3033
  1.1937  0.5070  0.1098  0.0950  0.0950  0.0486  0.0741

 Free energy of the ion-electron system (eV)
  ---------------------------------------------------
  alpha Z        PSCENC =      1269.69210384
  Ewald energy   TEWEN  =    246835.73170100
  -Hartree energ DENC   =   -316442.92009759
  -exchange      EXHF   =         0.00000000
  -V(xc)+E(xc)   XCENC  =      2125.07020449
  PAW double counting   =     75487.88164997   -79882.55508015
  entropy T*S    EENTRO =        -3.96815489
  eigenvalues    EBANDS =     -1341.08020645
  atomic energy  EATOM  =     71577.57373177
  Solvation  Ediel_sol  =         0.00000000
  ---------------------------------------------------
  free energy    TOTEN  =      -374.57414801 eV

  energy without entropy =     -370.60599313  energy(sigma->0) =     -372.59007057


--------------------------------------------------------------------------------------------------------




--------------------------------------- Iteration      1(  13)  ---------------------------------------


    POTLOK:  cpu time    0.1815: real time    0.1927
    SETDIJ:  cpu time    0.0098: real time    0.0098
    EDDIAG:  cpu time    0.3398: real time    0.3398
  RMM-DIIS:  cpu time    1.6171: real time    1.6178
    ORTHCH:  cpu time    0.0753: real time    0.0753
       DOS:  cpu time    0.0018: real time    0.0018
    CHARGE:  cpu time    0.1103: real time    0.1103
    MIXING:  cpu time    0.0041: real time    0.0041
    --------------------------------------------
      LOOP:  cpu time    2.3396: real time    2.3515

 eigenvalue-minimisations  :   824
 total energy-change (2. order) :-0.1382505E+00  (-0.2050940E-01)
 number of electron     677.0000071 magnetization 
 augmentation part      399.2211547 magnetization 

 Broyden mixing:
  rms(total) = 0.90817E+00    rms(broyden)= 0.90813E+00
  rms(prec ) = 0.10725E+01
  weight for this iteration     100.00

 eigenvalues of (default mixing * dielectric matrix)
  average eigenvalue GAMMA=   0.3129
  1.4271  0.5672  0.1263  0.0949  0.0949  0.0485  0.0794  0.0646

 Free energy of the ion-electron system (eV)
  ---------------------------------------------------
  alpha Z        PSCENC =      1269.69210384
  Ewald energy   TEWEN  =    246835.73170100
  -Hartree energ DENC   =   -316456.44986804
  -exchange      EXHF   =         0.00000000
  -V(xc)+E(xc)   XCENC  =      2125.47031962
  PAW double counting   =     75445.71237000   -79839.66352130
  entropy T*S    EENTRO =        -3.95455359
  eigenvalues    EBANDS =     -1328.82468182
  atomic energy  EATOM  =     71577.57373177
  Solvation  Ediel_sol  =         0.00000000
  ---------------------------------------------------
  free energy    TOTEN  =      -374.71239850 eV

  energy without entropy =     -370.75784492  energy(sigma->0) =     -372.73512171


--------------------------------------------------------------------------------------------------------




--------------------------------------- Iteration      1(  14)  ---------------------------------------


    POTLOK:  cpu time    0.1805: real time    0.1920
    SETDIJ:  cpu time    0.0100: real time    0.0100
    EDDIAG:  cpu time    0.3395: real time    0.3396
  RMM-DIIS:  cpu time    1.6050: real time    1.6055
    ORTHCH:  cpu time    0.0747: real time    0.0749
       DOS:  cpu time    0.0017: real time    0.0017
    CHARGE:  cpu time    0.1100: real time    0.1100
    MIXING:  cpu time    0.0042: real time    0.0042
    --------------------------------------------
      LOOP:  cpu time    2.3255: real time    2.3377

 eigenvalue-minimisations  :   822
 total energy-change (2. order) : 0.2142054E+00  (-0.1577810E-01)
 number of electron     677.0000072 magnetization 
 augmentation part      399.1095977 magnetization 

 Broyden mixing:
  rms(total) = 0.33966E+00    rms(broyden)= 0.33959E+00
  rms(prec ) = 0.39147E+00
  weight for this iteration     100.00

 eigenvalues of (default mixing * dielectric matrix)
  average eigenvalue GAMMA=   0.3396
  1.4883  0.7582  0.3242  0.0958  0.0958  0.1095  0.0770  0.0485  0.0593

 Free energy of the ion-electron system (eV)
  ---------------------------------------------------
  alpha Z        PSCENC =      1269.69210384
  Ewald energy   TEWEN  =    246835.73170100
  -Hartree energ DENC   =   -316461.70817942
  -exchange      EXHF   =         0.00000000
  -V(xc)+E(xc)   XCENC  =      2125.61542853
  PAW double counting   =     75425.75877689   -79819.22723515
  entropy T*S    EENTRO =        -4.01150081
  eigenvalues    EBANDS =     -1323.92301977
  atomic energy  EATOM  =     71577.57373177
  Solvation  Ediel_sol  =         0.00000000
  ---------------------------------------------------
  free energy    TOTEN  =      -374.49819312 eV

  energy without entropy =     -370.48669231  energy(sigma->0) =     -372.49244271


--------------------------------------------------------------------------------------------------------




--------------------------------------- Iteration      1(  15)  ---------------------------------------


    POTLOK:  cpu time    0.1894: real time    0.1901
    SETDIJ:  cpu time    0.0098: real time    0.0098
    EDDIAG:  cpu time    0.3360: real time    0.3361
  RMM-DIIS:  cpu time    1.6188: real time    1.6192
    ORTHCH:  cpu time    0.0746: real time    0.0746
       DOS:  cpu time    0.0017: real time    0.0017
    CHARGE:  cpu time    0.1102: real time    0.1101
    MIXING:  cpu time    0.0044: real time    0.0044
    --------------------------------------------
      LOOP:  cpu time    2.3449: real time    2.3461

 eigenvalue-minimisations  :   820
 total energy-change (2. order) :-0.6204898E-01  (-0.1280715E-01)
 number of electron     677.0000074 magnetization 
 augmentation part      399.2107852 magnetization 

 Broyden mixing:
  rms(total) = 0.53412E+00    rms(broyden)= 0.53410E+00
  rms(prec ) = 0.60945E+00
  weight for this iteration     100.00

 eigenvalues of (default mixing * dielectric matrix)
  average eigenvalue GAMMA=   0.3622
  1.5633  1.0704  0.4114  0.0952  0.0952  0.1136  0.0485  0.0901  0.0750  0.0589

 Free energy of the ion-electron system (eV)
  ---------------------------------------------------
  alpha Z        PSCENC =      1269.69210384
  Ewald energy   TEWEN  =    246835.73170100
  -Hartree energ DENC   =   -316462.40036062
  -exchange      EXHF   =         0.00000000
  -V(xc)+E(xc)   XCENC  =      2125.58881867
  PAW double counting   =     75397.05993289   -79788.75843643
  entropy T*S    EENTRO =        -4.01276430
  eigenvalues    EBANDS =     -1325.03496892
  atomic energy  EATOM  =     71577.57373177
  Solvation  Ediel_sol  =         0.00000000
  ---------------------------------------------------
  free energy    TOTEN  =      -374.56024209 eV

  energy without entropy =     -370.54747779  energy(sigma->0) =     -372.55385994


--------------------------------------------------------------------------------------------------------




--------------------------------------- Iteration      1(  16)  ---------------------------------------


    POTLOK:  cpu time    0.1815: real time    0.1935
    SETDIJ:  cpu time    0.0098: real time    0.0098
    EDDIAG:  cpu time    0.3319: real time    0.3319
  RMM-DIIS:  cpu time    1.6396: real time    1.6405
    ORTHCH:  cpu time    0.0750: real time    0.0750
       DOS:  cpu time    0.0016: real time    0.0016
    CHARGE:  cpu time    0.1103: real time    0.1103
    MIXING:  cpu time    0.0046: real time    0.0046
    --------------------------------------------
      LOOP:  cpu time    2.3542: real time    2.3672

 eigenvalue-minimisations  :   823
 total energy-change (2. order) : 0.5549582E-01  (-0.7682594E-02)
 number of electron     677.0000074 magnetization 
 augmentation part      399.3310471 magnetization 

 Broyden mixing:
  rms(total) = 0.39376E+00    rms(broyden)= 0.39374E+00
  rms(prec ) = 0.49005E+00
  weight for this iteration     100.00

 eigenvalues of (default mixing * dielectric matrix)
  average eigenvalue GAMMA=   0.3538
  1.6503  1.1322  0.4220  0.1300  0.0958  0.0958  0.1105  0.0485  0.0745  0.0745
  0.0581

 Free energy of the ion-electron system (eV)
  ---------------------------------------------------
  alpha Z        PSCENC =      1269.69210384
  Ewald energy   TEWEN  =    246835.73170100
  -Hartree energ DENC   =   -316461.02197426
  -exchange      EXHF   =         0.00000000
  -V(xc)+E(xc)   XCENC  =      2125.55138971
  PAW double counting   =     75367.67552393   -79757.48237614
  entropy T*S    EENTRO =        -4.01873774
  eigenvalues    EBANDS =     -1328.20610840
  atomic energy  EATOM  =     71577.57373177
  Solvation  Ediel_sol  =         0.00000000
  ---------------------------------------------------
  free energy    TOTEN  =      -374.50474628 eV

  energy without entropy =     -370.48600854  energy(sigma->0) =     -372.49537741


--------------------------------------------------------------------------------------------------------




--------------------------------------- Iteration      1(  17)  ---------------------------------------


    POTLOK:  cpu time    0.1916: real time    0.1923
    SETDIJ:  cpu time    0.0098: real time    0.0098
    EDDIAG:  cpu time    0.3403: real time    0.3412
  RMM-DIIS:  cpu time    1.6237: real time    1.6246
    ORTHCH:  cpu time    0.0761: real time    0.0761
       DOS:  cpu time    0.0017: real time    0.0017
    CHARGE:  cpu time    0.1142: real time    0.1142
    MIXING:  cpu time    0.0047: real time    0.0047
    --------------------------------------------
      LOOP:  cpu time    2.3620: real time    2.3645

 eigenvalue-minimisations  :   821
 total energy-change (2. order) : 0.2491781E-01  (-0.2694671E-02)
 number of electron     677.0000075 magnetization 
 augmentation part      399.3442028 magnetization 

 Broyden mixing:
  rms(total) = 0.29838E+00    rms(broyden)= 0.29837E+00
  rms(prec ) = 0.39155E+00
  weight for this iteration     100.00

 eigenvalues of (default mixing * dielectric matrix)
  average eigenvalue GAMMA=   0.3842
  1.9940  1.1863  0.4493  0.3291  0.0959  0.0959  0.1152  0.0974  0.0485  0.0773
  0.0583  0.0634

 Free energy of the ion-electron system (eV)
  ---------------------------------------------------
  alpha Z        PSCENC =      1269.69210384
  Ewald energy   TEWEN  =    246835.73170100
  -Hartree energ DENC   =   -316460.96571616
  -exchange      EXHF   =         0.00000000
  -V(xc)+E(xc)   XCENC  =      2125.56455555
  PAW double counting   =     75356.78296481   -79746.04990559
  entropy T*S    EENTRO =        -4.01951175
  eigenvalues    EBANDS =     -1328.78975195
  atomic energy  EATOM  =     71577.57373177
  Solvation  Ediel_sol  =         0.00000000
  ---------------------------------------------------
  free energy    TOTEN  =      -374.47982847 eV

  energy without entropy =     -370.46031672  energy(sigma->0) =     -372.47007260


--------------------------------------------------------------------------------------------------------




--------------------------------------- Iteration      1(  18)  ---------------------------------------


    POTLOK:  cpu time    0.1824: real time    0.1940
    SETDIJ:  cpu time    0.0098: real time    0.0098
    EDDIAG:  cpu time    0.3370: real time    0.3371
  RMM-DIIS:  cpu time    1.6076: real time    1.6079
    ORTHCH:  cpu time    0.0755: real time    0.0755
       DOS:  cpu time    0.0014: real time    0.0014
    CHARGE:  cpu time    0.1105: real time    0.1105
    MIXING:  cpu time    0.0049: real time    0.0049
    --------------------------------------------
      LOOP:  cpu time    2.3290: real time    2.3411

 eigenvalue-minimisations  :   818
 total energy-change (2. order) : 0.9600687E-02  (-0.2108368E-02)
 number of electron     677.0000074 magnetization 
 augmentation part      399.3302135 magnetization 

 Broyden mixing:
  rms(total) = 0.23817E+00    rms(broyden)= 0.23816E+00
  rms(prec ) = 0.28927E+00
  weight for this iteration     100.00

 eigenvalues of (default mixing * dielectric matrix)
  average eigenvalue GAMMA=   0.4000
  2.3401  1.1834  0.5286  0.3978  0.0957  0.0957  0.1212  0.1081  0.0485  0.0852
  0.0757  0.0579  0.0619

 Free energy of the ion-electron system (eV)
  ---------------------------------------------------
  alpha Z        PSCENC =      1269.69210384
  Ewald energy   TEWEN  =    246835.73170100
  -Hartree energ DENC   =   -316461.63879688
  -exchange      EXHF   =         0.00000000
  -V(xc)+E(xc)   XCENC  =      2125.63584591
  PAW double counting   =     75332.38223025   -79720.72038462
  entropy T*S    EENTRO =        -4.02968968
  eigenvalues    EBANDS =     -1329.09696938
  atomic energy  EATOM  =     71577.57373177
  Solvation  Ediel_sol  =         0.00000000
  ---------------------------------------------------
  free energy    TOTEN  =      -374.47022778 eV

  energy without entropy =     -370.44053810  energy(sigma->0) =     -372.45538294


--------------------------------------------------------------------------------------------------------




--------------------------------------- Iteration      1(  19)  ---------------------------------------


    POTLOK:  cpu time    0.1800: real time    0.1915
    SETDIJ:  cpu time    0.0099: real time    0.0099
    EDDIAG:  cpu time    0.3436: real time    0.3437
  RMM-DIIS:  cpu time    1.6182: real time    1.6187
    ORTHCH:  cpu time    0.0754: real time    0.0754
       DOS:  cpu time    0.0017: real time    0.0017
    CHARGE:  cpu time    0.1102: real time    0.1102
    MIXING:  cpu time    0.0051: real time    0.0051
    --------------------------------------------
      LOOP:  cpu time    2.3441: real time    2.3561

 eigenvalue-minimisations  :   823
 total energy-change (2. order) : 0.1926935E-01  (-0.1116676E-02)
 number of electron     677.0000073 magnetization 
 augmentation part      399.3086184 magnetization 

 Broyden mixing:
  rms(total) = 0.76419E-01    rms(broyden)= 0.76395E-01
  rms(prec ) = 0.89462E-01
  weight for this iteration     100.00

 eigenvalues of (default mixing * dielectric matrix)
  average eigenvalue GAMMA=   0.3865
  2.3829  1.1891  0.5287  0.4074  0.1640  0.0957  0.0957  0.1125  0.1067  0.0485
  0.0826  0.0778  0.0581  0.0616

 Free energy of the ion-electron system (eV)
  ---------------------------------------------------
  alpha Z        PSCENC =      1269.69210384
  Ewald energy   TEWEN  =    246835.73170100
  -Hartree energ DENC   =   -316462.08232909
  -exchange      EXHF   =         0.00000000
  -V(xc)+E(xc)   XCENC  =      2125.70187358
  PAW double counting   =     75312.81092259   -79700.45503537
  entropy T*S    EENTRO =        -4.03580395
  eigenvalues    EBANDS =     -1329.38812280
  atomic energy  EATOM  =     71577.57373177
  Solvation  Ediel_sol  =         0.00000000
  ---------------------------------------------------
  free energy    TOTEN  =      -374.45095843 eV

  energy without entropy =     -370.41515448  energy(sigma->0) =     -372.43305645


--------------------------------------------------------------------------------------------------------




--------------------------------------- Iteration      1(  20)  ---------------------------------------


    POTLOK:  cpu time    0.1792: real time    0.1916
    SETDIJ:  cpu time    0.0097: real time    0.0097
    EDDIAG:  cpu time    0.3384: real time    0.3384
  RMM-DIIS:  cpu time    1.6075: real time    1.6080
    ORTHCH:  cpu time    0.0753: real time    0.0753
       DOS:  cpu time    0.0017: real time    0.0017
    CHARGE:  cpu time    0.1105: real time    0.1106
    MIXING:  cpu time    0.0051: real time    0.0051
    --------------------------------------------
      LOOP:  cpu time    2.3275: real time    2.3404

 eigenvalue-minimisations  :   818
 total energy-change (2. order) : 0.1266091E-02  (-0.3363421E-03)
 number of electron     677.0000073 magnetization 
 augmentation part      399.3036481 magnetization 

 Broyden mixing:
  rms(total) = 0.57716E-01    rms(broyden)= 0.57711E-01
  rms(prec ) = 0.67246E-01
  weight for this iteration     100.00

 eigenvalues of (default mixing * dielectric matrix)
  average eigenvalue GAMMA=   0.4147
  2.3799  1.2893  0.6622  0.6622  0.3866  0.0957  0.0957  0.1235  0.1124  0.0927
  0.0485  0.0778  0.0746  0.0580  0.0615

 Free energy of the ion-electron system (eV)
  ---------------------------------------------------
  alpha Z        PSCENC =      1269.69210384
[...]
      2.485955  0.519532  6.027031            0           0           0  
      4.983685  1.947959  2.000002            0           0           0  
      4.990148  1.944307  8.078625            0           0           0  
      6.229617  1.228619  4.034573            0           0           0  
      4.987100  0.518067  6.019099            0           0           0  
      7.475530  1.947959  2.000002            0           0           0  
      7.512075  1.965891  8.077475            0           0           0  
      8.721462  1.228619  4.034573            0           0           0  
      7.472360  0.511187  6.012239            0           0           0  
     -1.245927  4.105960  2.000002            0           0           0  
     -1.247629  4.079914  8.075879            0           0           0  
      0.000005  3.386620  4.034573            0           0           0  
     -1.249254  2.669437  6.047474            0           0           0  
      1.245918  4.105960  2.000002            0           0           0  
      1.226403  4.117352  7.956278            0           0           0  
      2.491850  3.386620  4.034573            0           0           0  
      1.251488  2.658485  6.032571            0           0           0  
      3.737763  4.105960  2.000002            0           0           0  
      3.737754  4.138918  8.163499            0           0           0  
      4.983695  3.386620  4.034573            0           0           0  
      3.729360  2.672275  6.061979            0           0           0  
      6.229608  4.105960  2.000002            0           0           0  
      6.251120  4.119820  7.946720            0           0           0  
      7.475540  3.386620  4.034573            0           0           0  
      6.223800  2.660028  6.019075            0           0           0  
     -2.491850  6.263961  2.000002            0           0           0  
     -2.513717  6.276717  8.073823            0           0           0  
     -1.245918  5.544621  4.034573            0           0           0  
     -2.490481  4.826201  6.003321            0           0           0  
     -0.000005  6.263961  2.000002            0           0           0  
      0.021984  6.278823  8.075732            0           0           0  
      1.245927  5.544621  4.034573            0           0           0  
     -0.000803  4.825822  6.005452            0           0           0  
      2.491840  6.263961  2.000002            0           0           0  
      2.450456  6.302375  8.070964            0           0           0  
      3.737772  5.544621  4.034573            0           0           0  
      2.502265  4.824948  6.032607            0           0           0  
      4.983685  6.263961  2.000002            0           0           0  
      5.022554  6.300716  8.068223            0           0           0  
      6.229617  5.544621  4.034573            0           0           0  
      4.971963  4.825363  6.027060            0           0           0  
     -3.737772  8.421962  2.000002            0           0           0  
     -3.750008  8.370197  8.068361            0           0           0  
     -2.491840  7.702622  4.034573            0           0           0  
     -3.734380  6.981415  6.042310            0           0           0  
     -1.245927  8.421962  2.000002            0           0           0  
     -1.247101  8.396598  7.946803            0           0           0  
      0.000005  7.702622  4.034573            0           0           0  
     -1.245988  6.981772  6.003330            0           0           0  
      1.245918  8.421962  2.000002            0           0           0  
      1.248783  8.381651  8.077585            0           0           0  
      2.491850  7.702622  4.034573            0           0           0  
      1.242429  6.985261  6.047443            0           0           0  
      3.737763  8.421962  2.000002            0           0           0  
      3.731790  8.425528  7.969140            0           0           0  
      4.983695  7.702622  4.034573            0           0           0  
      3.736996  6.983503  6.008347            0           0           0  
      1.124467  1.159189  9.203552            0           0           0  
      3.737334  5.685092  9.203332            0           0           0  
     -1.245631  5.544902  9.190292            0           0           0  
      6.299190  1.188709  9.217488            0           0           0  
      3.791083  2.636341  9.424613    -0.173882    0.104862   -0.639802  
      4.090175  2.460975 10.900884    -0.048737    0.012130   -0.711164  
      4.947261  1.974941 10.815253    -0.010220    0.007377   -0.202453  
 
   8 f  =    2.946459 THz    18.513150 2PiTHz   98.283300 cm-1    12.185581 meV
             X         Y         Z           dx          dy          dz
     -0.000005  1.947959  2.000002            0           0           0  
     -0.053671  1.964752  8.071058            0           0           0  
      1.245927  1.228619  4.034573            0           0           0  
     -0.000516  0.509905  6.008379            0           0           0  
      2.491840  1.947959  2.000002            0           0           0  
      2.463588  1.931815  8.163253            0           0           0  
      3.737772  1.228619  4.034573            0           0           0  
      2.485955  0.519532  6.027031            0           0           0  
      4.983685  1.947959  2.000002            0           0           0  
      4.990148  1.944307  8.078625            0           0           0  
      6.229617  1.228619  4.034573            0           0           0  
      4.987100  0.518067  6.019099            0           0           0  
      7.475530  1.947959  2.000002            0           0           0  
      7.512075  1.965891  8.077475            0           0           0  
      8.721462  1.228619  4.034573            0           0           0  
      7.472360  0.511187  6.012239            0           0           0  
     -1.245927  4.105960  2.000002            0           0           0  
     -1.247629  4.079914  8.075879            0           0           0  
      0.000005  3.386620  4.034573            0           0           0  
     -1.249254  2.669437  6.047474            0           0           0  
      1.245918  4.105960  2.000002            0           0           0  
      1.226403  4.117352  7.956278            0           0           0  
      2.491850  3.386620  4.034573            0           0           0  
      1.251488  2.658485  6.032571            0           0           0  
      3.737763  4.105960  2.000002            0           0           0  
      3.737754  4.138918  8.163499            0           0           0  
      4.983695  3.386620  4.034573            0           0           0  
      3.729360  2.672275  6.061979            0           0           0  
      6.229608  4.105960  2.000002            0           0           0  
      6.251120  4.119820  7.946720            0           0           0  
      7.475540  3.386620  4.034573            0           0           0  
      6.223800  2.660028  6.019075            0           0           0  
     -2.491850  6.263961  2.000002            0           0           0  
     -2.513717  6.276717  8.073823            0           0           0  
     -1.245918  5.544621  4.034573            0           0           0  
     -2.490481  4.826201  6.003321            0           0           0  
     -0.000005  6.263961  2.000002            0           0           0  
      0.021984  6.278823  8.075732            0           0           0  
      1.245927  5.544621  4.034573            0           0           0  
     -0.000803  4.825822  6.005452            0           0           0  
      2.491840  6.263961  2.000002            0           0           0  
      2.450456  6.302375  8.070964            0           0           0  
      3.737772  5.544621  4.034573            0           0           0  
      2.502265  4.824948  6.032607            0           0           0  
      4.983685  6.263961  2.000002            0           0           0  
      5.022554  6.300716  8.068223            0           0           0  
      6.229617  5.544621  4.034573            0           0           0  
      4.971963  4.825363  6.027060            0           0           0  
     -3.737772  8.421962  2.000002            0           0           0  
     -3.750008  8.370197  8.068361            0           0           0  
     -2.491840  7.702622  4.034573            0           0           0  
     -3.734380  6.981415  6.042310            0           0           0  
     -1.245927  8.421962  2.000002            0           0           0  
     -1.247101  8.396598  7.946803            0           0           0  
      0.000005  7.702622  4.034573            0           0           0  
     -1.245988  6.981772  6.003330            0           0           0  
      1.245918  8.421962  2.000002            0           0           0  
      1.248783  8.381651  8.077585            0           0           0  
      2.491850  7.702622  4.034573            0           0           0  
      1.242429  6.985261  6.047443            0           0           0  
      3.737763  8.421962  2.000002            0           0           0  
      3.731790  8.425528  7.969140            0           0           0  
      4.983695  7.702622  4.034573            0           0           0  
      3.736996  6.983503  6.008347            0           0           0  
      1.124467  1.159189  9.203552            0           0           0  
      3.737334  5.685092  9.203332            0           0           0  
     -1.245631  5.544902  9.190292            0           0           0  
      6.299190  1.188709  9.217488            0           0           0  
      3.791083  2.636341  9.424613    -0.165485    0.082126   -0.081036  
      4.090175  2.460975 10.900884    -0.830817    0.414241    0.148921  
      4.947261  1.974941 10.815253    -0.199812    0.104409    0.156357  
 
   9 f  =    1.717123 THz    10.789000 2PiTHz   57.277048 cm-1     7.101451 meV
             X         Y         Z           dx          dy          dz
     -0.000005  1.947959  2.000002            0           0           0  
     -0.053671  1.964752  8.071058            0           0           0  
      1.245927  1.228619  4.034573            0           0           0  
     -0.000516  0.509905  6.008379            0           0           0  
      2.491840  1.947959  2.000002            0           0           0  
      2.463588  1.931815  8.163253            0           0           0  
      3.737772  1.228619  4.034573            0           0           0  
      2.485955  0.519532  6.027031            0           0           0  
      4.983685  1.947959  2.000002            0           0           0  
      4.990148  1.944307  8.078625            0           0           0  
      6.229617  1.228619  4.034573            0           0           0  
      4.987100  0.518067  6.019099            0           0           0  
      7.475530  1.947959  2.000002            0           0           0  
      7.512075  1.965891  8.077475            0           0           0  
      8.721462  1.228619  4.034573            0           0           0  
      7.472360  0.511187  6.012239            0           0           0  
     -1.245927  4.105960  2.000002            0           0           0  
     -1.247629  4.079914  8.075879            0           0           0  
      0.000005  3.386620  4.034573            0           0           0  
     -1.249254  2.669437  6.047474            0           0           0  
      1.245918  4.105960  2.000002            0           0           0  
      1.226403  4.117352  7.956278            0           0           0  
      2.491850  3.386620  4.034573            0           0           0  
      1.251488  2.658485  6.032571            0           0           0  
      3.737763  4.105960  2.000002            0           0           0  
      3.737754  4.138918  8.163499            0           0           0  
      4.983695  3.386620  4.034573            0           0           0  
      3.729360  2.672275  6.061979            0           0           0  
      6.229608  4.105960  2.000002            0           0           0  
      6.251120  4.119820  7.946720            0           0           0  
      7.475540  3.386620  4.034573            0           0           0  
      6.223800  2.660028  6.019075            0           0           0  
     -2.491850  6.263961  2.000002            0           0           0  
     -2.513717  6.276717  8.073823            0           0           0  
     -1.245918  5.544621  4.034573            0           0           0  
     -2.490481  4.826201  6.003321            0           0           0  
     -0.000005  6.263961  2.000002            0           0           0  
      0.021984  6.278823  8.075732            0           0           0  
      1.245927  5.544621  4.034573            0           0           0  
     -0.000803  4.825822  6.005452            0           0           0  
      2.491840  6.263961  2.000002            0           0           0  
      2.450456  6.302375  8.070964            0           0           0  
      3.737772  5.544621  4.034573            0           0           0  
      2.502265  4.824948  6.032607            0           0           0  
      4.983685  6.263961  2.000002            0           0           0  
      5.022554  6.300716  8.068223            0           0           0  
      6.229617  5.544621  4.034573            0           0           0  
      4.971963  4.825363  6.027060            0           0           0  
     -3.737772  8.421962  2.000002            0           0           0  
     -3.750008  8.370197  8.068361            0           0           0  
     -2.491840  7.702622  4.034573            0           0           0  
     -3.734380  6.981415  6.042310            0           0           0  
     -1.245927  8.421962  2.000002            0           0           0  
     -1.247101  8.396598  7.946803            0           0           0  
      0.000005  7.702622  4.034573            0           0           0  
     -1.245988  6.981772  6.003330            0           0           0  
      1.245918  8.421962  2.000002            0           0           0  
      1.248783  8.381651  8.077585            0           0           0  
      2.491850  7.702622  4.034573            0           0           0  
      1.242429  6.985261  6.047443            0           0           0  
      3.737763  8.421962  2.000002            0           0           0  
      3.731790  8.425528  7.969140            0           0           0  
      4.983695  7.702622  4.034573            0           0           0  
      3.736996  6.983503  6.008347            0           0           0  
      1.124467  1.159189  9.203552            0           0           0  
      3.737334  5.685092  9.203332            0           0           0  
     -1.245631  5.544902  9.190292            0           0           0  
      6.299190  1.188709  9.217488            0           0           0  
      3.791083  2.636341  9.424613    -0.080909   -0.165077    0.012121  
      4.090175  2.460975 10.900884    -0.436015   -0.866500    0.000683  
      4.947261  1.974941 10.815253    -0.067782   -0.143180   -0.005468  
 
 Finite differences POTIM=  1.500000000000000E-002
     LOOP+:  cpu time   37.8496: real time   38.0411
    4ORBIT:  cpu time    0.0000: real time    0.0000
 


 total charge     
 
# of ion       s       p       d       tot
------------------------------------------
    1        0.484   0.358   8.331   9.173
    2        0.495   0.514   8.340   9.350
    3        0.492   0.488   8.339   9.319
    4        0.493   0.487   8.349   9.329
    5        0.484   0.358   8.331   9.173
    6        0.449   0.520   8.346   9.315
    7        0.488   0.484   8.341   9.312
    8        0.492   0.485   8.344   9.322
    9        0.484   0.358   8.331   9.173
   10        0.460   0.554   8.343   9.357
   11        0.493   0.490   8.340   9.322
   12        0.495   0.491   8.344   9.331
   13        0.484   0.358   8.331   9.173
   14        0.491   0.506   8.338   9.336
   15        0.490   0.487   8.342   9.319
   16        0.493   0.486   8.349   9.329
   17        0.485   0.357   8.332   9.173
   18        0.490   0.501   8.337   9.328
   19        0.488   0.486   8.342   9.316
   20        0.501   0.500   8.333   9.333
   21        0.484   0.357   8.332   9.172
   22        0.477   0.359   8.390   9.226
   23        0.488   0.483   8.341   9.311
   24        0.492   0.486   8.343   9.321
   25        0.484   0.358   8.331   9.173
   26        0.449   0.520   8.346   9.315
   27        0.488   0.484   8.341   9.312
   28        0.490   0.480   8.332   9.302
   29        0.483   0.357   8.332   9.172
   30        0.478   0.361   8.392   9.231
   31        0.489   0.487   8.343   9.319
   32        0.496   0.491   8.344   9.331
   33        0.484   0.358   8.332   9.173
   34        0.490   0.501   8.337   9.328
   35        0.493   0.493   8.340   9.326
   36        0.495   0.490   8.349   9.334
   37        0.485   0.357   8.332   9.173
   38        0.490   0.501   8.337   9.328
   39        0.488   0.486   8.342   9.316
   40        0.494   0.488   8.349   9.331
   41        0.484   0.358   8.331   9.173
   42        0.496   0.514   8.340   9.350
   43        0.492   0.488   8.339   9.319
   44        0.492   0.486   8.343   9.321
   45        0.483   0.358   8.331   9.173
   46        0.496   0.514   8.341   9.352
   47        0.489   0.487   8.343   9.318
   48        0.492   0.485   8.344   9.322
   49        0.483   0.358   8.331   9.173
   50        0.496   0.514   8.341   9.351
   51        0.489   0.487   8.342   9.318
   52        0.501   0.501   8.333   9.336
   53        0.483   0.357   8.332   9.172
   54        0.478   0.361   8.392   9.231
   55        0.489   0.487   8.343   9.319
   56        0.495   0.490   8.349   9.334
   57        0.484   0.358   8.331   9.173
   58        0.491   0.506   8.338   9.336
   59        0.490   0.487   8.342   9.319
   60        0.501   0.500   8.333   9.333
   61        0.482   0.357   8.333   9.172
   62        0.471   0.361   8.390   9.222
   63        0.490   0.488   8.342   9.320
   64        0.493   0.487   8.350   9.329
   65        1.584   3.331   0.000   4.915
   66        1.584   3.331   0.000   4.915
   67        1.583   3.330   0.000   4.913
   68        1.579   3.339   0.000   4.918
   69        1.589   3.293   0.000   4.882
   70        1.596   3.348   0.000   4.944
   71        0.603   0.112   0.000   0.715
--------------------------------------------------
tot         41.308  49.037 533.901 624.246
 

 total amount of memory used by VASP MPI-rank0    54153. kBytes
=======================================================================

   base      :      30000. kBytes
   nonlr-proj:       3959. kBytes
   fftplans  :       5964. kBytes
   grid      :      11929. kBytes
   one-center:         23. kBytes
   wavefun   :       2278. kBytes
 
  
  
 General timing and accounting informations for this job:
 ========================================================
  
                  Total CPU time used (sec):      922.763
                            User time (sec):      913.673
                          System time (sec):        9.091
                         Elapsed time (sec):      948.556
  
                   Maximum memory used (kb):      296048.
                   Average memory used (kb):           0.
  
                          Minor page faults:      2564139
                          Major page faults:           23
                 Voluntary context switches:         4218
