  64  64   1   0
  0.2942304E+02  0.1011163E-08  0.1011163E-08  0.2126643E-08  0.5000000E-15
  1.000000000000000E-004
  CAR 
 SQS-NiFe                                
      9.24916134    -10.46986733  301     -0.25612325      1.00000000
    -10.470  0.0000E+00  0.0000E+00  0.0000E+00  0.0000E+00
    -10.404  0.0000E+00  0.0000E+00  0.0000E+00  0.0000E+00
    -10.338  0.0000E+00  0.0000E+00  0.0000E+00  0.0000E+00
    -10.273  0.0000E+00  0.0000E+00  0.0000E+00  0.0000E+00
    -10.207  0.0000E+00  0.0000E+00  0.0000E+00  0.0000E+00
    -10.141  0.0000E+00  0.0000E+00  0.0000E+00  0.0000E+00
    -10.075 -0.3953E-29  0.0000E+00 -0.2598E-30  0.0000E+00
    -10.010 -0.6622E-27  0.0000E+00 -0.4379E-28  0.0000E+00
     -9.944 -0.8962E-25 -0.1361E-30 -0.5935E-26 -0.8949E-32
     -9.878 -0.9750E-23 -0.2621E-28 -0.6468E-24 -0.1732E-29
     -9.813 -0.8524E-21 -0.4074E-26 -0.5667E-22 -0.2695E-27
     -9.747 -0.5986E-19 -0.5091E-24 -0.3991E-20 -0.3374E-25
     -9.681 -0.3376E-17 -0.5114E-22 -0.2259E-18 -0.3395E-23
     -9.615 -0.1481E-15 -0.4128E-20 -0.9958E-17 -0.2747E-21
     -9.550 -0.5361E-14 -0.2676E-18 -0.3623E-15 -0.1786E-19
     -9.484 -0.1553E-12 -0.1393E-16 -0.1057E-13 -0.9333E-18
     -9.418 -0.3600E-11 -0.5628E-15 -0.2472E-12 -0.3792E-16
     -9.352 -0.6666E-10 -0.1880E-13 -0.4629E-11 -0.1273E-14
     -9.287 -0.9844E-09 -0.5020E-12 -0.6934E-10 -0.3427E-13
     -9.221 -0.1157E-07 -0.1072E-10 -0.8295E-09 -0.7391E-12
     -9.155 -0.1077E-06 -0.1829E-09 -0.7910E-08 -0.1276E-10
     -9.090 -0.7917E-06 -0.2485E-08 -0.5995E-07 -0.1761E-09
     -9.024 -0.4561E-05 -0.2684E-07 -0.3597E-06 -0.1940E-08
     -8.958 -0.2038E-04 -0.2294E-06 -0.1699E-05 -0.1702E-07
     -8.892 -0.6943E-04 -0.1544E-05 -0.6262E-05 -0.1185E-06
     -8.827 -0.1749E-03 -0.8120E-05 -0.1776E-04 -0.6522E-06
     -8.761 -0.3047E-03 -0.3295E-04 -0.3779E-04 -0.2818E-05
     -8.695 -0.2921E-03 -0.1011E-03 -0.5699E-04 -0.9462E-05
     -8.629  0.1136E-03 -0.2254E-03 -0.4952E-04 -0.2428E-04
     -8.564  0.1049E-02 -0.3320E-03  0.1942E-04 -0.4610E-04
     -8.498  0.2685E-02 -0.2068E-03  0.1959E-03 -0.5970E-04
     -8.432  0.5955E-02  0.3813E-03  0.5873E-03 -0.3464E-04
     -8.367  0.1231E-01  0.1535E-02  0.1396E-02  0.6629E-04
     -8.301  0.2103E-01  0.3638E-02  0.2778E-02  0.3054E-03
     -8.235  0.2731E-01  0.7968E-02  0.4574E-02  0.8291E-03
     -8.169  0.2579E-01  0.1552E-01  0.6269E-02  0.1850E-02
     -8.104  0.1677E-01  0.2402E-01  0.7371E-02  0.3429E-02
     -8.038  0.6914E-02  0.2776E-01  0.7825E-02  0.5253E-02
     -7.972  0.3187E-02  0.2309E-01  0.8035E-02  0.6771E-02
     -7.906  0.7488E-02  0.1329E-01  0.8527E-02  0.7645E-02
     -7.841  0.1645E-01  0.5765E-02  0.9608E-02  0.8024E-02
     -7.775  0.2511E-01  0.5045E-02  0.1126E-01  0.8355E-02
     -7.709  0.3089E-01  0.9943E-02  0.1329E-01  0.9009E-02
     -7.643  0.3388E-01  0.1661E-01  0.1552E-01  0.1010E-01
     -7.578  0.3376E-01  0.2278E-01  0.1773E-01  0.1160E-01
     -7.512  0.2870E-01  0.2857E-01  0.1962E-01  0.1348E-01
     -7.446  0.1890E-01  0.3355E-01  0.2086E-01  0.1568E-01
     -7.381  0.8417E-02  0.3461E-01  0.2142E-01  0.1796E-01
     -7.315  0.1810E-02  0.2878E-01  0.2154E-01  0.1985E-01
     -7.249  0.1382E-02  0.1764E-01  0.2163E-01  0.2101E-01
     -7.183  0.8754E-02  0.6748E-02  0.2220E-01  0.2145E-01
     -7.118  0.2553E-01  0.5046E-03  0.2388E-01  0.2148E-01
     -7.052  0.4891E-01 -0.1539E-03  0.2709E-01  0.2147E-01
     -6.986  0.6830E-01  0.5313E-02  0.3158E-01  0.2182E-01
     -6.920  0.7139E-01  0.1920E-01  0.3628E-01  0.2308E-01
     -6.855  0.5657E-01  0.4147E-01  0.3999E-01  0.2581E-01
     -6.789  0.3717E-01  0.6410E-01  0.4244E-01  0.3002E-01
     -6.723  0.2964E-01  0.7374E-01  0.4439E-01  0.3487E-01
     -6.658  0.3788E-01  0.6381E-01  0.4687E-01  0.3907E-01
     -6.592  0.5164E-01  0.4285E-01  0.5027E-01  0.4188E-01
     -6.526  0.5872E-01  0.2748E-01  0.5413E-01  0.4369E-01
     -6.460  0.5453E-01  0.2698E-01  0.5771E-01  0.4546E-01
     -6.395  0.4114E-01  0.3716E-01  0.6042E-01  0.4790E-01
     -6.329  0.2317E-01  0.4804E-01  0.6194E-01  0.5106E-01
     -6.263  0.6943E-02  0.5318E-01  0.6240E-01  0.5456E-01
     -6.197  0.4862E-03  0.5063E-01  0.6243E-01  0.5789E-01
     -6.132  0.1131E-01  0.4022E-01  0.6317E-01  0.6053E-01
     -6.066  0.4184E-01  0.2416E-01  0.6592E-01  0.6212E-01
     -6.000  0.8352E-01  0.8424E-02  0.7141E-01  0.6267E-01
     -5.934  0.1165E+00  0.1298E-03  0.7907E-01  0.6268E-01
     -5.869  0.1227E+00  0.4033E-02  0.8713E-01  0.6295E-01
     -5.803  0.1042E+00  0.2189E-01  0.9398E-01  0.6438E-01
     -5.737  0.8272E-01  0.5212E-01  0.9942E-01  0.6781E-01
     -5.672  0.7462E-01  0.8677E-01  0.1043E+00  0.7351E-01
     -5.606  0.7259E-01  0.1105E+00  0.1091E+00  0.8078E-01
     -5.540  0.5906E-01  0.1091E+00  0.1130E+00  0.8795E-01
     -5.474  0.3394E-01  0.8310E-01  0.1152E+00  0.9341E-01
     -5.409  0.2169E-01  0.5026E-01  0.1166E+00  0.9671E-01
     -5.343  0.5139E-01  0.3131E-01  0.1200E+00  0.9877E-01
     -5.277  0.1314E+00  0.3403E-01  0.1286E+00  0.1010E+00
     -5.211  0.2380E+00  0.5007E-01  0.1443E+00  0.1043E+00
     -5.146  0.3269E+00  0.6334E-01  0.1658E+00  0.1085E+00
     -5.080  0.3611E+00  0.6138E-01  0.1895E+00  0.1125E+00
     -5.014  0.3362E+00  0.4388E-01  0.2116E+00  0.1154E+00
     -4.949  0.2823E+00  0.2373E-01  0.2302E+00  0.1169E+00
     -4.883  0.2422E+00  0.1875E-01  0.2461E+00  0.1182E+00
     -4.817  0.2455E+00  0.3988E-01  0.2622E+00  0.1208E+00
     -4.751  0.2935E+00  0.8334E-01  0.2815E+00  0.1263E+00
     -4.686  0.3637E+00  0.1311E+00  0.3054E+00  0.1349E+00
     -4.620  0.4314E+00  0.1611E+00  0.3338E+00  0.1455E+00
     -4.554  0.4873E+00  0.1624E+00  0.3658E+00  0.1561E+00
     -4.488  0.5353E+00  0.1417E+00  0.4010E+00  0.1655E+00
     -4.423  0.5774E+00  0.1134E+00  0.4389E+00  0.1729E+00
     -4.357  0.6052E+00  0.8682E-01  0.4787E+00  0.1786E+00
     -4.291  0.6073E+00  0.6657E-01  0.5186E+00  0.1830E+00
     -4.226  0.5835E+00  0.5926E-01  0.5570E+00  0.1869E+00
     -4.160  0.5504E+00  0.7198E-01  0.5932E+00  0.1916E+00
     -4.094  0.5289E+00  0.1047E+00  0.6279E+00  0.1985E+00
     -4.028  0.5262E+00  0.1495E+00  0.6625E+00  0.2083E+00
     -3.963  0.5328E+00  0.1952E+00  0.6976E+00  0.2212E+00
     -3.897  0.5362E+00  0.2304E+00  0.7328E+00  0.2363E+00
     -3.831  0.5334E+00  0.2473E+00  0.7679E+00  0.2526E+00
     -3.765  0.5297E+00  0.2469E+00  0.8027E+00  0.2688E+00
     -3.700  0.5310E+00  0.2386E+00  0.8376E+00  0.2845E+00
     -3.634  0.5390E+00  0.2331E+00  0.8730E+00  0.2998E+00
     -3.568  0.5518E+00  0.2364E+00  0.9093E+00  0.3153E+00
     -3.502  0.5632E+00  0.2489E+00  0.9463E+00  0.3317E+00
     -3.437  0.5639E+00  0.2655E+00  0.9834E+00  0.3492E+00
     -3.371  0.5484E+00  0.2808E+00  0.1019E+01  0.3676E+00
     -3.305  0.5264E+00  0.2954E+00  0.1054E+01  0.3870E+00
     -3.240  0.5231E+00  0.3156E+00  0.1088E+01  0.4078E+00
     -3.174  0.5617E+00  0.3453E+00  0.1125E+01  0.4305E+00
     -3.108  0.6439E+00  0.3808E+00  0.1168E+01  0.4555E+00
     -3.042  0.7495E+00  0.4118E+00  0.1217E+01  0.4826E+00
     -2.977  0.8543E+00  0.4264E+00  0.1273E+01  0.5106E+00
     -2.911  0.9451E+00  0.4177E+00  0.1335E+01  0.5381E+00
     -2.845  0.1019E+01  0.3918E+00  0.1402E+01  0.5638E+00
     -2.779  0.1073E+01  0.3693E+00  0.1473E+01  0.5881E+00
     -2.714  0.1105E+01  0.3711E+00  0.1545E+01  0.6125E+00
     -2.648  0.1119E+01  0.4008E+00  0.1619E+01  0.6388E+00
     -2.582  0.1118E+01  0.4414E+00  0.1692E+01  0.6678E+00
     -2.517  0.1099E+01  0.4707E+00  0.1765E+01  0.6988E+00
     -2.451  0.1042E+01  0.4784E+00  0.1833E+01  0.7302E+00
     -2.385  0.9383E+00  0.4701E+00  0.1895E+01  0.7611E+00
     -2.319  0.8204E+00  0.4596E+00  0.1949E+01  0.7913E+00
     -2.254  0.7548E+00  0.4588E+00  0.1998E+01  0.8215E+00
     -2.188  0.7767E+00  0.4698E+00  0.2049E+01  0.8524E+00
     -2.122  0.8456E+00  0.4858E+00  0.2105E+01  0.8843E+00
     -2.056  0.8804E+00  0.4973E+00  0.2163E+01  0.9170E+00
     -1.991  0.8398E+00  0.4996E+00  0.2218E+01  0.9498E+00
     -1.925  0.7598E+00  0.4937E+00  0.2268E+01  0.9823E+00
     -1.859  0.7145E+00  0.4857E+00  0.2315E+01  0.1014E+01
     -1.793  0.7473E+00  0.4850E+00  0.2364E+01  0.1046E+01
     -1.728  0.8404E+00  0.5004E+00  0.2419E+01  0.1079E+01
     -1.662  0.9383E+00  0.5348E+00  0.2481E+01  0.1114E+01
     -1.596  0.9912E+00  0.5832E+00  0.2546E+01  0.1152E+01
     -1.531  0.9831E+00  0.6345E+00  0.2611E+01  0.1194E+01
     -1.465  0.9360E+00  0.6764E+00  0.2672E+01  0.1239E+01
     -1.399  0.8898E+00  0.7002E+00  0.2731E+01  0.1285E+01
     -1.333  0.8705E+00  0.7050E+00  0.2788E+01  0.1331E+01
     -1.268  0.8770E+00  0.6975E+00  0.2846E+01  0.1377E+01
     -1.202  0.8960E+00  0.6875E+00  0.2905E+01  0.1422E+01
     -1.136  0.9221E+00  0.6820E+00  0.2965E+01  0.1467E+01
     -1.070  0.9562E+00  0.6817E+00  0.3028E+01  0.1512E+01
     -1.005  0.9868E+00  0.6817E+00  0.3093E+01  0.1556E+01
     -0.939  0.9852E+00  0.6774E+00  0.3158E+01  0.1601E+01
     -0.873  0.9272E+00  0.6681E+00  0.3219E+01  0.1645E+01
     -0.808  0.8171E+00  0.6572E+00  0.3272E+01  0.1688E+01
     -0.742  0.6824E+00  0.6489E+00  0.3317E+01  0.1731E+01
     -0.676  0.5467E+00  0.6464E+00  0.3353E+01  0.1773E+01
     -0.610  0.4191E+00  0.6507E+00  0.3381E+01  0.1816E+01
     -0.545  0.3058E+00  0.6604E+00  0.3401E+01  0.1859E+01
     -0.479  0.2169E+00  0.6716E+00  0.3415E+01  0.1904E+01
     -0.413  0.1569E+00  0.6789E+00  0.3425E+01  0.1948E+01
     -0.347  0.1201E+00  0.6771E+00  0.3433E+01  0.1993E+01
     -0.282  0.9793E-01  0.6645E+00  0.3440E+01  0.2036E+01
     -0.216  0.8751E-01  0.6446E+00  0.3445E+01  0.2079E+01
     -0.150  0.8964E-01  0.6215E+00  0.3451E+01  0.2120E+01
     -0.085  0.1049E+00  0.5987E+00  0.3458E+01  0.2159E+01
     -0.019  0.1303E+00  0.5812E+00  0.3467E+01  0.2197E+01
      0.047  0.1564E+00  0.5749E+00  0.3477E+01  0.2235E+01
      0.113  0.1694E+00  0.5784E+00  0.3488E+01  0.2273E+01
      0.178  0.1612E+00  0.5805E+00  0.3499E+01  0.2311E+01
      0.244  0.1362E+00  0.5712E+00  0.3508E+01  0.2349E+01
      0.310  0.1076E+00  0.5526E+00  0.3515E+01  0.2385E+01
      0.376  0.8594E-01  0.5363E+00  0.3520E+01  0.2420E+01
      0.441  0.7394E-01  0.5309E+00  0.3525E+01  0.2455E+01
      0.507  0.6966E-01  0.5352E+00  0.3530E+01  0.2490E+01
      0.573  0.7051E-01  0.5429E+00  0.3535E+01  0.2526E+01
      0.639  0.7224E-01  0.5497E+00  0.3539E+01  0.2562E+01
      0.704  0.6832E-01  0.5571E+00  0.3544E+01  0.2599E+01
      0.770  0.5656E-01  0.5703E+00  0.3547E+01  0.2636E+01
      0.836  0.4573E-01  0.5931E+00  0.3550E+01  0.2675E+01
      0.901  0.4969E-01  0.6217E+00  0.3554E+01  0.2716E+01
      0.967  0.7294E-01  0.6464E+00  0.3559E+01  0.2759E+01
      1.033  0.1062E+00  0.6599E+00  0.3566E+01  0.2802E+01
      1.099  0.1360E+00  0.6624E+00  0.3574E+01  0.2845E+01
      1.164  0.1526E+00  0.6575E+00  0.3584E+01  0.2889E+01
      1.230  0.1528E+00  0.6499E+00  0.3595E+01  0.2931E+01
      1.296  0.1441E+00  0.6466E+00  0.3604E+01  0.2974E+01
      1.362  0.1446E+00  0.6551E+00  0.3613E+01  0.3017E+01
      1.427  0.1664E+00  0.6750E+00  0.3624E+01  0.3061E+01
      1.493  0.1943E+00  0.6989E+00  0.3637E+01  0.3107E+01
      1.559  0.1960E+00  0.7214E+00  0.3650E+01  0.3155E+01
      1.624  0.1572E+00  0.7421E+00  0.3660E+01  0.3203E+01
      1.690  0.9792E-01  0.7568E+00  0.3667E+01  0.3253E+01
      1.756  0.4953E-01  0.7529E+00  0.3670E+01  0.3303E+01
      1.822  0.2578E-01  0.7164E+00  0.3672E+01  0.3350E+01
      1.887  0.1906E-01  0.6450E+00  0.3673E+01  0.3392E+01
      1.953  0.1900E-01  0.5522E+00  0.3674E+01  0.3428E+01
      2.019  0.2623E-01  0.4598E+00  0.3676E+01  0.3459E+01
      2.085  0.4750E-01  0.3830E+00  0.3679E+01  0.3484E+01
      2.150  0.8204E-01  0.3196E+00  0.3685E+01  0.3505E+01
      2.216  0.1168E+00  0.2573E+00  0.3692E+01  0.3522E+01
      2.282  0.1348E+00  0.1913E+00  0.3701E+01  0.3534E+01
      2.348  0.1268E+00  0.1327E+00  0.3709E+01  0.3543E+01
      2.413  0.9631E-01  0.9688E-01  0.3716E+01  0.3549E+01
      2.479  0.5897E-01  0.8920E-01  0.3720E+01  0.3555E+01
      2.545  0.3811E-01  0.1039E+00  0.3722E+01  0.3562E+01
      2.610  0.5356E-01  0.1320E+00  0.3726E+01  0.3571E+01
      2.676  0.1057E+00  0.1642E+00  0.3733E+01  0.3582E+01
      2.742  0.1680E+00  0.1892E+00  0.3744E+01  0.3594E+01
      2.808  0.2025E+00  0.1978E+00  0.3757E+01  0.3607E+01
      2.873  0.1874E+00  0.1884E+00  0.3769E+01  0.3619E+01
      2.939  0.1324E+00  0.1693E+00  0.3778E+01  0.3631E+01
      3.005  0.6674E-01  0.1523E+00  0.3782E+01  0.3641E+01
      3.071  0.1628E-01  0.1430E+00  0.3783E+01  0.3650E+01
      3.136 -0.6980E-02  0.1378E+00  0.3783E+01  0.3659E+01
      3.202  0.1202E-02  0.1319E+00  0.3783E+01  0.3668E+01
      3.268  0.4403E-01  0.1273E+00  0.3786E+01  0.3676E+01
      3.333  0.1178E+00  0.1293E+00  0.3794E+01  0.3685E+01
      3.399  0.1996E+00  0.1369E+00  0.3807E+01  0.3694E+01
      3.465  0.2505E+00  0.1401E+00  0.3823E+01  0.3703E+01
      3.531  0.2408E+00  0.1270E+00  0.3839E+01  0.3711E+01
      3.596  0.1768E+00  0.9664E-01  0.3851E+01  0.3717E+01
      3.662  0.9684E-01  0.6474E-01  0.3857E+01  0.3722E+01
      3.728  0.3989E-01  0.5287E-01  0.3860E+01  0.3725E+01
      3.794  0.1757E-01  0.6808E-01  0.3861E+01  0.3730E+01
      3.859  0.1597E-01  0.9616E-01  0.3862E+01  0.3736E+01
      3.925  0.1755E-01  0.1168E+00  0.3863E+01  0.3744E+01
      3.991  0.1687E-01  0.1222E+00  0.3864E+01  0.3752E+01
      4.056  0.1813E-01  0.1185E+00  0.3865E+01  0.3759E+01
      4.122  0.2549E-01  0.1135E+00  0.3867E+01  0.3767E+01
      4.188  0.3959E-01  0.1104E+00  0.3870E+01  0.3774E+01
      4.254  0.5901E-01  0.1122E+00  0.3874E+01  0.3782E+01
      4.319  0.8088E-01  0.1258E+00  0.3879E+01  0.3790E+01
      4.385  0.1018E+00  0.1534E+00  0.3886E+01  0.3800E+01
      4.451  0.1198E+00  0.1841E+00  0.3893E+01  0.3812E+01
      4.517  0.1327E+00  0.2014E+00  0.3902E+01  0.3825E+01
      4.582  0.1342E+00  0.1985E+00  0.3911E+01  0.3838E+01
      4.648  0.1188E+00  0.1817E+00  0.3919E+01  0.3850E+01
      4.714  0.9315E-01  0.1574E+00  0.3925E+01  0.3861E+01
      4.780  0.7624E-01  0.1262E+00  0.3930E+01  0.3869E+01
      4.845  0.8309E-01  0.8948E-01  0.3935E+01  0.3875E+01
      4.911  0.1092E+00  0.5658E-01  0.3943E+01  0.3879E+01
      4.977  0.1338E+00  0.4152E-01  0.3951E+01  0.3881E+01
      5.042  0.1362E+00  0.5155E-01  0.3960E+01  0.3885E+01
      5.108  0.1110E+00  0.7976E-01  0.3968E+01  0.3890E+01
      5.174  0.7161E-01  0.1090E+00  0.3972E+01  0.3897E+01
      5.240  0.4062E-01  0.1243E+00  0.3975E+01  0.3905E+01
      5.305  0.3124E-01  0.1243E+00  0.3977E+01  0.3913E+01
      5.371  0.3751E-01  0.1199E+00  0.3979E+01  0.3921E+01
      5.437  0.4601E-01  0.1200E+00  0.3982E+01  0.3929E+01
      5.503  0.5613E-01  0.1208E+00  0.3986E+01  0.3937E+01
      5.568  0.8063E-01  0.1102E+00  0.3991E+01  0.3944E+01
      5.634  0.1235E+00  0.8545E-01  0.4000E+01  0.3950E+01
      5.700  0.1654E+00  0.6092E-01  0.4010E+01  0.3954E+01
      5.765  0.1792E+00  0.5558E-01  0.4022E+01  0.3958E+01
      5.831  0.1589E+00  0.7532E-01  0.4033E+01  0.3963E+01
      5.897  0.1266E+00  0.1088E+00  0.4041E+01  0.3970E+01
      5.963  0.1101E+00  0.1369E+00  0.4048E+01  0.3979E+01
      6.028  0.1178E+00  0.1441E+00  0.4056E+01  0.3988E+01
      6.094  0.1368E+00  0.1280E+00  0.4065E+01  0.3997E+01
      6.160  0.1493E+00  0.1011E+00  0.4075E+01  0.4003E+01
      6.226  0.1463E+00  0.8308E-01  0.4084E+01  0.4009E+01
      6.291  0.1310E+00  0.8600E-01  0.4093E+01  0.4014E+01
      6.357  0.1139E+00  0.1060E+00  0.4101E+01  0.4021E+01
      6.423  0.1023E+00  0.1284E+00  0.4107E+01  0.4030E+01
      6.488  0.9166E-01  0.1395E+00  0.4113E+01  0.4039E+01
      6.554  0.7214E-01  0.1343E+00  0.4118E+01  0.4048E+01
      6.620  0.4319E-01  0.1178E+00  0.4121E+01  0.4055E+01
      6.686  0.1586E-01  0.1014E+00  0.4122E+01  0.4062E+01
      6.751 -0.3367E-04  0.9243E-01  0.4122E+01  0.4068E+01
      6.817 -0.4504E-02  0.8946E-01  0.4122E+01  0.4074E+01
      6.883 -0.3434E-02  0.8735E-01  0.4121E+01  0.4080E+01
      6.949 -0.1581E-02  0.8724E-01  0.4121E+01  0.4086E+01
      7.014 -0.5212E-03  0.9479E-01  0.4121E+01  0.4092E+01
      7.080 -0.1300E-03  0.1086E+00  0.4121E+01  0.4099E+01
      7.146 -0.2516E-04  0.1165E+00  0.4121E+01  0.4107E+01
      7.212 -0.3828E-05  0.1058E+00  0.4121E+01  0.4114E+01
      7.277 -0.4619E-06  0.7603E-01  0.4121E+01  0.4119E+01
      7.343 -0.4443E-07  0.3989E-01  0.4121E+01  0.4121E+01
      7.409 -0.3420E-08  0.1198E-01  0.4121E+01  0.4122E+01
      7.474 -0.2112E-09 -0.1696E-02  0.4121E+01  0.4122E+01
      7.540 -0.1048E-10 -0.4612E-02  0.4121E+01  0.4122E+01
      7.606 -0.4182E-12 -0.3162E-02  0.4121E+01  0.4121E+01
      7.672 -0.1345E-13 -0.1405E-02  0.4121E+01  0.4121E+01
      7.737 -0.3488E-15 -0.4587E-03  0.4121E+01  0.4121E+01
      7.803 -0.7583E-17 -0.1150E-03  0.4121E+01  0.4121E+01
      7.869  0.0000E+00 -0.2258E-04  0.4121E+01  0.4121E+01
      7.935  0.0000E+00 -0.3510E-05  0.4121E+01  0.4121E+01
      8.000  0.0000E+00 -0.4343E-06  0.4121E+01  0.4121E+01
      8.066  0.0000E+00 -0.4297E-07  0.4121E+01  0.4121E+01
      8.132  0.0000E+00 -0.3407E-08  0.4121E+01  0.4121E+01
      8.197  0.0000E+00 -0.2169E-09  0.4121E+01  0.4121E+01
      8.263  0.0000E+00 -0.1109E-10  0.4121E+01  0.4121E+01
      8.329  0.0000E+00 -0.4564E-12  0.4121E+01  0.4121E+01
      8.395  0.0000E+00 -0.1511E-13  0.4121E+01  0.4121E+01
      8.460  0.0000E+00 -0.4095E-15  0.4121E+01  0.4121E+01
      8.526  0.0000E+00 -0.7583E-17  0.4121E+01  0.4121E+01
      8.592  0.0000E+00  0.0000E+00  0.4121E+01  0.4121E+01
      8.658  0.0000E+00  0.0000E+00  0.4121E+01  0.4121E+01
      8.723  0.0000E+00  0.0000E+00  0.4121E+01  0.4121E+01
      8.789  0.0000E+00  0.0000E+00  0.4121E+01  0.4121E+01
      8.855  0.0000E+00  0.0000E+00  0.4121E+01  0.4121E+01
      8.921  0.0000E+00  0.0000E+00  0.4121E+01  0.4121E+01
      8.986  0.0000E+00  0.0000E+00  0.4121E+01  0.4121E+01
      9.052  0.0000E+00  0.0000E+00  0.4121E+01  0.4121E+01
      9.118  0.0000E+00  0.0000E+00  0.4121E+01  0.4121E+01
      9.183  0.0000E+00  0.0000E+00  0.4121E+01  0.4121E+01
      9.249  0.0000E+00  0.0000E+00  0.4121E+01  0.4121E+01
      9.24916134    -10.46986733  301     -0.25612325      1.00000000
    -10.470  0.0000E+00  0.0000E+00  0.0000E+00  0.0000E+00  0.0000E+00  0.0000E+00
    -10.404  0.0000E+00  0.0000E+00  0.0000E+00  0.0000E+00  0.0000E+00  0.0000E+00
    -10.338  0.0000E+00  0.0000E+00  0.0000E+00  0.0000E+00  0.0000E+00  0.0000E+00
    -10.273  0.0000E+00  0.0000E+00  0.0000E+00  0.0000E+00  0.0000E+00  0.0000E+00
    -10.207  0.0000E+00  0.0000E+00  0.0000E+00  0.0000E+00  0.0000E+00  0.0000E+00
    -10.141  0.0000E+00  0.0000E+00  0.0000E+00  0.0000E+00  0.0000E+00  0.0000E+00
    -10.075 -0.2065E-29  0.0000E+00 -0.2344E-30  0.0000E+00 -0.1771E-32  0.0000E+00
    -10.010 -0.3460E-27  0.0000E+00 -0.3927E-28  0.0000E+00 -0.2966E-30  0.0000E+00
     -9.944 -0.4682E-25 -0.6586E-31 -0.5315E-26 -0.8565E-32 -0.4014E-28 -0.3922E-34
     -9.878 -0.5094E-23 -0.1268E-28 -0.5782E-24 -0.1649E-29 -0.4367E-26 -0.7550E-32
     -9.813 -0.4453E-21 -0.1971E-26 -0.5055E-22 -0.2563E-27 -0.3818E-24 -0.1174E-29
     -9.747 -0.3127E-19 -0.2463E-24 -0.3550E-20 -0.3203E-25 -0.2681E-22 -0.1467E-27
     -9.681 -0.1764E-17 -0.2474E-22 -0.2002E-18 -0.3217E-23 -0.1512E-20 -0.1473E-25
     -9.615 -0.7736E-16 -0.1997E-20 -0.8781E-17 -0.2597E-21 -0.6632E-19 -0.1189E-23
     -9.550 -0.2801E-14 -0.1294E-18 -0.3179E-15 -0.1683E-19 -0.2401E-17 -0.7708E-22
     -9.484 -0.8113E-13 -0.6737E-17 -0.9210E-14 -0.8762E-18 -0.6957E-16 -0.4012E-20
     -9.418 -0.1881E-11 -0.2722E-15 -0.2135E-12 -0.3540E-16 -0.1613E-14 -0.1621E-18
     -9.352 -0.3483E-10 -0.9092E-14 -0.3953E-11 -0.1183E-14 -0.2988E-13 -0.5415E-17
     -9.287 -0.5143E-09 -0.2428E-12 -0.5838E-10 -0.3158E-13 -0.4416E-12 -0.1447E-15
     -9.221 -0.6042E-08 -0.5187E-11 -0.6859E-09 -0.6746E-12 -0.5198E-11 -0.3091E-14
     -9.155 -0.5628E-07 -0.8846E-10 -0.6389E-08 -0.1151E-10 -0.4862E-10 -0.5274E-13
     -9.090 -0.4136E-06 -0.1202E-08 -0.4697E-07 -0.1564E-09 -0.3608E-09 -0.7176E-12
     -9.024 -0.2382E-05 -0.1298E-07 -0.2707E-06 -0.1688E-08 -0.2125E-08 -0.7770E-11
     -8.958 -0.1064E-04 -0.1110E-06 -0.1211E-05 -0.1444E-07 -0.9992E-08 -0.6683E-10
     -8.892 -0.3624E-04 -0.7469E-06 -0.4138E-05 -0.9719E-07 -0.3831E-07 -0.4563E-09
     -8.827 -0.9117E-04 -0.3927E-05 -0.1051E-04 -0.5114E-06 -0.1256E-06 -0.2478E-08
     -8.761 -0.1581E-03 -0.1593E-04 -0.1876E-04 -0.2078E-05 -0.3779E-06 -0.1083E-07
     -8.695 -0.1483E-03 -0.4884E-04 -0.2002E-04 -0.6400E-05 -0.1075E-05 -0.3932E-07
     -8.629  0.7195E-04 -0.1087E-03 -0.1087E-05 -0.1442E-04 -0.2694E-05 -0.1258E-06
     -8.564  0.5732E-03 -0.1589E-03  0.4652E-04 -0.2199E-04 -0.5028E-05 -0.3767E-06
     -8.498  0.1429E-02 -0.9404E-04  0.1430E-03 -0.1688E-04 -0.4480E-05 -0.1046E-05
     -8.432  0.3086E-02  0.1997E-03  0.3687E-03  0.1409E-04  0.8090E-05 -0.2410E-05
     -8.367  0.6264E-02  0.7680E-03  0.8328E-03  0.8017E-04  0.4152E-04 -0.3734E-05
     -8.301  0.1062E-01  0.1773E-02  0.1476E-02  0.2200E-03  0.8912E-04 -0.1209E-05
     -8.235  0.1377E-01  0.3794E-02  0.1939E-02  0.5396E-03  0.1223E-03  0.1207E-04
     -8.169  0.1301E-01  0.7297E-02  0.1830E-02  0.1114E-02  0.1124E-03  0.3927E-04
     -8.104  0.8489E-02  0.1124E-01  0.1176E-02  0.1761E-02  0.6445E-04  0.7000E-04
     -8.038  0.3472E-02  0.1297E-01  0.4738E-03  0.2047E-02  0.2326E-04  0.8299E-04
     -7.972  0.1372E-02  0.1081E-01  0.2560E-03  0.1701E-02  0.4226E-04  0.6678E-04
     -7.906  0.3160E-02  0.6261E-02  0.6873E-03  0.9783E-03  0.1413E-03  0.3660E-04
     -7.841  0.7342E-02  0.2689E-02  0.1522E-02  0.4470E-03  0.2907E-03  0.2448E-04
     -7.775  0.1163E-01  0.2110E-02  0.2370E-02  0.4529E-03  0.4445E-03  0.5138E-04
     -7.709  0.1460E-01  0.3983E-02  0.3009E-02  0.9042E-03  0.5897E-03  0.1111E-03
     -7.643  0.1601E-01  0.6730E-02  0.3414E-02  0.1520E-02  0.7279E-03  0.1833E-03
     -7.578  0.1563E-01  0.9554E-02  0.3483E-02  0.2160E-02  0.8052E-03  0.2612E-03
     -7.512  0.1295E-01  0.1245E-01  0.2992E-02  0.2847E-02  0.7312E-03  0.3561E-03
     -7.446  0.8474E-02  0.1488E-01  0.1952E-02  0.3473E-02  0.5016E-03  0.4575E-03
     -7.381  0.4275E-02  0.1525E-01  0.7847E-03  0.3652E-02  0.2370E-03  0.5047E-03
     -7.315  0.2522E-02  0.1241E-01 -0.2944E-04  0.3058E-02  0.7362E-04  0.4370E-03
     -7.249  0.4739E-02  0.7438E-02 -0.2228E-03  0.1866E-02  0.1123E-03  0.2744E-03
     -7.183  0.1251E-01  0.3063E-02  0.4362E-03  0.6614E-03  0.5083E-03  0.1086E-03
     -7.118  0.2619E-01  0.1325E-02  0.2240E-02 -0.9419E-04  0.1448E-02  0.1486E-04
     -7.052  0.4132E-01  0.2989E-02  0.5030E-02 -0.2691E-03  0.2849E-02  0.1901E-04
     -6.986  0.4917E-01  0.9184E-02  0.7640E-02  0.2744E-03  0.4107E-02  0.1725E-03
     -6.920  0.4398E-01  0.2127E-01  0.8447E-02  0.1890E-02  0.4425E-02  0.5909E-03
     -6.855  0.2981E-01  0.3693E-01  0.6986E-02  0.4645E-02  0.3614E-02  0.1316E-02
     -6.789  0.1823E-01  0.4817E-01  0.4785E-02  0.7594E-02  0.2490E-02  0.2114E-02
     -6.723  0.1833E-01  0.4704E-01  0.4013E-02  0.9027E-02  0.2180E-02  0.2530E-02
     -6.658  0.2908E-01  0.3420E-01  0.5324E-02  0.7983E-02  0.3013E-02  0.2284E-02
     -6.592  0.4165E-01  0.1959E-01  0.7448E-02  0.5465E-02  0.4271E-02  0.1619E-02
     -6.526  0.4810E-01  0.1372E-01  0.8715E-02  0.3672E-02  0.4959E-02  0.1116E-02
     -6.460  0.4619E-01  0.1902E-01  0.8368E-02  0.3940E-02  0.4596E-02  0.1142E-02
     -6.395  0.3719E-01  0.2982E-01  0.6534E-02  0.5759E-02  0.3303E-02  0.1592E-02
     -6.329  0.2347E-01  0.3892E-01  0.3798E-02  0.7720E-02  0.1537E-02  0.2116E-02
     -6.263  0.9291E-02  0.4284E-01  0.1163E-02  0.8810E-02  0.1526E-04  0.2436E-02
     -6.197  0.6339E-03  0.4105E-01  0.5223E-06  0.8610E-02 -0.2176E-03  0.2391E-02
     -6.132  0.2874E-02  0.3345E-01  0.1665E-02  0.6986E-02  0.2064E-02  0.1905E-02
     -6.066  0.1799E-01  0.2119E-01  0.6758E-02  0.4263E-02  0.7482E-02  0.1086E-02
     -6.000  0.4156E-01  0.8284E-02  0.1408E-01  0.1460E-02  0.1481E-01  0.2764E-03
     -5.934  0.6206E-01 -0.1325E-03  0.2027E-01 -0.1467E-03  0.2082E-01 -0.8505E-04
     -5.869  0.6833E-01 -0.4240E-03  0.2187E-01  0.4163E-03  0.2296E-01  0.3704E-03
     -5.803  0.6115E-01  0.9271E-02  0.1862E-01  0.3720E-02  0.2278E-01  0.1887E-02
     -5.737  0.5305E-01  0.2832E-01  0.1398E-01  0.9703E-02  0.2477E-01  0.4442E-02
     -5.672  0.5272E-01  0.5046E-01  0.1122E-01  0.1685E-01  0.2999E-01  0.7417E-02
     -5.606  0.5397E-01  0.6402E-01  0.9984E-02  0.2198E-01  0.3267E-01  0.9511E-02
     -5.540  0.4549E-01  0.6026E-01  0.7804E-02  0.2212E-01  0.2660E-01  0.9491E-02
     -5.474  0.2808E-01  0.4252E-01  0.4362E-02  0.1729E-01  0.1473E-01  0.7414E-02
     -5.409  0.1644E-01  0.2456E-01  0.2943E-02  0.1098E-01  0.1003E-01  0.4952E-02
     -5.343  0.2473E-01  0.1891E-01  0.7632E-02  0.7225E-02  0.2659E-01  0.4237E-02
     -5.277  0.5280E-01  0.2729E-01  0.1926E-01  0.7249E-02  0.6927E-01  0.6285E-02
     -5.211  0.8529E-01  0.4112E-01  0.3358E-01  0.9094E-02  0.1285E+00  0.1017E-01
     -5.146  0.1031E+00  0.4911E-01  0.4355E-01  0.9864E-02  0.1828E+00  0.1336E-01
     -5.080  0.9730E-01  0.4495E-01  0.4430E-01  0.8128E-02  0.2093E+00  0.1336E-01
     -5.014  0.7427E-01  0.3072E-01  0.3679E-01  0.4790E-02  0.2007E+00  0.9883E-02
     -4.949  0.4893E-01  0.1579E-01  0.2694E-01  0.2370E-02  0.1732E+00  0.5690E-02
     -4.883  0.3448E-01  0.1183E-01  0.2123E-01  0.3544E-02  0.1594E+00  0.4718E-02
     -4.817  0.3619E-01  0.2552E-01  0.2241E-01  0.9684E-02  0.1851E+00  0.9225E-02
     -4.751  0.5070E-01  0.5271E-01  0.2822E-01  0.1968E-01  0.2505E+00  0.1824E-01
     -4.686  0.6944E-01  0.7936E-01  0.3392E-01  0.2963E-01  0.3314E+00  0.2815E-01
     -4.620  0.8426E-01  0.9134E-01  0.3646E-01  0.3479E-01  0.4026E+00  0.3486E-01
     -4.554  0.9162E-01  0.8521E-01  0.3659E-01  0.3323E-01  0.4594E+00  0.3635E-01
     -4.488  0.9254E-01  0.6854E-01  0.3696E-01  0.2735E-01  0.5145E+00  0.3356E-01
     -4.423  0.8960E-01  0.5065E-01  0.3870E-01  0.2113E-01  0.5746E+00  0.2883E-01
     -4.357  0.8437E-01  0.3567E-01  0.4033E-01  0.1631E-01  0.6241E+00  0.2383E-01
     -4.291  0.7683E-01  0.2441E-01  0.3958E-01  0.1247E-01  0.6410E+00  0.1989E-01
     -4.226  0.6620E-01  0.1924E-01  0.3590E-01  0.9899E-02  0.6280E+00  0.1920E-01
     -4.160  0.5278E-01  0.2389E-01  0.3110E-01  0.1062E-01  0.6173E+00  0.2399E-01
     -4.094  0.3926E-01  0.3867E-01  0.2771E-01  0.1646E-01  0.6369E+00  0.3455E-01
     -4.028  0.2952E-01  0.5809E-01  0.2696E-01  0.2687E-01  0.6837E+00  0.4944E-01
     -3.963  0.2554E-01  0.7375E-01  0.2815E-01  0.3824E-01  0.7378E+00  0.6635E-01
     -3.897  0.2585E-01  0.7895E-01  0.2963E-01  0.4547E-01  0.7885E+00  0.8175E-01
     -3.831  0.2698E-01  0.7205E-01  0.3012E-01  0.4546E-01  0.8308E+00  0.9145E-01
     -3.765  0.2623E-01  0.5767E-01  0.2932E-01  0.3974E-01  0.8570E+00  0.9361E-01
     -3.700  0.2327E-01  0.4438E-01  0.2755E-01  0.3290E-01  0.8661E+00  0.9038E-01
     -3.634  0.1977E-01  0.3953E-01  0.2526E-01  0.2878E-01  0.8722E+00  0.8624E-01
     -3.568  0.1763E-01  0.4522E-01  0.2269E-01  0.2829E-01  0.8885E+00  0.8609E-01
     -3.502  0.1720E-01  0.5808E-01  0.1989E-01  0.3010E-01  0.9064E+00  0.9408E-01
     -3.437  0.1690E-01  0.7208E-01  0.1692E-01  0.3224E-01  0.9010E+00  0.1118E+00
     -3.371  0.1514E-01  0.8237E-01  0.1416E-01  0.3353E-01  0.8643E+00  0.1374E+00
     -3.305  0.1240E-01  0.8767E-01  0.1248E-01  0.3419E-01  0.8271E+00  0.1678E+00
     -3.240  0.1096E-01  0.8882E-01  0.1279E-01  0.3526E-01  0.8374E+00  0.1990E+00
     -3.174  0.1261E-01  0.8545E-01  0.1531E-01  0.3708E-01  0.9146E+00  0.2249E+00
     -3.108  0.1700E-01  0.7598E-01  0.1945E-01  0.3894E-01  0.1045E+01  0.2399E+00
     -3.042  0.2234E-01  0.6113E-01  0.2469E-01  0.3976E-01  0.1221E+01  0.2433E+00
     -2.977  0.2727E-01  0.4517E-01  0.3137E-01  0.3899E-01  0.1447E+01  0.2387E+00
     -2.911  0.3167E-01  0.3284E-01  0.4005E-01  0.3687E-01  0.1698E+01  0.2287E+00
     -2.845  0.3569E-01  0.2623E-01  0.4992E-01  0.3451E-01  0.1899E+01  0.2181E+00
     -2.779  0.3862E-01  0.2454E-01  0.5840E-01  0.3347E-01  0.1975E+01  0.2194E+00
     -2.714  0.3922E-01  0.2525E-01  0.6300E-01  0.3466E-01  0.1915E+01  0.2475E+00
     -2.648  0.3690E-01  0.2552E-01  0.6353E-01  0.3752E-01  0.1785E+01  0.3054E+00
     -2.582  0.3249E-01  0.2381E-01  0.6174E-01  0.4038E-01  0.1660E+01  0.3756E+00
     -2.517  0.2752E-01  0.2066E-01  0.5891E-01  0.4165E-01  0.1564E+01  0.4307E+00
     -2.451  0.2301E-01  0.1755E-01  0.5480E-01  0.4066E-01  0.1465E+01  0.4491E+00
     -2.385  0.1925E-01  0.1530E-01  0.4959E-01  0.3787E-01  0.1340E+01  0.4273E+00
     -2.319  0.1644E-01  0.1375E-01  0.4582E-01  0.3474E-01  0.1228E+01  0.3824E+00
     -2.254  0.1505E-01  0.1261E-01  0.4680E-01  0.3303E-01  0.1192E+01  0.3421E+00
     -2.188  0.1522E-01  0.1197E-01  0.5293E-01  0.3352E-01  0.1232E+01  0.3261E+00
     -2.122  0.1621E-01  0.1195E-01  0.6047E-01  0.3542E-01  0.1261E+01  0.3326E+00
     -2.056  0.1702E-01  0.1236E-01  0.6454E-01  0.3704E-01  0.1190E+01  0.3433E+00
     -1.991  0.1739E-01  0.1277E-01  0.6326E-01  0.3704E-01  0.1036E+01  0.3413E+00
     -1.925  0.1790E-01  0.1288E-01  0.5867E-01  0.3519E-01  0.9081E+00  0.3238E+00
     -1.859  0.1921E-01  0.1271E-01  0.5387E-01  0.3246E-01  0.9131E+00  0.3000E+00
     -1.793  0.2107E-01  0.1263E-01  0.4979E-01  0.3062E-01  0.1067E+01  0.2820E+00
     -1.728  0.2237E-01  0.1297E-01  0.4560E-01  0.3115E-01  0.1290E+01  0.2790E+00
     -1.662  0.2209E-01  0.1391E-01  0.4101E-01  0.3429E-01  0.1466E+01  0.2965E+00
     -1.596  0.2012E-01  0.1551E-01  0.3678E-01  0.3899E-01  0.1508E+01  0.3349E+00
     -1.531  0.1720E-01  0.1763E-01  0.3347E-01  0.4370E-01  0.1405E+01  0.3871E+00
     -1.465  0.1432E-01  0.1966E-01  0.3138E-01  0.4736E-01  0.1221E+01  0.4415E+00