       N       E                     dE             d eps       ncg     rms          rms(c)
DAV:   1     0.434990261893E+04    0.43499E+04   -0.23183E+05  8160   0.141E+03
DAV:   2    -0.547515653206E+02   -0.44047E+04   -0.40957E+04  8160   0.326E+02
DAV:   3    -0.426893129024E+03   -0.37214E+03   -0.31434E+03  8529   0.135E+02
DAV:   4    -0.441875587983E+03   -0.14982E+02   -0.14652E+02  8643   0.295E+01
DAV:   5    -0.442123513227E+03   -0.24793E+00   -0.24771E+00  9165   0.326E+00    0.478E+01
RMM:   6    -0.512797354493E+03   -0.70674E+02   -0.39543E+01  8202   0.151E+01    0.121E+02
RMM:   7    -0.614396064933E+03   -0.10160E+03   -0.72241E+01  8188   0.212E+01    0.181E+02
RMM:   8    -0.462891611150E+03    0.15150E+03   -0.28680E+01  8194   0.123E+01    0.775E+01
RMM:   9    -0.439513825685E+03    0.23378E+02   -0.22496E+01  8216   0.122E+01    0.479E+01
RMM:  10    -0.442214560107E+03   -0.27007E+01   -0.17562E+01  8222   0.930E+00    0.768E+01
RMM:  11    -0.434321484489E+03    0.78931E+01   -0.18686E+01  8237   0.108E+01    0.303E+01
RMM:  12    -0.435889945680E+03   -0.15685E+01   -0.78913E+00  8230   0.703E+00    0.322E+01
RMM:  13    -0.434777287014E+03    0.11127E+01   -0.51939E+00  8229   0.578E+00    0.227E+01
RMM:  14    -0.435076170093E+03   -0.29888E+00   -0.30226E+00  8227   0.427E+00    0.207E+01
RMM:  15    -0.435727712187E+03   -0.65154E+00   -0.22315E+00  8228   0.365E+00    0.171E+01
RMM:  16    -0.436080541222E+03   -0.35283E+00   -0.15681E+00  8226   0.313E+00    0.110E+01
RMM:  17    -0.438955667685E+03   -0.28751E+01   -0.13332E+00  8209   0.247E+00    0.128E+01
RMM:  18    -0.440556388531E+03   -0.16007E+01   -0.13087E+00  8207   0.249E+00    0.835E+00
RMM:  19    -0.444269624893E+03   -0.37132E+01   -0.21730E+00  8193   0.264E+00    0.125E+01
RMM:  20    -0.444695859380E+03   -0.42623E+00   -0.10999E+00  8202   0.204E+00    0.558E+00
RMM:  21    -0.445728028754E+03   -0.10322E+01   -0.45481E-01  8215   0.127E+00    0.625E+00
RMM:  22    -0.446367865814E+03   -0.63984E+00   -0.32905E-01  8198   0.972E-01    0.351E+00
RMM:  23    -0.446746113334E+03   -0.37825E+00   -0.81603E-02  8222   0.524E-01    0.295E+00
RMM:  24    -0.447290411912E+03   -0.54430E+00   -0.13725E-01  8184   0.492E-01    0.276E+00
RMM:  25    -0.447980707349E+03   -0.69030E+00   -0.21859E-01  8191   0.660E-01    0.298E+00
RMM:  26    -0.449017241901E+03   -0.10365E+01   -0.43544E-01  8183   0.792E-01    0.207E+00
RMM:  27    -0.449794333795E+03   -0.77709E+00   -0.29490E-01  8188   0.701E-01    0.250E+00
RMM:  28    -0.450518076540E+03   -0.72374E+00   -0.29942E-01  8182   0.635E-01    0.121E+00
RMM:  29    -0.450947938053E+03   -0.42986E+00   -0.11490E-01  8189   0.449E-01    0.173E+00
RMM:  30    -0.451168538789E+03   -0.22060E+00   -0.63861E-02  8178   0.342E-01    0.976E-01
RMM:  31    -0.451291270255E+03   -0.12273E+00   -0.26715E-02  8192   0.262E-01    0.135E+00
RMM:  32    -0.451396934107E+03   -0.10566E+00   -0.29270E-02  8174   0.253E-01    0.869E-01
RMM:  33    -0.451431228193E+03   -0.34294E-01   -0.98451E-03  8215   0.180E-01    0.904E-01
RMM:  34    -0.451516845674E+03   -0.85617E-01   -0.18109E-02  8189   0.182E-01    0.659E-01
RMM:  35    -0.451575492360E+03   -0.58647E-01   -0.42266E-03  8207   0.124E-01    0.669E-01
RMM:  36    -0.451746336258E+03   -0.17084E+00   -0.81911E-03  8189   0.131E-01    0.594E-01
RMM:  37    -0.451820017739E+03   -0.73681E-01   -0.31132E-03  8207   0.101E-01    0.583E-01
RMM:  38    -0.451926637066E+03   -0.10662E+00   -0.52246E-03  8196   0.987E-02    0.396E-01
RMM:  39    -0.451990491402E+03   -0.63854E-01   -0.20717E-03  8206   0.819E-02    0.451E-01
RMM:  40    -0.452057330294E+03   -0.66839E-01   -0.25795E-03  8193   0.760E-02    0.280E-01
RMM:  41    -0.452067448371E+03   -0.10118E-01   -0.70166E-04  8186   0.488E-02    0.274E-01
RMM:  42    -0.452079598846E+03   -0.12150E-01   -0.10053E-03  8185   0.460E-02    0.182E-01
RMM:  43    -0.452081669463E+03   -0.20706E-02   -0.54400E-04  8169   0.433E-02    0.221E-01
RMM:  44    -0.452078957074E+03    0.27124E-02   -0.31256E-04  8160   0.332E-02    0.123E-01
RMM:  45    -0.452078026125E+03    0.93095E-03   -0.93457E-05  8134   0.221E-02    0.119E-01
RMM:  46    -0.452077334239E+03    0.69189E-03   -0.83702E-05  8004   0.194E-02    0.139E-01
RMM:  47    -0.452077320568E+03    0.13670E-04   -0.32909E-05  6478   0.137E-02    0.144E-01
RMM:  48    -0.452077079847E+03    0.24072E-03   -0.26462E-05  5698   0.130E-02    0.109E-01
RMM:  49    -0.452076972216E+03    0.10763E-03   -0.29650E-05  6089   0.126E-02    0.841E-02
RMM:  50    -0.452077100941E+03   -0.12873E-03   -0.28569E-05  5987   0.135E-02    0.506E-02
RMM:  51    -0.452076675557E+03    0.42538E-03   -0.25379E-05  5564   0.120E-02    0.637E-02
RMM:  52    -0.452077980253E+03   -0.13047E-02   -0.18566E-05  5321   0.119E-02    0.796E-02
RMM:  53    -0.452079103966E+03   -0.11237E-02   -0.13282E-05  5075   0.770E-03    0.689E-02
RMM:  54    -0.452079933785E+03   -0.82982E-03   -0.11507E-05  4892   0.866E-03    0.466E-02
RMM:  55    -0.452080650907E+03   -0.71712E-03   -0.13237E-05  5435   0.693E-03    0.350E-02
RMM:  56    -0.452080684300E+03   -0.33393E-04   -0.14618E-05  4782   0.857E-03    0.210E-02
RMM:  57    -0.452081582386E+03   -0.89809E-03   -0.10930E-05  4840   0.712E-03    0.178E-02
RMM:  58    -0.452081813702E+03   -0.23132E-03   -0.49376E-06  4641   0.460E-03    0.150E-02
RMM:  59    -0.452081876493E+03   -0.62790E-04   -0.29953E-06  4616   0.386E-03    0.727E-03
RMM:  60    -0.452081922472E+03   -0.45980E-04   -0.10984E-06  4422   0.231E-03    0.779E-03
RMM:  61    -0.452081924725E+03   -0.22532E-05   -0.60915E-07  4295   0.201E-03
   1 F= -.45208192E+03 E0= -.45209499E+03  d E =-.452082E+03  mag=   133.1069
       N       E                     dE             d eps       ncg     rms          rms(c)
DAV:   1    -0.450597619087E+03    0.14843E+01   -0.50652E+02  8166   0.329E+01    0.172E+01
RMM:   2    -0.484503597492E+03   -0.33906E+02   -0.40868E+01  8188   0.173E+01    0.767E+01
RMM:   3    -0.476169908847E+03    0.83337E+01   -0.13354E+01  8193   0.900E+00    0.631E+01
RMM:   4    -0.455716587693E+03    0.20453E+02   -0.67556E+00  8219   0.617E+00    0.216E+01
RMM:   5    -0.454544983326E+03    0.11716E+01   -0.28697E+00  8208   0.438E+00    0.159E+01
RMM:   6    -0.453676801490E+03    0.86818E+00   -0.11734E+00  8210   0.289E+00    0.845E+00
RMM:   7    -0.453572451319E+03    0.10435E+00   -0.27194E-01  8209   0.141E+00    0.571E+00
RMM:   8    -0.453544005920E+03    0.28445E-01   -0.12390E-01  8211   0.912E-01    0.397E+00
RMM:   9    -0.453665880658E+03   -0.12187E+00   -0.14676E-01  8212   0.898E-01    0.476E+00
RMM:  10    -0.453619729613E+03    0.46151E-01   -0.10278E-01  8211   0.810E-01    0.253E+00
RMM:  11    -0.453645759022E+03   -0.26029E-01   -0.49115E-02  8216   0.505E-01    0.256E+00
RMM:  12    -0.453625647545E+03    0.20111E-01   -0.27641E-02  8211   0.418E-01    0.149E+00
RMM:  13    -0.453615121870E+03    0.10526E-01   -0.22318E-02  8221   0.349E-01    0.193E+00
RMM:  14    -0.453569384246E+03    0.45738E-01   -0.15865E-02  8206   0.318E-01    0.106E+00
RMM:  15    -0.453550131644E+03    0.19253E-01   -0.89561E-03  8219   0.221E-01    0.133E+00
RMM:  16    -0.453528960509E+03    0.21171E-01   -0.51919E-03  8204   0.186E-01    0.661E-01
RMM:  17    -0.453543424432E+03   -0.14464E-01   -0.42805E-03  8210   0.154E-01    0.817E-01
RMM:  18    -0.453566212619E+03   -0.22788E-01   -0.25175E-03  8204   0.119E-01    0.484E-01
RMM:  19    -0.453580897092E+03   -0.14684E-01   -0.11118E-03  8202   0.762E-02    0.486E-01
RMM:  20    -0.453612117165E+03   -0.31220E-01   -0.10532E-03  8186   0.641E-02    0.360E-01
RMM:  21    -0.453660373530E+03   -0.48256E-01   -0.24916E-03  8203   0.945E-02    0.492E-01
RMM:  22    -0.453710463130E+03   -0.50090E-01   -0.26156E-03  8197   0.857E-02    0.252E-01
RMM:  23    -0.453740006966E+03   -0.29544E-01   -0.20511E-03  8200   0.829E-02    0.394E-01
RMM:  24    -0.453764959655E+03   -0.24953E-01   -0.22446E-03  8196   0.751E-02    0.145E-01
RMM:  25    -0.453770421359E+03   -0.54617E-02   -0.75608E-04  8188   0.519E-02    0.216E-01
RMM:  26    -0.453773977572E+03   -0.35562E-02   -0.62476E-04  8168   0.395E-02    0.979E-02
RMM:  27    -0.453774017367E+03   -0.39795E-04   -0.11005E-04  8115   0.216E-02    0.911E-02
RMM:  28    -0.453774095544E+03   -0.78177E-04   -0.76926E-05  7147   0.144E-02    0.504E-02
RMM:  29    -0.453774167334E+03   -0.71789E-04   -0.24858E-05  5508   0.117E-02    0.331E-02
RMM:  30    -0.453774456244E+03   -0.28891E-03   -0.25293E-05  5370   0.902E-03    0.269E-02
RMM:  31    -0.453774579289E+03   -0.12304E-03   -0.75283E-06  4619   0.675E-03    0.186E-02
RMM:  32    -0.453774976065E+03   -0.39678E-03   -0.10417E-05  4768   0.514E-03    0.199E-02
RMM:  33    -0.453775160344E+03   -0.18428E-03   -0.45262E-06  4593   0.482E-03    0.112E-02
RMM:  34    -0.453775576902E+03   -0.41656E-03   -0.69919E-06  4708   0.342E-03    0.105E-02
RMM:  35    -0.453775803628E+03   -0.22673E-03   -0.33934E-06  4589   0.342E-03    0.922E-03
RMM:  36    -0.453776327748E+03   -0.52412E-03   -0.91577E-06  4764   0.316E-03    0.860E-03
RMM:  37    -0.453776604027E+03   -0.27628E-03   -0.40402E-06  4597   0.281E-03    0.108E-02
RMM:  38    -0.453777022881E+03   -0.41885E-03   -0.71679E-06  4646   0.282E-03    0.838E-03
RMM:  39    -0.453777218443E+03   -0.19556E-03   -0.27251E-06  4288   0.205E-03    0.778E-03
RMM:  40    -0.453777474310E+03   -0.25587E-03   -0.43316E-06  4317   0.222E-03    0.441E-03
RMM:  41    -0.453777608622E+03   -0.13431E-03   -0.24397E-06  3770   0.171E-03    0.482E-03
RMM:  42    -0.453777669473E+03   -0.60851E-04   -0.95103E-07  3471   0.143E-03    0.434E-03
RMM:  43    -0.453777729070E+03   -0.59597E-04   -0.86469E-07  2708   0.105E-03    0.364E-03
RMM:  44    -0.453777745821E+03   -0.16751E-04   -0.44111E-07  2587   0.101E-03    0.267E-03
RMM:  45    -0.453777750842E+03   -0.50212E-05   -0.28981E-07  2330   0.970E-04
   2 F= -.45377775E+03 E0= -.45379627E+03  d E =-.169583E+01  mag=   135.2369
       N       E                     dE             d eps       ncg     rms          rms(c)
DAV:   1    -0.453286101069E+03    0.49164E+00   -0.11065E+02  8166   0.150E+01    0.759E+00
RMM:   2    -0.457011761503E+03   -0.37257E+01   -0.46522E+00  8202   0.602E+00    0.237E+01
RMM:   3    -0.458215485127E+03   -0.12037E+01   -0.21340E+00  8202   0.353E+00    0.255E+01
RMM:   4    -0.454885677324E+03    0.33298E+01   -0.12990E+00  8219   0.265E+00    0.132E+01
RMM:   5    -0.454030580062E+03    0.85510E+00   -0.52614E-01  8213   0.195E+00    0.387E+00
RMM:   6    -0.453982093262E+03    0.48487E-01   -0.94308E-02  8210   0.774E-01    0.235E+00
RMM:   7    -0.453965412151E+03    0.16681E-01   -0.22898E-02  8210   0.398E-01    0.147E+00
RMM:   8    -0.453959035100E+03    0.63771E-02   -0.13769E-02  8196   0.305E-01    0.939E-01
RMM:   9    -0.453965065854E+03   -0.60308E-02   -0.14844E-02  8221   0.279E-01    0.156E+00
RMM:  10    -0.453953861922E+03    0.11204E-01   -0.11309E-02  8201   0.270E-01    0.582E-01
RMM:  11    -0.453955072962E+03   -0.12110E-02   -0.48128E-03  8203   0.166E-01    0.777E-01
RMM:  12    -0.453952445601E+03    0.26274E-02   -0.26097E-03  8198   0.135E-01    0.205E-01
RMM:  13    -0.453954309466E+03   -0.18639E-02   -0.12025E-03  8192   0.814E-02    0.392E-01
RMM:  14    -0.453955321459E+03   -0.10120E-02   -0.61433E-04  8173   0.642E-02    0.120E-01
RMM:  15    -0.453956986680E+03   -0.16652E-02   -0.20363E-04  8163   0.332E-02    0.144E-01
RMM:  16    -0.453959773113E+03   -0.27864E-02   -0.11539E-04  8091   0.240E-02    0.829E-02
RMM:  17    -0.453961394886E+03   -0.16218E-02   -0.56300E-05  7218   0.163E-02    0.943E-02
RMM:  18    -0.453965670016E+03   -0.42751E-02   -0.11842E-04  7371   0.159E-02    0.753E-02
RMM:  19    -0.453967454115E+03   -0.17841E-02   -0.55984E-05  6942   0.142E-02    0.764E-02
RMM:  20    -0.453971204310E+03   -0.37502E-02   -0.15001E-04  7398   0.152E-02    0.425E-02
RMM:  21    -0.453972486510E+03   -0.12822E-02   -0.50612E-05  6541   0.121E-02    0.484E-02
RMM:  22    -0.453975014021E+03   -0.25275E-02   -0.14953E-04  7379   0.143E-02    0.392E-02
RMM:  23    -0.453975636658E+03   -0.62264E-03   -0.32371E-05  5957   0.952E-03    0.247E-02
RMM:  24    -0.453976526243E+03   -0.88958E-03   -0.69091E-05  6615   0.945E-03    0.289E-02
RMM:  25    -0.453976637526E+03   -0.11128E-03   -0.18160E-05  5197   0.690E-03    0.124E-02
RMM:  26    -0.453976622179E+03    0.15346E-04   -0.11999E-05  5477   0.473E-03    0.147E-02
RMM:  27    -0.453976612535E+03    0.96438E-05   -0.29423E-06  4630   0.423E-03
   3 F= -.45397661E+03 E0= -.45399496E+03  d E =-.189469E+01  mag=   135.6058
       N       E                     dE             d eps       ncg     rms          rms(c)
DAV:   1    -0.453710213869E+03    0.26641E+00   -0.11624E+02  8178   0.155E+01    0.730E+00
RMM:   2    -0.455878771077E+03   -0.21686E+01   -0.33093E+00  8210   0.493E+00    0.177E+01
RMM:   3    -0.455524371542E+03    0.35440E+00   -0.22050E+00  8206   0.377E+00    0.147E+01
RMM:   4    -0.457662146833E+03   -0.21378E+01   -0.84812E-01  8215   0.213E+00    0.226E+01
RMM:   5    -0.454423427148E+03    0.32387E+01   -0.43115E-01  8202   0.162E+00    0.390E+00
RMM:   6    -0.454359566743E+03    0.63860E-01   -0.98682E-02  8208   0.765E-01    0.198E+00
RMM:   7    -0.454339104519E+03    0.20462E-01   -0.16244E-02  8212   0.350E-01    0.111E+00
RMM:   8    -0.454337746614E+03    0.13579E-02   -0.13606E-02  8196   0.295E-01    0.121E+00
RMM:   9    -0.454326184290E+03    0.11562E-01   -0.12479E-02  8222   0.256E-01    0.949E-01
RMM:  10    -0.454323007803E+03    0.31765E-02   -0.87969E-03  8206   0.230E-01    0.652E-01
RMM:  11    -0.454325497357E+03   -0.24896E-02   -0.26899E-03  8204   0.131E-01    0.515E-01
RMM:  12    -0.454326428559E+03   -0.93120E-03   -0.17692E-03  8188   0.108E-01    0.318E-01
RMM:  13    -0.454331961880E+03   -0.55333E-02   -0.97227E-04  8219   0.722E-02    0.319E-01
RMM:  14    -0.454334517224E+03   -0.25553E-02   -0.58004E-04  8168   0.609E-02    0.117E-01
RMM:  15    -0.454340896697E+03   -0.63795E-02   -0.23569E-04  8162   0.310E-02    0.163E-01
RMM:  16    -0.454345276162E+03   -0.43795E-02   -0.15475E-04  8116   0.275E-02    0.107E-01
RMM:  17    -0.454354457512E+03   -0.91813E-02   -0.26093E-04  8145   0.239E-02    0.140E-01
RMM:  18    -0.454360829283E+03   -0.63718E-02   -0.19757E-04  8068   0.226E-02    0.823E-02
RMM:  19    -0.454369977559E+03   -0.91483E-02   -0.42255E-04  8162   0.269E-02    0.127E-01
RMM:  20    -0.454375557008E+03   -0.55794E-02   -0.33043E-04  8113   0.231E-02    0.450E-02
RMM:  21    -0.454377835477E+03   -0.22785E-02   -0.12578E-04  7575   0.170E-02    0.767E-02
RMM:  22    -0.454380458840E+03   -0.26234E-02   -0.17353E-04  7500   0.158E-02    0.281E-02
RMM:  23    -0.454381056546E+03   -0.59771E-03   -0.33358E-05  6083   0.953E-03    0.334E-02
RMM:  24    -0.454381826880E+03   -0.77033E-03   -0.55664E-05  6504   0.928E-03    0.274E-02
RMM:  25    -0.454381931752E+03   -0.10487E-03   -0.11776E-05  5074   0.575E-03    0.251E-02
RMM:  26    -0.454381951725E+03   -0.19974E-04   -0.92837E-06  5301   0.507E-03    0.101E-02
RMM:  27    -0.454381952805E+03   -0.10791E-05   -0.21001E-06  4595   0.313E-03
   4 F= -.45438195E+03 E0= -.45439692E+03  d E =-.405340E+00  mag=   136.1192
       N       E                     dE             d eps       ncg     rms          rms(c)
DAV:   1    -0.450998924528E+03    0.33830E+01   -0.58815E+02  8160   0.359E+01    0.165E+01
RMM:   2    -0.461104689968E+03   -0.10106E+02   -0.20740E+01  8212   0.122E+01    0.381E+01
RMM:   3    -0.460057636374E+03    0.10471E+01   -0.10941E+01  8209   0.819E+00    0.322E+01
RMM:   4    -0.468450550566E+03   -0.83929E+01   -0.34968E+00  8214   0.416E+00    0.465E+01
RMM:   5    -0.454860569305E+03    0.13590E+02   -0.20821E+00  8211   0.354E+00    0.968E+00
RMM:   6    -0.454538793022E+03    0.32178E+00   -0.73435E-01  8213   0.205E+00    0.707E+00
RMM:   7    -0.454368651035E+03    0.17014E+00   -0.20207E-01  8209   0.122E+00    0.288E+00
RMM:   8    -0.454432274530E+03   -0.63623E-01   -0.10034E-01  8215   0.773E-01    0.385E+00
RMM:   9    -0.454427305952E+03    0.49686E-02   -0.93688E-02  8219   0.712E-01    0.227E+00
RMM:  10    -0.454430079860E+03   -0.27739E-02   -0.54415E-02  8217   0.554E-01    0.231E+00
RMM:  11    -0.454423273955E+03    0.68059E-02   -0.27916E-02  8217   0.419E-01    0.100E+00
RMM:  12    -0.454442381868E+03   -0.19108E-01   -0.16599E-02  8203   0.309E-01    0.132E+00
RMM:  13    -0.454478026989E+03   -0.35645E-01   -0.81218E-03  8206   0.224E-01    0.863E-01
RMM:  14    -0.454489333168E+03   -0.11306E-01   -0.45697E-03  8205   0.166E-01    0.674E-01
RMM:  15    -0.454511336776E+03   -0.22004E-01   -0.16511E-03  8193   0.913E-02    0.437E-01
RMM:  16    -0.454523003087E+03   -0.11666E-01   -0.10017E-03  8192   0.751E-02    0.319E-01
RMM:  17    -0.454555708742E+03   -0.32706E-01   -0.10850E-03  8187   0.550E-02    0.291E-01
RMM:  18    -0.454569588832E+03   -0.13880E-01   -0.48783E-04  8186   0.465E-02    0.174E-01
RMM:  19    -0.454615057850E+03   -0.45469E-01   -0.15571E-03  8175   0.455E-02    0.218E-01
RMM:  20    -0.454634946491E+03   -0.19889E-01   -0.62165E-04  8175   0.387E-02    0.159E-01
RMM:  21    -0.454684433854E+03   -0.49487E-01   -0.28751E-03  8177   0.518E-02    0.183E-01
RMM:  22    -0.454700318237E+03   -0.15884E-01   -0.94626E-04  8182   0.387E-02    0.107E-01
RMM:  23    -0.454713048870E+03   -0.12731E-01   -0.99699E-04  8166   0.344E-02    0.168E-01
RMM:  24    -0.454716543974E+03   -0.34951E-02   -0.27678E-04  8136   0.240E-02    0.161E-01
RMM:  25    -0.454718400395E+03   -0.18564E-02   -0.11699E-04  7431   0.149E-02    0.989E-02
RMM:  26    -0.454719120160E+03   -0.71977E-03   -0.39721E-05  6330   0.121E-02    0.564E-02
RMM:  27    -0.454720455075E+03   -0.13349E-02   -0.83937E-05  7083   0.126E-02    0.526E-02
RMM:  28    -0.454720924827E+03   -0.46975E-03   -0.32235E-05  5855   0.992E-03    0.190E-02
RMM:  29    -0.454721210482E+03   -0.28566E-03   -0.20686E-05  5358   0.696E-03    0.260E-02
RMM:  30    -0.454721304830E+03   -0.94348E-04   -0.79470E-06  4724   0.667E-03    0.127E-02
RMM:  31    -0.454721411949E+03   -0.10712E-03   -0.53415E-06  4782   0.342E-03    0.163E-02
RMM:  32    -0.454721447493E+03   -0.35544E-04   -0.19811E-06  4586   0.341E-03    0.113E-02
RMM:  33    -0.454721501368E+03   -0.53876E-04   -0.19917E-06  4434   0.193E-03    0.961E-03
RMM:  34    -0.454721527561E+03   -0.26192E-04   -0.86816E-07  4316   0.188E-03    0.680E-03
RMM:  35    -0.454721593416E+03   -0.65856E-04   -0.26117E-06  4373   0.174E-03    0.517E-03
RMM:  36    -0.454721619357E+03   -0.25941E-04   -0.94949E-07  4021   0.162E-03    0.421E-03
RMM:  37    -0.454721668541E+03   -0.49184E-04   -0.22447E-06  4132   0.164E-03    0.360E-03
RMM:  38    -0.454721678364E+03   -0.98236E-05   -0.55286E-07  3490   0.134E-03
   5 F= -.45472168E+03 E0= -.45473428E+03  d E =-.745066E+00  mag=   136.8998
       N       E                     dE             d eps       ncg     rms          rms(c)
DAV:   1    -0.454178635241E+03    0.54303E+00   -0.15137E+02  8178   0.177E+01    0.812E+00
RMM:   2    -0.457121256803E+03   -0.29426E+01   -0.36718E+00  8215   0.504E+00    0.204E+01
RMM:   3    -0.459095118697E+03   -0.19739E+01   -0.25688E+00  8207   0.388E+00    0.254E+01
RMM:   4    -0.457377174297E+03    0.17179E+01   -0.13237E+00  8210   0.265E+00    0.198E+01
RMM:   5    -0.455040259620E+03    0.23369E+01   -0.64238E-01  8206   0.210E+00    0.386E+00
RMM:   6    -0.454998114110E+03    0.42146E-01   -0.13529E-01  8215   0.884E-01    0.255E+00
RMM:   7    -0.454969656476E+03    0.28458E-01   -0.26760E-02  8203   0.421E-01    0.137E+00
RMM:   8    -0.454966332782E+03    0.33237E-02   -0.15748E-02  8210   0.313E-01    0.137E+00
RMM:   9    -0.454944987217E+03    0.21346E-01   -0.12637E-02  8212   0.261E-01    0.100E+00
RMM:  10    -0.454940889730E+03    0.40975E-02   -0.11961E-02  8210   0.264E-01    0.883E-01
RMM:  11    -0.454943664942E+03   -0.27752E-02   -0.44435E-03  8212   0.164E-01    0.642E-01
RMM:  12    -0.454945081616E+03   -0.14167E-02   -0.25927E-03  8190   0.129E-01    0.304E-01
RMM:  13    -0.454954117105E+03   -0.90355E-02   -0.11396E-03  8209   0.753E-02    0.349E-01
RMM:  14    -0.454958147263E+03   -0.40302E-02   -0.59896E-04  8175   0.618E-02    0.129E-01
RMM:  15    -0.454967760266E+03   -0.96130E-02   -0.28160E-04  8162   0.334E-02    0.190E-01
RMM:  16    -0.454976039630E+03   -0.82794E-02   -0.19349E-04  8135   0.281E-02    0.104E-01
RMM:  17    -0.454986057368E+03   -0.10018E-01   -0.21540E-04  8157   0.237E-02    0.129E-01
RMM:  18    -0.454996037258E+03   -0.99799E-02   -0.21715E-04  8013   0.217E-02    0.648E-02
RMM:  19    -0.455004165530E+03   -0.81283E-02   -0.18222E-04  7773   0.187E-02    0.966E-02
RMM:  20    -0.455012535515E+03   -0.83700E-02   -0.23033E-04  7702   0.183E-02    0.667E-02
RMM:  21    -0.455018613044E+03   -0.60775E-02   -0.22035E-04  7740   0.181E-02    0.878E-02
RMM:  22    -0.455023595993E+03   -0.49829E-02   -0.28592E-04  7828   0.181E-02    0.274E-02
RMM:  23    -0.455025205121E+03   -0.16091E-02   -0.78882E-05  6897   0.116E-02    0.436E-02
RMM:  24    -0.455026451622E+03   -0.12465E-02   -0.67285E-05  6547   0.104E-02    0.306E-02
RMM:  25    -0.455026728744E+03   -0.27712E-03   -0.18781E-05  5293   0.633E-03    0.285E-02
RMM:  26    -0.455026772992E+03   -0.44248E-04   -0.18420E-05  5509   0.623E-03    0.112E-02
RMM:  27    -0.455026741781E+03    0.31211E-04   -0.51913E-06  4890   0.376E-03    0.128E-02
RMM:  28    -0.455026728636E+03    0.13146E-04   -0.29999E-06  4670   0.347E-03    0.731E-03
RMM:  29    -0.455026754405E+03   -0.25769E-04   -0.13196E-06  4426   0.220E-03    0.769E-03
RMM:  30    -0.455026787586E+03   -0.33180E-04   -0.75090E-07  4259   0.183E-03    0.560E-03
RMM:  31    -0.455026879889E+03   -0.92304E-04   -0.12807E-06  3853   0.139E-03    0.571E-03
RMM:  32    -0.455026933145E+03   -0.53256E-04   -0.60407E-07  3638   0.135E-03    0.324E-03
RMM:  33    -0.455027049366E+03   -0.11622E-03   -0.15702E-06  3511   0.136E-03    0.304E-03
RMM:  34    -0.455027096900E+03   -0.47534E-04   -0.52158E-07  2840   0.114E-03    0.163E-03
RMM:  35    -0.455027180114E+03   -0.83214E-04   -0.10606E-06  2891   0.122E-03    0.211E-03
RMM:  36    -0.455027207606E+03   -0.27492E-04   -0.32569E-07  2346   0.104E-03    0.140E-03
RMM:  37    -0.455027253550E+03   -0.45943E-04   -0.76289E-07  2811   0.113E-03    0.230E-03
RMM:  38    -0.455027265682E+03   -0.12132E-04   -0.19090E-07  2085   0.969E-04    0.194E-03
RMM:  39    -0.455027278114E+03   -0.12432E-04   -0.23417E-07  2332   0.983E-04    0.983E-03
RMM:  40    -0.455027279063E+03   -0.94935E-06   -0.13550E-07  2212   0.934E-04
   6 F= -.45502728E+03 E0= -.45503911E+03  d E =-.305601E+00  mag=   137.1440
       N       E                     dE             d eps       ncg     rms          rms(c)
DAV:   1    -0.451416462394E+03    0.36108E+01   -0.63333E+02  8160   0.374E+01    0.165E+01
RMM:   2    -0.460711711933E+03   -0.92952E+01   -0.17802E+01  8219   0.110E+01    0.353E+01
RMM:   3    -0.464440988864E+03   -0.37293E+01   -0.11541E+01  8206   0.840E+00    0.416E+01
RMM:   4    -0.468672884618E+03   -0.42319E+01   -0.43422E+00  8210   0.481E+00    0.462E+01
RMM:   5    -0.455594538353E+03    0.13078E+02   -0.24226E+00  8206   0.387E+00    0.101E+01
RMM:   6    -0.455197186678E+03    0.39735E+00   -0.69975E-01  8215   0.199E+00    0.685E+00
RMM:   7    -0.455008952417E+03    0.18823E+00   -0.14682E-01  8212   0.104E+00    0.257E+00
RMM:   8    -0.455030516004E+03   -0.21564E-01   -0.73881E-02  8212   0.657E-01    0.311E+00
RMM:   9    -0.454988646785E+03    0.41869E-01   -0.70495E-02  8218   0.630E-01    0.203E+00
RMM:  10    -0.454986210171E+03    0.24366E-02   -0.69016E-02  8213   0.611E-01    0.262E+00
RMM:  11    -0.454961619967E+03    0.24590E-01   -0.33644E-02  8211   0.461E-01    0.133E+00
RMM:  12    -0.454965656244E+03   -0.40363E-02   -0.17659E-02  8209   0.312E-01    0.157E+00
RMM:  13    -0.454968534282E+03   -0.28780E-02   -0.90061E-03  8205   0.238E-01    0.657E-01
RMM:  14    -0.454978522648E+03   -0.99884E-02   -0.46012E-03  8209   0.163E-01    0.595E-01
RMM:  15    -0.455000436222E+03   -0.21914E-01   -0.16626E-03  8207   0.983E-02    0.318E-01
RMM:  16    -0.455011020725E+03   -0.10585E-01   -0.85502E-04  8193   0.695E-02    0.293E-01
RMM:  17    -0.455046277753E+03   -0.35257E-01   -0.11177E-03  8174   0.525E-02    0.254E-01
RMM:  18    -0.455060232958E+03   -0.13955E-01   -0.42956E-04  8185   0.415E-02    0.190E-01
RMM:  19    -0.455114140978E+03   -0.53908E-01   -0.18390E-03  8169   0.460E-02    0.198E-01
RMM:  20    -0.455137787477E+03   -0.23646E-01   -0.62614E-04  8172   0.357E-02    0.133E-01
RMM:  21    -0.455196662143E+03   -0.58875E-01   -0.26538E-03  8165   0.483E-02    0.197E-01
RMM:  22    -0.455219832220E+03   -0.23170E-01   -0.10124E-03  8171   0.360E-02    0.727E-02
RMM:  23    -0.455235003232E+03   -0.15171E-01   -0.77525E-04  8167   0.314E-02    0.122E-01
RMM:  24    -0.455241278788E+03   -0.62756E-02   -0.41575E-04  8133   0.247E-02    0.815E-02
RMM:  25    -0.455244212904E+03   -0.29341E-02   -0.19800E-04  7662   0.173E-02    0.916E-02
RMM:  26    -0.455245401068E+03   -0.11882E-02   -0.92516E-05  7018   0.128E-02    0.538E-02
RMM:  27    -0.455245714099E+03   -0.31303E-03   -0.45874E-05  6191   0.900E-03    0.434E-02
RMM:  28    -0.455245742999E+03   -0.28900E-04   -0.26856E-05  5773   0.874E-03    0.135E-02
RMM:  29    -0.455245807644E+03   -0.64645E-04   -0.78544E-06  5028   0.516E-03    0.196E-02
RMM:  30    -0.455245933790E+03   -0.12615E-03   -0.51012E-06  4807   0.476E-03    0.139E-02
RMM:  31    -0.455246123185E+03   -0.18940E-03   -0.46660E-06  5026   0.336E-03    0.164E-02
RMM:  32    -0.455246324223E+03   -0.20104E-03   -0.47337E-06  5189   0.355E-03    0.808E-03
RMM:  33    -0.455246518861E+03   -0.19464E-03   -0.40295E-06  5030   0.269E-03    0.888E-03
RMM:  34    -0.455246668972E+03   -0.15011E-03   -0.27844E-06  4747   0.268E-03    0.521E-03
RMM:  35    -0.455246868485E+03   -0.19951E-03   -0.40331E-06  5034   0.212E-03    0.553E-03
RMM:  36    -0.455246942808E+03   -0.74324E-04   -0.12474E-06  4245   0.189E-03    0.262E-03
RMM:  37    -0.455247057906E+03   -0.11510E-03   -0.20443E-06  3627   0.150E-03    0.612E-03
RMM:  38    -0.455247094176E+03   -0.36270E-04   -0.57107E-07  3072   0.126E-03    0.588E-03
RMM:  39    -0.455247156201E+03   -0.62026E-04   -0.88513E-07  2638   0.118E-03    0.470E-03
RMM:  40    -0.455247183343E+03   -0.27142E-04   -0.32707E-07  2438   0.107E-03    0.389E-03
RMM:  41    -0.455247210086E+03   -0.26743E-04   -0.11393E-06  3874   0.138E-03    0.257E-02
RMM:  42    -0.455247216674E+03   -0.65882E-05   -0.30157E-07  2719   0.112E-03
   7 F= -.45524722E+03 E0= -.45525929E+03  d E =-.525538E+00  mag=   137.4360
       N       E                     dE             d eps       ncg     rms          rms(c)
DAV:   1    -0.455066224085E+03    0.18099E+00   -0.50358E+01  8178   0.102E+01    0.455E+00
RMM:   2    -0.455590644292E+03   -0.52442E+00   -0.10330E+00  8210   0.279E+00    0.797E+00
RMM:   3    -0.455874428806E+03   -0.28378E+00   -0.83222E-01  8216   0.228E+00    0.982E+00
RMM:   4    -0.456432796666E+03   -0.55837E+00   -0.29783E-01  8219   0.130E+00    0.130E+01
RMM:   5    -0.455352099112E+03    0.10807E+01   -0.14311E-01  8203   0.927E-01    0.213E+00
RMM:   6    -0.455335388570E+03    0.16711E-01   -0.34801E-02  8210   0.454E-01    0.101E+00
RMM:   7    -0.455330603298E+03    0.47853E-02   -0.65348E-03  8210   0.212E-01    0.850E-01
RMM:   8    -0.455327544060E+03    0.30592E-02   -0.48741E-03  8194   0.181E-01    0.589E-01
RMM:   9    -0.455324920633E+03    0.26234E-02   -0.40361E-03  8222   0.143E-01    0.687E-01
RMM:  10    -0.455322496716E+03    0.24239E-02   -0.32214E-03  8201   0.140E-01    0.256E-01
RMM:  11    -0.455324906437E+03   -0.24097E-02   -0.89483E-04  8186   0.695E-02    0.328E-01
RMM:  12    -0.455325311601E+03   -0.40516E-03   -0.41264E-04  8170   0.525E-02    0.876E-02
RMM:  13    -0.455327056680E+03   -0.17451E-02   -0.14874E-04  8159   0.275E-02    0.141E-01
RMM:  14    -0.455328432564E+03   -0.13759E-02   -0.76730E-05  7866   0.219E-02    0.498E-02
RMM:  15    -0.455329706725E+03   -0.12742E-02   -0.36925E-05  6466   0.136E-02    0.754E-02
RMM:  16    -0.455331994447E+03   -0.22877E-02   -0.45263E-05  6353   0.135E-02    0.546E-02
RMM:  17    -0.455333240503E+03   -0.12461E-02   -0.27344E-05  5267   0.106E-02    0.558E-02
RMM:  18    -0.455334903589E+03   -0.16631E-02   -0.31936E-05  5683   0.100E-02    0.289E-02
RMM:  19    -0.455335892297E+03   -0.98871E-03   -0.19373E-05  4907   0.813E-03    0.375E-02
RMM:  20    -0.455337781155E+03   -0.18889E-02   -0.50854E-05  6386   0.931E-03    0.261E-02
RMM:  21    -0.455338624588E+03   -0.84343E-03   -0.19945E-05  5193   0.707E-03    0.313E-02
RMM:  22    -0.455340212948E+03   -0.15884E-02   -0.66181E-05  6523   0.877E-03    0.132E-02
RMM:  23    -0.455340539574E+03   -0.32663E-03   -0.11807E-05  4801   0.508E-03    0.168E-02
RMM:  24    -0.455340798914E+03   -0.25934E-03   -0.15093E-05  4963   0.480E-03    0.992E-03
RMM:  25    -0.455340818081E+03   -0.19167E-04   -0.39293E-06  4667   0.306E-03    0.990E-03
RMM:  26    -0.455340793148E+03    0.24934E-04   -0.43869E-06  4898   0.266E-03    0.518E-03
RMM:  27    -0.455340790114E+03    0.30338E-05   -0.78860E-07  3896   0.174E-03
   8 F= -.45534079E+03 E0= -.45535316E+03  d E =-.935734E-01  mag=   137.4811
       N       E                     dE             d eps       ncg     rms          rms(c)
DAV:   1    -0.455144765893E+03    0.19603E+00   -0.40274E+01  8184   0.908E+00    0.405E+00
RMM:   2    -0.455561603235E+03   -0.41684E+00   -0.78391E-01  8210   0.242E+00    0.705E+00
RMM:   3    -0.456022178132E+03   -0.46057E+00   -0.65319E-01  8216   0.200E+00    0.104E+01
RMM:   4    -0.456207854228E+03   -0.18568E+00   -0.25356E-01  8220   0.115E+00    0.115E+01
RMM:   5    -0.455370413352E+03    0.83744E+00   -0.15041E-01  8208   0.973E-01    0.181E+00
RMM:   6    -0.455359599399E+03    0.10814E-01   -0.28960E-02  8213   0.409E-01    0.934E-01
RMM:   7    -0.455355437688E+03    0.41617E-02   -0.52032E-03  8210   0.188E-01    0.732E-01
RMM:   8    -0.455353298191E+03    0.21395E-02   -0.37962E-03  8197   0.158E-01    0.534E-01
RMM:   9    -0.455351066513E+03    0.22317E-02   -0.30429E-03  8215   0.126E-01    0.591E-01
RMM:  10    -0.455349378276E+03    0.16882E-02   -0.24691E-03  8203   0.122E-01    0.261E-01
RMM:  11    -0.455351235730E+03   -0.18575E-02   -0.76176E-04  8185   0.643E-02    0.309E-01
RMM:  12    -0.455351486770E+03   -0.25104E-03   -0.34399E-04  8164   0.481E-02    0.770E-02
RMM:  13    -0.455352916285E+03   -0.14295E-02   -0.12439E-04  8154   0.250E-02    0.127E-01
RMM:  14    -0.455354064367E+03   -0.11481E-02   -0.63437E-05  7685   0.198E-02    0.458E-02
RMM:  15    -0.455355104213E+03   -0.10398E-02   -0.30297E-05  5993   0.124E-02    0.678E-02
RMM:  16    -0.455357106742E+03   -0.20025E-02   -0.43341E-05  6379   0.130E-02    0.471E-02
RMM:  17    -0.455358014791E+03   -0.90805E-03   -0.20067E-05  4906   0.935E-03    0.469E-02
RMM:  18    -0.455359350965E+03   -0.13362E-02   -0.25511E-05  5377   0.912E-03    0.247E-02
RMM:  19    -0.455360201260E+03   -0.85030E-03   -0.16676E-05  4825   0.752E-03    0.338E-02
RMM:  20    -0.455361684072E+03   -0.14828E-02   -0.37632E-05  6055   0.848E-03    0.243E-02
RMM:  21    -0.455362485816E+03   -0.80174E-03   -0.19048E-05  5143   0.677E-03    0.302E-02
RMM:  22    -0.455363724305E+03   -0.12385E-02   -0.45888E-05  6158   0.794E-03    0.129E-02
RMM:  23    -0.455364027103E+03   -0.30280E-03   -0.10669E-05  4768   0.486E-03    0.165E-02
RMM:  24    -0.455364228209E+03   -0.20111E-03   -0.11057E-05  4815   0.448E-03    0.773E-03
RMM:  25    -0.455364245893E+03   -0.17684E-04   -0.30482E-06  4599   0.272E-03    0.814E-03
RMM:  26    -0.455364225150E+03    0.20743E-04   -0.36217E-06  4767   0.244E-03    0.436E-03
RMM:  27    -0.455364221080E+03    0.40702E-05   -0.67296E-07  3782   0.162E-03
   9 F= -.45536422E+03 E0= -.45537694E+03  d E =-.117004E+00  mag=   137.5048
       N       E                     dE             d eps       ncg     rms          rms(c)
DAV:   1    -0.455363109661E+03    0.11155E-02   -0.24182E-01  8499   0.701E-01    0.309E-01
RMM:   2    -0.455365814309E+03   -0.27046E-02   -0.40690E-03  8211   0.171E-01    0.568E-01
RMM:   3    -0.455371811953E+03   -0.59976E-02   -0.35197E-03  8213   0.143E-01    0.108E+00
RMM:   4    -0.455367903231E+03    0.39087E-02   -0.17600E-03  8190   0.945E-02    0.772E-01
RMM:   5    -0.455364377902E+03    0.35253E-02   -0.10388E-03  8200   0.839E-02    0.130E-01
RMM:   6    -0.455364306519E+03    0.71383E-04   -0.11990E-04  8154   0.258E-02    0.481E-02
RMM:   7    -0.455364246051E+03    0.60468E-04   -0.32720E-05  6364   0.136E-02    0.714E-02
RMM:   8    -0.455364193111E+03    0.52939E-04   -0.25370E-05  5241   0.149E-02    0.243E-02
RMM:   9    -0.455364165677E+03    0.27435E-04   -0.23472E-05  5384   0.120E-02    0.595E-02
RMM:  10    -0.455364135067E+03    0.30610E-04   -0.18082E-05  4522   0.129E-02    0.143E-02
RMM:  11    -0.455364153319E+03   -0.18253E-04   -0.39851E-06  4419   0.488E-03    0.168E-02
RMM:  12    -0.455364171787E+03   -0.18468E-04   -0.19740E-06  4395   0.419E-03    0.508E-03
RMM:  13    -0.455364194782E+03   -0.22995E-04   -0.53614E-07  4324   0.171E-03    0.553E-03
RMM:  14    -0.455364221489E+03   -0.26707E-04   -0.30693E-07  4161   0.149E-03    0.317E-03
RMM:  15    -0.455364279656E+03   -0.58167E-04   -0.43540E-07  3393   0.115E-03    0.461E-03
RMM:  16    -0.455364326742E+03   -0.47086E-04   -0.34861E-07  3205   0.112E-03    0.239E-03
RMM:  17    -0.455364384706E+03   -0.57964E-04   -0.42060E-07  2501   0.107E-03    0.301E-03
RMM:  18    -0.455364407698E+03   -0.22992E-04   -0.12543E-07  2134   0.928E-04    0.178E-03
RMM:  19    -0.455364442890E+03   -0.35192E-04   -0.22586E-07  2258   0.960E-04    0.214E-03
RMM:  20    -0.455364467662E+03   -0.24771E-04   -0.15809E-07  2054   0.925E-04    0.141E-03
RMM:  21    -0.455364518857E+03   -0.51196E-04   -0.78289E-07  3075   0.113E-03    0.213E-03
RMM:  22    -0.455364546003E+03   -0.27145E-04   -0.39336E-07  2412   0.996E-04    0.108E-03
RMM:  23    -0.455364561453E+03   -0.15450E-04   -0.30065E-07  2424   0.992E-04    0.110E-03
RMM:  24    -0.455364567714E+03   -0.62615E-05   -0.14819E-07  2068   0.916E-04
  10 F= -.45536457E+03 E0= -.45537725E+03  d E =-.117351E+00  mag=   137.5029
       N       E                     dE             d eps       ncg     rms          rms(c)
DAV:   1    -0.455337718456E+03    0.26843E-01   -0.86027E+00  8172   0.419E+00    0.182E+00
RMM:   2    -0.455416781433E+03   -0.79063E-01   -0.13209E-01  8211   0.998E-01    0.292E+00
RMM:   3    -0.455684005103E+03   -0.26722E+00   -0.12254E-01  8218   0.827E-01    0.672E+00
RMM:   4    -0.455479117907E+03    0.20489E+00   -0.59206E-02  8217   0.555E-01    0.410E+00
RMM:   5    -0.455385047592E+03    0.94070E-01   -0.34850E-02  8205   0.481E-01    0.673E-01
RMM:   6    -0.455383754240E+03    0.12934E-02   -0.46635E-03  8210   0.155E-01    0.397E-01
RMM:   7    -0.455383383773E+03    0.37047E-03   -0.96470E-04  8215   0.757E-02    0.321E-01
RMM:   8    -0.455383092572E+03    0.29120E-03   -0.77453E-04  8177   0.699E-02    0.227E-01
RMM:   9    -0.455383104330E+03   -0.11758E-04   -0.57389E-04  8203   0.553E-02    0.235E-01
RMM:  10    -0.455382913414E+03    0.19092E-03   -0.36843E-04  8173   0.473E-02    0.112E-01
RMM:  11    -0.455382934200E+03   -0.20787E-04   -0.11489E-04  8130   0.254E-02    0.117E-01
RMM:  12    -0.455382875369E+03    0.58832E-04   -0.48951E-05  7356   0.184E-02    0.272E-02
RMM:  13    -0.455382883422E+03   -0.80531E-05   -0.11973E-05  4635   0.865E-03
  11 F= -.45538288E+03 E0= -.45539567E+03  d E =-.183157E-01  mag=   137.5015
       N       E                     dE             d eps       ncg     rms          rms(c)
DAV:   1    -0.455310048701E+03    0.72827E-01   -0.14823E+01  8202   0.550E+00    0.240E+00
RMM:   2    -0.455441401065E+03   -0.13135E+00   -0.23100E-01  8212   0.132E+00    0.372E+00
RMM:   3    -0.455883307481E+03   -0.44191E+00   -0.21431E-01  8218   0.110E+00    0.861E+00
RMM:   4    -0.455555955605E+03    0.32735E+00   -0.97891E-02  8220   0.716E-01    0.538E+00
RMM:   5    -0.455392324412E+03    0.16363E+00   -0.59155E-02  8208   0.624E-01    0.896E-01
RMM:   6    -0.455390249947E+03    0.20745E-02   -0.84619E-03  8210   0.210E-01    0.576E-01
RMM:   7    -0.455389196649E+03    0.10533E-02   -0.17415E-03  8220   0.104E-01    0.403E-01
RMM:   8    -0.455388816851E+03    0.37980E-03   -0.13332E-03  8179   0.915E-02    0.320E-01
RMM:   9    -0.455388642981E+03    0.17387E-03   -0.99972E-04  8210   0.734E-02    0.299E-01
RMM:  10    -0.455388350696E+03    0.29228E-03   -0.64967E-04  8170   0.625E-02    0.159E-01
RMM:  11    -0.455388370557E+03   -0.19861E-04   -0.21467E-04  8160   0.349E-02    0.159E-01
RMM:  12    -0.455388263506E+03    0.10705E-03   -0.93906E-05  8072   0.252E-02    0.376E-02
RMM:  13    -0.455388287335E+03   -0.23829E-04   -0.23577E-05  5482   0.119E-02    0.572E-02
RMM:  14    -0.455388292415E+03   -0.50801E-05   -0.13305E-05  4580   0.115E-02
  12 F= -.45538829E+03 E0= -.45540131E+03  d E =-.237247E-01  mag=   137.4963
       N       E                     dE             d eps       ncg     rms          rms(c)
DAV:   1    -0.455384898677E+03    0.33887E-02   -0.76495E-01  8304   0.125E+00    0.542E-01
RMM:   2    -0.455393175042E+03   -0.82764E-02   -0.11909E-02  8209   0.297E-01    0.979E-01
RMM:   3    -0.455419206850E+03   -0.26032E-01   -0.10169E-02  8210   0.235E-01    0.215E+00
RMM:   4    -0.455396676702E+03    0.22530E-01   -0.59686E-03  8209   0.176E-01    0.119E+00
RMM:   5    -0.455389205038E+03    0.74717E-02   -0.32052E-03  8199   0.148E-01    0.199E-01
RMM:   6    -0.455389055907E+03    0.14913E-03   -0.34917E-04  8177   0.421E-02    0.937E-02
RMM:   7    -0.455389078913E+03   -0.23006E-04   -0.86759E-05  8135   0.219E-02    0.105E-01
RMM:   8    -0.455389049146E+03    0.29767E-04   -0.68383E-05  7817   0.211E-02    0.487E-02
RMM:   9    -0.455389121690E+03   -0.72544E-04   -0.60148E-05  7840   0.180E-02    0.926E-02
RMM:  10    -0.455389102081E+03    0.19610E-04   -0.34054E-05  6412   0.155E-02    0.223E-02
RMM:  11    -0.455389118001E+03   -0.15920E-04   -0.87299E-06  4479   0.756E-03    0.284E-02
RMM:  12    -0.455389124405E+03   -0.64049E-05   -0.44331E-06  4382   0.649E-03
  13 F= -.45538912E+03 E0= -.45540209E+03  d E =-.245567E-01  mag=   137.4932
       N       E                     dE             d eps       ncg     rms          rms(c)
DAV:   1    -0.455358613662E+03    0.30504E-01   -0.72022E+00  8166   0.382E+00    0.172E+00
RMM:   2    -0.455423997848E+03   -0.65384E-01   -0.11858E-01  8211   0.933E-01    0.272E+00
RMM:   3    -0.455476849102E+03   -0.52851E-01   -0.11542E-01  8209   0.839E-01    0.390E+00
RMM:   4    -0.455549153077E+03   -0.72304E-01   -0.40022E-02  8209   0.483E-01    0.477E+00
RMM:   5    -0.455399869233E+03    0.14928E+00   -0.19246E-02  8204   0.339E-01    0.611E-01
RMM:   6    -0.455398920357E+03    0.94888E-03   -0.33693E-03  8210   0.136E-01    0.327E-01
RMM:   7    -0.455398713595E+03    0.20676E-03   -0.79859E-04  8211   0.692E-02    0.312E-01
RMM:   8    -0.455398359634E+03    0.35396E-03   -0.63314E-04  8188   0.636E-02    0.180E-01
RMM:   9    -0.455398515159E+03   -0.15552E-03   -0.55034E-04  8202   0.528E-02    0.251E-01
RMM:  10    -0.455398251572E+03    0.26359E-03   -0.35167E-04  8170   0.462E-02    0.795E-02
RMM:  11    -0.455398306767E+03   -0.55195E-04   -0.82988E-05  8028   0.211E-02    0.941E-02
RMM:  12    -0.455398277875E+03    0.28892E-04   -0.32158E-05  6379   0.152E-02    0.212E-02
RMM:  13    -0.455398297547E+03   -0.19671E-04   -0.92544E-06  4531   0.765E-03    0.313E-02
RMM:  14    -0.455398319380E+03   -0.21833E-04   -0.56439E-06  4574   0.705E-03    0.109E-02
RMM:  15    -0.455398333336E+03   -0.13957E-04   -0.23055E-06  4442   0.393E-03    0.156E-02
RMM:  16    -0.455398358407E+03   -0.25071E-04   -0.16162E-06  4489   0.349E-03    0.808E-03
RMM:  17    -0.455398365605E+03   -0.71971E-05   -0.58824E-07  4382   0.205E-03
  14 F= -.45539837E+03 E0= -.45541180E+03  d E =-.924120E-02  mag=   137.4935
       N       E                     dE             d eps       ncg     rms          rms(c)
DAV:   1    -0.455378519695E+03    0.19839E-01   -0.39599E+00  8220   0.283E+00    0.128E+00
RMM:   2    -0.455414828545E+03   -0.36309E-01   -0.64762E-02  8213   0.687E-01    0.203E+00
RMM:   3    -0.455448090068E+03   -0.33262E-01   -0.63466E-02  8210   0.621E-01    0.299E+00
RMM:   4    -0.455489582697E+03   -0.41493E-01   -0.22782E-02  8206   0.357E-01    0.367E+00
RMM:   5    -0.455401005526E+03    0.88577E-01   -0.12111E-02  8204   0.271E-01    0.444E-01
RMM:   6    -0.455400533081E+03    0.47244E-03   -0.18787E-03  8203   0.100E-01    0.232E-01
RMM:   7    -0.455400457879E+03    0.75202E-04   -0.45759E-04  8203   0.515E-02    0.238E-01
RMM:   8    -0.455400236807E+03    0.22107E-03   -0.35274E-04  8166   0.474E-02    0.126E-01
RMM:   9    -0.455400365124E+03   -0.12832E-03   -0.31113E-04  8178   0.400E-02    0.194E-01
RMM:  10    -0.455400214205E+03    0.15092E-03   -0.19769E-04  8160   0.348E-02    0.597E-02
RMM:  11    -0.455400253996E+03   -0.39791E-04   -0.44207E-05  7079   0.156E-02    0.691E-02
RMM:  12    -0.455400245186E+03    0.88102E-05   -0.18049E-05  4710   0.125E-02
  15 F= -.45540025E+03 E0= -.45541401E+03  d E =-.111208E-01  mag=   137.4950
       N       E                     dE             d eps       ncg     rms          rms(c)
DAV:   1    -0.455378901236E+03    0.21353E-01   -0.46409E+00  8196   0.306E+00    0.138E+00
RMM:   2    -0.455415838532E+03   -0.36937E-01   -0.67032E-02  8213   0.700E-01    0.185E+00
RMM:   3    -0.455552646512E+03   -0.13681E+00   -0.65468E-02  8214   0.606E-01    0.484E+00
RMM:   4    -0.455462781251E+03    0.89865E-01   -0.28440E-02  8216   0.383E-01    0.313E+00
RMM:   5    -0.455405495056E+03    0.57286E-01   -0.18068E-02  8200   0.339E-01    0.293E-01
RMM:   6    -0.455405660481E+03   -0.16543E-03   -0.18899E-03  8200   0.926E-02    0.338E-01
RMM:   7    -0.455405094521E+03    0.56596E-03   -0.50705E-04  8205   0.562E-02    0.155E-01
RMM:   8    -0.455405145971E+03   -0.51451E-04   -0.36382E-04  8178   0.460E-02    0.190E-01
RMM:   9    -0.455405065630E+03    0.80341E-04   -0.26989E-04  8166   0.377E-02    0.141E-01
RMM:  10    -0.455405014888E+03    0.50742E-04   -0.16089E-04  8159   0.305E-02    0.804E-02
RMM:  11    -0.455405041096E+03   -0.26207E-04   -0.35114E-05  6710   0.144E-02    0.514E-02
RMM:  12    -0.455405042009E+03   -0.91329E-06   -0.12897E-05  4495   0.103E-02
  16 F= -.45540504E+03 E0= -.45541892E+03  d E =-.479682E-02  mag=   137.4997
