 vasp.5.4.4.18Apr17-6-g9f103f2a35 (build Sep 06 2021 19:49:22) complex          
  
 executed on             LinuxIFC date 2022.01.05  08:36:34
 running on   72 total cores
 distrk:  each k-point on   72 cores,    1 groups
 distr:  one band on NCORES_PER_BAND=  24 cores,    3 groups


--------------------------------------------------------------------------------------------------------


 INCAR:
 POTCAR:    PAW_PBE Fe 06Sep2000                  
 POTCAR:    PAW_PBE Ni 02Aug2007                  

 ----------------------------------------------------------------------------- 
|                                                                             |
|           W    W    AA    RRRRR   N    N  II  N    N   GGGG   !!!           |
|           W    W   A  A   R    R  NN   N  II  NN   N  G    G  !!!           |
|           W    W  A    A  R    R  N N  N  II  N N  N  G       !!!           |
|           W WW W  AAAAAA  RRRRR   N  N N  II  N  N N  G  GGG   !            |
|           WW  WW  A    A  R   R   N   NN  II  N   NN  G    G                |
|           W    W  A    A  R    R  N    N  II  N    N   GGGG   !!!           |
|                                                                             |
|      For optimal performance we recommend to set                            |
|        NCORE= 4 - approx SQRT( number of cores)                             |
|      NCORE specifies how many cores store one orbital (NPAR=cpu/NCORE).     |
|      This setting can  greatly improve the performance of VASP for DFT.     |
|      The default,   NCORE=1            might be grossly inefficient         |
|      on modern multi-core architectures or massively parallel machines.     |
|      Do your own testing !!!!                                               |
|      Unfortunately you need to use the default for GW and RPA calculations. |
|      (for HF NCORE is supported but not extensively tested yet)             |
|                                                                             |
 ----------------------------------------------------------------------------- 

 POTCAR:    PAW_PBE Fe 06Sep2000                  
   VRHFIN =Fe:  d7 s1                                                           
   LEXCH  = PE                                                                  
   EATOM  =   594.3153 eV,   43.6809 Ry                                         
                                                                                
   TITEL  = PAW_PBE Fe 06Sep2000                                                
   LULTRA =        F    use ultrasoft PP ?                                      
   IUNSCR =        1    unscreen: 0-lin 1-nonlin 2-no                           
   RPACOR =    2.000    partial core radius                                     
   POMASS =   55.847; ZVAL   =    8.000    mass and valenz                      
   RCORE  =    2.300    outmost cutoff radius                                   
   RWIGS  =    2.460; RWIGS  =    1.302    wigner-seitz radius (au A)           
   ENMAX  =  267.882; ENMIN  =  200.911 eV                                      
   RCLOC  =    1.701    cutoff for local pot                                    
   LCOR   =        T    correct aug charges                                     
   LPAW   =        T    paw PP                                                  
   EAUG   =  511.368                                                            
   DEXC   =    0.000                                                            
   RMAX   =    2.356    core radius for proj-oper                               
   RAUG   =    1.300    factor for augmentation sphere                          
   RDEP   =    2.442    radius for radial grids                                 
   RDEPT  =    1.890    core radius for aug-charge                              
                                                                                
   Atomic configuration                                                         
    9 entries                                                                   
     n  l   j            E        occ.                                          
     1  0  0.50     -6993.8440   2.0000                                         
     2  0  0.50      -814.6047   2.0000                                         
     2  1  1.50      -693.3689   6.0000                                         
     3  0  0.50       -89.4732   2.0000                                         
     3  1  1.50       -55.6373   6.0000                                         
     3  2  2.50        -3.8151   7.0000                                         
     4  0  0.50        -4.2551   1.0000                                         
     4  1  1.50        -3.4015   0.0000                                         
     4  3  2.50        -1.3606   0.0000                                         
   Description                                                                  
     l       E           TYP  RCUT    TYP  RCUT                                 
     2     -3.8151135     23  2.300                                             
     2     -5.1756961     23  2.300                                             
     0     -4.2550963     23  2.300                                             
     0      7.2035603     23  2.300                                             
     1     -2.7211652     23  2.300                                             
     1     18.4316424     23  2.300                                             
  local pseudopotential read in
  partial core-charges read in
  partial kinetic energy density read in
  atomic valenz-charges read in
  non local Contribution for L=           2  read in
    real space projection operators read in
  non local Contribution for L=           2  read in
    real space projection operators read in
  non local Contribution for L=           0  read in
    real space projection operators read in
  non local Contribution for L=           0  read in
    real space projection operators read in
  non local Contribution for L=           1  read in
    real space projection operators read in
  non local Contribution for L=           1  read in
    real space projection operators read in
    PAW grid and wavefunctions read in
 
   number of l-projection  operators is LMAX  =           6
   number of lm-projection operators is LMMAX =          18
 
 POTCAR:    PAW_PBE Ni 02Aug2007                  
   VRHFIN =Ni:                                                                  
   LEXCH  = PE                                                                  
   EATOM  =  1077.6739 eV,   79.2068 Ry                                         
                                                                                
   TITEL  = PAW_PBE Ni 02Aug2007                                                
   LULTRA =        F    use ultrasoft PP ?                                      
   IUNSCR =        1    unscreen: 0-lin 1-nonlin 2-no                           
   RPACOR =    2.000    partial core radius                                     
   POMASS =   58.690; ZVAL   =   10.000    mass and valenz                      
   RCORE  =    2.300    outmost cutoff radius                                   
   RWIGS  =    2.430; RWIGS  =    1.286    wigner-seitz radius (au A)           
   ENMAX  =  269.532; ENMIN  =  202.149 eV                                      
   RCLOC  =    1.201    cutoff for local pot                                    
   LCOR   =        T    correct aug charges                                     
   LPAW   =        T    paw PP                                                  
   EAUG   =  544.565                                                            
   DEXC   =    0.000                                                            
   RMAX   =    2.357    core radius for proj-oper                               
   RAUG   =    1.300    factor for augmentation sphere                          
   RDEP   =    2.390    radius for radial grids                                 
   RDEPT  =    1.838    core radius for aug-charge                              
                                                                                
   Atomic configuration                                                         
    9 entries                                                                   
     n  l   j            E        occ.                                          
     1  0  0.50     -8206.4253   2.0000                                         
     2  0  0.50      -976.1748   2.0000                                         
     2  1  1.50      -839.0571   6.0000                                         
     3  0  0.50      -105.9991   2.0000                                         
     3  1  1.50       -66.4603   6.0000                                         
     3  2  2.50        -4.6458   9.0000                                         
     4  0  0.50        -4.4926   1.0000                                         
     4  1  1.50        -4.0817   0.0000                                         
     4  3  2.50        -1.3606   0.0000                                         
   Description                                                                  
     l       E           TYP  RCUT    TYP  RCUT                                 
     2     -4.6457903     23  2.300                                             
     2     -6.0063729     23  2.300                                             
     0     -4.4925590     23  2.300                                             
     0      5.0102601     23  2.300                                             
     1     -2.7211652     23  2.300                                             
     1     16.5183231     23  2.300                                             
  local pseudopotential read in
  partial core-charges read in
  partial kinetic energy density read in
  atomic valenz-charges read in
  non local Contribution for L=           2  read in
    real space projection operators read in
  non local Contribution for L=           2  read in
    real space projection operators read in
  non local Contribution for L=           0  read in
    real space projection operators read in
  non local Contribution for L=           0  read in
    real space projection operators read in
  non local Contribution for L=           1  read in
    real space projection operators read in
  non local Contribution for L=           1  read in
    real space projection operators read in
    PAW grid and wavefunctions read in
 
   number of l-projection  operators is LMAX  =           6
   number of lm-projection operators is LMMAX =          18
 
 Optimization of the real space projectors (new method)

 maximal supplied QI-value         = 16.25
 optimisation between [QCUT,QGAM] = [ 11.54, 23.24] = [ 37.28,151.24] Ry 
 Optimized for a Real-space Cutoff    1.53 Angstroem

   l    n(q)    QCUT    max X(q) W(low)/X(q) W(high)/X(q)  e(spline) 
   2     10    11.539    80.901    0.11E-03    0.14E-03    0.21E-06
   2     10    11.539    75.754    0.11E-03    0.14E-03    0.22E-06
   0     11    11.539    58.752    0.52E-04    0.18E-04    0.33E-06
   0     11    11.539    30.679    0.44E-04    0.16E-04    0.30E-06
   1     10    11.539    17.977    0.53E-04    0.29E-04    0.13E-06
   1     10    11.539    13.559    0.44E-04    0.25E-04    0.11E-06
 Optimization of the real space projectors (new method)

 maximal supplied QI-value         = 16.25
 optimisation between [QCUT,QGAM] = [ 11.54, 23.24] = [ 37.28,151.24] Ry 
 Optimized for a Real-space Cutoff    1.45 Angstroem

   l    n(q)    QCUT    max X(q) W(low)/X(q) W(high)/X(q)  e(spline) 
   2      9    11.539    60.317    0.19E-03    0.47E-04    0.16E-06
   2      9    11.539    55.921    0.19E-03    0.48E-04    0.16E-06
   0     10    11.539    51.690    0.80E-04    0.50E-04    0.24E-06
   0     10    11.539    30.015    0.73E-04    0.45E-04    0.22E-06
   1     10    11.539    18.849    0.87E-04    0.16E-03    0.71E-07
   1     10    11.539    14.624    0.73E-04    0.13E-03    0.64E-07
  PAW_PBE Fe 06Sep2000                  :
 energy of atom  1       EATOM= -594.3153
 kinetic energy error for atom=    0.0026 (will be added to EATOM!!)
  PAW_PBE Ni 02Aug2007                  :
 energy of atom  2       EATOM=-1077.6739
 kinetic energy error for atom=    0.0030 (will be added to EATOM!!)
 
 
 POSCAR: POSCAR                                  
  positions in direct lattice
  velocities in cartesian coordinates
 exchange correlation table for  LEXCH =        8
   RHO(1)=    0.500       N(1)  =     2000
   RHO(2)=  100.500       N(2)  =     4000
 


--------------------------------------------------------------------------------------------------------


 ion  position               nearest neighbor table
   1  0.002  0.999  0.097-   9 2.45  29 2.50  49 2.51  64 2.51  44 2.53   7 2.53  51 2.54  38 2.55
                             5 2.60
   2  0.999  0.996  0.373-  48 2.35  11 2.41  57 2.43  30 2.51  50 2.52  39 2.53  52 2.56   8 2.56
                             6 2.57
   3  0.499  0.996  0.096-   5 2.47  62 2.50  34 2.52  31 2.52  49 2.53  45 2.55  55 2.55  12 2.56
                            53 2.58
   4  0.505  0.997  0.374-  15 2.35  63 2.38   6 2.43  13 2.46  35 2.49  56 2.53  50 2.60  32 2.60
                            54 2.61
   5  0.743  0.996  0.094-   3 2.47  34 2.47  62 2.52  38 2.53  55 2.54  64 2.58  14 2.58  51 2.59
                             1 2.60
   6  0.742  0.991  0.373-  47 2.31  15 2.38  35 2.42  57 2.43   4 2.43  39 2.48   2 2.57  56 2.60
                            52 2.64
   7  0.249  0.253  0.097-  22 2.43   9 2.44  51 2.49  18 2.52  20 2.53   1 2.53  53 2.54  10 2.55
                            49 2.58
   8  0.250  0.252  0.372-  26 2.37  59 2.38  11 2.38  52 2.50  19 2.53  54 2.53  21 2.55  50 2.56
                             2 2.56
   9  0.089  0.161  0.191-  11 2.41  10 2.41   7 2.44   1 2.45  44 2.47  59 2.49  57 2.50  51 2.52
                            64 2.54  22 2.55  58 2.62  14 2.68
  10  0.330  0.166  0.195-  11 2.37  26 2.37  13 2.40   9 2.41  22 2.48  45 2.48  44 2.49   7 2.55
                            12 2.57  49 2.58  53 2.59  25 2.59
  11  0.168  0.086  0.284-  10 2.37   8 2.38   9 2.41   2 2.41  44 2.43  26 2.48  50 2.49  59 2.51
                            57 2.54  48 2.55  46 2.56  13 2.56
  12  0.583  0.166  0.194-  13 2.36  15 2.42  28 2.42  14 2.45  27 2.50  62 2.52  45 2.54  55 2.55
                             3 2.56  10 2.57  53 2.58  25 2.58
  13  0.423  0.089  0.284-  12 2.36  10 2.40  26 2.41  45 2.44  28 2.46   4 2.46  54 2.48  15 2.48
                            50 2.51  63 2.53  11 2.56  46 2.64
  14  0.827  0.167  0.193-  15 2.42  60 2.44  57 2.44  12 2.45  62 2.51  55 2.51  27 2.53  58 2.56
                            51 2.56   5 2.58  64 2.59   9 2.68
  15  0.666  0.084  0.286-   4 2.35   6 2.38  12 2.42  14 2.42  56 2.44  62 2.48  13 2.48  57 2.53
                            60 2.53  63 2.54  28 2.56  47 2.58
  16  0.003  0.511  0.095-  31 2.44  29 2.45  23 2.48  33 2.51  58 2.57  18 2.58  27 2.59  55 2.60
                            51 2.63
  17  0.007  0.511  0.374-  37 2.33  43 2.37  32 2.37  30 2.44  60 2.45  19 2.53  24 2.55  52 2.61
                            56 2.61
  18  0.256  0.506  0.097-  36 2.40  31 2.45  34 2.47  22 2.47  20 2.48   7 2.52  58 2.53  51 2.58
                            16 2.58
  19  0.253  0.503  0.373-  61 2.39  37 2.39  59 2.41  32 2.48  21 2.52  35 2.53   8 2.53  17 2.53
                            52 2.53
  20  0.500  0.503  0.098-  22 2.41  40 2.43  34 2.48  18 2.48  38 2.50  25 2.53   7 2.53  53 2.54
                            23 2.58
  21  0.503  0.505  0.374-  42 2.38  61 2.40  26 2.45  39 2.46  35 2.47  24 2.51  19 2.52  54 2.55
                             8 2.55
  22  0.339  0.416  0.189-  20 2.41   7 2.43  40 2.46  18 2.47  25 2.48  10 2.48  59 2.49  61 2.49
                            26 2.52  36 2.53   9 2.55  58 2.60
  23  0.757  0.508  0.096-  29 2.40  41 2.46  16 2.48  27 2.48  38 2.48  25 2.56  55 2.57  20 2.58
                            53 2.60
  24  0.750  0.504  0.373-  42 2.34  43 2.38  28 2.39  39 2.49  30 2.50  21 2.51  54 2.54  56 2.55
                            17 2.55
  25  0.586  0.422  0.194-  28 2.38  42 2.42  26 2.43  40 2.45  41 2.46  27 2.46  22 2.48  20 2.53
                            23 2.56  53 2.58  12 2.58  10 2.59
  26  0.418  0.326  0.285-  10 2.37   8 2.37  13 2.41  28 2.42  54 2.43  25 2.43  21 2.45  11 2.48
                            22 2.52  59 2.56  42 2.60  61 2.61
  27  0.827  0.417  0.192-  28 2.43  41 2.45  60 2.46  25 2.46  23 2.48  12 2.50  43 2.51  55 2.51
                            14 2.53  58 2.59  16 2.59  33 2.60
  28  0.662  0.336  0.284-  25 2.38  24 2.39  26 2.42  12 2.42  27 2.43  13 2.46  54 2.47  56 2.49
                            42 2.50  60 2.55  15 2.56  43 2.59
  29  0.992  0.747  0.096-  23 2.40  16 2.45  38 2.48  41 2.50   1 2.50  33 2.54  44 2.56  49 2.57
                            31 2.63
  30  0.000  0.749  0.375-  48 2.34  43 2.35  46 2.35  17 2.44  32 2.48  24 2.50   2 2.51  50 2.53
                            39 2.56
  31  0.251  0.746  0.097-  16 2.44  36 2.44  18 2.45  33 2.49  34 2.52   3 2.52  45 2.55  49 2.56
                            29 2.63
  32  0.243  0.744  0.374-  37 2.30  46 2.37  17 2.37  63 2.41  19 2.48  30 2.48  50 2.55   4 2.60
                            35 2.61
  33  0.086  0.671  0.192-  46 2.43  37 2.44  43 2.46  45 2.48  44 2.48  31 2.49  16 2.51  36 2.52
                            41 2.52  29 2.54  58 2.55  27 2.60
  34  0.502  0.749  0.098-  18 2.47   5 2.47  40 2.48  36 2.48  20 2.48  62 2.49  38 2.49  31 2.52
                             3 2.52
  35  0.505  0.750  0.374-  47 2.33  61 2.41   6 2.42  63 2.44  39 2.45  21 2.47   4 2.49  19 2.53
                            32 2.61
  36  0.330  0.661  0.190-  18 2.40  31 2.44  61 2.46  34 2.48  58 2.49  37 2.51  63 2.51  33 2.52
                            22 2.53  40 2.53  62 2.56  45 2.62
  37  0.164  0.590  0.286-  32 2.30  17 2.33  19 2.39  46 2.44  33 2.44  43 2.46  63 2.50  58 2.51
                            36 2.51  60 2.54  61 2.60  59 2.61
  38  0.748  0.749  0.094-  29 2.48  23 2.48  34 2.49  20 2.50   5 2.53  40 2.54  64 2.55   1 2.55
                            41 2.58
  39  0.747  0.748  0.373-  47 2.31  42 2.33  48 2.38  35 2.45  21 2.46   6 2.48  24 2.49   2 2.53
                            30 2.56
  40  0.580  0.661  0.192-  61 2.42  20 2.43  25 2.45  22 2.46  42 2.46  34 2.48  47 2.51  36 2.53
                            38 2.54  41 2.54  62 2.56  64 2.57
  41  0.832  0.662  0.193-  42 2.42  43 2.42  27 2.45  25 2.46  23 2.46  48 2.48  29 2.50  33 2.52
                            40 2.54  64 2.54  44 2.57  38 2.58
  42  0.671  0.587  0.286-  39 2.33  24 2.34  21 2.38  25 2.42  41 2.42  40 2.46  47 2.48  48 2.48
                            28 2.50  43 2.51  61 2.54  26 2.60
  43  0.920  0.590  0.286-  30 2.35  17 2.37  24 2.38  41 2.42  46 2.43  48 2.43  33 2.46  37 2.46
                            27 2.51  42 2.51  60 2.54  28 2.59
  44  0.086  0.916  0.194-  46 2.42  45 2.43  11 2.43  48 2.46   9 2.47  33 2.48  10 2.49   1 2.53
                            49 2.53  64 2.54  29 2.56  41 2.57
  45  0.327  0.919  0.193-  44 2.43  13 2.44  63 2.46  46 2.46  33 2.48  10 2.48  49 2.49  12 2.54
                            31 2.55   3 2.55  62 2.59  36 2.62
  46  0.161  0.829  0.286-  30 2.35  32 2.37  44 2.42  43 2.43  33 2.43  37 2.44  48 2.44  45 2.46
                            50 2.46  63 2.53  11 2.56  13 2.64
  47  0.668  0.831  0.287-   6 2.31  39 2.31  35 2.33  42 2.48  64 2.48  62 2.50  61 2.51  40 2.51
                            57 2.51  48 2.55  15 2.58  63 2.59
  48  0.920  0.830  0.287-  30 2.34   2 2.35  39 2.38  43 2.43  46 2.44  44 2.46  41 2.48  42 2.48
                            64 2.50  11 2.55  47 2.55  57 2.58
  49  0.249  0.998  0.096-  45 2.49   1 2.51  44 2.53   3 2.53  53 2.55  31 2.56  29 2.57  10 2.58
                             7 2.58
  50  0.250  0.999  0.378-  46 2.46  11 2.49  13 2.51   2 2.52  30 2.53  54 2.55  32 2.55   8 2.56
                             4 2.60
  51  0.001  0.250  0.097-   7 2.49  58 2.51   9 2.52   1 2.54  55 2.55  14 2.56  18 2.58   5 2.59
                            16 2.63
  52  0.004  0.252  0.377-  59 2.47  57 2.49  60 2.49   8 2.50  19 2.53   2 2.56  56 2.57  17 2.61
                             6 2.64
  53  0.499  0.252  0.095-  55 2.53   7 2.54  20 2.54  49 2.55   3 2.58  25 2.58  12 2.58  10 2.59
                            23 2.60
  54  0.501  0.252  0.379-  26 2.43  28 2.47  13 2.48  56 2.52   8 2.53  24 2.54  50 2.55  21 2.55
                             4 2.61
  55  0.749  0.251  0.096-  14 2.51  27 2.51  53 2.53   5 2.54  51 2.55   3 2.55  12 2.55  23 2.57
                            16 2.60
  56  0.750  0.252  0.377-  15 2.44  60 2.45  28 2.49  54 2.52   4 2.53  24 2.55  52 2.57   6 2.60
                            17 2.61
  57  0.914  0.081  0.283-   2 2.43  64 2.43   6 2.43  14 2.44  52 2.49   9 2.50  47 2.51  15 2.53
                            11 2.54  59 2.57  60 2.57  48 2.58
  58  0.083  0.417  0.192-  59 2.44  60 2.45  36 2.49  37 2.51  51 2.51  18 2.53  33 2.55  14 2.56
                            16 2.57  27 2.59  22 2.60   9 2.62
  59  0.169  0.334  0.283-   8 2.38  19 2.41  58 2.44  52 2.47   9 2.49  22 2.49  11 2.51  61 2.52
                            26 2.56  57 2.57  60 2.58  37 2.61
  60  0.914  0.336  0.284-  14 2.44  58 2.45  56 2.45  17 2.45  27 2.46  52 2.49  15 2.53  43 2.54
                            37 2.54  28 2.55  57 2.57  59 2.58
  61  0.418  0.584  0.284-  19 2.39  21 2.40  35 2.41  40 2.42  36 2.46  22 2.49  47 2.51  59 2.52
                            42 2.54  63 2.55  37 2.60  26 2.61
  62  0.582  0.915  0.192-  63 2.45  15 2.48  34 2.49  47 2.50   3 2.50  14 2.51   5 2.52  12 2.52
                            64 2.55  36 2.56  40 2.56  45 2.59
  63  0.413  0.834  0.284-   4 2.38  32 2.41  35 2.44  62 2.45  45 2.46  37 2.50  36 2.51  46 2.53
                            13 2.53  15 2.54  61 2.55  47 2.59
  64  0.834  0.915  0.192-  57 2.43  47 2.48  48 2.50   1 2.51   9 2.54  44 2.54  41 2.54  38 2.55
                            62 2.55  40 2.57   5 2.58  14 2.59
 

IMPORTANT INFORMATION: All symmetrisations will be switched off!
NOSYMM: (Re-)initialisation of all symmetry stuff for point group C_1.

 
 

Automatic generation of k-mesh.
 generate k-points for:    3    3    1
Space group operators:
 irot       det(A)        alpha          n_x          n_y          n_z        tau_x        tau_y        tau_z
    1     1.000000     0.000000     1.000000     0.000000     0.000000     0.000000     0.000000     0.000000
 
 Subroutine IBZKPT returns following result:
 ===========================================
 
 Found      5 irreducible k-points:
 
 Following reciprocal coordinates:
            Coordinates               Weight
  0.000000  0.000000  0.000000      1.000000
  0.333333  0.000000  0.000000      2.000000
  0.000000  0.333333  0.000000      2.000000
  0.333333  0.333333  0.000000      2.000000
 -0.333333  0.333333  0.000000      2.000000
 
 Following cartesian coordinates:
            Coordinates               Weight
  0.000000  0.000000  0.000000      1.000000
  0.032965  0.019033  0.000000      2.000000
  0.000000  0.038065  0.000000      2.000000
  0.032965  0.057098  0.000000      2.000000
 -0.032965  0.019033  0.000000      2.000000
 


--------------------------------------------------------------------------------------------------------




 Dimension of arrays:
   k-points           NKPTS =      5   k-points in BZ     NKDIM =      5   number of bands    NBANDS=    408
   number of dos      NEDOS =    301   number of ions     NIONS =     64
   non local maximal  LDIM  =      6   non local SUM 2l+1 LMDIM =     18
   total plane-waves  NPLWV = ******
   max r-space proj   IRMAX =   8269   max aug-charges    IRDMAX=  19568
   dimension x,y,z NGX =    80 NGY =   80 NGZ =  160
   dimension x,y,z NGXF=   160 NGYF=  160 NGZF=  320
   support grid    NGXF=   160 NGYF=  160 NGZF=  320
   ions per type =              48  16
   NGX,Y,Z   is equivalent  to a cutoff of  13.15, 13.15, 12.51 a.u.
   NGXF,Y,Z  is equivalent  to a cutoff of  26.31, 26.31, 25.02 a.u.

 SYSTEM =  SQS-NiFe                                
 POSCAR =  POSCAR                                  

 Startparameter for this run:
   NWRITE =      2    write-flag & timer
   PREC   = accura    normal or accurate (medium, high low for compatibility)
   ISTART =      0    job   : 0-new  1-cont  2-samecut
   ICHARG =      1    charge: 1-file 2-atom 10-const
   ISPIN  =      2    spin polarized calculation?
   LNONCOLLINEAR =      F non collinear calculations
   LSORBIT =      F    spin-orbit coupling
   INIWAV =      1    electr: 0-lowe 1-rand  2-diag
   LASPH  =      F    aspherical Exc in radial PAW
   METAGGA=      F    non-selfconsistent MetaGGA calc.

 Electronic Relaxation 1
   ENCUT  =  520.0 eV  38.22 Ry    6.18 a.u.  18.80 18.80 39.54*2*pi/ulx,y,z
   ENINI  =  520.0     initial cutoff
   ENAUG  =  544.6 eV  augmentation charge cutoff
   NELM   =    200;   NELMIN=  2; NELMDL= -5     # of ELM steps 
   EDIFF  = 0.1E-04   stopping-criterion for ELM
   LREAL  =      T    real-space projection
   NLSPLINE    = F    spline interpolate recip. space projectors
   LCOMPAT=      F    compatible to vasp.4.4
   GGA_COMPAT  = T    GGA compatible to vasp.4.4-vasp.4.6
   LMAXPAW     = -100 max onsite density
   LMAXMIX     =    2 max onsite mixed and CHGCAR
   VOSKOWN=      0    Vosko Wilk Nusair interpolation
   ROPT   =   -0.00025  -0.00025
 Ionic relaxation
   EDIFFG = -.5E-01   stopping-criterion for IOM
   NSW    =     99    number of steps for IOM
   NBLOCK =      1;   KBLOCK =     99    inner block; outer block 
   IBRION =      2    ionic relax: 0-MD 1-quasi-New 2-CG
   NFREE  =      1    steps in history (QN), initial steepest desc. (CG)
   ISIF   =      2    stress and relaxation
   IWAVPR =     11    prediction:  0-non 1-charg 2-wave 3-comb
   ISYM   =      0    0-nonsym 1-usesym 2-fastsym
   LCORR  =      T    Harris-Foulkes like correction to forces

   POTIM  = 0.5000    time-step for ionic-motion
   TEIN   =    0.0    initial temperature
   TEBEG  =    0.0;   TEEND  =   0.0 temperature during run
   SMASS  =  -3.00    Nose mass-parameter (am)
   estimated Nose-frequenzy (Omega)   =  0.10E-29 period in steps =****** mass=  -0.234E-26a.u.
   SCALEE = 1.0000    scale energy and forces
   NPACO  =    256;   APACO  = 16.0  distance and # of slots for P.C.
   PSTRESS=    0.0 pullay stress

  Mass of Ions in am
   POMASS =  55.85 58.69
  Ionic Valenz
   ZVAL   =   8.00 10.00
  Atomic Wigner-Seitz radii
   RWIGS  =  -1.00 -1.00
  virtual crystal weights 
   VCA    =   1.00  1.00
   NELECT =     544.0000    total number of electrons
   NUPDOWN=      -1.0000    fix difference up-down

 DOS related values:
   EMIN   =  10.00;   EMAX   =-10.00  energy-range for DOS
   EFERMI =   0.00
   ISMEAR =     1;   SIGMA  =   0.20  broadening in eV -4-tet -1-fermi 0-gaus

 Electronic relaxation 2 (details)
   IALGO  =     68    algorithm
   LDIAG  =      T    sub-space diagonalisation (order eigenvalues)
   LSUBROT=      F    optimize rotation matrix (better conditioning)
   TURBO    =      0    0=normal 1=particle mesh
   IRESTART =      0    0=no restart 2=restart with 2 vectors
   NREBOOT  =      0    no. of reboots
   NMIN     =      0    reboot dimension
   EREF     =   0.00    reference energy to select bands
   IMIX   =      4    mixing-type and parameters
     AMIX     =   0.40;   BMIX     =  1.00
     AMIX_MAG =   1.60;   BMIX_MAG =  1.00
     AMIN     =   0.10
     WC   =   100.;   INIMIX=   1;  MIXPRE=   1;  MAXMIX= -45

 Intra band minimization:
   WEIMIN = 0.0010     energy-eigenvalue tresh-hold
   EBREAK =  0.61E-08  absolut break condition
   DEPER  =   0.30     relativ break condition  

   TIME   =   0.40     timestep for ELM

  volume/ion in A,a.u.               =      29.42       198.56
  Fermi-wavevector in a.u.,A,eV,Ry     =   1.082228  2.045114 15.935370  1.171217
  Thomas-Fermi vector in A             =   2.218264
 
 Write flags
   LWAVE        =      F    write WAVECAR
   LDOWNSAMPLE  =      F    k-point downsampling of WAVECAR
   LCHARG       =      T    write CHGCAR
   LVTOT        =      F    write LOCPOT, total local potential
   LVHAR        =      F    write LOCPOT, Hartree potential only
   LELF         =      F    write electronic localiz. function (ELF)
   LORBIT       =     10    0 simple, 1 ext, 2 COOP (PROOUT), +10 PAW based schemes


 Dipole corrections
   LMONO  =      F    monopole corrections only (constant potential shift)
   LDIPOL =      T    correct potential (dipole corrections)
   IDIPOL =      3    1-x, 2-y, 3-z, 4-all directions 
   EPSILON=  1.0000000 bulk dielectric constant

 Exchange correlation treatment:
   GGA     =    --    GGA type
   LEXCH   =     8    internal setting for exchange type
   VOSKOWN=      0    Vosko Wilk Nusair interpolation
   LHFCALC =     F    Hartree Fock is set to
   LHFONE  =     F    Hartree Fock one center treatment
   AEXX    =    0.0000 exact exchange contribution

 Linear response parameters
   LEPSILON=     F    determine dielectric tensor
   LRPA    =     F    only Hartree local field effects (RPA)
   LNABLA  =     F    use nabla operator in PAW spheres
   LVEL    =     F    velocity operator in full k-point grid
   LINTERFAST=   F  fast interpolation
   KINTER  =     0    interpolate to denser k-point grid
   CSHIFT  =0.1000    complex shift for real part using Kramers Kronig
   OMEGAMAX=  -1.0    maximum frequency
   DEG_THRESHOLD= 0.2000000E-02 threshold for treating states as degnerate
   RTIME   =   -0.100 relaxation time in fs
  (WPLASMAI=    0.000 imaginary part of plasma frequency in eV, 0.658/RTIME)
   DFIELD  = 0.0000000 0.0000000 0.0000000 field for delta impulse in time
 
 Orbital magnetization related:
   ORBITALMAG=     F  switch on orbital magnetization
   LCHIMAG   =     F  perturbation theory with respect to B field
   DQ        =  0.001000  dq finite difference perturbation B field
   LLRAUG    =     F  two centre corrections for induced B field



--------------------------------------------------------------------------------------------------------


 conjugate gradient relaxation of ions
   using selective dynamics as specified on POSCAR
 charge density and potential will be updated during run
 spin polarized calculation
 RMM-DIIS sequential band-by-band and
  variant of blocked Davidson during initial phase
 perform sub-space diagonalisation
    before iterative eigenvector-optimisation
 modified Broyden-mixing scheme, WC =      100.0
 initial mixing is a Kerker type mixing with AMIX =  0.4000 and BMIX =      1.0000
 Hartree-type preconditioning will be used
 using additional bands          136
 real space projection scheme for non local part
 use partial core corrections
 calculate Harris-corrections to forces 
   (improved forces if not selfconsistent)
 use gradient corrections 
 use of overlap-Matrix (Vanderbilt PP)
 Methfessel and Paxton  Order N= 1 SIGMA  =   0.20


--------------------------------------------------------------------------------------------------------


  energy-cutoff  :      520.00
  volume of cell :     1883.07
      direct lattice vectors                 reciprocal lattice vectors
    10.111630000  0.000000000  0.000000000     0.098896024  0.057097646  0.000000000
    -5.055815000  8.756928450  0.000000000     0.000000000  0.114195292  0.000000000
     0.000000000  0.000000000 21.266428300     0.000000000  0.000000000  0.047022471

  length of vectors
    10.111630000 10.111629997 21.266428300     0.114195292  0.114195292  0.047022471


 
 k-points in units of 2pi/SCALE and weight: read from INCAR                         
   0.00000000  0.00000000  0.00000000       0.111
   0.03296534  0.01903255  0.00000000       0.222
   0.00000000  0.03806510  0.00000000       0.222
   0.03296534  0.05709765  0.00000000       0.222
  -0.03296534  0.01903255  0.00000000       0.222
 
 k-points in reciprocal lattice and weights: read from INCAR                         
   0.00000000  0.00000000  0.00000000       0.111
   0.33333333  0.00000000  0.00000000       0.222
   0.00000000  0.33333333  0.00000000       0.222
   0.33333333  0.33333333  0.00000000       0.222
  -0.33333333  0.33333333  0.00000000       0.222
 
 position of ions in fractional coordinates (direct lattice) 
   0.00194700  0.99920000  0.09682937
   0.99918611  0.99637991  0.37344871
   0.49880600  0.99647600  0.09614542
   0.50505852  0.99665397  0.37431710
   0.74316000  0.99645900  0.09443074
   0.74236419  0.99115342  0.37303732
   0.24913600  0.25322600  0.09681044
   0.25047305  0.25228186  0.37248658
   0.08873200  0.16149400  0.19059152
   0.32962600  0.16609800  0.19506268
   0.16758688  0.08556431  0.28404581
   0.58333000  0.16550300  0.19443696
   0.42263341  0.08924273  0.28372749
   0.82651500  0.16651000  0.19326268
   0.66571893  0.08439970  0.28592773
   0.00320800  0.51090900  0.09451343
   0.00657026  0.51117269  0.37438969
   0.25586900  0.50577700  0.09734648
   0.25273460  0.50319929  0.37277756
   0.49960200  0.50304900  0.09754098
   0.50298480  0.50477201  0.37367755
   0.33859900  0.41583700  0.18939337
   0.75679100  0.50804300  0.09630935
   0.75038988  0.50383990  0.37294788
   0.58633600  0.42229400  0.19423576
   0.41828693  0.32585119  0.28503997
   0.82677100  0.41676200  0.19199494
   0.66229861  0.33594179  0.28411716
   0.99180600  0.74702800  0.09571304
   0.00023244  0.74894226  0.37478604
   0.25104600  0.74563900  0.09703639
   0.24327828  0.74381043  0.37362444
   0.08604600  0.67086900  0.19220225
   0.50153700  0.74905700  0.09752875
   0.50504587  0.75032146  0.37365151
   0.33005900  0.66135600  0.19018621
   0.16403103  0.58962507  0.28631498
   0.74777500  0.74863100  0.09404494
   0.74679708  0.74844800  0.37298734
   0.58008200  0.66096300  0.19152733
   0.83213700  0.66199500  0.19303528
   0.67070098  0.58729576  0.28553731
   0.92039254  0.58975282  0.28585760
   0.08603600  0.91635500  0.19371195
   0.32743000  0.91932200  0.19293658
   0.16087821  0.82915896  0.28598337
   0.66786216  0.83067398  0.28677112
   0.91978390  0.82955012  0.28677397
   0.24916500  0.99813100  0.09559832
   0.24964594  0.99910478  0.37807610
   0.00129700  0.24974200  0.09658595
   0.00359611  0.25188688  0.37702211
   0.49933100  0.25162700  0.09537266
   0.50057405  0.25193090  0.37932108
   0.74944200  0.25071300  0.09573080
   0.74962130  0.25163018  0.37744247
   0.91408115  0.08148095  0.28346441
   0.08260800  0.41708000  0.19225321
   0.16929879  0.33448882  0.28330643
   0.91444384  0.33602227  0.28432248
   0.41810753  0.58431749  0.28354627
   0.58190700  0.91526900  0.19241277
   0.41335147  0.83423043  0.28448617
   0.83399900  0.91457100  0.19240403
 
 position of ions in cartesian coordinates  (Angst):
  -5.03208300  8.74992291  2.05921485
   5.06588775  8.72522760  7.94192014
   0.00574341  8.72606903  2.04466968
   0.06806676  8.72762755  7.96038779
   2.47664659  8.72592017  2.00820456
   2.49542369  8.67945958  7.93317138
   1.23890724  2.21748196  2.05881228
   1.25720037  2.20921419  7.92145908
   0.08074137  1.41419140  4.05320089
   2.49329539  1.45450830  4.14828650
   1.26197922  0.74928051  6.04063981
   5.06166458  1.44929793  4.13497967
   3.82231793  0.78149220  6.03387029
   7.51557011  1.45811616  4.11000693
   6.30479422  0.73908212  6.08066152
  -2.55062328  4.47399356  2.00996308
  -2.51795856  4.47630268  7.96193158
   0.03013771  4.42905300  2.07021194
   0.01147621  4.40648020  7.92764732
   2.50846789  4.40516410  2.07434826
   2.53396233  4.42025238  7.94678693
   1.32139286  3.64145486  4.02772052
   5.08381916  4.44889620  2.04815589
   5.04034355  4.41208992  7.93126939
   3.79377235  3.69799834  4.13070086
   2.58211937  2.85345551  6.06178217
   6.25293088  3.64955501  4.08304663
   4.99845896  2.94181822  6.04215717
   6.25193994  6.54167075  2.03547450
  -3.78416315  6.55843375  7.97036052
  -1.23132858  6.52950737  2.06361743
  -1.30062800  6.51349470  7.94565746
  -2.52172424  5.87475183  4.08745537
   1.28426296  6.55943855  2.07408817
   1.31335054  6.57051131  7.94623298
  -0.00625910  5.79144717  4.04458140
  -1.32241417  5.16330452  6.08889692
   3.77628428  6.55570810  1.99999997
   3.76732116  6.55410554  7.93210863
   2.52386790  5.78800570  4.07310223
   5.06733720  5.79704285  4.10517094
   3.81262143  5.14290691  6.07235865
   6.32498764  5.16442321  6.07917015
  -3.76295716  8.02445517  4.11956130
  -1.33707095  8.05043698  4.10307195
  -2.56533342  7.26088568  6.08184487
   2.55344104  7.27415261  6.09859739
   5.10646251  7.26431104  6.09865810
  -2.52690139  8.74056175  2.03303482
  -2.52696155  8.74908904  8.04032817
  -1.24953457  2.18697282  2.05403818
  -1.23713094  2.20575536  8.01791366
   3.77687076  2.20347964  2.02823584
   3.78790357  2.20614085  8.06680458
   6.31052166  2.19547580  2.03585219
   6.30769763  2.20350745  8.02685320
   8.83089779  0.71352282  6.02827545
  -1.27337779  3.65233972  4.08853911
   0.02077310  2.92909469  6.02491581
   7.54765131  2.94252298  6.04652354
   1.27354753  5.11682643  6.03001644
   1.25659754  8.01494515  4.09193238
  -0.03805758  7.30529617  6.05000480
   3.80918753  8.00883281  4.09174651
 


--------------------------------------------------------------------------------------------------------


 k-point  1 :   0.0000 0.0000 0.0000  plane waves:   50761
 k-point  2 :   0.3333 0.0000 0.0000  plane waves:   50732
 k-point  3 :   0.0000 0.3333 0.0000  plane waves:   50732
 k-point  4 :   0.3333 0.3333 0.0000  plane waves:   50727
 k-point  5 :  -0.3333 0.3333 0.0000  plane waves:   50732

 maximum and minimum number of plane-waves per node :      2133     2094

 maximum number of plane-waves:     50761
 maximum index in each direction: 
   IXMAX=   19   IYMAX=   18   IZMAX=   39
   IXMIN=  -19   IYMIN=  -19   IZMIN=  -39


 real space projection operators:
  total allocation   :      68870.53 KBytes
  max/ min on nodes  :       3441.80       2574.98


 parallel 3D FFT for wavefunctions:
    minimum data exchange during FFTs selected (reduces bandwidth)
 parallel 3D FFT for charge:
    minimum data exchange during FFTs selected (reduces bandwidth)


 total amount of memory used by VASP MPI-rank0   113617. kBytes
=======================================================================

   base      :      30000. kBytes
   nonlr-proj:      13208. kBytes
   fftplans  :       6403. kBytes
   grid      :      16455. kBytes
   one-center:         93. kBytes
   wavefun   :      47458. kBytes
 
     INWAV:  cpu time    0.0000: real time    0.0001
 Broyden mixing: mesh for mixing (old mesh)
   NGX = 37   NGY = 37   NGZ = 79
  (NGX  =160   NGY  =160   NGZ  =320)
  gives a total of 108151 points

 initial charge density was supplied:
 number of electron     544.0000034 magnetization     160.0000000
 keeping initial charge density in first step


--------------------------------------------------------------------------------------------------------


 Maximum index for non-local projection operator          767
 Maximum index for augmentation-charges         1141 (set IRDMAX)


--------------------------------------------------------------------------------------------------------


 First call to EWALD:  gamma=   0.144
 Maximum number of real-space cells 4x 4x 2
 Maximum number of reciprocal cells 2x 2x 4

    FEWALD:  cpu time    0.0040: real time    0.0032


--------------------------------------- Iteration      1(   1)  ---------------------------------------


    POTLOK:  cpu time    0.2410: real time    0.2502
    SETDIJ:  cpu time    0.0190: real time    0.0196
     EDDAV:  cpu time   25.1292: real time   25.4301
       DOS:  cpu time    0.0060: real time    0.0056
    --------------------------------------------
      LOOP:  cpu time   25.3951: real time   25.7056

 eigenvalue-minimisations  :  8160
 total energy-change (2. order) : 0.4349903E+04  (-0.2318294E+05)
 number of electron     544.0000034 magnetization     160.0000000
 augmentation part      544.0000034 magnetization     160.0000000

 DIPCOR: dipole corrections for dipol
 direction  3 min pos   246,
 dipolmoment           0.000000      0.000000     -0.028452 electrons x Angstroem
 Tr[quadrupol]     -9551.388609

 energy correction for charged system         0.000000 eV
 dipol+quadrupol energy correction           -0.000039 eV
 added-field ion interaction         -0.892789 eV  (added to PSCEN)


 Free energy of the ion-electron system (eV)
  ---------------------------------------------------
  alpha Z        PSCENC =      1432.81161717
  Ewald energy   TEWEN  =    176126.44498144
  -Hartree energ DENC   =   -221483.83427909
  -exchange      EXHF   =         0.00000000
  -V(xc)+E(xc)   XCENC  =       688.02734414
  PAW double counting   =     50530.77938297   -52024.31739236
  entropy T*S    EENTRO =        -0.00211242
  eigenvalues    EBANDS =      3310.24969289
  atomic energy  EATOM  =     45769.74338420
  Solvation  Ediel_sol  =         0.00000000
  ---------------------------------------------------
  free energy    TOTEN  =      4349.90261893 eV

  energy without entropy =     4349.90473136  energy(sigma->0) =     4349.90332307


--------------------------------------------------------------------------------------------------------




--------------------------------------- Iteration      1(   2)  ---------------------------------------


     EDDAV:  cpu time   24.7052: real time   25.4015
       DOS:  cpu time    0.0070: real time    0.0068
    --------------------------------------------
      LOOP:  cpu time   24.7122: real time   25.4083

 eigenvalue-minimisations  :  8160
 total energy-change (2. order) :-0.4404654E+04  (-0.4095681E+04)
 number of electron     544.0000034 magnetization     160.0000000
 augmentation part      544.0000034 magnetization     160.0000000

 DIPCOR: dipole corrections for dipol
 direction  3 min pos   246,
 dipolmoment           0.000000      0.000000     -0.028452 electrons x Angstroem
 Tr[quadrupol]     -9551.388609

 energy correction for charged system         0.000000 eV
 dipol+quadrupol energy correction           -0.000039 eV
 added-field ion interaction         -0.892789 eV  (added to PSCEN)


 Free energy of the ion-electron system (eV)
  ---------------------------------------------------
  alpha Z        PSCENC =      1432.81161717
  Ewald energy   TEWEN  =    176126.44498144
  -Hartree energ DENC   =   -221483.83427909
  -exchange      EXHF   =         0.00000000
  -V(xc)+E(xc)   XCENC  =       688.02734414
  PAW double counting   =     50530.77938297   -52024.31739236
  entropy T*S    EENTRO =         0.01164435
  eigenvalues    EBANDS =     -1094.41824814
  atomic energy  EATOM  =     45769.74338420
  Solvation  Ediel_sol  =         0.00000000
  ---------------------------------------------------
  free energy    TOTEN  =       -54.75156532 eV

  energy without entropy =      -54.76320968  energy(sigma->0) =      -54.75544677


--------------------------------------------------------------------------------------------------------




--------------------------------------- Iteration      1(   3)  ---------------------------------------


     EDDAV:  cpu time   25.9231: real time   26.3924
       DOS:  cpu time    0.0080: real time    0.0076
    --------------------------------------------
      LOOP:  cpu time   25.9311: real time   26.3999

 eigenvalue-minimisations  :  8529
 total energy-change (2. order) :-0.3721416E+03  (-0.3143409E+03)
 number of electron     544.0000034 magnetization     160.0000000
 augmentation part      544.0000034 magnetization     160.0000000

 DIPCOR: dipole corrections for dipol
 direction  3 min pos   246,
 dipolmoment           0.000000      0.000000     -0.028452 electrons x Angstroem
 Tr[quadrupol]     -9551.388609

 energy correction for charged system         0.000000 eV
 dipol+quadrupol energy correction           -0.000039 eV
 added-field ion interaction         -0.892789 eV  (added to PSCEN)


 Free energy of the ion-electron system (eV)
  ---------------------------------------------------
  alpha Z        PSCENC =      1432.81161717
  Ewald energy   TEWEN  =    176126.44498144
  -Hartree energ DENC   =   -221483.83427909
  -exchange      EXHF   =         0.00000000
  -V(xc)+E(xc)   XCENC  =       688.02734414
  PAW double counting   =     50530.77938297   -52024.31739236
  entropy T*S    EENTRO =         0.03261227
  eigenvalues    EBANDS =     -1466.58077975
  atomic energy  EATOM  =     45769.74338420
  Solvation  Ediel_sol  =         0.00000000
  ---------------------------------------------------
  free energy    TOTEN  =      -426.89312902 eV

  energy without entropy =     -426.92574129  energy(sigma->0) =     -426.90399978


--------------------------------------------------------------------------------------------------------




--------------------------------------- Iteration      1(   4)  ---------------------------------------


     EDDAV:  cpu time   26.4260: real time   26.5918
       DOS:  cpu time    0.0080: real time    0.0079
    --------------------------------------------
      LOOP:  cpu time   26.4340: real time   26.5996

 eigenvalue-minimisations  :  8643
 total energy-change (2. order) :-0.1498246E+02  (-0.1465184E+02)
 number of electron     544.0000034 magnetization     160.0000000
 augmentation part      544.0000034 magnetization     160.0000000

 DIPCOR: dipole corrections for dipol
 direction  3 min pos   246,
 dipolmoment           0.000000      0.000000     -0.028452 electrons x Angstroem
 Tr[quadrupol]     -9551.388609

 energy correction for charged system         0.000000 eV
 dipol+quadrupol energy correction           -0.000039 eV
 added-field ion interaction         -0.892789 eV  (added to PSCEN)


 Free energy of the ion-electron system (eV)
  ---------------------------------------------------
  alpha Z        PSCENC =      1432.81161717
  Ewald energy   TEWEN  =    176126.44498144
  -Hartree energ DENC   =   -221483.83427909
  -exchange      EXHF   =         0.00000000
  -V(xc)+E(xc)   XCENC  =       688.02734414
  PAW double counting   =     50530.77938297   -52024.31739236
  entropy T*S    EENTRO =         0.03654258
  eigenvalues    EBANDS =     -1481.56716903
  atomic energy  EATOM  =     45769.74338420
  Solvation  Ediel_sol  =         0.00000000
  ---------------------------------------------------
  free energy    TOTEN  =      -441.87558798 eV

  energy without entropy =     -441.91213056  energy(sigma->0) =     -441.88776884


--------------------------------------------------------------------------------------------------------




--------------------------------------- Iteration      1(   5)  ---------------------------------------


     EDDAV:  cpu time   27.5378: real time   27.7292
       DOS:  cpu time    0.0080: real time    0.0080
    CHARGE:  cpu time    1.0408: real time    1.0448
    MIXING:  cpu time    0.0060: real time    0.0049
    --------------------------------------------
      LOOP:  cpu time   28.5927: real time   28.7870

 eigenvalue-minimisations  :  9165
 total energy-change (2. order) :-0.2479252E+00  (-0.2477080E+00)
 number of electron     544.0000034 magnetization     156.9053161
 augmentation part      303.9376753 magnetization     121.1697288

 DIPCOR: dipole corrections for dipol
 direction  3 min pos   246,
 dipolmoment           0.000000      0.000000     -0.028452 electrons x Angstroem
 Tr[quadrupol]     -9551.388609

 energy correction for charged system         0.000000 eV
 dipol+quadrupol energy correction           -0.000039 eV
 added-field ion interaction         -0.892789 eV  (added to PSCEN)


 Broyden mixing:
  rms(total) = 0.47753E+01    rms(broyden)= 0.47752E+01
  rms(prec ) = 0.48539E+01
  weight for this iteration     100.00

 Free energy of the ion-electron system (eV)
  ---------------------------------------------------
  alpha Z        PSCENC =      1432.81161717
  Ewald energy   TEWEN  =    176126.44498144
  -Hartree energ DENC   =   -221483.83427909
  -exchange      EXHF   =         0.00000000
  -V(xc)+E(xc)   XCENC  =       688.02734414
  PAW double counting   =     50530.77938297   -52024.31739236
  entropy T*S    EENTRO =         0.03667332
  eigenvalues    EBANDS =     -1481.81522501
  atomic energy  EATOM  =     45769.74338420
  Solvation  Ediel_sol  =         0.00000000
  ---------------------------------------------------
  free energy    TOTEN  =      -442.12351323 eV

  energy without entropy =     -442.16018655  energy(sigma->0) =     -442.13573767


--------------------------------------------------------------------------------------------------------




--------------------------------------- Iteration      1(   6)  ---------------------------------------


    POTLOK:  cpu time    0.2500: real time    0.2516
    SETDIJ:  cpu time    0.0190: real time    0.0183
    EDDIAG:  cpu time    3.7694: real time    3.7918
  RMM-DIIS:  cpu time   15.2987: real time   15.4355
    ORTHCH:  cpu time    0.6559: real time    0.6635
       DOS:  cpu time    0.0070: real time    0.0073
    CHARGE:  cpu time    1.0948: real time    1.0993
    MIXING:  cpu time    0.0050: real time    0.0052
    --------------------------------------------
      LOOP:  cpu time   21.0998: real time   21.2725

 eigenvalue-minimisations  :  8202
 total energy-change (2. order) :-0.7067384E+02  (-0.3954280E+01)
 number of electron     544.0000049 magnetization     155.6518832
 augmentation part      294.5234160 magnetization     130.2885841

 DIPCOR: dipole corrections for dipol
 direction  3 min pos   234,
 dipolmoment           0.000000      0.000000      1.067859 electrons x Angstroem
 Tr[quadrupol]     -9556.367317

 energy correction for charged system         0.000000 eV
 dipol+quadrupol energy correction           -0.054792 eV
 added-field ion interaction        -11.011929 eV  (added to PSCEN)


 Broyden mixing:
  rms(total) = 0.12057E+02    rms(broyden)= 0.12057E+02
  rms(prec ) = 0.15162E+02
  weight for this iteration     100.00

 eigenvalues of (default mixing * dielectric matrix)
  average eigenvalue GAMMA=   0.3066
  0.3066

 Free energy of the ion-electron system (eV)
  ---------------------------------------------------
  alpha Z        PSCENC =      1422.63772437
  Ewald energy   TEWEN  =    176126.44498144
  -Hartree energ DENC   =   -221806.12062082
  -exchange      EXHF   =         0.00000000
  -V(xc)+E(xc)   XCENC  =       713.60798046
  PAW double counting   =     51445.62815738   -52985.85934170
  entropy T*S    EENTRO =         0.01477238
  eigenvalues    EBANDS =     -1198.89439221
  atomic energy  EATOM  =     45769.74338420
  Solvation  Ediel_sol  =         0.00000000
  ---------------------------------------------------
  free energy    TOTEN  =      -512.79735449 eV

  energy without entropy =     -512.81212687  energy(sigma->0) =     -512.80227862


--------------------------------------------------------------------------------------------------------




--------------------------------------- Iteration      1(   7)  ---------------------------------------


    POTLOK:  cpu time    0.2430: real time    0.2464
    SETDIJ:  cpu time    0.0190: real time    0.0184
    EDDIAG:  cpu time    3.8114: real time    3.8396
  RMM-DIIS:  cpu time   15.0617: real time   15.2303
    ORTHCH:  cpu time    0.6749: real time    0.6819
       DOS:  cpu time    0.0070: real time    0.0076
    CHARGE:  cpu time    1.0378: real time    1.0473
    MIXING:  cpu time    0.0060: real time    0.0047
    --------------------------------------------
      LOOP:  cpu time   20.8608: real time   21.0762

 eigenvalue-minimisations  :  8188
 total energy-change (2. order) :-0.1015987E+03  (-0.7224070E+01)
 number of electron     544.0000005 magnetization     154.3133047
 augmentation part      297.0541056 magnetization     131.7325839

 DIPCOR: dipole corrections for dipol
 direction  3 min pos   234,
 dipolmoment           0.000000      0.000000     -2.276537 electrons x Angstroem
 Tr[quadrupol]     -9551.918539

 energy correction for charged system         0.000000 eV
 dipol+quadrupol energy correction           -0.249021 eV
 added-field ion interaction         23.476011 eV  (added to PSCEN)


 Broyden mixing:
  rms(total) = 0.18060E+02    rms(broyden)= 0.18060E+02
  rms(prec ) = 0.26047E+02
  weight for this iteration     100.00

 eigenvalues of (default mixing * dielectric matrix)
  average eigenvalue GAMMA=   0.1930
  0.3273  0.0587

 Free energy of the ion-electron system (eV)
  ---------------------------------------------------
  alpha Z        PSCENC =      1456.93143452
  Ewald energy   TEWEN  =    176126.44498144
  -Hartree energ DENC   =   -221604.12552123
  -exchange      EXHF   =         0.00000000
  -V(xc)+E(xc)   XCENC  =       708.46230100
  PAW double counting   =     51506.17067712   -53044.50575461
  entropy T*S    EENTRO =        -0.01014882
  eigenvalues    EBANDS =     -1533.50741855
  atomic energy  EATOM  =     45769.74338420
  Solvation  Ediel_sol  =         0.00000000
  ---------------------------------------------------
  free energy    TOTEN  =      -614.39606493 eV

  energy without entropy =     -614.38591611  energy(sigma->0) =     -614.39268199


--------------------------------------------------------------------------------------------------------




--------------------------------------- Iteration      1(   8)  ---------------------------------------


    POTLOK:  cpu time    0.2480: real time    0.2529
    SETDIJ:  cpu time    0.0190: real time    0.0181
    EDDIAG:  cpu time    3.7714: real time    3.8063
  RMM-DIIS:  cpu time   15.1967: real time   15.4304
    ORTHCH:  cpu time    0.6539: real time    0.6615
       DOS:  cpu time    0.0080: real time    0.0073
    CHARGE:  cpu time    1.0568: real time    1.0662
    MIXING:  cpu time    0.0050: real time    0.0051
    --------------------------------------------
      LOOP:  cpu time   20.9588: real time   21.2478

 eigenvalue-minimisations  :  8194
 total energy-change (2. order) : 0.1515045E+03  (-0.2867967E+01)
 number of electron     544.0000033 magnetization     153.2113950
 augmentation part      297.9676104 magnetization     119.1840104

 DIPCOR: dipole corrections for dipol
 direction  3 min pos   232,
 dipolmoment           0.000000      0.000000      0.470517 electrons x Angstroem
 Tr[quadrupol]     -9551.201619

 energy correction for charged system         0.000000 eV
 dipol+quadrupol energy correction           -0.010637 eV
 added-field ion interaction         -8.121428 eV  (added to PSCEN)


 Broyden mixing:
  rms(total) = 0.77475E+01    rms(broyden)= 0.77472E+01
  rms(prec ) = 0.96250E+01
  weight for this iteration     100.00

 eigenvalues of (default mixing * dielectric matrix)
  average eigenvalue GAMMA=   0.1980
  0.3859  0.1535  0.0547

 Free energy of the ion-electron system (eV)
  ---------------------------------------------------
  alpha Z        PSCENC =      1425.57237964
  Ewald energy   TEWEN  =    176126.44498144
  -Hartree energ DENC   =   -221591.91600171
  -exchange      EXHF   =         0.00000000
  -V(xc)+E(xc)   XCENC  =       704.88825914
  PAW double counting   =     51594.01808228   -53129.58786316
  entropy T*S    EENTRO =        -0.05048605
  eigenvalues    EBANDS =     -1362.00434692
  atomic energy  EATOM  =     45769.74338420
  Solvation  Ediel_sol  =         0.00000000
  ---------------------------------------------------
  free energy    TOTEN  =      -462.89161115 eV

  energy without entropy =     -462.84112510  energy(sigma->0) =     -462.87478247


--------------------------------------------------------------------------------------------------------




--------------------------------------- Iteration      1(   9)  ---------------------------------------


    POTLOK:  cpu time    0.2420: real time    0.2467
    SETDIJ:  cpu time    0.0180: real time    0.0180
    EDDIAG:  cpu time    3.8094: real time    3.8336
  RMM-DIIS:  cpu time   15.3287: real time   15.4591
    ORTHCH:  cpu time    0.6539: real time    0.6558
       DOS:  cpu time    0.0080: real time    0.0074
    CHARGE:  cpu time    1.0408: real time    1.0422
    MIXING:  cpu time    0.0050: real time    0.0047
    --------------------------------------------
      LOOP:  cpu time   21.1058: real time   21.2676

 eigenvalue-minimisations  :  8216
 total energy-change (2. order) : 0.2337779E+02  (-0.2249633E+01)
 number of electron     544.0000033 magnetization     152.1287526
 augmentation part      298.8796823 magnetization     114.7216494

 DIPCOR: dipole corrections for dipol
 direction  3 min pos   237,
 dipolmoment           0.000000      0.000000     -0.499579 electrons x Angstroem
 Tr[quadrupol]     -9553.377445

 energy correction for charged system         0.000000 eV
 dipol+quadrupol energy correction           -0.011992 eV
 added-field ion interaction         -0.055242 eV  (added to PSCEN)


 Broyden mixing:
  rms(total) = 0.47936E+01    rms(broyden)= 0.47934E+01
  rms(prec ) = 0.61908E+01
  weight for this iteration     100.00

 eigenvalues of (default mixing * dielectric matrix)
  average eigenvalue GAMMA=   0.2193
  0.4785  0.2275  0.1226  0.0485

 Free energy of the ion-electron system (eV)
  ---------------------------------------------------
  alpha Z        PSCENC =      1433.63721082
  Ewald energy   TEWEN  =    176126.44498144
  -Hartree energ DENC   =   -221643.25181126
  -exchange      EXHF   =         0.00000000
  -V(xc)+E(xc)   XCENC  =       703.84834708
  PAW double counting   =     51690.78042689   -53224.31148274
  entropy T*S    EENTRO =        -0.01680409
  eigenvalues    EBANDS =     -1296.38807802
  atomic energy  EATOM  =     45769.74338420
  Solvation  Ediel_sol  =         0.00000000
  ---------------------------------------------------
  free energy    TOTEN  =      -439.51382568 eV

  energy without entropy =     -439.49702159  energy(sigma->0) =     -439.50822432


--------------------------------------------------------------------------------------------------------




--------------------------------------- Iteration      1(  10)  ---------------------------------------


    POTLOK:  cpu time    0.2430: real time    0.2443
    SETDIJ:  cpu time    0.0180: real time    0.0181
    EDDIAG:  cpu time    3.6684: real time    3.6806
  RMM-DIIS:  cpu time   15.0327: real time   15.0541
    ORTHCH:  cpu time    0.6289: real time    0.6293
       DOS:  cpu time    0.0070: real time    0.0074
    CHARGE:  cpu time    1.0378: real time    1.0371
    MIXING:  cpu time    0.0050: real time    0.0048
    --------------------------------------------
      LOOP:  cpu time   20.6409: real time   20.6757

 eigenvalue-minimisations  :  8222
 total energy-change (2. order) :-0.2700734E+01  (-0.1756157E+01)
 number of electron     544.0000035 magnetization     150.8853277
 augmentation part      296.5432313 magnetization     118.3202267

 DIPCOR: dipole corrections for dipol
 direction  3 min pos   234,
 dipolmoment           0.000000      0.000000     -0.045351 electrons x Angstroem
 Tr[quadrupol]     -9552.480477

 energy correction for charged system         0.000000 eV
 dipol+quadrupol energy correction           -0.000099 eV
 added-field ion interaction          0.467662 eV  (added to PSCEN)


 Broyden mixing:
  rms(total) = 0.76750E+01    rms(broyden)= 0.76749E+01
  rms(prec ) = 0.88078E+01
  weight for this iteration     100.00

 eigenvalues of (default mixing * dielectric matrix)
  average eigenvalue GAMMA=   0.2300
  0.5930  0.2359  0.1688  0.0491  0.1032

 Free energy of the ion-electron system (eV)
  ---------------------------------------------------
  alpha Z        PSCENC =      1434.17200799
  Ewald energy   TEWEN  =    176126.44498144
  -Hartree energ DENC   =   -221637.32154359
  -exchange      EXHF   =         0.00000000
  -V(xc)+E(xc)   XCENC  =       708.63266831
  PAW double counting   =     51849.82908459   -53390.51798827
  entropy T*S    EENTRO =         0.01229835
  eigenvalues    EBANDS =     -1303.20945313
  atomic energy  EATOM  =     45769.74338420
  Solvation  Ediel_sol  =         0.00000000
  ---------------------------------------------------
  free energy    TOTEN  =      -442.21456011 eV

  energy without entropy =     -442.22685846  energy(sigma->0) =     -442.21865956


--------------------------------------------------------------------------------------------------------




--------------------------------------- Iteration      1(  11)  ---------------------------------------


    POTLOK:  cpu time    0.2430: real time    0.2442
    SETDIJ:  cpu time    0.0190: real time    0.0189
    EDDIAG:  cpu time    3.7164: real time    3.7193
  RMM-DIIS:  cpu time   15.0717: real time   15.0945
    ORTHCH:  cpu time    0.6619: real time    0.6616
       DOS:  cpu time    0.0070: real time    0.0074
    CHARGE:  cpu time    1.0368: real time    1.0378
    MIXING:  cpu time    0.0060: real time    0.0050
    --------------------------------------------
      LOOP:  cpu time   20.7618: real time   20.7886

 eigenvalue-minimisations  :  8237
 total energy-change (2. order) : 0.7893076E+01  (-0.1868619E+01)
 number of electron     544.0000035 magnetization     149.7516723
 augmentation part      299.6507163 magnetization     113.5436019

 DIPCOR: dipole corrections for dipol
 direction  3 min pos   228,
 dipolmoment           0.000000      0.000000     -0.076882 electrons x Angstroem
 Tr[quadrupol]     -9553.918016

 energy correction for charged system         0.000000 eV
 dipol+quadrupol energy correction           -0.000284 eV
 added-field ion interaction          2.395459 eV  (added to PSCEN)


 Broyden mixing:
  rms(total) = 0.30312E+01    rms(broyden)= 0.30311E+01
  rms(prec ) = 0.35096E+01
  weight for this iteration     100.00

 eigenvalues of (default mixing * dielectric matrix)
  average eigenvalue GAMMA=   0.2640
  0.6526  0.3430  0.3430  0.0491  0.1130  0.0835

 Free energy of the ion-electron system (eV)
  ---------------------------------------------------
  alpha Z        PSCENC =      1436.09962026
  Ewald energy   TEWEN  =    176126.44498144
  -Hartree energ DENC   =   -221656.04440976
  -exchange      EXHF   =         0.00000000
  -V(xc)+E(xc)   XCENC  =       709.42421735
  PAW double counting   =     51935.83158624   -53470.32899954
  entropy T*S    EENTRO =         0.10758367
  eigenvalues    EBANDS =     -1285.59944836
  atomic energy  EATOM  =     45769.74338420
  Solvation  Ediel_sol  =         0.00000000
  ---------------------------------------------------
  free energy    TOTEN  =      -434.32148449 eV

  energy without entropy =     -434.42906816  energy(sigma->0) =     -434.35734571


--------------------------------------------------------------------------------------------------------




--------------------------------------- Iteration      1(  12)  ---------------------------------------


    POTLOK:  cpu time    0.2450: real time    0.2460
    SETDIJ:  cpu time    0.0180: real time    0.0178
    EDDIAG:  cpu time    3.7404: real time    3.7447
  RMM-DIIS:  cpu time   15.1627: real time   15.1938
    ORTHCH:  cpu time    0.6239: real time    0.6234
       DOS:  cpu time    0.0070: real time    0.0074
    CHARGE:  cpu time    1.0228: real time    1.0234
    MIXING:  cpu time    0.0060: real time    0.0051
    --------------------------------------------
      LOOP:  cpu time   20.8258: real time   20.8616

 eigenvalue-minimisations  :  8230
 total energy-change (2. order) :-0.1568461E+01  (-0.7891331E+00)
 number of electron     544.0000033 magnetization     147.4906399
 augmentation part      299.6583080 magnetization     112.0506830

 DIPCOR: dipole corrections for dipol
 direction  3 min pos   225,
 dipolmoment           0.000000      0.000000      0.041103 electrons x Angstroem
 Tr[quadrupol]     -9554.986655

 energy correction for charged system         0.000000 eV
 dipol+quadrupol energy correction           -0.000081 eV
 added-field ion interaction         -1.709087 eV  (added to PSCEN)


 Broyden mixing:
  rms(total) = 0.32249E+01    rms(broyden)= 0.32248E+01
  rms(prec ) = 0.36008E+01
  weight for this iteration     100.00

 eigenvalues of (default mixing * dielectric matrix)
  average eigenvalue GAMMA=   0.3044
  0.9146  0.4136  0.4136  0.0491  0.1392  0.1112  0.0895

 Free energy of the ion-electron system (eV)
  ---------------------------------------------------
  alpha Z        PSCENC =      1431.99527706
  Ewald energy   TEWEN  =    176126.44498144
  -Hartree energ DENC   =   -221693.64471238
  -exchange      EXHF   =         0.00000000
  -V(xc)+E(xc)   XCENC  =       710.16613398
  PAW double counting   =     52067.22701603   -53603.17574577
  entropy T*S    EENTRO =         0.07421581
  eigenvalues    EBANDS =     -1244.72049604
  atomic energy  EATOM  =     45769.74338420
  Solvation  Ediel_sol  =         0.00000000
  ---------------------------------------------------
  free energy    TOTEN  =      -435.88994568 eV

  energy without entropy =     -435.96416149  energy(sigma->0) =     -435.91468428


--------------------------------------------------------------------------------------------------------




--------------------------------------- Iteration      1(  13)  ---------------------------------------


    POTLOK:  cpu time    0.2440: real time    0.2455
    SETDIJ:  cpu time    0.0180: real time    0.0177
    EDDIAG:  cpu time    3.7264: real time    3.7301
  RMM-DIIS:  cpu time   15.0757: real time   15.0988
    ORTHCH:  cpu time    0.6759: real time    0.6762
       DOS:  cpu time    0.0070: real time    0.0075
    CHARGE:  cpu time    1.0108: real time    1.0102
    MIXING:  cpu time    0.0060: real time    0.0054
    --------------------------------------------
      LOOP:  cpu time   20.7638: real time   20.7915

 eigenvalue-minimisations  :  8229
 total energy-change (2. order) : 0.1112659E+01  (-0.5193853E+00)
 number of electron     544.0000036 magnetization     146.4888898
 augmentation part      299.1495782 magnetization     112.4253290

 DIPCOR: dipole corrections for dipol
 direction  3 min pos   224,
 dipolmoment           0.000000      0.000000      0.106446 electrons x Angstroem
 Tr[quadrupol]     -9555.323176

 energy correction for charged system         0.000000 eV
 dipol+quadrupol energy correction           -0.000544 eV
 added-field ion interaction         -4.795893 eV  (added to PSCEN)


 Broyden mixing:
  rms(total) = 0.22748E+01    rms(broyden)= 0.22747E+01
  rms(prec ) = 0.26770E+01
  weight for this iteration     100.00

 eigenvalues of (default mixing * dielectric matrix)
  average eigenvalue GAMMA=   0.3218
  0.9862  0.4653  0.4653  0.2871  0.0491  0.1238  0.1090  0.0889

 Free energy of the ion-electron system (eV)
  ---------------------------------------------------
  alpha Z        PSCENC =      1428.90800749
  Ewald energy   TEWEN  =    176126.44498144
  -Hartree energ DENC   =   -221720.66840623
  -exchange      EXHF   =         0.00000000
  -V(xc)+E(xc)   XCENC  =       712.46823706
  PAW double counting   =     52315.97411750   -53855.41680316
  entropy T*S    EENTRO =         0.00714898
  eigenvalues    EBANDS =     -1212.23795429
  atomic energy  EATOM  =     45769.74338420
  Solvation  Ediel_sol  =         0.00000000
  ---------------------------------------------------
  free energy    TOTEN  =      -434.77728701 eV

  energy without entropy =     -434.78443599  energy(sigma->0) =     -434.77967001


--------------------------------------------------------------------------------------------------------




--------------------------------------- Iteration      1(  14)  ---------------------------------------


    POTLOK:  cpu time    0.2450: real time    0.2456
    SETDIJ:  cpu time    0.0180: real time    0.0177
    EDDIAG:  cpu time    3.8244: real time    3.8272
  RMM-DIIS:  cpu time   15.0507: real time   15.0785
    ORTHCH:  cpu time    0.6229: real time    0.6244
       DOS:  cpu time    0.0080: real time    0.0076
    CHARGE:  cpu time    1.0098: real time    1.0103
    MIXING:  cpu time    0.0060: real time    0.0054
    --------------------------------------------
      LOOP:  cpu time   20.7848: real time   20.8168

 eigenvalue-minimisations  :  8227
 total energy-change (2. order) :-0.2988831E+00  (-0.3022608E+00)
 number of electron     544.0000035 magnetization     144.6791660
 augmentation part      298.6060767 magnetization     110.9784825

 DIPCOR: dipole corrections for dipol
 direction  3 min pos   223,
 dipolmoment           0.000000      0.000000      0.111221 electrons x Angstroem
 Tr[quadrupol]     -9555.925950

 energy correction for charged system         0.000000 eV
 dipol+quadrupol energy correction           -0.000594 eV
 added-field ion interaction         -5.397423 eV  (added to PSCEN)


 Broyden mixing:
  rms(total) = 0.20685E+01    rms(broyden)= 0.20684E+01
  rms(prec ) = 0.23593E+01
  weight for this iteration     100.00

 eigenvalues of (default mixing * dielectric matrix)
  average eigenvalue GAMMA=   0.3697
  1.2203  0.6346  0.6346  0.3331  0.0491  0.0887  0.1371  0.1207  0.1097

 Free energy of the ion-electron system (eV)
  ---------------------------------------------------
  alpha Z        PSCENC =      1428.30642762
  Ewald energy   TEWEN  =    176126.44498144
  -Hartree energ DENC   =   -221750.42245179
  -exchange      EXHF   =         0.00000000
  -V(xc)+E(xc)   XCENC  =       712.43386144
  PAW double counting   =     52411.08720004   -53953.20669981
  entropy T*S    EENTRO =         0.07870376
  eigenvalues    EBANDS =     -1179.54157701
  atomic energy  EATOM  =     45769.74338420
  Solvation  Ediel_sol  =         0.00000000
  ---------------------------------------------------
  free energy    TOTEN  =      -435.07617009 eV

  energy without entropy =     -435.15487386  energy(sigma->0) =     -435.10240468


--------------------------------------------------------------------------------------------------------




--------------------------------------- Iteration      1(  15)  ---------------------------------------


    POTLOK:  cpu time    0.2770: real time    0.2773
    SETDIJ:  cpu time    0.0180: real time    0.0175
    EDDIAG:  cpu time    3.7174: real time    3.7219
  RMM-DIIS:  cpu time   15.0597: real time   15.0822
    ORTHCH:  cpu time    0.6249: real time    0.6250
       DOS:  cpu time    0.0070: real time    0.0077
    CHARGE:  cpu time    1.0388: real time    1.0383
    MIXING:  cpu time    0.0050: real time    0.0056
    --------------------------------------------
      LOOP:  cpu time   20.7478: real time   20.7756

 eigenvalue-minimisations  :  8228
 total energy-change (2. order) :-0.6515421E+00  (-0.2231492E+00)
 number of electron     544.0000037 magnetization     143.8205634
 augmentation part      299.0278955 magnetization     110.9722950

 DIPCOR: dipole corrections for dipol
 direction  3 min pos   223,
 dipolmoment           0.000000      0.000000      0.017479 electrons x Angstroem
 Tr[quadrupol]     -9556.255738

 energy correction for charged system         0.000000 eV
 dipol+quadrupol energy correction           -0.000015 eV
 added-field ion interaction         -0.848229 eV  (added to PSCEN)


 Broyden mixing:
  rms(total) = 0.17071E+01    rms(broyden)= 0.17070E+01
  rms(prec ) = 0.19307E+01
  weight for this iteration     100.00

 eigenvalues of (default mixing * dielectric matrix)
  average eigenvalue GAMMA=   0.3765
  1.3887  0.6712  0.6712  0.2985  0.2339  0.0491  0.1452  0.0890  0.1089  0.1089

 Free energy of the ion-electron system (eV)
  ---------------------------------------------------
  alpha Z        PSCENC =      1432.85620122
  Ewald energy   TEWEN  =    176126.44498144
  -Hartree energ DENC   =   -221755.56970600
  -exchange      EXHF   =         0.00000000
  -V(xc)+E(xc)   XCENC  =       712.15323990
  PAW double counting   =     52537.06598858   -54078.11660003
  entropy T*S    EENTRO =         0.04861121
  eigenvalues    EBANDS =     -1180.35381271
  atomic energy  EATOM  =     45769.74338420
  Solvation  Ediel_sol  =         0.00000000
  ---------------------------------------------------
  free energy    TOTEN  =      -435.72771219 eV

  energy without entropy =     -435.77632340  energy(sigma->0) =     -435.74391592


--------------------------------------------------------------------------------------------------------




--------------------------------------- Iteration      1(  16)  ---------------------------------------


    POTLOK:  cpu time    0.2450: real time    0.2456
    SETDIJ:  cpu time    0.0200: real time    0.0198
    EDDIAG:  cpu time    3.6464: real time    3.6496
  RMM-DIIS:  cpu time   15.0137: real time   15.0393
    ORTHCH:  cpu time    0.6319: real time    0.6326
       DOS:  cpu time    0.0080: real time    0.0077
    CHARGE:  cpu time    1.0158: real time    1.0163
    MIXING:  cpu time    0.0060: real time    0.0059
    --------------------------------------------
      LOOP:  cpu time   20.5869: real time   20.6166

 eigenvalue-minimisations  :  8226
 total energy-change (2. order) :-0.3528290E+00  (-0.1568073E+00)
 number of electron     544.0000034 magnetization     142.8572362
 augmentation part      298.8891665 magnetization     110.0779620

 DIPCOR: dipole corrections for dipol
 direction  3 min pos   223,
 dipolmoment           0.000000      0.000000     -0.024461 electrons x Angstroem
 Tr[quadrupol]     -9556.678893

 energy correction for charged system         0.000000 eV
 dipol+quadrupol energy correction           -0.000029 eV
 added-field ion interaction          1.187087 eV  (added to PSCEN)


 Broyden mixing:
  rms(total) = 0.11000E+01    rms(broyden)= 0.10999E+01
  rms(prec ) = 0.11989E+01
  weight for this iteration     100.00

 eigenvalues of (default mixing * dielectric matrix)
  average eigenvalue GAMMA=   0.3973
  1.4619  0.7709  0.7709  0.3698  0.3698  0.0491  0.1442  0.1327  0.0887  0.1060
  0.1060

 Free energy of the ion-electron system (eV)
  ---------------------------------------------------
  alpha Z        PSCENC =      1434.89150279
  Ewald energy   TEWEN  =    176126.44498144
  -Hartree energ DENC   =   -221771.80637050
  -exchange      EXHF   =         0.00000000
  -V(xc)+E(xc)   XCENC  =       711.74173486
  PAW double counting   =     52595.89522991   -54137.58044527
  entropy T*S    EENTRO =         0.11249692
  eigenvalues    EBANDS =     -1165.52305558
  atomic energy  EATOM  =     45769.74338420
  Solvation  Ediel_sol  =         0.00000000
  ---------------------------------------------------
  free energy    TOTEN  =      -436.08054122 eV

  energy without entropy =     -436.19303814  energy(sigma->0) =     -436.11804020


--------------------------------------------------------------------------------------------------------




--------------------------------------- Iteration      1(  17)  ---------------------------------------


    POTLOK:  cpu time    0.2530: real time    0.2538
    SETDIJ:  cpu time    0.0410: real time    0.0405
    EDDIAG:  cpu time    3.7414: real time    3.7497
  RMM-DIIS:  cpu time   15.2957: real time   15.3227
    ORTHCH:  cpu time    0.6719: real time    0.6736
       DOS:  cpu time    0.0090: real time    0.0077
    CHARGE:  cpu time    1.0708: real time    1.0740
    MIXING:  cpu time    0.0140: real time    0.0133
    --------------------------------------------
      LOOP:  cpu time   21.0968: real time   21.1354

 eigenvalue-minimisations  :  8209
 total energy-change (2. order) :-0.2875126E+01  (-0.1333200E+00)
 number of electron     544.0000034 magnetization     142.0069029
 augmentation part      298.7201965 magnetization     110.1664023

 DIPCOR: dipole corrections for dipol
 direction  3 min pos   223,
 dipolmoment           0.000000      0.000000     -0.036809 electrons x Angstroem
 Tr[quadrupol]     -9556.781774

 energy correction for charged system         0.000000 eV
 dipol+quadrupol energy correction           -0.000065 eV
 added-field ion interaction          1.786278 eV  (added to PSCEN)


 Broyden mixing:
  rms(total) = 0.12789E+01    rms(broyden)= 0.12789E+01
  rms(prec ) = 0.14210E+01
  weight for this iteration     100.00

 eigenvalues of (default mixing * dielectric matrix)
  average eigenvalue GAMMA=   0.4053
  1.5437  0.8485  0.8485  0.3978  0.3978  0.0491  0.1906  0.1537  0.1308  0.0888
  0.1073  0.1073

 Free energy of the ion-electron system (eV)
  ---------------------------------------------------
  alpha Z        PSCENC =      1435.49065737
  Ewald energy   TEWEN  =    176126.44498144
  -Hartree energ DENC   =   -221778.11201055
  -exchange      EXHF   =         0.00000000
  -V(xc)+E(xc)   XCENC  =       711.15444950
  PAW double counting   =     52649.57953959   -54190.89800228
  entropy T*S    EENTRO =         0.08326470
  eigenvalues    EBANDS =     -1162.44193167
  atomic energy  EATOM  =     45769.74338420
  Solvation  Ediel_sol  =         0.00000000
  ---------------------------------------------------
  free energy    TOTEN  =      -438.95566769 eV

  energy without entropy =     -439.03893239  energy(sigma->0) =     -438.98342259


--------------------------------------------------------------------------------------------------------




--------------------------------------- Iteration      1(  18)  ---------------------------------------


    POTLOK:  cpu time    0.3180: real time    0.3189
    SETDIJ:  cpu time    0.0250: real time    0.0242
    EDDIAG:  cpu time    4.1604: real time    4.1691
  RMM-DIIS:  cpu time   15.3067: real time   15.4064
    ORTHCH:  cpu time    0.6469: real time    0.6498
       DOS:  cpu time    0.0070: real time    0.0072
    CHARGE:  cpu time    1.0088: real time    1.0119
    MIXING:  cpu time    0.0070: real time    0.0065
    --------------------------------------------
      LOOP:  cpu time   21.4797: real time   21.5940

 eigenvalue-minimisations  :  8207
 total energy-change (2. order) :-0.1600721E+01  (-0.1308740E+00)
 number of electron     544.0000034 magnetization     140.7826910
 augmentation part      298.7513830 magnetization     109.1495336

 DIPCOR: dipole corrections for dipol
 direction  3 min pos   223,
 dipolmoment           0.000000      0.000000     -0.055471 electrons x Angstroem
 Tr[quadrupol]     -9557.091996

 energy correction for charged system         0.000000 eV
 dipol+quadrupol energy correction           -0.000148 eV
 added-field ion interaction          2.691966 eV  (added to PSCEN)


 Broyden mixing:
  rms(total) = 0.83529E+00    rms(broyden)= 0.83525E+00
  rms(prec ) = 0.10107E+01
  weight for this iteration     100.00

 eigenvalues of (default mixing * dielectric matrix)
  average eigenvalue GAMMA=   0.4863
  2.0674  0.9883  0.8036  0.8036  0.5309  0.3619  0.0491  0.1594  0.1289  0.1289
  0.0888  0.1054  0.1054

 Free energy of the ion-electron system (eV)
  ---------------------------------------------------
  alpha Z        PSCENC =      1436.39626322
  Ewald energy   TEWEN  =    176126.44498144
  -Hartree energ DENC   =   -221789.48697471
  -exchange      EXHF   =         0.00000000
  -V(xc)+E(xc)   XCENC  =       710.73402810
  PAW double counting   =     52694.06004569   -54235.18807039
  entropy T*S    EENTRO =         0.13373389
  eigenvalues    EBANDS =     -1153.39377996
  atomic energy  EATOM  =     45769.74338420
  Solvation  Ediel_sol  =         0.00000000
  ---------------------------------------------------
  free energy    TOTEN  =      -440.55638853 eV

  energy without entropy =     -440.69012242  energy(sigma->0) =     -440.60096649


[...]
   -.511E+02 0.105E+02 0.740E+03   0.510E+02 -.107E+02 -.740E+03   -.740E+00 -.636E-02 0.735E+00   0.144E-01 0.113E-02 -.281E-01
   0.212E+02 -.159E+02 0.200E+04   -.214E+02 0.163E+02 -.200E+04   -.236E+00 -.111E+01 -.259E+01   -.341E-02 0.478E-02 -.153E-02
   0.125E+02 -.699E+02 -.204E+04   -.123E+02 0.707E+02 0.203E+04   -.153E+00 -.756E+00 0.310E+01   -.189E-01 -.487E-02 -.160E-01
   -.152E+02 0.412E+01 0.628E+03   0.153E+02 -.442E+01 -.627E+03   0.774E-01 -.526E+00 -.522E+00   0.360E-02 0.377E-02 -.287E-01
   -.675E+02 0.762E+01 -.671E+03   0.677E+02 -.778E+01 0.671E+03   -.290E+00 0.144E+00 0.327E+00   0.891E-02 0.676E-02 -.329E-01
   0.432E+02 -.504E+02 0.680E+03   -.430E+02 0.505E+02 -.679E+03   0.715E+00 -.279E+00 -.202E+00   -.141E-01 -.761E-03 -.314E-01
   0.579E+02 -.555E+02 -.646E+03   -.581E+02 0.557E+02 0.645E+03   0.259E+00 -.149E+00 0.714E+00   -.349E-02 -.108E-01 -.446E-01
   -.485E+01 -.360E+01 0.201E+04   0.461E+01 0.350E+01 -.200E+04   0.645E+00 0.589E+00 -.246E+01   -.114E-01 0.374E-02 -.623E-02
   0.941E+01 0.176E+02 -.202E+04   -.980E+01 -.182E+02 0.202E+04   0.418E+00 0.566E+00 0.287E+01   -.717E-02 0.454E-02 -.142E-01
   0.146E+02 -.726E+01 0.202E+04   -.144E+02 0.698E+01 -.202E+04   -.453E+00 0.697E+00 -.261E+01   -.862E-02 0.654E-02 -.968E-02
   0.989E+01 0.236E+02 -.202E+04   -.956E+01 -.242E+02 0.202E+04   -.331E+00 0.529E+00 0.220E+01   0.279E-01 0.611E-02 -.452E-02
   0.477E+02 -.243E+02 0.672E+03   -.478E+02 0.241E+02 -.672E+03   0.911E-01 -.436E+00 -.989E-01   -.123E-01 0.303E-02 -.351E-01
   -.797E+00 0.118E+02 0.204E+04   0.776E+00 -.113E+02 -.204E+04   -.825E-01 -.115E+00 -.181E+01   0.111E-01 0.227E-02 -.398E-02
   -.269E+02 -.426E+00 -.201E+04   0.268E+02 0.575E+00 0.201E+04   0.815E-01 -.174E+00 0.108E+01   0.703E-02 0.681E-02 -.103E-01
   0.176E+02 -.253E+02 0.742E+03   -.176E+02 0.256E+02 -.741E+03   0.206E+00 0.384E+00 0.351E+00   0.107E-01 0.626E-02 -.209E-01
   0.653E+02 -.830E+02 -.662E+03   -.657E+02 0.834E+02 0.662E+03   0.349E+00 -.427E+00 0.101E+00   0.130E-01 0.365E-02 -.249E-01
   -.107E+02 0.118E+02 0.204E+04   0.108E+02 -.115E+02 -.204E+04   0.294E-02 0.146E+00 -.228E+01   0.100E-01 -.407E-03 -.757E-03
   0.597E+01 0.145E+02 -.204E+04   -.585E+01 -.143E+02 0.203E+04   -.854E-01 -.141E+00 0.281E+01   -.310E-01 -.260E-04 -.114E-01
   -.538E+02 0.213E+02 0.700E+03   0.540E+02 -.209E+02 -.699E+03   0.859E-01 0.444E+00 0.220E-01   0.101E-01 0.210E-02 -.209E-01
   -.120E+02 0.167E+01 0.640E+03   0.121E+02 -.133E+01 -.639E+03   -.358E+00 0.479E+00 -.879E-01   -.886E-02 -.161E-02 -.354E-01
   -.563E+02 -.552E+01 -.733E+03   0.566E+02 0.553E+01 0.733E+03   -.333E+00 -.161E-01 0.261E+00   -.135E-01 0.535E-02 -.369E-01
   0.458E+02 -.608E+02 -.687E+03   -.460E+02 0.609E+02 0.687E+03   0.166E+00 -.119E+00 0.182E+00   -.899E-02 -.700E-02 -.519E-01
   -.934E+01 0.412E+02 0.636E+03   0.885E+01 -.414E+02 -.635E+03   -.329E-01 0.296E-01 -.333E+00   -.639E-02 -.189E-02 -.413E-01
   0.233E+02 -.148E+01 0.667E+03   -.228E+02 0.164E+01 -.666E+03   0.549E+00 -.268E+00 -.858E-01   0.166E-02 0.901E-02 -.279E-01
   0.436E+02 0.245E+02 -.684E+03   -.438E+02 -.248E+02 0.684E+03   0.246E+00 0.269E+00 0.530E+00   0.950E-02 0.613E-02 -.441E-01
   -.515E+02 0.452E+02 -.677E+03   0.517E+02 -.453E+02 0.677E+03   -.124E+00 0.119E+00 -.986E-01   -.281E-02 -.854E-02 -.230E-01
   -.449E+02 0.782E+02 -.708E+03   0.453E+02 -.785E+02 0.709E+03   -.380E+00 0.326E+00 -.987E-01   -.186E-01 -.341E-02 -.442E-01
   0.106E+02 0.307E+02 0.251E+04   -.107E+02 -.307E+02 -.251E+04   0.145E+00 0.171E+00 -.938E+00   -.112E-01 0.444E-02 -.945E-02
   0.216E+02 0.603E+02 -.251E+04   -.218E+02 -.606E+02 0.251E+04   0.180E+00 0.291E+00 0.101E+01   0.221E-01 0.147E-01 -.952E-02
   -.113E+02 0.317E+01 0.255E+04   0.115E+02 -.329E+01 -.255E+04   -.495E+00 0.119E+00 -.117E+01   0.496E-02 -.114E-01 -.130E-01
   -.326E+02 -.273E+01 -.253E+04   0.329E+02 0.274E+01 0.253E+04   -.234E+00 -.192E-01 -.418E+00   -.472E-02 -.345E-02 -.998E-02
   0.138E+02 -.319E+02 0.250E+04   -.139E+02 0.321E+02 -.249E+04   0.217E+00 -.201E+00 -.153E+01   -.203E-02 0.339E-02 -.359E-02
   0.208E+02 -.368E+02 -.249E+04   -.212E+02 0.370E+02 0.249E+04   0.322E+00 -.182E+00 0.868E+00   0.147E-02 -.303E-02 -.182E-01
   0.138E+02 -.219E+02 0.253E+04   -.138E+02 0.218E+02 -.252E+04   -.193E-01 0.361E-01 -.168E+01   -.877E-02 0.398E-02 -.348E-02
   0.205E+02 -.181E+01 -.252E+04   -.208E+02 0.166E+01 0.252E+04   0.323E+00 0.149E+00 0.750E+00   -.977E-02 -.214E-01 -.173E-01
   -.199E+02 0.105E+03 -.794E+03   0.197E+02 -.105E+03 0.793E+03   0.134E+00 0.323E+00 0.331E+00   -.172E-01 -.183E-01 -.412E-01
   0.278E+02 -.436E+02 0.922E+03   -.281E+02 0.436E+02 -.922E+03   0.945E-01 -.404E+00 -.244E+00   -.543E-02 -.465E-02 -.393E-01
   -.891E+02 -.845E+01 -.763E+03   0.893E+02 0.850E+01 0.763E+03   -.236E+00 -.619E-01 0.179E+00   0.133E-01 0.581E-02 -.365E-01
   0.957E+02 -.734E+02 -.768E+03   -.960E+02 0.737E+02 0.767E+03   0.216E+00 -.261E+00 0.383E+00   -.130E-01 -.127E-01 -.453E-01
   -.704E+02 -.128E+02 -.831E+03   0.706E+02 0.130E+02 0.830E+03   -.274E+00 -.238E+00 0.335E+00   0.192E-01 0.163E-01 -.235E-01
   0.305E+02 0.496E+01 0.890E+03   -.307E+02 -.500E+01 -.889E+03   0.960E-01 0.290E-01 -.188E+00   0.706E-02 0.158E-02 -.220E-01
   0.598E+02 -.226E+02 -.815E+03   -.600E+02 0.228E+02 0.815E+03   0.186E+00 -.177E+00 0.135E-01   0.265E-01 0.736E-02 -.233E-01
   -.505E+02 0.604E+02 0.889E+03   0.505E+02 -.606E+02 -.889E+03   -.446E+00 0.275E+00 -.439E-01   -.180E-02 -.113E-01 -.385E-01
 -----------------------------------------------------------------------------------------------
   -.105E+01 -.145E+00 0.343E+01   -.242E-12 0.227E-12 0.159E-11   0.104E+01 0.145E+00 -.211E+01   0.541E-02 0.431E-02 -.131E+01
 
 
 POSITION                                       TOTAL-FORCE (eV/Angst)
 -----------------------------------------------------------------------------------
     -5.03208      8.74992      2.05921        -0.205945     -0.118148     -0.277619
      0.01608     -0.00905      8.31994         0.015871      0.010019     -0.006465
      0.00574      8.72607      2.04467        -0.327884      0.416958     -0.088864
      5.05367      0.03871      8.29252         0.010426      0.012474     -0.014702
      2.47665      8.72592      2.00820         0.328746      0.174426      0.087350
      7.61382     -0.00360      8.21321         0.028208      0.014617     -0.029943
      1.23891      2.21748      2.05881         0.444353     -0.130340     -0.653883
      1.33480      2.15879      8.29923        -0.002710     -0.023090      0.001041
      0.08074      1.41419      4.05320        -1.015701      0.331875      0.568960
      2.49330      1.45451      4.14829         0.680598      0.121249     -0.382519
      1.20657      0.75352      6.27261        -0.010485      0.004473      0.001511
      5.06166      1.44930      4.13498        -0.334778      0.074923     -0.543944
      3.75519      0.73647      6.24559        -0.020367      0.000575     -0.001502
      7.51557      1.45812      4.11001         0.641011     -0.127827     -0.154054
      6.27747      0.70011      6.20036        -0.012989      0.007726      0.021015
     -2.55062      4.47399      2.00996         0.260502     -0.743889      0.087637
     -2.49550      4.33035      8.23378         0.012220     -0.037070     -0.008041
      0.03014      4.42905      2.07021        -0.445967     -0.665360     -0.686753
      0.05202      4.33690      8.19193         0.007594     -0.028302     -0.018103
      2.50847      4.40516      2.07435         0.384124     -0.357789     -0.930325
      2.54243      4.38607      8.35012         0.004033     -0.020602     -0.008852
      1.32139      3.64145      4.02772        -0.862943     -0.202968      1.273800
      5.08382      4.44890      2.04816        -0.361832     -0.755681     -0.581680
      5.10301      4.36246      8.38115         0.031518     -0.029806      0.021111
      3.79377      3.69800      4.13070         0.108527     -0.820229      0.205851
      2.47594      2.98306      6.24726        -0.024332     -0.006896     -0.011792
      6.25293      3.64956      4.08305         0.840851     -0.133675      0.285568
      5.06386      2.91883      6.25151         0.003689      0.009536      0.006994
      6.25194      6.54167      2.03547         0.389685      0.493943     -0.487413
     -3.78491      6.53602      8.36148         0.018401     -0.014152      0.032736
     -1.23133      6.52951      2.06362        -0.278743      0.418737     -0.681696
     -1.23783      6.53244      8.25020         0.030759     -0.022283     -0.013103
     -2.52172      5.87475      4.08746         0.008293     -0.590780      0.285421
      1.28426      6.55944      2.07409        -0.092636      0.386601     -0.643787
      1.23396      6.58908      8.16518         0.010201     -0.018648     -0.006033
     -0.00626      5.79145      4.04458         0.205590      0.742370      1.023022
     -1.24593      5.05075      6.12428        -0.033017      0.013374      0.011554
      3.77628      6.55571      2.00000         0.067978      0.390485     -0.279613
      3.81325      6.58821      8.37062         0.008075     -0.000372     -0.015497
      2.52387      5.78801      4.07310         0.250149      0.820906      0.631463
      5.06734      5.79704      4.10517        -0.328785      0.822113      0.590732
      3.75204      5.14804      6.28529        -0.005260     -0.003467      0.006629
      6.31585      5.10436      6.22762        -0.005672      0.027083      0.015153
     -3.76296      8.02446      4.11956        -0.526233     -0.179939      0.097908
     -1.33707      8.05044      4.10307         1.024349     -0.097929      0.229265
     -2.56467      7.28414      6.23641        -0.014422     -0.022189     -0.003958
      2.47666      7.30503      6.10206        -0.003098      0.024068     -0.006462
      4.99209      7.33507      6.21707        -0.009093      0.004171     -0.012132
     -2.52690      8.74056      2.03303         0.003460      0.149662      0.158400
      2.56587     -0.01330      8.27896        -0.011716     -0.004812     -0.007693
     -1.24953      2.18697      2.05404        -0.310378     -0.015348      0.276323
     -1.21430      2.17610      8.11282         0.019739     -0.017437     -0.028255
      3.77687      2.20348      2.02824         0.075259     -0.031029      0.553944
      3.83080      2.21003      8.25647         0.002642     -0.013189     -0.028612
      6.31052      2.19548      2.03585        -0.003568      0.035442      0.137026
      6.36245      2.17701      8.20754         0.039383     -0.028064      0.009123
      8.83783      0.74036      6.13680        -0.012417      0.011109     -0.041488
     -1.27338      3.65234      4.08854        -0.136878     -0.397132     -0.119784
      0.00875      2.90202      6.10119         0.026215     -0.002871     -0.020247
      7.57855      2.90576      6.14133        -0.018038      0.013142     -0.009139
      1.24179      5.10341      6.14801        -0.012542     -0.004488     -0.008447
      1.25660      8.01495      4.09193        -0.094913     -0.009228      0.105490
     -0.03507      7.26305      6.11608        -0.031844      0.028581     -0.021822
      3.80919      8.00883      4.09175        -0.427264      0.114391      0.109193
 -----------------------------------------------------------------------------------
    total drift:                               -0.003452      0.003573      0.003161


--------------------------------------------------------------------------------------------------------



  FREE ENERGIE OF THE ION-ELECTRON SYSTEM (eV)
  ---------------------------------------------------
  free  energy   TOTEN  =      -455.40504201 eV

  energy  without entropy=     -455.44667849  energy(sigma->0) =     -455.41892084
 
 d Force = 0.5121045E-02[ 0.345E-02, 0.680E-02]  d Energy = 0.4796823E-02 0.324E-03
 d Force =-0.3076194E+02[-0.307E+02,-0.308E+02]  d Ewald  =-0.3076187E+02-0.675E-04


--------------------------------------------------------------------------------------------------------


    POTLOK:  cpu time    0.2650: real time    0.2676


--------------------------------------------------------------------------------------------------------


 Conjugate gradient step on ions:
 trial-energy change:   -0.004797  1 .order   -0.005121   -0.006796   -0.003446
  (g-gl).g = 0.299E-02      g.g   = 0.306E-02  gl.gl    = 0.679E-02
 g(Force)  = 0.306E-02   g(Stress)= 0.000E+00 ortho     = 0.854E-05
 gamma     =   0.44031
 trial     =   2.21614
 opt step  =   4.49660  (harmonic =   4.49660) maximal distance =0.02229707
 next E    =  -455.407139   (d E  =  -0.00689)


--------------------------------------------------------------------------------------------------------


  
 reached required accuracy - stopping structural energy minimisation
     LOOP+:  cpu time  266.9264: real time  272.2886
    4ORBIT:  cpu time    0.0000: real time    0.0000
 


 total charge     
 
# of ion       s       p       d       tot
------------------------------------------
    1        0.478   0.397   6.175   7.050
    2        0.474   0.385   6.174   7.034
    3        0.471   0.388   6.158   7.017
    4        0.466   0.383   6.153   7.002
    5        0.467   0.382   6.157   7.006
    6        0.474   0.397   6.160   7.032
    7        0.481   0.403   6.193   7.077
    8        0.470   0.386   6.177   7.033
    9        0.481   0.507   6.220   7.208
   10        0.480   0.510   6.223   7.213
   11        0.479   0.511   6.212   7.202
   12        0.475   0.500   6.210   7.185
   13        0.472   0.500   6.211   7.183
   14        0.464   0.478   6.179   7.121
   15        0.476   0.504   6.214   7.194
   16        0.474   0.389   6.178   7.041
   17        0.472   0.397   6.166   7.035
   18        0.492   0.426   6.212   7.129
   19        0.473   0.401   6.168   7.041
   20        0.496   0.430   6.216   7.143
   21        0.473   0.382   6.180   7.034
   22        0.496   0.538   6.249   7.283
   23        0.489   0.416   6.203   7.107
   24        0.470   0.383   6.163   7.016
   25        0.486   0.520   6.229   7.234
   26        0.472   0.504   6.203   7.180
   27        0.481   0.510   6.218   7.208
   28        0.471   0.499   6.206   7.176
   29        0.489   0.425   6.203   7.117
   30        0.469   0.389   6.166   7.024
   31        0.490   0.422   6.207   7.120
   32        0.469   0.391   6.175   7.034
   33        0.486   0.526   6.232   7.244
   34        0.495   0.443   6.218   7.156
   35        0.474   0.408   6.173   7.055
   36        0.488   0.526   6.236   7.250
   37        0.475   0.503   6.197   7.174
   38        0.482   0.413   6.194   7.089
   39        0.473   0.391   6.176   7.040
   40        0.488   0.527   6.240   7.255
   41        0.486   0.526   6.224   7.236
   42        0.474   0.504   6.201   7.178
   43        0.473   0.504   6.202   7.179
   44        0.485   0.523   6.235   7.242
   45        0.480   0.510   6.224   7.215
   46        0.474   0.501   6.204   7.179
   47        0.475   0.501   6.208   7.184
   48        0.471   0.499   6.202   7.173
   49        0.502   0.382   8.317   9.201
   50        0.514   0.404   8.316   9.234
   51        0.496   0.370   8.316   9.182
   52        0.506   0.406   8.310   9.222
   53        0.486   0.356   8.317   9.159
   54        0.512   0.407   8.321   9.240
   55        0.500   0.371   8.316   9.187
   56        0.511   0.402   8.320   9.233
   57        0.509   0.511   8.315   9.336
   58        0.502   0.498   8.321   9.322
   59        0.508   0.508   8.317   9.333
   60        0.506   0.503   8.321   9.330
   61        0.517   0.529   8.319   9.365
   62        0.515   0.528   8.314   9.357
   63        0.508   0.513   8.307   9.329
   64        0.505   0.507   8.306   9.319
--------------------------------------------------
tot         31.046  29.054 430.577 490.677
 


 magnetization (x)
 
# of ion       s       p       d       tot
------------------------------------------
    1       -0.003  -0.011   2.732   2.717
    2       -0.003  -0.008   2.739   2.728
    3       -0.001  -0.009   2.776   2.767
    4        0.000  -0.014   2.799   2.784
    5        0.002  -0.009   2.776   2.769
    6       -0.004  -0.016   2.762   2.742
    7       -0.004  -0.011   2.695   2.681
    8        0.001  -0.010   2.731   2.722
    9       -0.011  -0.031   2.609   2.568
   10       -0.014  -0.038   2.580   2.528
   11       -0.013  -0.040   2.619   2.566
   12       -0.013  -0.037   2.596   2.547
   13       -0.013  -0.037   2.608   2.558
   14       -0.002  -0.017   2.710   2.690
   15       -0.010  -0.033   2.608   2.565
   16       -0.002  -0.007   2.738   2.729
   17       -0.004  -0.021   2.743   2.717
   18       -0.008  -0.017   2.648   2.623
   19       -0.004  -0.021   2.726   2.700
   20       -0.011  -0.018   2.650   2.621
   21       -0.006  -0.013   2.715   2.696
   22       -0.017  -0.044   2.545   2.485
   23       -0.007  -0.015   2.681   2.659
   24       -0.004  -0.015   2.756   2.736
   25       -0.018  -0.043   2.569   2.508
   26       -0.012  -0.041   2.648   2.595
   27       -0.013  -0.038   2.599   2.548
   28       -0.009  -0.034   2.630   2.587
   29       -0.010  -0.027   2.656   2.619
   30       -0.005  -0.022   2.742   2.715
   31       -0.012  -0.022   2.646   2.612
   32       -0.006  -0.024   2.710   2.680
   33       -0.019  -0.052   2.550   2.479
   34       -0.011  -0.033   2.600   2.556
   35       -0.008  -0.030   2.706   2.668
   36       -0.014  -0.038   2.575   2.523
   37       -0.008  -0.034   2.665   2.623
   38       -0.008  -0.025   2.662   2.628
   39       -0.009  -0.026   2.710   2.675
   40       -0.016  -0.042   2.555   2.498
   41       -0.017  -0.050   2.599   2.533
   42       -0.017  -0.053   2.633   2.563
   43       -0.017  -0.051   2.636   2.567
   44       -0.016  -0.045   2.544   2.484
   45       -0.013  -0.038   2.573   2.522
   46       -0.013  -0.040   2.637   2.584
   47       -0.008  -0.035   2.631   2.588
   48       -0.015  -0.047   2.637   2.575
   49       -0.033  -0.033   0.721   0.655
   50       -0.034  -0.038   0.724   0.652
   51       -0.030  -0.026   0.706   0.650
   52       -0.027  -0.036   0.715   0.651
   53       -0.029  -0.023   0.710   0.658
   54       -0.030  -0.036   0.719   0.652
   55       -0.030  -0.024   0.720   0.666
   56       -0.028  -0.033   0.714   0.653
   57       -0.029  -0.056   0.743   0.658
   58       -0.030  -0.053   0.715   0.632
   59       -0.025  -0.047   0.754   0.682
   60       -0.025  -0.045   0.724   0.654
   61       -0.032  -0.068   0.745   0.644
   62       -0.034  -0.071   0.761   0.656
   63       -0.031  -0.066   0.776   0.679
   64       -0.032  -0.064   0.776   0.680
--------------------------------------------------
tot         -0.923  -2.103 139.378 136.352
 

 total amount of memory used by VASP MPI-rank0   113617. kBytes
=======================================================================

   base      :      30000. kBytes
   nonlr-proj:      13208. kBytes
   fftplans  :       6403. kBytes
   grid      :      16455. kBytes
   one-center:         93. kBytes
   wavefun   :      47458. kBytes
 
  
  
 General timing and accounting informations for this job:
 ========================================================
  
                  Total CPU time used (sec):     8867.783
                            User time (sec):     8784.811
                          System time (sec):       82.972
                         Elapsed time (sec):     8968.050
  
                   Maximum memory used (kb):      168016.
                   Average memory used (kb):           0.
  
                          Minor page faults:      1888826
                          Major page faults:            0
                 Voluntary context switches:         8385
