SQS-NiFe                                
           1
    10.111630    0.000000    0.000000
    -5.055815    8.756928    0.000000
     0.000000    0.000000   21.266428
   Fe   Ni
  48  16
Direct configuration=     1
   0.00194700  0.99920000  0.09682937
   0.99918611  0.99637991  0.37344871
   0.49880600  0.99647600  0.09614542
   0.50505852  0.99665397  0.37431710
   0.74316000  0.99645900  0.09443074
   0.74236419  0.99115342  0.37303732
   0.24913600  0.25322600  0.09681044
   0.25047305  0.25228186  0.37248658
   0.08873200  0.16149400  0.19059152
   0.32962600  0.16609800  0.19506268
   0.16758688  0.08556431  0.28404581
   0.58333000  0.16550300  0.19443696
   0.42263341  0.08924273  0.28372749
   0.82651500  0.16651000  0.19326268
   0.66571893  0.08439970  0.28592773
   0.00320800  0.51090900  0.09451343
   0.00657026  0.51117269  0.37438969
   0.25586900  0.50577700  0.09734648
   0.25273460  0.50319929  0.37277756
   0.49960200  0.50304900  0.09754098
   0.50298480  0.50477201  0.37367755
   0.33859900  0.41583700  0.18939337
   0.75679100  0.50804300  0.09630935
   0.75038988  0.50383990  0.37294788
   0.58633600  0.42229400  0.19423576
   0.41828693  0.32585119  0.28503997
   0.82677100  0.41676200  0.19199494
   0.66229861  0.33594179  0.28411716
   0.99180600  0.74702800  0.09571304
   0.00023244  0.74894226  0.37478604
   0.25104600  0.74563900  0.09703639
   0.24327828  0.74381043  0.37362444
   0.08604600  0.67086900  0.19220225
   0.50153700  0.74905700  0.09752875
   0.50504587  0.75032146  0.37365151
   0.33005900  0.66135600  0.19018621
   0.16403103  0.58962507  0.28631498
   0.74777500  0.74863100  0.09404494
   0.74679708  0.74844800  0.37298734
   0.58008200  0.66096300  0.19152733
   0.83213700  0.66199500  0.19303528
   0.67070098  0.58729576  0.28553731
   0.92039254  0.58975282  0.28585760
   0.08603600  0.91635500  0.19371195
   0.32743000  0.91932200  0.19293658
   0.16087821  0.82915896  0.28598337
   0.66786216  0.83067398  0.28677112
   0.91978390  0.82955012  0.28677397
   0.24916500  0.99813100  0.09559832
   0.24964594  0.99910478  0.37807610
   0.00129700  0.24974200  0.09658595
   0.00359611  0.25188688  0.37702211
   0.49933100  0.25162700  0.09537266
   0.50057405  0.25193090  0.37932108
   0.74944200  0.25071300  0.09573080
   0.74962130  0.25163018  0.37744247
   0.91408115  0.08148095  0.28346441
   0.08260800  0.41708000  0.19225321
   0.16929879  0.33448882  0.28330643
   0.91444384  0.33602227  0.28432248
   0.41810753  0.58431749  0.28354627
   0.58190700  0.91526900  0.19241277
   0.41335147  0.83423043  0.28448617
   0.83399900  0.91457100  0.19240403
Direct configuration=     2
   0.00194700  0.99920000  0.09682937
   0.99998019  0.99824632  0.37525370
   0.49880600  0.99647600  0.09614542
   0.50230152  0.99893664  0.37646347
   0.74316000  0.99645900  0.09443074
   0.74750362  0.99605163  0.37629930
   0.24913600  0.25322600  0.09681044
   0.25157381  0.25118455  0.37477048
   0.08873200  0.16149400  0.19059152
   0.32962600  0.16609800  0.19506268
   0.16503648  0.08421214  0.28537436
   0.58333000  0.16550300  0.19443696
   0.41854992  0.08372621  0.28648465
   0.82651500  0.16651000  0.19326268
   0.66682007  0.08448809  0.28532718
   0.00320800  0.51090900  0.09451343
   0.00169788  0.50440121  0.37699515
   0.25586900  0.50577700  0.09734648
   0.25288138  0.50269231  0.37534682
   0.49960200  0.50304900  0.09754098
   0.50048406  0.50127626  0.37575525
   0.33859900  0.41583700  0.18939337
   0.75679100  0.50804300  0.09630935
   0.75010138  0.50051775  0.37543735
   0.58633600  0.42229400  0.19423576
   0.41672281  0.33349681  0.28545296
   0.82677100  0.41676200  0.19199494
   0.66746623  0.33494393  0.28591010
   0.99180600  0.74702800  0.09571304
   0.00038860  0.75050070  0.37826952
   0.25104600  0.74563900  0.09703639
   0.24859400  0.74795748  0.37711735
   0.08604600  0.67086900  0.19220225
   0.50153700  0.74905700  0.09752875
   0.50015399  0.74883089  0.37617984
   0.33005900  0.66135600  0.19018621
   0.16619499  0.58330534  0.28289102
   0.74777500  0.74863100  0.09404494
   0.74956252  0.74910893  0.37715032
   0.58008200  0.66096300  0.19152733
   0.83213700  0.66199500  0.19303528
   0.66624661  0.58517480  0.28419072
   0.91663612  0.58222781  0.28429871
   0.08603600  0.91635500  0.19371195
   0.32743000  0.91932200  0.19293658
   0.16847764  0.83656107  0.28553302
   0.66627739  0.83342841  0.28273471
   0.91780648  0.83549478  0.28442365
   0.24916500  0.99813100  0.09559832
   0.25148778  0.00040948  0.37820589
   0.00129700  0.24974200  0.09658595
   0.00211767  0.25124612  0.37639872
   0.49933100  0.25162700  0.09537266
   0.50072690  0.25085333  0.37964726
   0.74944200  0.25071300  0.09573080
   0.75048141  0.25201684  0.37779675
   0.91693839  0.08435319  0.28365786
   0.08260800  0.41708000  0.19225321
   0.16772074  0.33445908  0.28256347
   0.91504625  0.33519516  0.28479967
   0.41594034  0.58264514  0.28259360
   0.58190700  0.91526900  0.19241277
   0.41480395  0.83356044  0.28307715
   0.83399900  0.91457100  0.19240403
Direct configuration=     3
   0.00194700  0.99920000  0.09682937
   0.00035557  0.99912860  0.37610694
   0.49880600  0.99647600  0.09614542
   0.50099824  0.00001569  0.37747809
   0.74316000  0.99645900  0.09443074
   0.74993311  0.99836709  0.37784129
   0.24913600  0.25322600  0.09681044
   0.25209416  0.25066583  0.37585012
   0.08873200  0.16149400  0.19059152
   0.32962600  0.16609800  0.19506268
   0.16383087  0.08357295  0.28600239
   0.58333000  0.16550300  0.19443696
   0.41661959  0.08111847  0.28778800
   0.82651500  0.16651000  0.19326268
   0.66734060  0.08452987  0.28504329
   0.00320800  0.51090900  0.09451343
  -0.00060537  0.50120023  0.37822679
   0.25586900  0.50577700  0.09734648
   0.25295077  0.50245265  0.37656135
   0.49960200  0.50304900  0.09754098
   0.49930192  0.49962376  0.37673740
   0.33859900  0.41583700  0.18939337
   0.75679100  0.50804300  0.09630935
   0.74996500  0.49894732  0.37661415
   0.58633600  0.42229400  0.19423576
   0.41598343  0.33711101  0.28564819
   0.82677100  0.41676200  0.19199494
   0.66990905  0.33447223  0.28675765
   0.99180600  0.74702800  0.09571304
   0.00046241  0.75123740  0.37991621
   0.25104600  0.74563900  0.09703639
   0.25110682  0.74991785  0.37876850
   0.08604600  0.67086900  0.19220225
   0.50153700  0.74905700  0.09752875
   0.49784152  0.74812627  0.37737503
   0.33005900  0.66135600  0.19018621
   0.16721793  0.58031790  0.28127246
   0.74777500  0.74863100  0.09404494
   0.75086978  0.74942136  0.37911822
   0.58008200  0.66096300  0.19152733
   0.83213700  0.66199500  0.19303528
   0.66414097  0.58417220  0.28355417
   0.91486041  0.57867062  0.28356180
   0.08603600  0.91635500  0.19371195
   0.32743000  0.91932200  0.19293658
   0.17207000  0.84006016  0.28532013
   0.66552825  0.83473047  0.28082664
   0.91687173  0.83830491  0.28331262
   0.24916500  0.99813100  0.09559832
   0.25235844  0.00102624  0.37826724
   0.00129700  0.24974200  0.09658595
   0.00141879  0.25094323  0.37610404
   0.49933100  0.25162700  0.09537266
   0.50079915  0.25034394  0.37980145
   0.74944200  0.25071300  0.09573080
   0.75088799  0.25219961  0.37796422
   0.91828905  0.08571094  0.28374930
   0.08260800  0.41708000  0.19225321
   0.16697477  0.33444502  0.28221226
   0.91533102  0.33480417  0.28502525
   0.41491588  0.58185460  0.28214326
   0.58190700  0.91526900  0.19241277
   0.41549056  0.83324372  0.28241109
   0.83399900  0.91457100  0.19240403
Direct configuration=     4
   0.00194700  0.99920000  0.09682937
   0.00048325  0.99998573  0.37808499
   0.49880600  0.99647600  0.09614542
   0.50164527  0.00185346  0.37943674
   0.74316000  0.99645900  0.09443074
   0.75115284  0.99952879  0.37937629
   0.24913600  0.25322600  0.09681044
   0.25215402  0.24944210  0.37785129
   0.08873200  0.16149400  0.19059152
   0.32962600  0.16609800  0.19506268
   0.16387255  0.08582180  0.28726921
   0.58333000  0.16550300  0.19443696
   0.41740949  0.08311439  0.28880837
   0.82651500  0.16651000  0.19326268
   0.66698924  0.08340011  0.28612246
   0.00320800  0.51090900  0.09451343
  -0.00084496  0.49970283  0.37938008
   0.25586900  0.50577700  0.09734648
   0.25174372  0.50150343  0.37815058
   0.49960200  0.50304900  0.09754098
   0.49912736  0.49884184  0.37870794
   0.33859900  0.41583700  0.18939337
   0.75679100  0.50804300  0.09630935
   0.75031566  0.49893190  0.37860154
   0.58633600  0.42229400  0.19423576
   0.41501785  0.33796705  0.28636495
   0.82677100  0.41676200  0.19199494
   0.66826231  0.33111214  0.28786740
   0.99180600  0.74702800  0.09571304
   0.00027852  0.75067210  0.38104147
   0.25104600  0.74563900  0.09703639
   0.25155810  0.74960456  0.38007044
   0.08604600  0.67086900  0.19220225
   0.50153700  0.74905700  0.09752875
   0.49717717  0.74877357  0.37825390
   0.33005900  0.66135600  0.19018621
   0.16769101  0.57984158  0.28212466
   0.74777500  0.74863100  0.09404494
   0.75172824  0.75017568  0.38086875
   0.58008200  0.66096300  0.19152733
   0.83213700  0.66199500  0.19303528
   0.66420265  0.58547908  0.28498737
   0.91763324  0.58170769  0.28460251
   0.08603600  0.91635500  0.19371195
   0.32743000  0.91932200  0.19293658
   0.17039494  0.83666885  0.28639237
   0.66378987  0.83526287  0.28162551
   0.91505870  0.83725285  0.28391206
   0.24916500  0.99813100  0.09559832
   0.25258560  0.00179096  0.37963538
   0.00129700  0.24974200  0.09658595
   0.00139346  0.25083091  0.37601248
   0.49933100  0.25162700  0.09537266
   0.50093292  0.25010538  0.37997810
   0.74944200  0.25071300  0.09573080
   0.75108725  0.25093347  0.37892727
   0.91918374  0.08740563  0.28409658
   0.08260800  0.41708000  0.19225321
   0.16633404  0.33340629  0.28264522
   0.91657110  0.33347330  0.28537593
   0.41396511  0.58230153  0.28296902
   0.58190700  0.91526900  0.19241277
   0.41625922  0.83135513  0.28279227
   0.83399900  0.91457100  0.19240403
Direct configuration=     5
   0.00194700  0.99920000  0.09682937
   0.00076745  0.00189364  0.38248798
   0.49880600  0.99647600  0.09614542
   0.50308552  0.00594418  0.38379654
   0.74316000  0.99645900  0.09443074
   0.75386786  0.00211464  0.38279306
   0.24913600  0.25322600  0.09681044
   0.25228726  0.24671817  0.38230574
   0.08873200  0.16149400  0.19059152
   0.32962600  0.16609800  0.19506268
   0.16396532  0.09082756  0.29008905
   0.58333000  0.16550300  0.19443696
   0.41916774  0.08755714  0.29107963
   0.82651500  0.16651000  0.19326268
   0.66620714  0.08088535  0.28852461
   0.00320800  0.51090900  0.09451343
  -0.00137827  0.49636973  0.38194722
   0.25586900  0.50577700  0.09734648
   0.24905694  0.49939054  0.38168806
   0.49960200  0.50304900  0.09754098
   0.49873881  0.49710133  0.38309422
   0.33859900  0.41583700  0.18939337
   0.75679100  0.50804300  0.09630935
   0.75109620  0.49889758  0.38302532
   0.58633600  0.42229400  0.19423576
   0.41286855  0.33987255  0.28796042
   0.82677100  0.41676200  0.19199494
   0.66459680  0.32363285  0.29033762
   0.99180600  0.74702800  0.09571304
  -0.00013083  0.74941376  0.38354621
   0.25104600  0.74563900  0.09703639
   0.25256262  0.74890718  0.38296844
   0.08604600  0.67086900  0.19220225
   0.50153700  0.74905700  0.09752875
   0.49569838  0.75021439  0.38021022
   0.33005900  0.66135600  0.19018621
   0.16874406  0.57878132  0.28402159
   0.74777500  0.74863100  0.09404494
   0.75363909  0.75185474  0.38476529
   0.58008200  0.66096300  0.19152733
   0.83213700  0.66199500  0.19303528
   0.66433994  0.58838809  0.28817757
   0.92380536  0.58846797  0.28691904
   0.08603600  0.91635500  0.19371195
   0.32743000  0.91932200  0.19293658
   0.16666637  0.82912003  0.28877907
   0.65992038  0.83644794  0.28340371
   0.91102302  0.83491105  0.28524637
   0.24916500  0.99813100  0.09559832
   0.25309124  0.00349317  0.38268076
   0.00129700  0.24974200  0.09658595
   0.00133706  0.25058089  0.37580869
   0.49933100  0.25162700  0.09537266
   0.50123067  0.24957437  0.38037130
   0.74944200  0.25071300  0.09573080
   0.75153077  0.24811514  0.38107093
   0.92117525  0.09117788  0.28486961
   0.08260800  0.41708000  0.19225321
   0.16490784  0.33109418  0.28360896
   0.91933143  0.33051089  0.28615652
   0.41184878  0.58329636  0.28480709
   0.58190700  0.91526900  0.19241277
   0.41797020  0.82715127  0.28364077
   0.83399900  0.91457100  0.19240403
Direct configuration=     6
   0.00194700  0.99920000  0.09682937
   0.00031007  0.00180997  0.38466235
   0.49880600  0.99647600  0.09614542
   0.50356062  0.00669963  0.38594794
   0.74316000  0.99645900  0.09443074
   0.75441246  0.00217353  0.38428529
   0.24913600  0.25322600  0.09681044
   0.25253757  0.24673555  0.38489971
   0.08873200  0.16149400  0.19059152
   0.32962600  0.16609800  0.19506268
   0.16328751  0.08935438  0.29144816
   0.58333000  0.16550300  0.19443696
   0.41674612  0.08559529  0.29137890
   0.82651500  0.16651000  0.19326268
   0.66532564  0.07932090  0.28974279
   0.00320800  0.51090900  0.09451343
  -0.00160962  0.49521823  0.38305660
   0.25586900  0.50577700  0.09734648
   0.24823448  0.49758289  0.38325897
   0.49960200  0.50304900  0.09754098
   0.49856068  0.49710624  0.38536611
   0.33859900  0.41583700  0.18939337
   0.75679100  0.50804300  0.09630935
   0.75173963  0.49884134  0.38515682
   0.58633600  0.42229400  0.19423576
   0.41343595  0.34131792  0.28916681
   0.82677100  0.41676200  0.19199494
   0.66607117  0.32493811  0.29089639
   0.99180600  0.74702800  0.09571304
  -0.00024041  0.74930892  0.38517356
   0.25104600  0.74563900  0.09703639
   0.25265903  0.74858338  0.38435813
   0.08604600  0.67086900  0.19220225
   0.50153700  0.74905700  0.09752875
   0.49601566  0.75114008  0.38131497
   0.33005900  0.66135600  0.19018621
   0.16841955  0.57772050  0.28552194
   0.74777500  0.74863100  0.09404494
   0.75406380  0.75284620  0.38677019
   0.58008200  0.66096300  0.19152733
   0.83213700  0.66199500  0.19303528
   0.66412066  0.58790668  0.29043578
   0.92286275  0.58709025  0.28853155
   0.08603600  0.91635500  0.19371195
   0.32743000  0.91932200  0.19293658
   0.16728377  0.83001718  0.29028928
   0.66065212  0.83688427  0.28506340
   0.91086425  0.83636669  0.28681329
   0.24916500  0.99813100  0.09559832
   0.25259726  0.00278912  0.38415354
   0.00129700  0.24974200  0.09658595
   0.00219684  0.25046388  0.37704877
   0.49933100  0.25162700  0.09537266
   0.50183681  0.25071897  0.38187383
   0.74944200  0.25071300  0.09573080
   0.75241965  0.24758021  0.38257397
   0.91994603  0.08924240  0.28533695
   0.08260800  0.41708000  0.19225321
   0.16607896  0.33189443  0.28433766
   0.91893799  0.33142664  0.28638260
   0.41147908  0.58255510  0.28631213
   0.58190700  0.91526900  0.19241277
   0.41658382  0.82752482  0.28467719
   0.83399900  0.91457100  0.19240403
Direct configuration=     7
   0.00194700  0.99920000  0.09682937
  -0.00061565  0.00164063  0.38906313
   0.49880600  0.99647600  0.09614542
   0.50452220  0.00822860  0.39030224
   0.74316000  0.99645900  0.09443074
   0.75551471  0.00229272  0.38730545
   0.24913600  0.25322600  0.09681044
   0.25304416  0.24677073  0.39014972
   0.08873200  0.16149400  0.19059152
   0.32962600  0.16609800  0.19506268
   0.16191567  0.08637277  0.29419890
   0.58333000  0.16550300  0.19443696
   0.41184494  0.08162464  0.29198459
   0.82651500  0.16651000  0.19326268
   0.66354155  0.07615456  0.29220830
   0.00320800  0.51090900  0.09451343
  -0.00207785  0.49288769  0.38530192
   0.25586900  0.50577700  0.09734648
   0.24656986  0.49392434  0.38643837
   0.49960200  0.50304900  0.09754098
   0.49820015  0.49711616  0.38996426
   0.33859900  0.41583700  0.18939337
   0.75679100  0.50804300  0.09630935
   0.75304187  0.49872751  0.38947083
   0.58633600  0.42229400  0.19423576
   0.41458432  0.34424323  0.29160847
   0.82677100  0.41676200  0.19199494
   0.66905518  0.32757988  0.29202730
   0.99180600  0.74702800  0.09571304
  -0.00046221  0.74909673  0.38846720
   0.25104600  0.74563900  0.09703639
   0.25285416  0.74792802  0.38717076
   0.08604600  0.67086900  0.19220225
   0.50153700  0.74905700  0.09752875
   0.49665780  0.75301359  0.38355091
   0.33005900  0.66135600  0.19018621
   0.16776277  0.57557349  0.28855852
   0.74777500  0.74863100  0.09404494
   0.75492338  0.75485284  0.39082797
   0.58008200  0.66096300  0.19152733
   0.83213700  0.66199500  0.19303528
   0.66367684  0.58693235  0.29500625
   0.92095497  0.58430185  0.29179515
   0.08603600  0.91635500  0.19371195
   0.32743000  0.91932200  0.19293658
   0.16853334  0.83183295  0.29334584
   0.66213312  0.83776737  0.28842248
   0.91054291  0.83931279  0.28998463
   0.24916500  0.99813100  0.09559832
   0.25159748  0.00136415  0.38713433
   0.00129700  0.24974200  0.09658595
   0.00393695  0.25022706  0.37955862
   0.49933100  0.25162700  0.09537266
   0.50306360  0.25303556  0.38491485
   0.74944200  0.25071300  0.09573080
   0.75421867  0.24649754  0.38561601
   0.91745816  0.08532512  0.28628283
   0.08260800  0.41708000  0.19225321
   0.16844922  0.33351408  0.28581249
   0.91814171  0.33328006  0.28684016
   0.41073083  0.58105485  0.28935822
   0.58190700  0.91526900  0.19241277
   0.41377786  0.82828087  0.28677483
   0.83399900  0.91457100  0.19240403
Direct configuration=     8
   0.00194700  0.99920000  0.09682937
   0.00003319  0.00147511  0.39004371
   0.49880600  0.99647600  0.09614542
   0.50351538  0.00761329  0.39059134
   0.74316000  0.99645900  0.09443074
   0.75501738  0.00179355  0.38787679
   0.24913600  0.25322600  0.09681044
   0.25309837  0.24714883  0.39080279
   0.08873200  0.16149400  0.19059152
   0.32962600  0.16609800  0.19506268
   0.16206478  0.08579415  0.29464149
   0.58333000  0.16550300  0.19443696
   0.41246217  0.08209355  0.29255429
   0.82651500  0.16651000  0.19326268
   0.66236450  0.07764978  0.29246068
   0.00320800  0.51090900  0.09451343
  -0.00201605  0.49301560  0.38609231
   0.25586900  0.50577700  0.09734648
   0.24819530  0.49375624  0.38697173
   0.49960200  0.50304900  0.09754098
   0.49812247  0.49824079  0.39124220
   0.33859900  0.41583700  0.18939337
   0.75679100  0.50804300  0.09630935
   0.75324436  0.49795732  0.39067655
   0.58633600  0.42229400  0.19423576
   0.41522616  0.34183800  0.29255593
   0.82677100  0.41676200  0.19199494
   0.66883791  0.32901911  0.29252263
   0.99180600  0.74702800  0.09571304
  -0.00048904  0.74910956  0.38965695
   0.25104600  0.74563900  0.09703639
   0.25242347  0.74764728  0.38799026
   0.08604600  0.67086900  0.19220225
   0.50153700  0.74905700  0.09752875
   0.49718099  0.75280759  0.38412207
   0.33005900  0.66135600  0.19018621
   0.16688741  0.57602584  0.28874427
   0.74777500  0.74863100  0.09404494
   0.75432107  0.75471815  0.39210608
   0.58008200  0.66096300  0.19152733
   0.83213700  0.66199500  0.19303528
   0.66479899  0.58743562  0.29519543
   0.91915070  0.58406877  0.29183310
   0.08603600  0.91635500  0.19371195
   0.32743000  0.91932200  0.19293658
   0.16666393  0.83207844  0.29298142
   0.66202715  0.83527414  0.28822770
   0.91229568  0.83873024  0.29073559
   0.24916500  0.99813100  0.09559832
   0.25208059  0.00072828  0.38813038
   0.00129700  0.24974200  0.09658595
   0.00401100  0.24938835  0.38013963
   0.49933100  0.25162700  0.09537266
   0.50386588  0.25321495  0.38555007
   0.74944200  0.25071300  0.09573080
   0.75445032  0.24749959  0.38588052
   0.91710687  0.08530060  0.28704798
   0.08260800  0.41708000  0.19225321
   0.16803130  0.33232665  0.28632765
   0.91678414  0.33281460  0.28740426
   0.41256779  0.58249149  0.28976514
   0.58190700  0.91526900  0.19241277
   0.41277418  0.82931010  0.28717708
   0.83399900  0.91457100  0.19240403
Direct configuration=     9
   0.00194700  0.99920000  0.09682937
   0.00061352  0.00132705  0.39092077
   0.49880600  0.99647600  0.09614542
   0.50261484  0.00706295  0.39084992
   0.74316000  0.99645900  0.09443074
   0.75457256  0.00134708  0.38838781
   0.24913600  0.25322600  0.09681044
   0.25314685  0.24748702  0.39138690
   0.08873200  0.16149400  0.19059152
   0.32962600  0.16609800  0.19506268
   0.16219816  0.08527661  0.29503735
   0.58333000  0.16550300  0.19443696
   0.41301424  0.08251296  0.29306384
   0.82651500  0.16651000  0.19326268
   0.66131172  0.07898714  0.29268641
   0.00320800  0.51090900  0.09451343
  -0.00196078  0.49313002  0.38679926
   0.25586900  0.50577700  0.09734648
   0.24964913  0.49360588  0.38744879
   0.49960200  0.50304900  0.09754098
   0.49805299  0.49924669  0.39238522
   0.33859900  0.41583700  0.18939337
   0.75679100  0.50804300  0.09630935
   0.75342547  0.49726844  0.39175497
   0.58633600  0.42229400  0.19423576
   0.41580024  0.33968669  0.29340336
   0.82677100  0.41676200  0.19199494
   0.66864359  0.33030639  0.29296565
   0.99180600  0.74702800  0.09571304
  -0.00051304  0.74912102  0.39072109
   0.25104600  0.74563900  0.09703639
   0.25203825  0.74739618  0.38872324
   0.08604600  0.67086900  0.19220225
   0.50153700  0.74905700  0.09752875
   0.49764894  0.75262333  0.38463294
   0.33005900  0.66135600  0.19018621
   0.16610447  0.57643044  0.28891041
   0.74777500  0.74863100  0.09404494
   0.75378235  0.75459769  0.39324925
   0.58008200  0.66096300  0.19152733
   0.83213700  0.66199500  0.19303528
   0.66580266  0.58788576  0.29536463
   0.91753691  0.58386029  0.29186703
   0.08603600  0.91635500  0.19371195
   0.32743000  0.91932200  0.19293658
   0.16499189  0.83229800  0.29265548
   0.66193237  0.83304412  0.28805349
   0.91386340  0.83820919  0.29140728
   0.24916500  0.99813100  0.09559832
   0.25251270  0.00015953  0.38902128
   0.00129700  0.24974200  0.09658595
   0.00407723  0.24863818  0.38065930
   0.49933100  0.25162700  0.09537266
   0.50458345  0.25337540  0.38611823
   0.74944200  0.25071300  0.09573080
   0.75465751  0.24839584  0.38611711
   0.91679267  0.08527867  0.28773235
   0.08260800  0.41708000  0.19225321
   0.16765750  0.33126458  0.28678842
   0.91556990  0.33239828  0.28790881
   0.41421081  0.58377646  0.29012910
   0.58190700  0.91526900  0.19241277
   0.41187646  0.83023067  0.28753687
   0.83399900  0.91457100  0.19240403
Direct configuration=    10
   0.00194700  0.99920000  0.09682937
   0.00056853  0.00133853  0.39085277
   0.49880600  0.99647600  0.09614542
   0.50268467  0.00710562  0.39082987
   0.74316000  0.99645900  0.09443074
   0.75460705  0.00138169  0.38834819
   0.24913600  0.25322600  0.09681044
   0.25314309  0.24746080  0.39134161
   0.08873200  0.16149400  0.19059152
   0.32962600  0.16609800  0.19506268
   0.16218781  0.08531674  0.29500665
   0.58333000  0.16550300  0.19443696
   0.41297144  0.08248044  0.29302434
   0.82651500  0.16651000  0.19326268
   0.66139335  0.07888345  0.29266891
   0.00320800  0.51090900  0.09451343
  -0.00196506  0.49312115  0.38674445
   0.25586900  0.50577700  0.09734648
   0.24953641  0.49361754  0.38741180
   0.49960200  0.50304900  0.09754098
   0.49805838  0.49916870  0.39229660
   0.33859900  0.41583700  0.18939337
   0.75679100  0.50804300  0.09630935
   0.75341143  0.49732185  0.39167136
   0.58633600  0.42229400  0.19423576
   0.41575573  0.33985349  0.29333766
   0.82677100  0.41676200  0.19199494
   0.66865865  0.33020658  0.29293131
   0.99180600  0.74702800  0.09571304
  -0.00051118  0.74912013  0.39063859
   0.25104600  0.74563900  0.09703639
   0.25206812  0.74741564  0.38866641
   0.08604600  0.67086900  0.19220225
   0.50153700  0.74905700  0.09752875
   0.49761266  0.75263761  0.38459333
   0.33005900  0.66135600  0.19018621
   0.16616518  0.57639907  0.28889753
   0.74777500  0.74863100  0.09404494
   0.75382412  0.75460703  0.39316061
   0.58008200  0.66096300  0.19152733
   0.83213700  0.66199500  0.19303528
   0.66572484  0.58785086  0.29535151
   0.91766204  0.58387646  0.29186440
   0.08603600  0.91635500  0.19371195
   0.32743000  0.91932200  0.19293658
   0.16512153  0.83228098  0.29268075
   0.66193972  0.83321702  0.28806699
   0.91374185  0.83824959  0.29135520
   0.24916500  0.99813100  0.09559832
   0.25247920  0.00020363  0.38895221
   0.00129700  0.24974200  0.09658595
   0.00407210  0.24869634  0.38061901
   0.49933100  0.25162700  0.09537266
   0.50452781  0.25336296  0.38607418
   0.74944200  0.25071300  0.09573080
   0.75464145  0.24832635  0.38609877
   0.91681703  0.08528037  0.28767929
   0.08260800  0.41708000  0.19225321
   0.16768648  0.33134693  0.28675269
   0.91566404  0.33243055  0.28786969
   0.41408342  0.58367683  0.29010088
   0.58190700  0.91526900  0.19241277
   0.41194606  0.83015929  0.28750897
   0.83399900  0.91457100  0.19240403
Direct configuration=    11
   0.00194700  0.99920000  0.09682937
   0.00092771  0.00088471  0.39101520
   0.49880600  0.99647600  0.09614542
   0.50233665  0.00632969  0.39055912
   0.74316000  0.99645900  0.09443074
   0.75376147  0.00098459  0.38793518
   0.24913600  0.25322600  0.09681044
   0.25356817  0.24709869  0.39108709
   0.08873200  0.16149400  0.19059152
   0.32962600  0.16609800  0.19506268
   0.16259694  0.08581567  0.29513510
   0.58333000  0.16550300  0.19443696
   0.41330077  0.08286758  0.29335310
   0.82651500  0.16651000  0.19326268
   0.66114949  0.07852991  0.29250836
   0.00320800  0.51090900  0.09451343
  -0.00105276  0.49394513  0.38686358
   0.25586900  0.50577700  0.09734648
   0.25047158  0.49443209  0.38700870
   0.49960200  0.50304900  0.09754098
   0.49894265  0.49985371  0.39244187
   0.33859900  0.41583700  0.18939337
   0.75679100  0.50804300  0.09630935
   0.75334915  0.49759557  0.39216279
   0.58633600  0.42229400  0.19423576
   0.41547136  0.33992829  0.29344054
   0.82677100  0.41676200  0.19199494
   0.66828139  0.33131176  0.29308319
   0.99180600  0.74702800  0.09571304
  -0.00052307  0.74858694  0.39116969
   0.25104600  0.74563900  0.09703639
   0.25141864  0.74697373  0.38859098
   0.08604600  0.67086900  0.19220225
   0.50153700  0.74905700  0.09752875
   0.49783109  0.75279739  0.38464323
   0.33005900  0.66135600  0.19018621
   0.16581798  0.57660952  0.28887318
   0.74777500  0.74863100  0.09404494
   0.75346851  0.75390343  0.39344183
   0.58008200  0.66096300  0.19152733
   0.83213700  0.66199500  0.19303528
   0.66554144  0.58732538  0.29541859
   0.91728855  0.58354106  0.29197827
   0.08603600  0.91635500  0.19371195
   0.32743000  0.91932200  0.19293658
   0.16423570  0.83194702  0.29269525
   0.66239678  0.83402344  0.28766493
   0.91376241  0.83827823  0.29155311
   0.24916500  0.99813100  0.09559832
   0.25288824  0.00004225  0.38911665
   0.00129700  0.24974200  0.09658595
   0.00371335  0.24856790  0.38086166
   0.49933100  0.25162700  0.09537266
   0.50465130  0.25304908  0.38665240
   0.74944200  0.25071300  0.09573080
   0.75430687  0.24847751  0.38604530
   0.91610214  0.08468396  0.28808077
   0.08260800  0.41708000  0.19225321
   0.16799337  0.33140733  0.28686964
   0.91561136  0.33212965  0.28822967
   0.41405962  0.58298272  0.28993940
   0.58190700  0.91526900  0.19241277
   0.41194338  0.83015073  0.28766514
   0.83399900  0.91457100  0.19240403
Direct configuration=    12
   0.00194700  0.99920000  0.09682937
   0.00139920  0.00028900  0.39122841
   0.49880600  0.99647600  0.09614542
   0.50187981  0.00531114  0.39020372
   0.74316000  0.99645900  0.09443074
   0.75265151  0.00046333  0.38739304
   0.24913600  0.25322600  0.09681044
   0.25412616  0.24662336  0.39075298
   0.08873200  0.16149400  0.19059152
   0.32962600  0.16609800  0.19506268
   0.16313398  0.08647060  0.29530371
   0.58333000  0.16550300  0.19443696
   0.41373307  0.08337578  0.29378466
   0.82651500  0.16651000  0.19326268
   0.66082938  0.07806583  0.29229760
   0.00320800  0.51090900  0.09451343
   0.00014479  0.49502674  0.38701997
   0.25586900  0.50577700  0.09734648
   0.25169916  0.49550133  0.38647957
   0.49960200  0.50304900  0.09754098
   0.50010340  0.50075290  0.39263256
   0.33859900  0.41583700  0.18939337
   0.75679100  0.50804300  0.09630935
   0.75326740  0.49795486  0.39280789
   0.58633600  0.42229400  0.19423576
   0.41509808  0.34002647  0.29357560
   0.82677100  0.41676200  0.19199494
   0.66778616  0.33276251  0.29328257
   0.99180600  0.74702800  0.09571304
  -0.00053868  0.74788704  0.39186685
   0.25104600  0.74563900  0.09703639
   0.25056608  0.74639363  0.38849197
   0.08604600  0.67086900  0.19220225
   0.50153700  0.74905700  0.09752875
   0.49811781  0.75300712  0.38470874
   0.33005900  0.66135600  0.19018621
   0.16536223  0.57688576  0.28884123
   0.74777500  0.74863100  0.09404494
   0.75300171  0.75297984  0.39381098
   0.58008200  0.66096300  0.19152733
   0.83213700  0.66199500  0.19303528
   0.66530069  0.58663560  0.29550665
   0.91679829  0.58310079  0.29212774
   0.08603600  0.91635500  0.19371195
   0.32743000  0.91932200  0.19293658
   0.16307290  0.83150865  0.29271428
   0.66299674  0.83508200  0.28713715
   0.91378939  0.83831583  0.29181290
   0.24916500  0.99813100  0.09559832
   0.25342518 -0.00016959  0.38933252
   0.00129700  0.24974200  0.09658595
   0.00324244  0.24839929  0.38118017
   0.49933100  0.25162700  0.09537266
   0.50481341  0.25263705  0.38741142
   0.74944200  0.25071300  0.09573080
   0.75386767  0.24867593  0.38597512
   0.91516373  0.08390107  0.28860779
   0.08260800  0.41708000  0.19225321
   0.16839621  0.33148663  0.28702316
   0.91554221  0.33173466  0.28870221
   0.41402838  0.58207158  0.28972743
   0.58190700  0.91526900  0.19241277
   0.41193985  0.83013948  0.28787012
   0.83399900  0.91457100  0.19240403
Direct configuration=    13
   0.00194700  0.99920000  0.09682937
   0.00129213  0.00042427  0.39117999
   0.49880600  0.99647600  0.09614542
   0.50198355  0.00554243  0.39028442
   0.74316000  0.99645900  0.09443074
   0.75290357  0.00058170  0.38751615