       N       E                     dE             d eps       ncg     rms          rms(c)
DAV:   1     0.447005392502E+04    0.44701E+04   -0.24789E+05  8220   0.150E+03
DAV:   2     0.146440160396E+02   -0.44554E+04   -0.41730E+04  8220   0.343E+02
DAV:   3    -0.397360804185E+03   -0.41200E+03   -0.35318E+03  8517   0.145E+02
DAV:   4    -0.414461101629E+03   -0.17100E+02   -0.16724E+02  8745   0.320E+01
DAV:   5    -0.414773719274E+03   -0.31262E+00   -0.31241E+00  9429   0.359E+00    0.334E-01
RMM:   6    -0.414844090117E+03   -0.70371E-01   -0.16231E-01  8500   0.973E-01    0.659E-01
RMM:   7    -0.414848979263E+03   -0.48891E-02   -0.42679E-02 12109   0.320E-01    0.676E-01
RMM:   8    -0.414850242683E+03   -0.12634E-02   -0.39259E-03  8915   0.134E-01    0.644E-01
RMM:   9    -0.414848539144E+03    0.17035E-02   -0.12620E-03  8860   0.678E-02    0.301E-01
RMM:  10    -0.414848416910E+03    0.12223E-03   -0.65371E-04  8614   0.578E-02    0.260E-01
RMM:  11    -0.414848284077E+03    0.13283E-03   -0.27467E-04  8719   0.404E-02    0.110E-01
RMM:  12    -0.414848289413E+03   -0.53358E-05   -0.59751E-05  8931   0.156E-02    0.862E-02
RMM:  13    -0.414848318306E+03   -0.28893E-04   -0.21618E-05  9611   0.860E-03    0.738E-02
RMM:  14    -0.414848329661E+03   -0.11355E-04   -0.62940E-06  7656   0.536E-03    0.649E-02
RMM:  15    -0.414848358136E+03   -0.28475E-04   -0.35437E-06  6441   0.448E-03    0.567E-02
RMM:  16    -0.414848382418E+03   -0.24282E-04   -0.33770E-06  6369   0.455E-03    0.448E-02
RMM:  17    -0.414848397118E+03   -0.14700E-04   -0.17301E-06  5086   0.325E-03    0.393E-02
RMM:  18    -0.414848420182E+03   -0.23064E-04   -0.27357E-06  5982   0.397E-03    0.263E-02
RMM:  19    -0.414848423787E+03   -0.36051E-05   -0.72504E-07  4994   0.217E-03    0.241E-02
RMM:  20    -0.414848432886E+03   -0.90984E-05   -0.10944E-06  5159   0.259E-03    0.174E-02
RMM:  21    -0.414848434273E+03   -0.13877E-05   -0.54823E-07  4976   0.171E-03    0.147E-02
RMM:  22    -0.414848432472E+03    0.18013E-05   -0.88696E-07  5033   0.235E-03    0.866E-03
RMM:  23    -0.414848430251E+03    0.22211E-05   -0.33774E-07  4989   0.136E-03    0.682E-03
RMM:  24    -0.414848427450E+03    0.28009E-05   -0.38287E-07  4878   0.163E-03    0.278E-03
RMM:  25    -0.414848427532E+03   -0.82488E-07   -0.10909E-07  4865   0.828E-04
   1 F= -.42992511E+03 E0= -.42992511E+03  d E =0.000000E+00  mag=   105.9538
