 vasp.5.4.4.18Apr17-6-g9f103f2a35 (build Sep 06 2021 19:49:22) complex          
  
 executed on             LinuxIFC date 2022.01.03  19:45:53
 running on   72 total cores
 distrk:  each k-point on   72 cores,    1 groups
 distr:  one band on NCORES_PER_BAND=  24 cores,    3 groups


--------------------------------------------------------------------------------------------------------


 INCAR:
 POTCAR:    PAW_PBE Ni 02Aug2007                  
 POTCAR:    PAW_PBE Fe 06Sep2000                  

 ----------------------------------------------------------------------------- 
|                                                                             |
|           W    W    AA    RRRRR   N    N  II  N    N   GGGG   !!!           |
|           W    W   A  A   R    R  NN   N  II  NN   N  G    G  !!!           |
|           W    W  A    A  R    R  N N  N  II  N N  N  G       !!!           |
|           W WW W  AAAAAA  RRRRR   N  N N  II  N  N N  G  GGG   !            |
|           WW  WW  A    A  R   R   N   NN  II  N   NN  G    G                |
|           W    W  A    A  R    R  N    N  II  N    N   GGGG   !!!           |
|                                                                             |
|      For optimal performance we recommend to set                            |
|        NCORE= 4 - approx SQRT( number of cores)                             |
|      NCORE specifies how many cores store one orbital (NPAR=cpu/NCORE).     |
|      This setting can  greatly improve the performance of VASP for DFT.     |
|      The default,   NCORE=1            might be grossly inefficient         |
|      on modern multi-core architectures or massively parallel machines.     |
|      Do your own testing !!!!                                               |
|      Unfortunately you need to use the default for GW and RPA calculations. |
|      (for HF NCORE is supported but not extensively tested yet)             |
|                                                                             |
 ----------------------------------------------------------------------------- 

 POTCAR:    PAW_PBE Ni 02Aug2007                  
   VRHFIN =Ni:                                                                  
   LEXCH  = PE                                                                  
   EATOM  =  1077.6739 eV,   79.2068 Ry                                         
                                                                                
   TITEL  = PAW_PBE Ni 02Aug2007                                                
   LULTRA =        F    use ultrasoft PP ?                                      
   IUNSCR =        1    unscreen: 0-lin 1-nonlin 2-no                           
   RPACOR =    2.000    partial core radius                                     
   POMASS =   58.690; ZVAL   =   10.000    mass and valenz                      
   RCORE  =    2.300    outmost cutoff radius                                   
   RWIGS  =    2.430; RWIGS  =    1.286    wigner-seitz radius (au A)           
   ENMAX  =  269.532; ENMIN  =  202.149 eV                                      
   RCLOC  =    1.201    cutoff for local pot                                    
   LCOR   =        T    correct aug charges                                     
   LPAW   =        T    paw PP                                                  
   EAUG   =  544.565                                                            
   DEXC   =    0.000                                                            
   RMAX   =    2.357    core radius for proj-oper                               
   RAUG   =    1.300    factor for augmentation sphere                          
   RDEP   =    2.390    radius for radial grids                                 
   RDEPT  =    1.838    core radius for aug-charge                              
                                                                                
   Atomic configuration                                                         
    9 entries                                                                   
     n  l   j            E        occ.                                          
     1  0  0.50     -8206.4253   2.0000                                         
     2  0  0.50      -976.1748   2.0000                                         
     2  1  1.50      -839.0571   6.0000                                         
     3  0  0.50      -105.9991   2.0000                                         
     3  1  1.50       -66.4603   6.0000                                         
     3  2  2.50        -4.6458   9.0000                                         
     4  0  0.50        -4.4926   1.0000                                         
     4  1  1.50        -4.0817   0.0000                                         
     4  3  2.50        -1.3606   0.0000                                         
   Description                                                                  
     l       E           TYP  RCUT    TYP  RCUT                                 
     2     -4.6457903     23  2.300                                             
     2     -6.0063729     23  2.300                                             
     0     -4.4925590     23  2.300                                             
     0      5.0102601     23  2.300                                             
     1     -2.7211652     23  2.300                                             
     1     16.5183231     23  2.300                                             
  local pseudopotential read in
  partial core-charges read in
  partial kinetic energy density read in
  atomic valenz-charges read in
  non local Contribution for L=           2  read in
    real space projection operators read in
  non local Contribution for L=           2  read in
    real space projection operators read in
  non local Contribution for L=           0  read in
    real space projection operators read in
  non local Contribution for L=           0  read in
    real space projection operators read in
  non local Contribution for L=           1  read in
    real space projection operators read in
  non local Contribution for L=           1  read in
    real space projection operators read in
    PAW grid and wavefunctions read in
 
   number of l-projection  operators is LMAX  =           6
   number of lm-projection operators is LMMAX =          18
 
 POTCAR:    PAW_PBE Fe 06Sep2000                  
   VRHFIN =Fe:  d7 s1                                                           
   LEXCH  = PE                                                                  
   EATOM  =   594.3153 eV,   43.6809 Ry                                         
                                                                                
   TITEL  = PAW_PBE Fe 06Sep2000                                                
   LULTRA =        F    use ultrasoft PP ?                                      
   IUNSCR =        1    unscreen: 0-lin 1-nonlin 2-no                           
   RPACOR =    2.000    partial core radius                                     
   POMASS =   55.847; ZVAL   =    8.000    mass and valenz                      
   RCORE  =    2.300    outmost cutoff radius                                   
   RWIGS  =    2.460; RWIGS  =    1.302    wigner-seitz radius (au A)           
   ENMAX  =  267.882; ENMIN  =  200.911 eV                                      
   RCLOC  =    1.701    cutoff for local pot                                    
   LCOR   =        T    correct aug charges                                     
   LPAW   =        T    paw PP                                                  
   EAUG   =  511.368                                                            
   DEXC   =    0.000                                                            
   RMAX   =    2.356    core radius for proj-oper                               
   RAUG   =    1.300    factor for augmentation sphere                          
   RDEP   =    2.442    radius for radial grids                                 
   RDEPT  =    1.890    core radius for aug-charge                              
                                                                                
   Atomic configuration                                                         
    9 entries                                                                   
     n  l   j            E        occ.                                          
     1  0  0.50     -6993.8440   2.0000                                         
     2  0  0.50      -814.6047   2.0000                                         
     2  1  1.50      -693.3689   6.0000                                         
     3  0  0.50       -89.4732   2.0000                                         
     3  1  1.50       -55.6373   6.0000                                         
     3  2  2.50        -3.8151   7.0000                                         
     4  0  0.50        -4.2551   1.0000                                         
     4  1  1.50        -3.4015   0.0000                                         
     4  3  2.50        -1.3606   0.0000                                         
   Description                                                                  
     l       E           TYP  RCUT    TYP  RCUT                                 
     2     -3.8151135     23  2.300                                             
     2     -5.1756961     23  2.300                                             
     0     -4.2550963     23  2.300                                             
     0      7.2035603     23  2.300                                             
     1     -2.7211652     23  2.300                                             
     1     18.4316424     23  2.300                                             
  local pseudopotential read in
  partial core-charges read in
  partial kinetic energy density read in
  atomic valenz-charges read in
  non local Contribution for L=           2  read in
    real space projection operators read in
  non local Contribution for L=           2  read in
    real space projection operators read in
  non local Contribution for L=           0  read in
    real space projection operators read in
  non local Contribution for L=           0  read in
    real space projection operators read in
  non local Contribution for L=           1  read in
    real space projection operators read in
  non local Contribution for L=           1  read in
    real space projection operators read in
    PAW grid and wavefunctions read in
 
   number of l-projection  operators is LMAX  =           6
   number of lm-projection operators is LMMAX =          18
 
 Optimization of the real space projectors (new method)

 maximal supplied QI-value         = 16.25
 optimisation between [QCUT,QGAM] = [ 11.54, 23.24] = [ 37.28,151.24] Ry 
 Optimized for a Real-space Cutoff    1.45 Angstroem

   l    n(q)    QCUT    max X(q) W(low)/X(q) W(high)/X(q)  e(spline) 
   2      9    11.539    60.317    0.19E-03    0.47E-04    0.16E-06
   2      9    11.539    55.921    0.19E-03    0.48E-04    0.16E-06
   0     10    11.539    51.690    0.80E-04    0.50E-04    0.24E-06
   0     10    11.539    30.015    0.73E-04    0.45E-04    0.22E-06
   1     10    11.539    18.849    0.87E-04    0.16E-03    0.71E-07
   1     10    11.539    14.624    0.73E-04    0.13E-03    0.64E-07
 Optimization of the real space projectors (new method)

 maximal supplied QI-value         = 16.25
 optimisation between [QCUT,QGAM] = [ 11.54, 23.24] = [ 37.28,151.24] Ry 
 Optimized for a Real-space Cutoff    1.53 Angstroem

   l    n(q)    QCUT    max X(q) W(low)/X(q) W(high)/X(q)  e(spline) 
   2     10    11.539    80.901    0.11E-03    0.14E-03    0.21E-06
   2     10    11.539    75.754    0.11E-03    0.14E-03    0.22E-06
   0     11    11.539    58.752    0.52E-04    0.18E-04    0.33E-06
   0     11    11.539    30.679    0.44E-04    0.16E-04    0.30E-06
   1     10    11.539    17.977    0.53E-04    0.29E-04    0.13E-06
   1     10    11.539    13.559    0.44E-04    0.25E-04    0.11E-06
  PAW_PBE Ni 02Aug2007                  :
 energy of atom  1       EATOM=-1077.6739
 kinetic energy error for atom=    0.0030 (will be added to EATOM!!)
  PAW_PBE Fe 06Sep2000                  :
 energy of atom  2       EATOM= -594.3153
 kinetic energy error for atom=    0.0026 (will be added to EATOM!!)
 
 
 POSCAR: POSCAR                                  
  positions in direct lattice
  velocities in cartesian coordinates
 exchange correlation table for  LEXCH =        8
   RHO(1)=    0.500       N(1)  =     2000
   RHO(2)=  100.500       N(2)  =     4000
 


--------------------------------------------------------------------------------------------------------


 ion  position               nearest neighbor table
   1  0.999  0.001  0.191-  23 2.50  32 2.50  35 2.51   5 2.52  40 2.52  37 2.52  59 2.53   2 2.53
                             4 2.53  21 2.54  34 2.54  62 2.55
   2  0.248  0.999  0.192-  50 2.47  59 2.48  36 2.48  37 2.50   6 2.50   3 2.51  28 2.52   5 2.52
                            21 2.53   1 2.53   8 2.56  60 2.56
   3  0.499  0.002  0.192-  36 2.49  30 2.50  34 2.51   2 2.51   8 2.52  11 2.52   7 2.53  39 2.54
                            50 2.54  51 2.54  60 2.56  61 2.57
   4  0.998  0.251  0.192-  35 2.49  42 2.49  19 2.50  34 2.50  13 2.50   7 2.53   1 2.53  40 2.53
                            10 2.54  43 2.54   5 2.55  46 2.55
   5  0.249  0.249  0.191-  35 2.48  36 2.48  37 2.50  46 2.50   1 2.52  42 2.52   2 2.52   6 2.53
                            45 2.54  16 2.54   4 2.55  44 2.55
   6  0.335  0.165  0.288-  36 2.47   9 2.48  17 2.48  38 2.50   2 2.50  45 2.50  60 2.52  15 2.52
                            39 2.53   5 2.53  35 2.54  59 2.55
   7  0.749  0.253  0.193-  39 2.48  14 2.49  48 2.49  18 2.50  13 2.51  34 2.51   4 2.53   3 2.53
                            11 2.54  36 2.55  19 2.55  10 2.55
   8  0.418  0.084  0.094-  37 2.49  36 2.51  16 2.51   3 2.52  11 2.52  30 2.53  28 2.53  48 2.56
                             2 2.56
   9  0.418  0.083  0.383-  60 2.45   6 2.48  31 2.49  39 2.49  17 2.51  12 2.51  38 2.52  29 2.53
                            49 2.55
  10  0.834  0.167  0.290-  41 2.46  20 2.47  12 2.48  43 2.49  39 2.50  34 2.51  18 2.52  61 2.52
                            35 2.53  62 2.54   4 2.54   7 2.55
  11  0.668  0.085  0.096-  34 2.51  40 2.51  48 2.51   8 2.52   3 2.52  19 2.53  30 2.54  63 2.54
                             7 2.54
  12  0.667  0.084  0.385-  61 2.46  10 2.48  39 2.48  41 2.51   9 2.51  49 2.52  64 2.52  31 2.53
                            20 2.54
  13  0.999  0.499  0.193-  43 2.50  53 2.50  22 2.50   4 2.50  42 2.51   7 2.51  19 2.52  50 2.52
                            21 2.53  14 2.53  18 2.54  26 2.55
  14  0.748  0.499  0.192-  56 2.48  44 2.48   7 2.49  48 2.49  15 2.50  57 2.52  26 2.52  21 2.52
                            23 2.53  13 2.53  18 2.55  36 2.57
  15  0.585  0.414  0.289-  17 2.47  56 2.47  18 2.47  39 2.48  45 2.49  14 2.50   6 2.52  49 2.53
                            36 2.54  44 2.55  55 2.55  58 2.58
  16  0.420  0.333  0.094-  36 2.51   8 2.51  37 2.52  57 2.52  44 2.52  46 2.53  24 2.54  48 2.54
                             5 2.54
  17  0.417  0.332  0.382-  45 2.43  15 2.47   6 2.48  38 2.51   9 2.51  58 2.52  47 2.53  25 2.53
                            49 2.54
  18  0.830  0.414  0.290-  39 2.46  20 2.46  56 2.46  15 2.47  43 2.48  27 2.48  49 2.49   7 2.50
                            10 2.52  22 2.53  13 2.54  14 2.55
  19  0.919  0.335  0.096-  48 2.49   4 2.50  40 2.51  53 2.51  13 2.52  11 2.53  26 2.54  46 2.54
                             7 2.55
  20  0.919  0.336  0.384-  43 2.42  18 2.46  10 2.47  41 2.51  49 2.51  54 2.52  47 2.53  12 2.54
                            27 2.55
  21  0.998  0.749  0.193-  59 2.46  50 2.48  23 2.48  32 2.50  56 2.51  26 2.52  14 2.52   2 2.53
                            22 2.53  13 2.53   1 2.54  28 2.55
  22  0.081  0.664  0.289-  43 2.48  27 2.49  50 2.49  56 2.50  54 2.50  13 2.50  29 2.50  59 2.51
                            18 2.53  21 2.53  60 2.54  52 2.55
  23  0.753  0.752  0.192-  21 2.48  63 2.49   1 2.50  32 2.51  57 2.52  62 2.53  14 2.53  44 2.54
                            56 2.55  55 2.56  51 2.57  34 2.58
  24  0.417  0.584  0.096-  46 2.49  44 2.50  51 2.51  57 2.52  30 2.52  63 2.53  16 2.54  42 2.56
                            53 2.57
  25  0.415  0.581  0.386-  52 2.45  47 2.49  58 2.50  64 2.51  45 2.52  55 2.53  17 2.53  54 2.56
                            31 2.57
  26  0.916  0.585  0.095-  48 2.48  32 2.48  57 2.50  53 2.51  21 2.52  14 2.52  28 2.53  19 2.54
                            13 2.55
  27  0.912  0.585  0.384-  56 2.43  33 2.48  18 2.48  49 2.49  22 2.49  58 2.51  54 2.53  29 2.54
                            20 2.55
  28  0.167  0.835  0.095-  32 2.48  37 2.49  53 2.50   2 2.52  50 2.53   8 2.53  26 2.53  30 2.54
                            21 2.55
  29  0.164  0.836  0.383-  60 2.46  59 2.48  33 2.48  38 2.49  54 2.50  22 2.50   9 2.53  31 2.53
                            27 2.54
  30  0.417  0.833  0.097-  51 2.49   3 2.50  53 2.52  24 2.52   8 2.53  11 2.54  28 2.54  63 2.54
                            50 2.55
  31  0.415  0.836  0.386-  60 2.46   9 2.49  52 2.49  61 2.49  54 2.51  64 2.51  12 2.53  29 2.53
                            25 2.57
  32  0.920  0.833  0.095-  28 2.48  26 2.48   1 2.50  21 2.50  23 2.51  57 2.53  37 2.54  63 2.54
                            40 2.57
  33  0.917  0.833  0.384-  62 2.47  29 2.48  27 2.48  59 2.52  58 2.53  56 2.53  38 2.55  41 2.56
                            64 2.58
  34  0.749  0.005  0.193-   4 2.50  11 2.51  10 2.51   7 2.51   3 2.51  63 2.54  61 2.54   1 2.54
                            62 2.55  51 2.55  40 2.57  23 2.58
  35  0.085  0.169  0.286-   5 2.48   4 2.49   1 2.51  10 2.53  45 2.54  38 2.54   6 2.54  43 2.54
                            62 2.55  41 2.56  59 2.57  47 2.59
  36  0.493  0.245  0.192-   6 2.47   5 2.48   2 2.48   3 2.49   8 2.51  16 2.51  44 2.52  15 2.54
                             7 2.55  39 2.55  14 2.57  48 2.57
  37  0.171  0.083  0.095-  28 2.49   8 2.49   2 2.50   5 2.50  16 2.52   1 2.52  32 2.54  46 2.57
                            40 2.58
  38  0.169  0.085  0.384-  29 2.49   6 2.50  17 2.51   9 2.52  47 2.52  35 2.54  33 2.55  59 2.55
                            41 2.56
  39  0.588  0.169  0.289-  18 2.46   7 2.48  15 2.48  12 2.48   9 2.49  10 2.50  61 2.51   6 2.53
                             3 2.54  49 2.54  36 2.55  60 2.58
  40  0.917  0.086  0.094-  19 2.51  11 2.51   1 2.52  63 2.53   4 2.53  46 2.55  34 2.57  32 2.57
                            37 2.58
  41  0.916  0.086  0.385-  10 2.46  20 2.51  12 2.51  62 2.51  47 2.53  38 2.56  33 2.56  35 2.56
                            64 2.57
  42  0.246  0.497  0.194-   4 2.49  13 2.51  46 2.51   5 2.52  43 2.53  53 2.54  45 2.54  51 2.55
                            52 2.56  24 2.56  44 2.58  50 2.59
  43  0.077  0.416  0.290-  20 2.42  18 2.48  22 2.48  10 2.49  13 2.50  42 2.53   4 2.54  52 2.54
                            35 2.54  47 2.56  54 2.56  45 2.66
  44  0.503  0.500  0.191-  14 2.48  57 2.49  24 2.50  36 2.52  16 2.52  45 2.53  23 2.54   5 2.55
                            15 2.55  51 2.55  55 2.58  42 2.58
  45  0.340  0.415  0.289-  17 2.43  15 2.49   6 2.50  25 2.52  55 2.53  44 2.53  35 2.54  52 2.54
                             5 2.54  42 2.54  47 2.56  43 2.66
  46  0.171  0.337  0.096-  24 2.49   5 2.50  42 2.51  16 2.53  19 2.54   4 2.55  53 2.55  40 2.55
                            37 2.57
  47  0.169  0.334  0.387-  25 2.49  38 2.52  17 2.53  41 2.53  20 2.53  43 2.56  45 2.56  35 2.59
                            54 2.59
  48  0.673  0.336  0.096-  26 2.48  19 2.49  14 2.49   7 2.49  11 2.51  57 2.53  16 2.54   8 2.56
                            36 2.57
  49  0.670  0.335  0.387-  27 2.49  18 2.49  20 2.51  12 2.52  15 2.53  17 2.54  39 2.54   9 2.55
                            58 2.55
  50  0.245  0.753  0.193-   2 2.47  21 2.48  22 2.49  53 2.51  60 2.51  13 2.52  28 2.53   3 2.54
                            30 2.55  51 2.57  42 2.59  52 2.61
  51  0.498  0.750  0.193-  30 2.49  24 2.51  63 2.52   3 2.54  44 2.55  34 2.55  42 2.55  61 2.56
                            55 2.57  23 2.57  52 2.57  50 2.57
  52  0.333  0.663  0.293-  25 2.45  31 2.49  54 2.49  60 2.54  45 2.54  43 2.54  22 2.55  61 2.55
                            55 2.55  42 2.56  51 2.57  50 2.61
  53  0.165  0.586  0.097-  13 2.50  28 2.50  50 2.51  26 2.51  19 2.51  30 2.52  42 2.54  46 2.55
                            24 2.57
  54  0.165  0.589  0.387-  52 2.49  22 2.50  29 2.50  31 2.51  20 2.52  27 2.53  43 2.56  25 2.56
                            47 2.59
  55  0.588  0.668  0.291-  58 2.49  62 2.49  56 2.50  64 2.52  25 2.53  45 2.53  52 2.55  15 2.55
                            23 2.56  61 2.56  51 2.57  44 2.58
  56  0.830  0.658  0.289-  27 2.43  18 2.46  15 2.47  14 2.48  22 2.50  55 2.50  21 2.51  33 2.53
                            23 2.55  59 2.56  58 2.57  62 2.58
  57  0.668  0.584  0.095-  44 2.49  26 2.50  63 2.51  23 2.52  14 2.52  16 2.52  24 2.52  32 2.53
                            48 2.53
  58  0.664  0.585  0.388-  55 2.49  25 2.50  27 2.51  64 2.51  17 2.52  33 2.53  49 2.55  56 2.57
                            15 2.58
  59  0.082  0.913  0.287-  21 2.46  29 2.48   2 2.48  22 2.51  62 2.52  33 2.52  60 2.52   1 2.53
                             6 2.55  38 2.55  56 2.56  35 2.57
  60  0.332  0.915  0.291-   9 2.45  29 2.46  31 2.46  61 2.51  50 2.51   6 2.52  59 2.52  22 2.54
                            52 2.54   3 2.56   2 2.56  39 2.58
  61  0.583  0.919  0.291-  12 2.46  31 2.49  60 2.51  39 2.51  64 2.52  10 2.52  34 2.54  52 2.55
                            62 2.55  55 2.56  51 2.56   3 2.57
  62  0.834  0.916  0.289-  33 2.47  55 2.49  41 2.51  59 2.52  23 2.53  10 2.54  35 2.55  34 2.55
                             1 2.55  61 2.55  56 2.58  64 2.59
  63  0.668  0.834  0.097-  23 2.49  57 2.51  51 2.52  40 2.53  24 2.53  30 2.54  34 2.54  11 2.54
                            32 2.54
  64  0.661  0.832  0.388-  31 2.51  25 2.51  58 2.51  61 2.52  12 2.52  55 2.52  41 2.57  33 2.58
                            62 2.59
 

IMPORTANT INFORMATION: All symmetrisations will be switched off!
NOSYMM: (Re-)initialisation of all symmetry stuff for point group C_1.

 
 

Automatic generation of k-mesh.
 generate k-points for:    3    3    1
Space group operators:
 irot       det(A)        alpha          n_x          n_y          n_z        tau_x        tau_y        tau_z
    1     1.000000     0.000001     1.000000     0.000000     0.000000     0.000000     0.000000     0.000000
 
 Subroutine IBZKPT returns following result:
 ===========================================
 
 Found      5 irreducible k-points:
 
 Following reciprocal coordinates:
            Coordinates               Weight
  0.000000  0.000000  0.000000      1.000000
  0.333333  0.000000  0.000000      2.000000
  0.000000  0.333333  0.000000      2.000000
  0.333333  0.333333  0.000000      2.000000
 -0.333333  0.333333  0.000000      2.000000
 
 Following cartesian coordinates:
            Coordinates               Weight
  0.000000  0.000000  0.000000      1.000000
  0.033002  0.019054  0.000000      2.000000
  0.000000  0.038108  0.000000      2.000000
  0.033002  0.057162  0.000000      2.000000
 -0.033002  0.019054  0.000000      2.000000
 
 TETIRR: Found     24 inequivalent tetrahedra from       54


--------------------------------------------------------------------------------------------------------




 Dimension of arrays:
   k-points           NKPTS =      5   k-points in BZ     NKDIM =      5   number of bands    NBANDS=    411
   number of dos      NEDOS =    301   number of ions     NIONS =     64
   non local maximal  LDIM  =      6   non local SUM 2l+1 LMDIM =     18
   total plane-waves  NPLWV = ******
   max r-space proj   IRMAX =   8292   max aug-charges    IRDMAX=  19623
   dimension x,y,z NGX =    80 NGY =   80 NGZ =  160
   dimension x,y,z NGXF=   160 NGYF=  160 NGZF=  320
   support grid    NGXF=   160 NGYF=  160 NGZF=  320
   ions per type =              33  31
   NGX,Y,Z   is equivalent  to a cutoff of  13.17, 13.17, 12.52 a.u.
   NGXF,Y,Z  is equivalent  to a cutoff of  26.34, 26.34, 25.03 a.u.

 SYSTEM =  SQS-NiFe                                
 POSCAR =  POSCAR                                  

 Startparameter for this run:
   NWRITE =      2    write-flag & timer
   PREC   = accura    normal or accurate (medium, high low for compatibility)
   ISTART =      0    job   : 0-new  1-cont  2-samecut
   ICHARG =      1    charge: 1-file 2-atom 10-const
   ISPIN  =      2    spin polarized calculation?
   LNONCOLLINEAR =      F non collinear calculations
   LSORBIT =      F    spin-orbit coupling
   INIWAV =      1    electr: 0-lowe 1-rand  2-diag
   LASPH  =      F    aspherical Exc in radial PAW
   METAGGA=      F    non-selfconsistent MetaGGA calc.

 Electronic Relaxation 1
   ENCUT  =  520.0 eV  38.22 Ry    6.18 a.u.  18.78 18.78 39.52*2*pi/ulx,y,z
   ENINI  =  520.0     initial cutoff
   ENAUG  =  544.6 eV  augmentation charge cutoff
   NELM   =    200;   NELMIN=  2; NELMDL= -5     # of ELM steps 
   EDIFF  = 0.1E-05   stopping-criterion for ELM
   LREAL  =      T    real-space projection
   NLSPLINE    = F    spline interpolate recip. space projectors
   LCOMPAT=      F    compatible to vasp.4.4
   GGA_COMPAT  = T    GGA compatible to vasp.4.4-vasp.4.6
   LMAXPAW     = -100 max onsite density
   LMAXMIX     =    2 max onsite mixed and CHGCAR
   VOSKOWN=      0    Vosko Wilk Nusair interpolation
   ROPT   =   -0.00025  -0.00025
 Ionic relaxation
   EDIFFG = -.2E-01   stopping-criterion for IOM
   NSW    =      0    number of steps for IOM
   NBLOCK =      1;   KBLOCK =      1    inner block; outer block 
   IBRION =     -1    ionic relax: 0-MD 1-quasi-New 2-CG
   NFREE  =      0    steps in history (QN), initial steepest desc. (CG)
   ISIF   =      2    stress and relaxation
   IWAVPR =     10    prediction:  0-non 1-charg 2-wave 3-comb
   ISYM   =      0    0-nonsym 1-usesym 2-fastsym
   LCORR  =      T    Harris-Foulkes like correction to forces

   POTIM  = 0.5000    time-step for ionic-motion
   TEIN   =    0.0    initial temperature
   TEBEG  =    0.0;   TEEND  =   0.0 temperature during run
   SMASS  =  -3.00    Nose mass-parameter (am)
   estimated Nose-frequenzy (Omega)   =  0.10E-29 period in steps =****** mass=  -0.233E-26a.u.
   SCALEE = 1.0000    scale energy and forces
   NPACO  =    256;   APACO  = 16.0  distance and # of slots for P.C.
   PSTRESS=    0.0 pullay stress

  Mass of Ions in am
   POMASS =  58.69 55.85
  Ionic Valenz
   ZVAL   =  10.00  8.00
  Atomic Wigner-Seitz radii
   RWIGS  =  -1.00 -1.00
  virtual crystal weights 
   VCA    =   1.00  1.00
   NELECT =     578.0000    total number of electrons
   NUPDOWN=      -1.0000    fix difference up-down

 DOS related values:
   EMIN   =  10.00;   EMAX   =-10.00  energy-range for DOS
   EFERMI =   0.00
   ISMEAR =    -5;   SIGMA  =   0.20  broadening in eV -4-tet -1-fermi 0-gaus

 Electronic relaxation 2 (details)
   IALGO  =     68    algorithm
   LDIAG  =      T    sub-space diagonalisation (order eigenvalues)
   LSUBROT=      F    optimize rotation matrix (better conditioning)
   TURBO    =      0    0=normal 1=particle mesh
   IRESTART =      0    0=no restart 2=restart with 2 vectors
   NREBOOT  =      0    no. of reboots
   NMIN     =      0    reboot dimension
   EREF     =   0.00    reference energy to select bands
   IMIX   =      4    mixing-type and parameters
     AMIX     =   0.40;   BMIX     =  1.00
     AMIX_MAG =   1.60;   BMIX_MAG =  1.00
     AMIN     =   0.10
     WC   =   100.;   INIMIX=   1;  MIXPRE=   1;  MAXMIX= -45

 Intra band minimization:
   WEIMIN = 0.0000     energy-eigenvalue tresh-hold
   EBREAK =  0.61E-09  absolut break condition
   DEPER  =   0.30     relativ break condition  

   TIME   =   0.40     timestep for ELM

  volume/ion in A,a.u.               =      29.34       197.99
  Fermi-wavevector in a.u.,A,eV,Ry     =   1.105364  2.088835 16.623995  1.221829
  Thomas-Fermi vector in A             =   2.241850
 
 Write flags
   LWAVE        =      F    write WAVECAR
   LDOWNSAMPLE  =      F    k-point downsampling of WAVECAR
   LCHARG       =      F    write CHGCAR
   LVTOT        =      F    write LOCPOT, total local potential
   LVHAR        =      F    write LOCPOT, Hartree potential only
   LELF         =      F    write electronic localiz. function (ELF)
   LORBIT       =     11    0 simple, 1 ext, 2 COOP (PROOUT), +10 PAW based schemes


 Dipole corrections
   LMONO  =      F    monopole corrections only (constant potential shift)
   LDIPOL =      T    correct potential (dipole corrections)
   IDIPOL =      3    1-x, 2-y, 3-z, 4-all directions 
   EPSILON=  1.0000000 bulk dielectric constant

 Exchange correlation treatment:
   GGA     =    --    GGA type
   LEXCH   =     8    internal setting for exchange type
   VOSKOWN=      0    Vosko Wilk Nusair interpolation
   LHFCALC =     F    Hartree Fock is set to
   LHFONE  =     F    Hartree Fock one center treatment
   AEXX    =    0.0000 exact exchange contribution

 Linear response parameters
   LEPSILON=     F    determine dielectric tensor
   LRPA    =     F    only Hartree local field effects (RPA)
   LNABLA  =     F    use nabla operator in PAW spheres
   LVEL    =     F    velocity operator in full k-point grid
   LINTERFAST=   F  fast interpolation
   KINTER  =     0    interpolate to denser k-point grid
   CSHIFT  =0.1000    complex shift for real part using Kramers Kronig
   OMEGAMAX=  -1.0    maximum frequency
   DEG_THRESHOLD= 0.2000000E-02 threshold for treating states as degnerate
   RTIME   =   -0.100 relaxation time in fs
  (WPLASMAI=    0.000 imaginary part of plasma frequency in eV, 0.658/RTIME)
   DFIELD  = 0.0000000 0.0000000 0.0000000 field for delta impulse in time
 
 Orbital magnetization related:
   ORBITALMAG=     F  switch on orbital magnetization
   LCHIMAG   =     F  perturbation theory with respect to B field
   DQ        =  0.001000  dq finite difference perturbation B field
   LLRAUG    =     F  two centre corrections for induced B field



--------------------------------------------------------------------------------------------------------


 Static calculation
 charge density and potential will be updated during run
 spin polarized calculation
 RMM-DIIS sequential band-by-band and
  variant of blocked Davidson during initial phase
 perform sub-space diagonalisation
    before iterative eigenvector-optimisation
 modified Broyden-mixing scheme, WC =      100.0
 initial mixing is a Kerker type mixing with AMIX =  0.4000 and BMIX =      1.0000
 Hartree-type preconditioning will be used
 using additional bands          122
 real space projection scheme for non local part
 use partial core corrections
 calculate Harris-corrections to forces 
   (improved forces if not selfconsistent)
 use gradient corrections 
 use of overlap-Matrix (Vanderbilt PP)
 Fermi weights with tetrahedron method with Bloechl corrections


--------------------------------------------------------------------------------------------------------


  energy-cutoff  :      520.00
  volume of cell :     1877.74
      direct lattice vectors                 reciprocal lattice vectors
    10.100310000  0.000000000  0.000000000     0.099006862  0.057161638  0.000000000
    -5.050155000  8.747125050  0.000000000     0.000000000  0.114323277  0.000000000
     0.000000000  0.000000000 21.253798980     0.000000000  0.000000000  0.047050412

  length of vectors
    10.100310000 10.100310003 21.253798980     0.114323277  0.114323277  0.047050412


 
 k-points in units of 2pi/SCALE and weight: read from INCAR                         
   0.00000000  0.00000000  0.00000000       0.111
   0.03300229  0.01905388  0.00000000       0.222
   0.00000000  0.03810776  0.00000000       0.222
   0.03300229  0.05716164  0.00000000       0.222
  -0.03300229  0.01905388  0.00000000       0.222
 
 k-points in reciprocal lattice and weights: read from INCAR                         
   0.00000000  0.00000000  0.00000000       0.111
   0.33333333  0.00000000  0.00000000       0.222
   0.00000000  0.33333333  0.00000000       0.222
   0.33333333  0.33333333  0.00000000       0.222
  -0.33333333  0.33333333  0.00000000       0.222
 
 position of ions in fractional coordinates (direct lattice) 
   0.99904300  0.00064200  0.19052303
   0.24849100  0.99862800  0.19205463
   0.49902500  0.00192700  0.19180553
   0.99813900  0.25067400  0.19194230
   0.24921500  0.24886200  0.19118596
   0.33461386  0.16487469  0.28792957
   0.74893500  0.25278100  0.19317475
   0.41837500  0.08394000  0.09411799
   0.41754032  0.08331073  0.38287485
   0.83382202  0.16668346  0.29034930
   0.66797000  0.08472300  0.09569325
   0.66707578  0.08445348  0.38451699
   0.99908600  0.49910800  0.19304001
   0.74816900  0.49871100  0.19204590
   0.58535506  0.41398011  0.28893412
   0.41961000  0.33337100  0.09413982
   0.41749334  0.33216495  0.38216811
   0.83014922  0.41388692  0.29024965
   0.91855900  0.33501600  0.09568743
   0.91879482  0.33562789  0.38363986
   0.99765800  0.74896900  0.19256042
   0.08090657  0.66389106  0.28934230
   0.75346500  0.75172800  0.19162859
   0.41737300  0.58352400  0.09623425
   0.41463458  0.58132190  0.38583615
   0.91550800  0.58461900  0.09542872
   0.91210546  0.58476454  0.38361341
   0.16682900  0.83490800  0.09456674
   0.16424923  0.83647324  0.38333368
   0.41715300  0.83338800  0.09679270
   0.41451869  0.83572825  0.38582413
   0.91985100  0.83263700  0.09539845
   0.91651741  0.83291479  0.38366759
   0.74918200  0.00453800  0.19311305
   0.08496426  0.16873964  0.28606004
   0.49319000  0.24544000  0.19167806
   0.17139600  0.08339300  0.09535888
   0.16880407  0.08477604  0.38357270
   0.58771376  0.16938992  0.28915879
   0.91693100  0.08581500  0.09410082
   0.91618178  0.08615549  0.38458117
   0.24596400  0.49669300  0.19369944
   0.07663564  0.41614980  0.29017835
   0.50297300  0.49962100  0.19096333
   0.33999616  0.41544507  0.28918304
   0.17081400  0.33724200  0.09550526
   0.16860431  0.33418928  0.38686631
   0.67264700  0.33598100  0.09600347
   0.66992884  0.33520321  0.38720892
   0.24490500  0.75270000  0.19343637
   0.49840300  0.74988300  0.19260698
   0.33264639  0.66330559  0.29254162
   0.16470600  0.58627100  0.09733079
   0.16464553  0.58900645  0.38723087
   0.58771025  0.66802981  0.29064983
   0.83049879  0.65808747  0.28860880
   0.66762500  0.58426200  0.09519882
   0.66384784  0.58480309  0.38783370
   0.08214462  0.91334751  0.28663538
   0.33242647  0.91474374  0.29082949
   0.58259688  0.91856153  0.29112074
   0.83380574  0.91558513  0.28944234
   0.66841400  0.83351100  0.09659831
   0.66105608  0.83213983  0.38817020
 
 position of ions in cartesian coordinates  (Angst):
  10.08740180  0.00561565  4.04933818
  -2.53339006  8.73512399  4.08189050
   5.03057555  0.01685571  4.07659618
   8.81557077  2.19267682  4.07950306
   1.26035708  2.17682703  4.06342796
   2.54706100  1.44217957  6.11959716
   6.28789244  2.21110702  4.10569730
   3.80180719  0.73423368  2.00036484
   3.79655452  0.72872938  8.13754508
   7.58008352  1.45800109  6.17102568
   6.31883979  0.74108268  2.03384510
   6.31116904  0.73872516  8.17244690
   7.57050555  4.36576009  4.10283357
   5.03817098  4.36228748  4.08170495
   3.82160386  3.62113575  6.14094769
   2.55461586  2.91603783  2.00082881
   2.53932765  2.90548838  8.12252408
   6.29457141  3.62032062  6.16890780
   7.58584793  2.93042685  2.03372140
   7.58513963  2.93577915  8.15380441
   6.29424553  6.55132550  4.09264046
  -2.53557131  5.80713810  6.14962314
   3.81388716  6.57545882  4.07283553
   1.26871004  5.10415740  2.04534340
   1.25217210  5.08489535  8.20048397
   6.29449804  5.11373550  2.02822283
   6.25939640  5.11500851  8.15324222
  -2.53139019  7.30304468  2.00990248
  -2.56535142  7.31673604  8.14729708
   0.00463604  7.28974905  2.05721259
  -0.03378992  7.31021948  8.20022858
   5.08583435  7.28317996  2.02757948
   5.05076114  7.28560985  8.15439375
   7.54405284  0.03969445  4.10438595
   0.00600405  1.47598669  6.07986262
   3.74186185  2.14689437  4.07388696
   1.31000516  0.72944900  2.02673847
   1.27684129  0.74154665  8.15237696
   5.08064582  1.48167480  6.14572287
   8.82790830  0.75063454  1.99999991
   8.81862144  0.75361280  8.17381077
  -0.02406399  4.34463578  4.11684896
  -1.32757722  3.64011433  6.16739227
   2.55701973  4.37024736  4.05869623
   1.33600456  3.63395002  6.14623814
   0.02214998  2.94989795  2.02984960
   0.01524814  2.92319539  8.22237875
   5.09718709  2.93886782  2.04043845
   5.07366078  2.93206439  8.22966052
  -1.32763525  6.58396103  4.11125772
   1.24699942  6.55932037  4.09363004
   0.01003565  5.80201695  6.21762083
  -1.29717776  5.12818575  2.06864905
  -1.31160304  5.15211310  8.23012698
   2.56240160  5.84334032  6.17741316
   5.06485147  5.75637341  6.13403340
   3.79260580  5.11061278  2.02333658
   3.75172280  5.11534572  8.24293940
  -3.78286035  7.98916486  6.09209079
  -1.26198727  8.00137788  6.18123159
   1.24553102  8.03477258  6.18742165
   3.79784966  8.00873764  6.15174926
   2.54182886  7.29082495  2.05308106
   2.47443628  7.27883111  8.25009131
 


--------------------------------------------------------------------------------------------------------


 k-point  1 :   0.0000 0.0000 0.0000  plane waves:   50641
 k-point  2 :   0.3333 0.0000 0.0000  plane waves:   50572
 k-point  3 :   0.0000 0.3333 0.0000  plane waves:   50572
 k-point  4 :   0.3333 0.3333 0.0000  plane waves:   50583
 k-point  5 :  -0.3333 0.3333 0.0000  plane waves:   50572

 maximum and minimum number of plane-waves per node :      2130     2087

 maximum number of plane-waves:     50641
 maximum index in each direction: 
   IXMAX=   19   IYMAX=   18   IZMAX=   39
   IXMIN=  -19   IYMIN=  -19   IZMIN=  -39


 real space projection operators:
  total allocation   :      65955.66 KBytes
  max/ min on nodes  :       3323.81       2397.94


 parallel 3D FFT for wavefunctions:
    minimum data exchange during FFTs selected (reduces bandwidth)
 parallel 3D FFT for charge:
    minimum data exchange during FFTs selected (reduces bandwidth)


 total amount of memory used by VASP MPI-rank0   113831. kBytes
=======================================================================

   base      :      30000. kBytes
   nonlr-proj:      13007. kBytes
   fftplans  :       6403. kBytes
   grid      :      16455. kBytes
   one-center:         93. kBytes
   wavefun   :      47873. kBytes
 
     INWAV:  cpu time    0.0000: real time    0.0001
 Broyden mixing: mesh for mixing (old mesh)
   NGX = 37   NGY = 37   NGZ = 79
  (NGX  =160   NGY  =160   NGZ  =320)
  gives a total of 108151 points

 initial charge density was supplied:
 number of electron     578.0000083 magnetization     105.9540240
 keeping initial charge density in first step


--------------------------------------------------------------------------------------------------------


 Maximum index for non-local projection operator          761
 Maximum index for augmentation-charges         1120 (set IRDMAX)


--------------------------------------------------------------------------------------------------------


 First call to EWALD:  gamma=   0.144
 Maximum number of real-space cells 4x 4x 2
 Maximum number of reciprocal cells 2x 2x 4

    FEWALD:  cpu time    0.0050: real time    0.0046


--------------------------------------- Iteration      1(   1)  ---------------------------------------


    POTLOK:  cpu time    0.2450: real time    0.2543
    SETDIJ:  cpu time    0.0190: real time    0.0200
     EDDAV:  cpu time   24.0623: real time   24.4658
 BZINTS: Fermi energy: 10.824450;578.000000 electrons
         Band energy:3579.055081;  BLOECHL correction: -0.016074
       DOS:  cpu time    0.0440: real time    0.0443
    --------------------------------------------
      LOOP:  cpu time   24.3703: real time   24.7843

 eigenvalue-minimisations  :  8220
 total energy-change (2. order) : 0.4470054E+04  (-0.2478878E+05)
 number of electron     578.0000083 magnetization     105.9540240
 augmentation part      578.0000083 magnetization     105.9540240

 DIPCOR: dipole corrections for dipol
 direction  3 min pos   238,
 dipolmoment           0.000000      0.000000     -0.021985 electrons x Angstroem
 Tr[quadrupol]     -9754.506370

 energy correction for charged system         0.000000 eV
 dipol+quadrupol energy correction           -0.000023 eV
 added-field ion interaction         -0.024970 eV  (added to PSCEN)


 Free energy of the ion-electron system (eV)
  ---------------------------------------------------
  alpha Z        PSCENC =      1342.40351117
  Ewald energy   TEWEN  =    187821.91326209
  -Hartree energ DENC   =   -240867.86373536
  -exchange      EXHF   =         0.00000000
  -V(xc)+E(xc)   XCENC  =      1147.00171724
  PAW double counting   =     58480.48464408   -61019.77399743
  entropy T*S    EENTRO =         0.00000000
  eigenvalues    EBANDS =      3579.05508114
  atomic energy  EATOM  =     53986.83344209
  Solvation  Ediel_sol  =         0.00000000
  ---------------------------------------------------
  free energy    TOTEN  =      4470.05392502 eV

  energy without entropy =     4470.05392502  energy(sigma->0) =     4470.05392502


--------------------------------------------------------------------------------------------------------




--------------------------------------- Iteration      1(   2)  ---------------------------------------


     EDDAV:  cpu time   24.2463: real time   24.4697
 BZINTS: Fermi energy:  1.176160;578.000000 electrons
         Band energy:-876.354828;  BLOECHL correction: -0.004608
       DOS:  cpu time    0.0420: real time    0.0429
    --------------------------------------------
      LOOP:  cpu time   24.2893: real time   24.5126

 eigenvalue-minimisations  :  8220
 total energy-change (2. order) :-0.4455410E+04  (-0.4173000E+04)
 number of electron     578.0000083 magnetization     105.9540240
 augmentation part      578.0000083 magnetization     105.9540240

 DIPCOR: dipole corrections for dipol
 direction  3 min pos   238,
 dipolmoment           0.000000      0.000000     -0.021985 electrons x Angstroem
 Tr[quadrupol]     -9754.506370

 energy correction for charged system         0.000000 eV
 dipol+quadrupol energy correction           -0.000023 eV
 added-field ion interaction         -0.024970 eV  (added to PSCEN)


 Free energy of the ion-electron system (eV)
  ---------------------------------------------------
  alpha Z        PSCENC =      1342.40351117
  Ewald energy   TEWEN  =    187821.91326209
  -Hartree energ DENC   =   -240867.86373536
  -exchange      EXHF   =         0.00000000
  -V(xc)+E(xc)   XCENC  =      1147.00171724
  PAW double counting   =     58480.48464408   -61019.77399743
  entropy T*S    EENTRO =         0.00000000
  eigenvalues    EBANDS =      -876.35482784
  atomic energy  EATOM  =     53986.83344209
  Solvation  Ediel_sol  =         0.00000000
  ---------------------------------------------------
  free energy    TOTEN  =        14.64401604 eV

  energy without entropy =       14.64401604  energy(sigma->0) =       14.64401604


--------------------------------------------------------------------------------------------------------




--------------------------------------- Iteration      1(   3)  ---------------------------------------


     EDDAV:  cpu time   25.0582: real time   25.1518
 BZINTS: Fermi energy:  0.053563;578.000000 electrons
         Band energy:***********;  BLOECHL correction: -0.009008
       DOS:  cpu time    0.0410: real time    0.0404
    --------------------------------------------
      LOOP:  cpu time   25.0982: real time   25.1921

 eigenvalue-minimisations  :  8517
 total energy-change (2. order) :-0.4120048E+03  (-0.3531798E+03)
 number of electron     578.0000083 magnetization     105.9540240
 augmentation part      578.0000083 magnetization     105.9540240

 DIPCOR: dipole corrections for dipol
 direction  3 min pos   238,
 dipolmoment           0.000000      0.000000     -0.021985 electrons x Angstroem
 Tr[quadrupol]     -9754.506370

 energy correction for charged system         0.000000 eV
 dipol+quadrupol energy correction           -0.000023 eV
 added-field ion interaction         -0.024970 eV  (added to PSCEN)


 Free energy of the ion-electron system (eV)
  ---------------------------------------------------
  alpha Z        PSCENC =      1342.40351117
  Ewald energy   TEWEN  =    187821.91326209
  -Hartree energ DENC   =   -240867.86373536
  -exchange      EXHF   =         0.00000000
  -V(xc)+E(xc)   XCENC  =      1147.00171724
  PAW double counting   =     58480.48464408   -61019.77399743
  entropy T*S    EENTRO =         0.00000000
  eigenvalues    EBANDS =     -1288.35964806
  atomic energy  EATOM  =     53986.83344209
  Solvation  Ediel_sol  =         0.00000000
  ---------------------------------------------------
  free energy    TOTEN  =      -397.36080418 eV

  energy without entropy =     -397.36080418  energy(sigma->0) =     -397.36080418


--------------------------------------------------------------------------------------------------------




--------------------------------------- Iteration      1(   4)  ---------------------------------------


     EDDAV:  cpu time   25.4871: real time   25.5764
 BZINTS: Fermi energy:  0.019070;578.000000 electrons
         Band energy:***********;  BLOECHL correction: -0.006046
       DOS:  cpu time    0.0440: real time    0.0439
    --------------------------------------------
      LOOP:  cpu time   25.5311: real time   25.6203

 eigenvalue-minimisations  :  8745
 total energy-change (2. order) :-0.1710030E+02  (-0.1672381E+02)
 number of electron     578.0000083 magnetization     105.9540240
 augmentation part      578.0000083 magnetization     105.9540240

 DIPCOR: dipole corrections for dipol
 direction  3 min pos   238,
 dipolmoment           0.000000      0.000000     -0.021985 electrons x Angstroem
 Tr[quadrupol]     -9754.506370

 energy correction for charged system         0.000000 eV
 dipol+quadrupol energy correction           -0.000023 eV
 added-field ion interaction         -0.024970 eV  (added to PSCEN)


 Free energy of the ion-electron system (eV)
  ---------------------------------------------------
  alpha Z        PSCENC =      1342.40351117
  Ewald energy   TEWEN  =    187821.91326209
  -Hartree energ DENC   =   -240867.86373536
  -exchange      EXHF   =         0.00000000
  -V(xc)+E(xc)   XCENC  =      1147.00171724
  PAW double counting   =     58480.48464408   -61019.77399743
  entropy T*S    EENTRO =         0.00000000
  eigenvalues    EBANDS =     -1305.45994551
  atomic energy  EATOM  =     53986.83344209
  Solvation  Ediel_sol  =         0.00000000
  ---------------------------------------------------
  free energy    TOTEN  =      -414.46110163 eV

  energy without entropy =     -414.46110163  energy(sigma->0) =     -414.46110163


--------------------------------------------------------------------------------------------------------




--------------------------------------- Iteration      1(   5)  ---------------------------------------


     EDDAV:  cpu time   26.9269: real time   27.0818
 BZINTS: Fermi energy:  0.018399;578.000000 electrons
         Band energy:***********;  BLOECHL correction: -0.005983
       DOS:  cpu time    0.0420: real time    0.0424
    CHARGE:  cpu time    0.7389: real time    0.7388
    MIXING:  cpu time    0.0050: real time    0.0045
    --------------------------------------------
      LOOP:  cpu time   27.7128: real time   27.8675

 eigenvalue-minimisations  :  9429
 total energy-change (2. order) :-0.3126176E+00  (-0.3124077E+00)
 number of electron     578.0000083 magnetization     105.9537683
 augmentation part      333.0357295 magnetization      88.2589862

 DIPCOR: dipole corrections for dipol
 direction  3 min pos   238,
 dipolmoment           0.000000      0.000000     -0.021985 electrons x Angstroem
 Tr[quadrupol]     -9754.506370

 energy correction for charged system         0.000000 eV
 dipol+quadrupol energy correction           -0.000023 eV
 added-field ion interaction         -0.024970 eV  (added to PSCEN)


 Broyden mixing:
  rms(total) = 0.33357E-01    rms(broyden)= 0.33278E-01
  rms(prec ) = 0.33636E-01
  weight for this iteration     100.00

 Free energy of the ion-electron system (eV)
  ---------------------------------------------------
  alpha Z        PSCENC =      1342.40351117
  Ewald energy   TEWEN  =    187821.91326209
  -Hartree energ DENC   =   -240867.86373536
  -exchange      EXHF   =         0.00000000
  -V(xc)+E(xc)   XCENC  =      1147.00171724
  PAW double counting   =     58480.48464408   -61019.77399743
  entropy T*S    EENTRO =         0.00000000
  eigenvalues    EBANDS =     -1305.77256315
  atomic energy  EATOM  =     53986.83344209
  Solvation  Ediel_sol  =         0.00000000
  ---------------------------------------------------
  free energy    TOTEN  =      -414.77371927 eV

  energy without entropy =     -414.77371927  energy(sigma->0) =     -414.77371927


--------------------------------------------------------------------------------------------------------




--------------------------------------- Iteration      1(   6)  ---------------------------------------


    POTLOK:  cpu time    0.2450: real time    0.2480
    SETDIJ:  cpu time    0.0190: real time    0.0178
    EDDIAG:  cpu time    3.6085: real time    3.6187
  RMM-DIIS:  cpu time   15.3247: real time   15.3887
    ORTHCH:  cpu time    0.6409: real time    0.6414
 BZINTS: Fermi energy:  0.021594;578.000000 electrons
         Band energy:***********;  BLOECHL correction: -0.005717
       DOS:  cpu time    0.0450: real time    0.0447
    CHARGE:  cpu time    0.7379: real time    0.7400
    MIXING:  cpu time    0.0040: real time    0.0046
    --------------------------------------------
      LOOP:  cpu time   20.6249: real time   20.7039

 eigenvalue-minimisations  :  8500
 total energy-change (2. order) :-0.7037084E-01  (-0.1623118E-01)
 number of electron     578.0000083 magnetization     105.9537646
 augmentation part      332.9608704 magnetization      88.2226876

 DIPCOR: dipole corrections for dipol
 direction  3 min pos   235,
 dipolmoment           0.000000      0.000000     -0.024279 electrons x Angstroem
 Tr[quadrupol]     -9754.542195

 energy correction for charged system         0.000000 eV
 dipol+quadrupol energy correction           -0.000028 eV
 added-field ion interaction          0.241897 eV  (added to PSCEN)


 Broyden mixing:
  rms(total) = 0.65930E-01    rms(broyden)= 0.65909E-01
  rms(prec ) = 0.72838E-01
  weight for this iteration     100.00

 eigenvalues of (default mixing * dielectric matrix)
  average eigenvalue GAMMA=   0.3213
  0.3213

 Free energy of the ion-electron system (eV)
  ---------------------------------------------------
  alpha Z        PSCENC =      1342.67037311
  Ewald energy   TEWEN  =    187821.91326209
  -Hartree energ DENC   =   -240869.60267453
  -exchange      EXHF   =         0.00000000
  -V(xc)+E(xc)   XCENC  =      1147.10712236
  PAW double counting   =     58535.25025137   -61074.65506182
  entropy T*S    EENTRO =         0.00000000
  eigenvalues    EBANDS =     -1304.36080479
  atomic energy  EATOM  =     53986.83344209
  Solvation  Ediel_sol  =         0.00000000
  ---------------------------------------------------
  free energy    TOTEN  =      -414.84409012 eV

  energy without entropy =     -414.84409012  energy(sigma->0) =     -414.84409012


--------------------------------------------------------------------------------------------------------




--------------------------------------- Iteration      1(   7)  ---------------------------------------


    POTLOK:  cpu time    0.2440: real time    0.2442
    SETDIJ:  cpu time    0.0180: real time    0.0179
    EDDIAG:  cpu time    3.6214: real time    3.6329
  RMM-DIIS:  cpu time   21.3448: real time   21.4835
    ORTHCH:  cpu time    0.6349: real time    0.6371
 BZINTS: Fermi energy:  0.019392;578.000000 electrons
         Band energy:***********;  BLOECHL correction: -0.005790
       DOS:  cpu time    0.0400: real time    0.0397
    CHARGE:  cpu time    0.7409: real time    0.7574
    MIXING:  cpu time    0.0050: real time    0.0044
    --------------------------------------------
      LOOP:  cpu time   26.6489: real time   26.8172

 eigenvalue-minimisations  : 12109
 total energy-change (2. order) :-0.4889146E-02  (-0.4267882E-02)
 number of electron     578.0000083 magnetization     105.9538197
 augmentation part      332.9208050 magnetization      88.2501284

 DIPCOR: dipole corrections for dipol
 direction  3 min pos   238,
 dipolmoment           0.000000      0.000000     -0.018543 electrons x Angstroem
 Tr[quadrupol]     -9754.487259

 energy correction for charged system         0.000000 eV
 dipol+quadrupol energy correction           -0.000017 eV
 added-field ion interaction         -0.021061 eV  (added to PSCEN)


 Broyden mixing:
  rms(total) = 0.67642E-01    rms(broyden)= 0.67636E-01
  rms(prec ) = 0.77956E-01
  weight for this iteration     100.00

 eigenvalues of (default mixing * dielectric matrix)
  average eigenvalue GAMMA=   0.2741
  0.4029  0.1453

 Free energy of the ion-electron system (eV)
  ---------------------------------------------------
  alpha Z        PSCENC =      1342.40742654
  Ewald energy   TEWEN  =    187821.91326209
  -Hartree energ DENC   =   -240868.46174087
  -exchange      EXHF   =         0.00000000
  -V(xc)+E(xc)   XCENC  =      1147.12131075
  PAW double counting   =     58539.82987606   -61079.24358514
  entropy T*S    EENTRO =         0.00000000
  eigenvalues    EBANDS =     -1305.24897078
  atomic energy  EATOM  =     53986.83344209
  Solvation  Ediel_sol  =         0.00000000
  ---------------------------------------------------
  free energy    TOTEN  =      -414.84897926 eV

  energy without entropy =     -414.84897926  energy(sigma->0) =     -414.84897926


--------------------------------------------------------------------------------------------------------




--------------------------------------- Iteration      1(   8)  ---------------------------------------


    POTLOK:  cpu time    0.2590: real time    0.2699
    SETDIJ:  cpu time    0.0190: real time    0.0180
    EDDIAG:  cpu time    3.6344: real time    3.7089
  RMM-DIIS:  cpu time   15.8286: real time   15.9446
    ORTHCH:  cpu time    0.6589: real time    0.6624
 BZINTS: Fermi energy:  0.019139;578.000000 electrons
         Band energy:***********;  BLOECHL correction: -0.005933
       DOS:  cpu time    0.0430: real time    0.0425
    CHARGE:  cpu time    0.7379: real time    0.7385
    MIXING:  cpu time    0.0050: real time    0.0046
    --------------------------------------------
      LOOP:  cpu time   21.1858: real time   21.3892

 eigenvalue-minimisations  :  8915
 total energy-change (2. order) :-0.1263420E-02  (-0.3925861E-03)
 number of electron     578.0000083 magnetization     105.9538358
 augmentation part      332.9362089 magnetization      88.2505307

 DIPCOR: dipole corrections for dipol
 direction  3 min pos   237,
 dipolmoment           0.000000      0.000000     -0.031423 electrons x Angstroem
 Tr[quadrupol]     -9754.509477

 energy correction for charged system         0.000000 eV
 dipol+quadrupol energy correction           -0.000048 eV
 added-field ion interaction          0.080565 eV  (added to PSCEN)


 Broyden mixing:
  rms(total) = 0.64407E-01    rms(broyden)= 0.64401E-01
  rms(prec ) = 0.91599E-01
  weight for this iteration     100.00

 eigenvalues of (default mixing * dielectric matrix)
  average eigenvalue GAMMA=   0.2113
  0.3570  0.1966  0.0803

 Free energy of the ion-electron system (eV)
  ---------------------------------------------------
  alpha Z        PSCENC =      1342.50902173
  Ewald energy   TEWEN  =    187821.91326209
  -Hartree energ DENC   =   -240868.41984131
  -exchange      EXHF   =         0.00000000
  -V(xc)+E(xc)   XCENC  =      1147.06891068
  PAW double counting   =     58538.31781299   -61077.56338866
  entropy T*S    EENTRO =         0.00000000
  eigenvalues    EBANDS =     -1305.50946228
  atomic energy  EATOM  =     53986.83344209
  Solvation  Ediel_sol  =         0.00000000
  ---------------------------------------------------
  free energy    TOTEN  =      -414.85024268 eV

  energy without entropy =     -414.85024268  energy(sigma->0) =     -414.85024268


--------------------------------------------------------------------------------------------------------




--------------------------------------- Iteration      1(   9)  ---------------------------------------


    POTLOK:  cpu time    0.2420: real time    0.2450
    SETDIJ:  cpu time    0.0190: real time    0.0184
    EDDIAG:  cpu time    3.6414: real time    3.6525
  RMM-DIIS:  cpu time   15.9336: real time   15.9904
    ORTHCH:  cpu time    0.6379: real time    0.6456
 BZINTS: Fermi energy:  0.018701;578.000000 electrons
         Band energy:***********;  BLOECHL correction: -0.005814
       DOS:  cpu time    0.0390: real time    0.0398
    CHARGE:  cpu time    0.7419: real time    0.7440
    MIXING:  cpu time    0.0150: real time    0.0150
    --------------------------------------------
      LOOP:  cpu time   21.2698: real time   21.3505

 eigenvalue-minimisations  :  8860
 total energy-change (2. order) : 0.1703539E-02  (-0.1261963E-03)
 number of electron     578.0000083 magnetization     105.9538086
 augmentation part      332.9565083 magnetization      88.2341188

 DIPCOR: dipole corrections for dipol
 direction  3 min pos   237,
 dipolmoment           0.000000      0.000000     -0.019361 electrons x Angstroem
 Tr[quadrupol]     -9754.511841

 energy correction for charged system         0.000000 eV
 dipol+quadrupol energy correction           -0.000018 eV
 added-field ion interaction          0.049640 eV  (added to PSCEN)


 Broyden mixing:
  rms(total) = 0.30063E-01    rms(broyden)= 0.30056E-01
  rms(prec ) = 0.38764E-01
  weight for this iteration     100.00

 eigenvalues of (default mixing * dielectric matrix)
  average eigenvalue GAMMA=   0.2555
  0.4226  0.4226  0.1233  0.0535

 Free energy of the ion-electron system (eV)
  ---------------------------------------------------
  alpha Z        PSCENC =      1342.47812669
  Ewald energy   TEWEN  =    187821.91326209
  -Hartree energ DENC   =   -240868.30851440
  -exchange      EXHF   =         0.00000000
  -V(xc)+E(xc)   XCENC  =      1147.05279432
  PAW double counting   =     58536.52957778   -61075.72137342
  entropy T*S    EENTRO =         0.00000000
  eigenvalues    EBANDS =     -1305.62585430
  atomic energy  EATOM  =     53986.83344209
  Solvation  Ediel_sol  =         0.00000000
  ---------------------------------------------------
  free energy    TOTEN  =      -414.84853914 eV

  energy without entropy =     -414.84853914  energy(sigma->0) =     -414.84853914


--------------------------------------------------------------------------------------------------------




--------------------------------------- Iteration      1(  10)  ---------------------------------------


    POTLOK:  cpu time    0.2510: real time    0.2521
    SETDIJ:  cpu time    0.0200: real time    0.0184
    EDDIAG:  cpu time    4.2404: real time    4.3166
  RMM-DIIS:  cpu time   15.5396: real time   15.6358
    ORTHCH:  cpu time    0.6699: real time    0.6719
 BZINTS: Fermi energy:  0.018751;578.000000 electrons
         Band energy:***********;  BLOECHL correction: -0.005755
       DOS:  cpu time    0.0400: real time    0.0403
    CHARGE:  cpu time    0.7399: real time    0.7398
    MIXING:  cpu time    0.0060: real time    0.0050
    --------------------------------------------
      LOOP:  cpu time   21.5067: real time   21.6800

 eigenvalue-minimisations  :  8614
 total energy-change (2. order) : 0.1222341E-03  (-0.6537057E-04)
 number of electron     578.0000083 magnetization     105.9538150
 augmentation part      332.9577656 magnetization      88.2352655

 DIPCOR: dipole corrections for dipol
 direction  3 min pos   237,
 dipolmoment           0.000000      0.000000     -0.022887 electrons x Angstroem
 Tr[quadrupol]     -9754.508108

 energy correction for charged system         0.000000 eV
 dipol+quadrupol energy correction           -0.000025 eV
 added-field ion interaction          0.058678 eV  (added to PSCEN)


 Broyden mixing:
  rms(total) = 0.26014E-01    rms(broyden)= 0.26012E-01
  rms(prec ) = 0.28466E-01
  weight for this iteration     100.00

 eigenvalues of (default mixing * dielectric matrix)
  average eigenvalue GAMMA=   0.2888
  0.5613  0.5613  0.1512  0.1172  0.0530

 Free energy of the ion-electron system (eV)
  ---------------------------------------------------
  alpha Z        PSCENC =      1342.48715775
  Ewald energy   TEWEN  =    187821.91326209
  -Hartree energ DENC   =   -240868.05589234
  -exchange      EXHF   =         0.00000000
  -V(xc)+E(xc)   XCENC  =      1147.03804868
  PAW double counting   =     58529.30704243   -61068.47836271
  entropy T*S    EENTRO =         0.00000000
  eigenvalues    EBANDS =     -1305.89311490
  atomic energy  EATOM  =     53986.83344209
  Solvation  Ediel_sol  =         0.00000000
  ---------------------------------------------------
  free energy    TOTEN  =      -414.84841691 eV

  energy without entropy =     -414.84841691  energy(sigma->0) =     -414.84841691


--------------------------------------------------------------------------------------------------------




--------------------------------------- Iteration      1(  11)  ---------------------------------------


    POTLOK:  cpu time    0.2430: real time    0.2463
    SETDIJ:  cpu time    0.0190: real time    0.0184
    EDDIAG:  cpu time    4.0784: real time    4.0900
  RMM-DIIS:  cpu time   15.7136: real time   15.7697
    ORTHCH:  cpu time    0.6369: real time    0.6395
 BZINTS: Fermi energy:  0.018516;578.000000 electrons
         Band energy:***********;  BLOECHL correction: -0.005806
       DOS:  cpu time    0.0450: real time    0.0444
    CHARGE:  cpu time    0.7339: real time    0.7365
    MIXING:  cpu time    0.0050: real time    0.0049
    --------------------------------------------
      LOOP:  cpu time   21.4747: real time   21.5498

 eigenvalue-minimisations  :  8719
 total energy-change (2. order) : 0.1328331E-03  (-0.2746659E-04)
 number of electron     578.0000083 magnetization     105.9538248
 augmentation part      332.9521739 magnetization      88.2397620

 DIPCOR: dipole corrections for dipol
 direction  3 min pos   237,
 dipolmoment           0.000000      0.000000     -0.022470 electrons x Angstroem
 Tr[quadrupol]     -9754.507294

 energy correction for charged system         0.000000 eV
 dipol+quadrupol energy correction           -0.000024 eV
 added-field ion interaction          0.057610 eV  (added to PSCEN)


 Broyden mixing:
  rms(total) = 0.10964E-01    rms(broyden)= 0.10963E-01
  rms(prec ) = 0.11467E-01
  weight for this iteration     100.00

 eigenvalues of (default mixing * dielectric matrix)
  average eigenvalue GAMMA=   0.2796
  0.5795  0.5795  0.2117  0.0531  0.1395  0.1141

 Free energy of the ion-electron system (eV)
  ---------------------------------------------------
  alpha Z        PSCENC =      1342.48609075
  Ewald energy   TEWEN  =    187821.91326209
  -Hartree energ DENC   =   -240868.07339201
  -exchange      EXHF   =         0.00000000
  -V(xc)+E(xc)   XCENC  =      1147.03685542
  PAW double counting   =     58521.46315290   -61060.66664042
  entropy T*S    EENTRO =         0.00000000
  eigenvalues    EBANDS =     -1305.84105490
  atomic energy  EATOM  =     53986.83344209
  Solvation  Ediel_sol  =         0.00000000
  ---------------------------------------------------
  free energy    TOTEN  =      -414.84828408 eV

  energy without entropy =     -414.84828408  energy(sigma->0) =     -414.84828408


--------------------------------------------------------------------------------------------------------




--------------------------------------- Iteration      1(  12)  ---------------------------------------


    POTLOK:  cpu time    0.2450: real time    0.2453
    SETDIJ:  cpu time    0.0190: real time    0.0184
    EDDIAG:  cpu time    3.5865: real time    3.5959
  RMM-DIIS:  cpu time   16.0496: real time   16.1024
    ORTHCH:  cpu time    0.6799: real time    0.6816
 BZINTS: Fermi energy:  0.018573;578.000000 electrons
         Band energy:***********;  BLOECHL correction: -0.005812
       DOS:  cpu time    0.0420: real time    0.0426
    CHARGE:  cpu time    0.7389: real time    0.7389
    MIXING:  cpu time    0.0060: real time    0.0053
    --------------------------------------------
      LOOP:  cpu time   21.3668: real time   21.4303

 eigenvalue-minimisations  :  8931
 total energy-change (2. order) :-0.5335780E-05  (-0.5975094E-05)
 number of electron     578.0000083 magnetization     105.9538311
 augmentation part      332.9518804 magnetization      88.2400508

 DIPCOR: dipole corrections for dipol
 direction  3 min pos   237,
 dipolmoment           0.000000      0.000000     -0.022417 electrons x Angstroem
 Tr[quadrupol]     -9754.509093

 energy correction for charged system         0.000000 eV
 dipol+quadrupol energy correction           -0.000024 eV
 added-field ion interaction          0.057475 eV  (added to PSCEN)


 Broyden mixing:
  rms(total) = 0.86204E-02    rms(broyden)= 0.86203E-02
  rms(prec ) = 0.87492E-02
  weight for this iteration     100.00

 eigenvalues of (default mixing * dielectric matrix)
  average eigenvalue GAMMA=   0.3203
  0.7050  0.7050  0.3789  0.0531  0.1596  0.1129  0.1276

 Free energy of the ion-electron system (eV)
  ---------------------------------------------------
  alpha Z        PSCENC =      1342.48595500
  Ewald energy   TEWEN  =    187821.91326209
  -Hartree energ DENC   =   -240868.11977312
  -exchange      EXHF   =         0.00000000
  -V(xc)+E(xc)   XCENC  =      1147.03524811
  PAW double counting   =     58519.00434780   -61058.21091462
  entropy T*S    EENTRO =         0.00000000
  eigenvalues    EBANDS =     -1305.78985676
  atomic energy  EATOM  =     53986.83344209
  Solvation  Ediel_sol  =         0.00000000
  ---------------------------------------------------
  free energy    TOTEN  =      -414.84828941 eV

  energy without entropy =     -414.84828941  energy(sigma->0) =     -414.84828941


--------------------------------------------------------------------------------------------------------




--------------------------------------- Iteration      1(  13)  ---------------------------------------


    POTLOK:  cpu time    0.2600: real time    0.2633
    SETDIJ:  cpu time    0.0190: real time    0.0185
    EDDIAG:  cpu time    3.5505: real time    3.5655
  RMM-DIIS:  cpu time   17.6733: real time   17.7919
    ORTHCH:  cpu time    0.6339: real time    0.6373
 BZINTS: Fermi energy:  0.018493;578.000000 electrons
         Band energy:***********;  BLOECHL correction: -0.005808
       DOS:  cpu time    0.0430: real time    0.0433
    CHARGE:  cpu time    0.7619: real time    0.7645
    MIXING:  cpu time    0.0060: real time    0.0060
    --------------------------------------------
      LOOP:  cpu time   22.9475: real time   23.0903

 eigenvalue-minimisations  :  9611
 total energy-change (2. order) :-0.2889313E-04  (-0.2161828E-05)
 number of electron     578.0000083 magnetization     105.9538343
 augmentation part      332.9534790 magnetization      88.2396804

 DIPCOR: dipole corrections for dipol
 direction  3 min pos   237,
 dipolmoment           0.000000      0.000000     -0.022363 electrons x Angstroem
 Tr[quadrupol]     -9754.508751

 energy correction for charged system         0.000000 eV
 dipol+quadrupol energy correction           -0.000024 eV
 added-field ion interaction          0.057336 eV  (added to PSCEN)


 Broyden mixing:
  rms(total) = 0.73751E-02    rms(broyden)= 0.73750E-02
  rms(prec ) = 0.74910E-02
  weight for this iteration     100.00

 eigenvalues of (default mixing * dielectric matrix)
  average eigenvalue GAMMA=   0.3111
  0.7459  0.7459  0.3440  0.2167  0.0531  0.1382  0.1336  0.1112

 Free energy of the ion-electron system (eV)
  ---------------------------------------------------
  alpha Z        PSCENC =      1342.48581697
  Ewald energy   TEWEN  =    187821.91326209
  -Hartree energ DENC   =   -240868.05689254
  -exchange      EXHF   =         0.00000000
  -V(xc)+E(xc)   XCENC  =      1147.02926638
  PAW double counting   =     58512.59514072   -61051.80170880
  entropy T*S    EENTRO =         0.00000000
  eigenvalues    EBANDS =     -1305.84664521
  atomic energy  EATOM  =     53986.83344209
  Solvation  Ediel_sol  =         0.00000000
  ---------------------------------------------------
  free energy    TOTEN  =      -414.84831831 eV

  energy without entropy =     -414.84831831  energy(sigma->0) =     -414.84831831


--------------------------------------------------------------------------------------------------------




--------------------------------------- Iteration      1(  14)  ---------------------------------------


    POTLOK:  cpu time    0.2440: real time    0.2489
    SETDIJ:  cpu time    0.0200: real time    0.0187
    EDDIAG:  cpu time    3.6414: real time    3.6699
  RMM-DIIS:  cpu time   14.0429: real time   14.1569
    ORTHCH:  cpu time    0.6349: real time    0.6391
 BZINTS: Fermi energy:  0.018465;578.000000 electrons
         Band energy:***********;  BLOECHL correction: -0.005810
       DOS:  cpu time    0.0430: real time    0.0426
    CHARGE:  cpu time    0.7389: real time    0.7447
    MIXING:  cpu time    0.0060: real time    0.0053
    --------------------------------------------
      LOOP:  cpu time   19.3711: real time   19.5261

 eigenvalue-minimisations  :  7656
 total energy-change (2. order) :-0.1135490E-04  (-0.6294045E-06)
 number of electron     578.0000083 magnetization     105.9538390
 augmentation part      332.9540484 magnetization      88.2397034

 DIPCOR: dipole corrections for dipol
 direction  3 min pos   237,
 dipolmoment           0.000000      0.000000     -0.022403 electrons x Angstroem
 Tr[quadrupol]     -9754.508909

 energy correction for charged system         0.000000 eV
 dipol+quadrupol energy correction           -0.000024 eV
 added-field ion interaction          0.057439 eV  (added to PSCEN)


 Broyden mixing:
  rms(total) = 0.64891E-02    rms(broyden)= 0.64891E-02
  rms(prec ) = 0.65540E-02
  weight for this iteration     100.00

 eigenvalues of (default mixing * dielectric matrix)
  average eigenvalue GAMMA=   0.3528
  0.8708  0.8708  0.4199  0.4199  0.0531  0.1534  0.1534  0.1218  0.1122

 Free energy of the ion-electron system (eV)
  ---------------------------------------------------
  alpha Z        PSCENC =      1342.48591944
  Ewald energy   TEWEN  =    187821.91326209
  -Hartree energ DENC   =   -240868.04064957
  -exchange      EXHF   =         0.00000000
  -V(xc)+E(xc)   XCENC  =      1147.02693728
  PAW double counting   =     58509.72220448   -61048.92962559
  entropy T*S    EENTRO =         0.00000000
  eigenvalues    EBANDS =     -1305.85981988
  atomic energy  EATOM  =     53986.83344209
  Solvation  Ediel_sol  =         0.00000000
  ---------------------------------------------------
  free energy    TOTEN  =      -414.84832966 eV

  energy without entropy =     -414.84832966  energy(sigma->0) =     -414.84832966


--------------------------------------------------------------------------------------------------------




--------------------------------------- Iteration      1(  15)  ---------------------------------------


    POTLOK:  cpu time    0.2860: real time    0.2886
    SETDIJ:  cpu time    0.0190: real time    0.0185
    EDDIAG:  cpu time    3.6264: real time    3.6535
  RMM-DIIS:  cpu time   11.9372: real time   12.0601
    ORTHCH:  cpu time    0.6849: real time    0.6910
 BZINTS: Fermi energy:  0.018419;578.000000 electrons
         Band energy:***********;  BLOECHL correction: -0.005808
       DOS:  cpu time    0.0410: real time    0.0405
    CHARGE:  cpu time    0.7629: real time    0.7673
    MIXING:  cpu time    0.0060: real time    0.0056
    --------------------------------------------
      LOOP:  cpu time   17.3634: real time   17.5251

 eigenvalue-minimisations  :  6441
 total energy-change (2. order) :-0.2847522E-04  (-0.3543735E-06)
 number of electron     578.0000083 magnetization     105.9538455
 augmentation part      332.9544886 magnetization      88.2400659

 DIPCOR: dipole corrections for dipol
 direction  3 min pos   237,
 dipolmoment           0.000000      0.000000     -0.022385 electrons x Angstroem
 Tr[quadrupol]     -9754.508975

 energy correction for charged system         0.000000 eV
 dipol+quadrupol energy correction           -0.000024 eV
 added-field ion interaction          0.057392 eV  (added to PSCEN)


 Broyden mixing:
  rms(total) = 0.56668E-02    rms(broyden)= 0.56668E-02
  rms(prec ) = 0.57693E-02
  weight for this iteration     100.00

 eigenvalues of (default mixing * dielectric matrix)
  average eigenvalue GAMMA=   0.3657
  0.9927  0.9927  0.4620  0.4620  0.0531  0.1672  0.1672  0.1106  0.1248  0.1248

 Free energy of the ion-electron system (eV)
  ---------------------------------------------------
  alpha Z        PSCENC =      1342.48587228
  Ewald energy   TEWEN  =    187821.91326209
  -Hartree energ DENC   =   -240868.01122272
  -exchange      EXHF   =         0.00000000
  -V(xc)+E(xc)   XCENC  =      1147.02342066
  PAW double counting   =     58504.63911295   -61043.84959968
  entropy T*S    EENTRO =         0.00000000
  eigenvalues    EBANDS =     -1305.88264580
  atomic energy  EATOM  =     53986.83344209
  Solvation  Ediel_sol  =         0.00000000
  ---------------------------------------------------
  free energy    TOTEN  =      -414.84835814 eV

  energy without entropy =     -414.84835814  energy(sigma->0) =     -414.84835814


--------------------------------------------------------------------------------------------------------




--------------------------------------- Iteration      1(  16)  ---------------------------------------


    POTLOK:  cpu time    0.2450: real time    0.2492
    SETDIJ:  cpu time    0.0190: real time    0.0186
    EDDIAG:  cpu time    3.6834: real time    3.7208
  RMM-DIIS:  cpu time   12.0542: real time   12.2135
    ORTHCH:  cpu time    0.6339: real time    0.6381
 BZINTS: Fermi energy:  0.018335;578.000000 electrons
         Band energy:***********;  BLOECHL correction: -0.005810
       DOS:  cpu time    0.0430: real time    0.0428
    CHARGE:  cpu time    0.7529: real time    0.7574
    MIXING:  cpu time    0.0060: real time    0.0057
    --------------------------------------------
      LOOP:  cpu time   17.4373: real time   17.6462

 eigenvalue-minimisations  :  6369
 total energy-change (2. order) :-0.2428205E-04  (-0.3377042E-06)
 number of electron     578.0000083 magnetization     105.9538484
 augmentation part      332.9559547 magnetization      88.2397742

 DIPCOR: dipole corrections for dipol
 direction  3 min pos   237,
 dipolmoment           0.000000      0.000000     -0.022443 electrons x Angstroem
 Tr[quadrupol]     -9754.508791

 energy correction for charged system         0.000000 eV
 dipol+quadrupol energy correction           -0.000024 eV
 added-field ion interaction          0.057541 eV  (added to PSCEN)


 Broyden mixing:
  rms(total) = 0.44816E-02    rms(broyden)= 0.44816E-02
  rms(prec ) = 0.45514E-02
  weight for this iteration     100.00

 eigenvalues of (default mixing * dielectric matrix)
  average eigenvalue GAMMA=   0.3833
  1.0904  1.0904  0.4931  0.4931  0.3209  0.0531  0.1781  0.1355  0.1355  0.1133
  0.1133

 Free energy of the ion-electron system (eV)
  ---------------------------------------------------
  alpha Z        PSCENC =      1342.48602147
  Ewald energy   TEWEN  =    187821.91326209
  -Hartree energ DENC   =   -240867.96105386
  -exchange      EXHF   =         0.00000000
  -V(xc)+E(xc)   XCENC  =      1147.01888089
  PAW double counting   =     58499.33844390   -61038.54921274
  entropy T*S    EENTRO =         0.00000000
  eigenvalues    EBANDS =     -1305.92816627
  atomic energy  EATOM  =     53986.83344209
  Solvation  Ediel_sol  =         0.00000000
  ---------------------------------------------------
  free energy    TOTEN  =      -414.84838242 eV

  energy without entropy =     -414.84838242  energy(sigma->0) =     -414.84838242


--------------------------------------------------------------------------------------------------------




--------------------------------------- Iteration      1(  17)  ---------------------------------------


    POTLOK:  cpu time    0.2450: real time    0.2472
    SETDIJ:  cpu time    0.0190: real time    0.0192
    EDDIAG:  cpu time    3.6384: real time    3.6639
  RMM-DIIS:  cpu time    9.6865: real time    9.7883
    ORTHCH:  cpu time    0.6369: real time    0.6401
 BZINTS: Fermi energy:  0.018298;578.000000 electrons
         Band energy:***********;  BLOECHL correction: -0.005813
       DOS:  cpu time    0.0410: real time    0.0433
    CHARGE:  cpu time    0.7429: real time    0.7485
    MIXING:  cpu time    0.0070: real time    0.0059
    --------------------------------------------
      LOOP:  cpu time   15.0167: real time   15.1564

 eigenvalue-minimisations  :  5086
 total energy-change (2. order) :-0.1469962E-04  (-0.1730139E-06)
 number of electron     578.0000083 magnetization     105.9538529
 augmentation part      332.9563465 magnetization      88.2399257

 DIPCOR: dipole corrections for dipol
 direction  3 min pos   237,
 dipolmoment           0.000000      0.000000     -0.022440 electrons x Angstroem
 Tr[quadrupol]     -9754.508746

 energy correction for charged system         0.000000 eV
 dipol+quadrupol energy correction           -0.000024 eV
 added-field ion interaction          0.057533 eV  (added to PSCEN)


 Broyden mixing:
  rms(total) = 0.39310E-02    rms(broyden)= 0.39310E-02
  rms(prec ) = 0.40067E-02
  weight for this iteration     100.00

 eigenvalues of (default mixing * dielectric matrix)
  average eigenvalue GAMMA=   0.4332
  1.3381  1.3381  0.6112  0.6112  0.4301  0.0531  0.1810  0.1456  0.1456  0.1176
  0.1176  0.1091

 Free energy of the ion-electron system (eV)
  ---------------------------------------------------
  alpha Z        PSCENC =      1342.48601364
  Ewald energy   TEWEN  =    187821.91326209
  -Hartree energ DENC   =   -240867.93837194
  -exchange      EXHF   =         0.00000000
  -V(xc)+E(xc)   XCENC  =      1147.01651007
  PAW double counting   =     58496.40683537   -61035.61872963
  entropy T*S    EENTRO =         0.00000000
  eigenvalues    EBANDS =     -1305.94735882
  atomic energy  EATOM  =     53986.83344209
  Solvation  Ediel_sol  =         0.00000000
  ---------------------------------------------------
  free energy    TOTEN  =      -414.84839712 eV

  energy without entropy =     -414.84839712  energy(sigma->0) =     -414.84839712


--------------------------------------------------------------------------------------------------------




--------------------------------------- Iteration      1(  18)  ---------------------------------------


    POTLOK:  cpu time    0.2420: real time    0.2486
    SETDIJ:  cpu time    0.0190: real time    0.0186
    EDDIAG:  cpu time    3.6624: real time    3.6935
[...]
   0.552E+02 -.253E+02 -.268E+04   -.551E+02 0.254E+02 0.268E+04   -.267E-01 -.533E-01 0.158E+00   0.194E-03 -.737E-03 -.187E-02
   0.476E+00 0.544E+01 -.969E+03   -.382E+00 -.551E+01 0.969E+03   -.768E-01 0.675E-01 0.323E+00   -.387E-03 -.228E-04 -.630E-02
   -.675E+02 0.129E+02 0.274E+04   0.679E+02 -.129E+02 -.274E+04   -.272E+00 0.354E-01 -.526E+00   0.639E-04 0.434E-03 -.187E-02
   -.898E+02 0.110E+02 -.273E+04   0.901E+02 -.108E+02 0.273E+04   -.343E+00 -.147E+00 0.208E+00   -.172E-03 -.920E-03 -.140E-02
   -.697E+00 -.243E+02 0.831E+03   0.711E+00 0.242E+02 -.831E+03   0.554E-01 0.140E+00 -.230E+00   0.128E-02 -.183E-04 -.584E-02
   -.998E+02 -.310E+02 -.929E+03   0.100E+03 0.311E+02 0.928E+03   -.283E+00 -.157E+00 0.274E+00   0.171E-03 0.118E-02 -.644E-02
   0.152E+03 -.128E+02 0.840E+03   -.152E+03 0.127E+02 -.840E+03   0.510E+00 0.163E+00 -.623E+00   0.896E-04 -.469E-03 -.583E-02
   0.115E+02 -.867E+01 0.262E+04   -.115E+02 0.851E+01 -.262E+04   -.597E-03 0.231E+00 -.123E+01   -.391E-03 -.475E-03 -.157E-02
   0.964E+01 -.703E+00 -.265E+04   -.959E+01 0.649E+00 0.265E+04   -.380E-01 0.543E-01 0.114E+01   -.183E-03 0.590E-03 -.156E-02
   0.304E+01 0.267E+02 0.275E+04   -.321E+01 -.269E+02 -.275E+04   0.167E+00 0.230E+00 -.790E+00   0.467E-03 -.378E-03 -.163E-02
   0.216E+02 -.625E+01 -.273E+04   -.219E+02 0.623E+01 0.273E+04   0.275E+00 0.277E-01 0.781E+00   0.219E-03 0.449E-03 -.195E-02
   -.378E+02 0.152E+02 0.273E+04   0.380E+02 -.154E+02 -.273E+04   -.156E+00 0.251E-01 -.122E+01   0.453E-03 -.116E-03 -.112E-02
   0.915E+01 -.185E+02 -.269E+04   -.917E+01 0.187E+02 0.268E+04   0.377E-01 -.199E+00 0.121E+01   0.580E-03 0.774E-03 -.232E-02
   -.571E+02 0.762E+02 0.264E+04   0.572E+02 -.764E+02 -.264E+04   0.744E-02 0.207E+00 -.141E+01   -.102E-02 -.184E-03 -.133E-02
   -.520E+02 0.545E+02 -.267E+04   0.520E+02 -.547E+02 0.267E+04   0.161E-01 0.217E+00 0.157E+01   -.211E-03 0.837E-03 -.184E-02
   0.959E+02 -.477E+02 0.274E+04   -.963E+02 0.480E+02 -.274E+04   0.333E+00 -.229E+00 -.467E+00   0.679E-03 -.601E-04 -.180E-02
   0.892E+02 -.643E+02 -.265E+04   -.895E+02 0.646E+02 0.265E+04   0.295E+00 -.265E+00 0.933E+00   0.982E-05 0.872E-03 -.196E-02
   -.858E+01 0.872E+02 0.671E+03   0.858E+01 -.878E+02 -.671E+03   0.220E-01 0.506E+00 -.262E+00   -.413E-03 0.784E-04 -.475E-02
   0.605E+01 -.113E+02 -.767E+03   -.603E+01 0.112E+02 0.767E+03   -.102E-02 0.105E+00 -.448E+00   0.340E-03 -.450E-03 -.430E-02
   0.107E+02 -.376E+02 0.717E+03   -.107E+02 0.378E+02 -.717E+03   -.990E-01 -.147E+00 -.284E+00   0.785E-04 -.370E-03 -.487E-02
   0.638E+02 -.475E+02 0.219E+04   -.641E+02 0.479E+02 -.219E+04   0.331E+00 -.411E+00 -.230E+01   0.280E-03 0.639E-04 -.143E-02
   0.840E+02 -.237E+02 -.214E+04   -.846E+02 0.241E+02 0.214E+04   0.557E+00 -.391E+00 0.235E+01   0.193E-03 -.361E-03 -.135E-02
   0.142E+02 0.573E+02 -.732E+03   -.142E+02 -.575E+02 0.732E+03   -.160E-01 0.161E+00 0.616E-01   -.457E-03 -.564E-03 -.447E-02
   -.176E+02 0.135E+02 0.219E+04   0.178E+02 -.134E+02 -.218E+04   -.170E+00 -.115E+00 -.281E+01   0.143E-03 0.568E-03 -.176E-02
   -.599E+02 0.261E+02 -.215E+04   0.605E+02 -.259E+02 0.214E+04   -.548E+00 -.205E+00 0.248E+01   -.156E-03 -.442E-03 -.107E-02
   -.599E+02 -.581E+02 0.644E+03   0.598E+02 0.585E+02 -.644E+03   0.111E+00 -.380E+00 -.506E+00   -.222E-03 0.445E-03 -.534E-02
   -.150E+03 -.159E+02 -.772E+03   0.151E+03 0.162E+02 0.772E+03   -.870E+00 -.256E+00 -.223E-01   0.196E-04 0.378E-03 -.495E-02
   0.771E+02 -.505E+02 0.691E+03   -.772E+02 0.507E+02 -.691E+03   0.103E+00 -.124E+00 -.547E+00   -.135E-04 -.273E-03 -.491E-02
   0.784E+02 -.616E+02 -.709E+03   -.789E+02 0.619E+02 0.708E+03   0.483E+00 -.247E+00 0.457E+00   0.258E-03 -.488E-04 -.483E-02
   0.191E+01 -.703E+01 0.216E+04   -.185E+01 0.674E+01 -.216E+04   -.133E-01 0.147E+00 -.277E+01   -.281E-03 0.605E-04 -.154E-02
   0.543E+01 0.184E+02 -.214E+04   -.557E+01 -.190E+02 0.214E+04   0.141E+00 0.566E+00 0.298E+01   0.139E-03 -.496E-03 -.823E-03
   0.436E+02 -.596E+01 0.218E+04   -.438E+02 0.591E+01 -.218E+04   0.138E+00 -.199E+00 -.255E+01   -.304E-05 0.198E-03 -.133E-02
   0.313E+02 -.584E+01 -.223E+04   -.313E+02 0.588E+01 0.222E+04   0.255E-01 -.663E-01 0.309E+01   -.164E-03 -.849E-03 -.121E-02
   -.121E+03 0.447E+02 0.649E+03   0.121E+03 -.450E+02 -.649E+03   -.374E+00 0.323E+00 -.358E+00   -.352E-03 0.245E-03 -.478E-02
   -.765E+01 0.386E+02 0.630E+03   0.773E+01 -.386E+02 -.629E+03   -.547E-01 -.542E-01 -.721E+00   -.699E-03 -.509E-04 -.461E-02
   -.589E+02 0.215E+02 -.718E+03   0.588E+02 -.215E+02 0.717E+03   0.159E+00 0.186E-01 0.732E+00   -.296E-03 0.758E-03 -.484E-02
   -.769E+02 0.205E+02 0.213E+04   0.773E+02 -.206E+02 -.212E+04   -.293E+00 0.206E+00 -.274E+01   -.271E-03 -.146E-04 -.120E-02
   -.618E+02 0.404E+02 -.218E+04   0.622E+02 -.406E+02 0.217E+04   -.328E+00 0.229E+00 0.338E+01   0.136E-03 0.786E-03 -.112E-02
   0.524E+02 -.357E+02 -.733E+03   -.524E+02 0.360E+02 0.733E+03   -.222E-01 -.320E+00 0.897E-01   -.159E-03 0.192E-03 -.458E-02
   0.956E+02 -.727E+02 -.759E+03   -.960E+02 0.731E+02 0.759E+03   0.383E+00 -.376E+00 0.800E-01   0.324E-03 0.281E-03 -.494E-02
   0.572E+02 -.402E+01 0.217E+04   -.574E+02 0.396E+01 -.217E+04   0.197E+00 0.103E+00 -.286E+01   0.246E-03 -.652E-03 -.158E-02
   0.315E+02 -.333E+02 -.218E+04   -.315E+02 0.336E+02 0.218E+04   0.637E-01 -.205E+00 0.309E+01   -.183E-03 0.140E-03 -.120E-02
   0.565E+02 -.402E+02 -.741E+03   -.570E+02 0.404E+02 0.741E+03   0.393E+00 -.187E+00 0.228E+00   0.746E-03 -.129E-03 -.459E-02
   -.536E+02 0.361E+02 -.721E+03   0.540E+02 -.362E+02 0.721E+03   -.470E+00 0.173E+00 0.255E+00   -.137E-03 0.856E-04 -.458E-02
   -.397E+02 0.883E+02 -.720E+03   0.400E+02 -.889E+02 0.720E+03   -.264E+00 0.549E+00 0.436E+00   -.537E-03 0.804E-04 -.416E-02
   0.372E+02 0.133E+02 -.768E+03   -.374E+02 -.133E+02 0.768E+03   0.230E+00 -.149E-01 -.910E-02   -.236E-04 0.689E-04 -.388E-02
   0.396E+01 0.579E+01 0.212E+04   -.392E+01 -.572E+01 -.212E+04   -.242E+00 0.111E-02 -.281E+01   -.438E-04 0.463E-04 -.163E-02
   -.399E+02 0.218E+01 -.215E+04   0.402E+02 -.225E+01 0.214E+04   -.245E+00 0.806E-01 0.352E+01   -.288E-03 0.695E-03 -.114E-02
 -----------------------------------------------------------------------------------------------
   0.315E+00 0.586E+00 0.124E+01   0.117E-11 0.241E-12 0.318E-11   -.317E+00 -.588E+00 -.102E+01   0.648E-03 -.188E-03 -.220E+00
 
 
 POSITION                                       TOTAL-FORCE (eV/Angst)
 -----------------------------------------------------------------------------------
     10.08740      0.00562      4.04934        -0.002814      0.059561     -0.074675
     -2.53339      8.73512      4.08189        -0.028432      0.092170     -0.001214
      5.03058      0.01686      4.07660         0.033118     -0.032764      0.021941
      8.81557      2.19268      4.07950         0.024563     -0.023290     -0.055136
      1.26036      2.17683      4.06343        -0.100451     -0.064840      0.001846
      2.54706      1.44218      6.11960        -0.003385     -0.003758     -0.104855
      6.28789      2.21111      4.10570         0.016913     -0.025676     -0.174641
      3.80181      0.73423      2.00036         0.089481      0.051736      0.425107
      3.79655      0.72873      8.13755        -0.013826      0.012014     -0.066667
      7.58008      1.45800      6.17103        -0.006410     -0.002016     -0.113216
      6.31884      0.74108      2.03385         0.004359     -0.093500      0.473567
      6.31117      0.73873      8.17245        -0.008591      0.023964     -0.079470
      7.57051      4.36576      4.10283         0.034469      0.040464     -0.090500
      5.03817      4.36229      4.08170        -0.037457     -0.036672     -0.090641
      3.82160      3.62114      6.14095        -0.014012     -0.001060     -0.095448
      2.55462      2.91604      2.00083         0.059478      0.096236      0.401482
      2.53933      2.90549      8.12252         0.021476      0.007191     -0.053933
      6.29457      3.62032      6.16891         0.003401     -0.003152     -0.102173
      7.58585      2.93043      2.03372         0.127880      0.033672      0.485312
      7.58514      2.93578      8.15380         0.016603      0.007899     -0.071650
      6.29425      6.55133      4.09264         0.070831      0.012641     -0.085561
     -2.53557      5.80714      6.14962         0.011445     -0.006889     -0.105987
      3.81389      6.57546      4.07284        -0.045829      0.064178     -0.027397
      1.26871      5.10416      2.04534        -0.059762      0.065987      0.257867
      1.25217      5.08490      8.20048         0.009304     -0.004034     -0.062105
      6.29450      5.11374      2.02822        -0.010705      0.091735      0.392200
      6.25940      5.11501      8.15324        -0.036020     -0.005150     -0.075704
     -2.53139      7.30304      2.00990         0.014315     -0.154052      0.378080
     -2.56535      7.31674      8.14730         0.012922      0.014554     -0.068649
      0.00464      7.28975      2.05721         0.062989      0.055069      0.334240
     -0.03379      7.31022      8.20023         0.006552      0.004460     -0.051121
      5.08583      7.28318      2.02758        -0.142250      0.065681      0.376733
      5.05076      7.28561      8.15439        -0.027287      0.004557     -0.073805
      7.54405      0.03969      4.10439         0.032254     -0.085158     -0.200888
      0.00600      1.47599      6.07986         0.009216     -0.002744     -0.075946
      3.74186      2.14689      4.07389        -0.028822      0.021808     -0.331320
      1.31001      0.72945      2.02674        -0.017459     -0.000715      0.244755
      1.27684      0.74155      8.15238        -0.035595      0.019709     -0.089944
      5.08065      1.48167      6.14572         0.013513     -0.012572     -0.081018
      8.82791      0.75063      2.00000         0.017321     -0.030717      0.134612
      8.81862      0.75361      8.17381        -0.008278     -0.004213     -0.083289
     -0.02406      4.34464      4.11685        -0.039894     -0.024324     -0.174014
     -1.32758      3.64011      6.16739        -0.000378      0.001804     -0.093196
      2.55702      4.37025      4.05870        -0.020058      0.018374     -0.103580
      1.33600      3.63395      6.14624        -0.022773      0.009403     -0.090801
      0.02215      2.94990      2.02985         0.038140     -0.147374      0.065125
      0.01525      2.92320      8.22238         0.003099      0.024447     -0.107236
      5.09719      2.93887      2.04044        -0.012394     -0.234484      0.069101
      5.07366      2.93206      8.22966         0.004459     -0.014815     -0.126824
     -1.32764      6.58396      4.11126        -0.016588     -0.049025     -0.169292
      1.24700      6.55932      4.09363         0.031611      0.018744     -0.088672
      0.01004      5.80202      6.21762        -0.006696     -0.022934     -0.081947
     -1.29718      5.12819      2.06865         0.086257      0.091048      0.119340
     -1.31160      5.15211      8.23013         0.040073     -0.015652     -0.087474
      2.56240      5.84334      6.17741        -0.006662      0.008748     -0.054249
      5.06485      5.75637      6.13403        -0.009762     -0.011867     -0.052355
      3.79261      5.11061      2.02334         0.030764      0.035137      0.007746
      3.75172      5.11535      8.24294         0.003603      0.025651     -0.083946
     -3.78286      7.98916      6.09209        -0.008460     -0.001068     -0.097408
     -1.26199      8.00138      6.18123        -0.010784     -0.007392     -0.092724
      1.24553      8.03477      6.18742         0.032741     -0.013166     -0.061887
      3.79785      8.00874      6.15175        -0.008216     -0.019251     -0.064994
      2.54183      7.29082      2.05308        -0.185876      0.075026      0.081511
      2.47444      7.27883      8.25009         0.012772      0.000655     -0.053013
 -----------------------------------------------------------------------------------
    total drift:                               -0.001450     -0.002032     -0.000817


--------------------------------------------------------------------------------------------------------



  FREE ENERGIE OF THE ION-ELECTRON SYSTEM (eV)
  ---------------------------------------------------
  free  energy   TOTEN  =      -429.92510920 eV

  energy  without entropy=     -429.92510920  energy(sigma->0) =     -429.92510920
 


--------------------------------------------------------------------------------------------------------


    POTLOK:  cpu time    0.2830: real time    0.2937


--------------------------------------------------------------------------------------------------------


     LOOP+:  cpu time  518.8001: real time  523.1788
    4ORBIT:  cpu time    0.0000: real time    0.0000
 


 total charge     
 
# of ion       s       p       d       tot
------------------------------------------
    1        0.501   0.499   8.316   9.317
    2        0.503   0.498   8.333   9.334
    3        0.501   0.497   8.321   9.319
    4        0.503   0.502   8.316   9.321
    5        0.509   0.510   8.324   9.342
    6        0.513   0.518   8.321   9.352
    7        0.496   0.488   8.324   9.308
    8        0.489   0.369   8.312   9.169
    9        0.500   0.398   8.312   9.210
   10        0.515   0.517   8.335   9.367
   11        0.493   0.377   8.309   9.179
   12        0.505   0.397   8.319   9.221
   13        0.496   0.491   8.313   9.301
   14        0.502   0.502   8.318   9.322
   15        0.515   0.527   8.321   9.363
   16        0.500   0.394   8.308   9.202
   17        0.506   0.408   8.320   9.234
   18        0.510   0.511   8.336   9.357
   19        0.493   0.382   8.317   9.192
   20        0.507   0.406   8.321   9.233
   21        0.495   0.488   8.316   9.299
   22        0.511   0.518   8.326   9.355
   23        0.506   0.508   8.314   9.328
   24        0.506   0.398   8.308   9.212
   25        0.510   0.401   8.322   9.233
   26        0.493   0.377   8.318   9.187
   27        0.502   0.396   8.324   9.222
   28        0.492   0.369   8.319   9.180
   29        0.504   0.391   8.324   9.219
   30        0.490   0.375   8.312   9.177
   31        0.502   0.395   8.319   9.216
   32        0.497   0.389   8.300   9.185
   33        0.504   0.400   8.316   9.220
   34        0.466   0.490   6.183   7.139
   35        0.471   0.502   6.199   7.172
   36        0.468   0.495   6.167   7.130
   37        0.464   0.387   6.113   6.965
   38        0.466   0.392   6.142   7.000
   39        0.475   0.508   6.186   7.169
   40        0.462   0.380   6.132   6.973
   41        0.465   0.394   6.155   7.014
   42        0.473   0.502   6.200   7.174
   43        0.476   0.507   6.197   7.179
   44        0.469   0.493   6.199   7.162
   45        0.474   0.500   6.204   7.178
   46        0.464   0.387   6.145   6.996
   47        0.466   0.387   6.151   7.004
   48        0.464   0.389   6.112   6.966
   49        0.460   0.381   6.120   6.962
   50        0.468   0.493   6.179   7.140
   51        0.467   0.492   6.188   7.147
   52        0.475   0.508   6.212   7.196
   53        0.465   0.387   6.134   6.986
   54        0.461   0.379   6.137   6.977
   55        0.477   0.506   6.230   7.213
   56        0.474   0.504   6.194   7.171
   57        0.469   0.389   6.142   7.000
   58        0.467   0.382   6.151   6.999
   59        0.473   0.500   6.192   7.165
   60        0.474   0.502   6.202   7.178
   61        0.477   0.509   6.217   7.203
   62        0.474   0.504   6.206   7.184
   63        0.467   0.386   6.149   7.002
   64        0.465   0.381   6.160   7.006
--------------------------------------------------
tot         31.103  28.515 465.810 525.428
 


 magnetization (x)
 
# of ion       s       p       d       tot
------------------------------------------
    1       -0.021  -0.052   0.738   0.665
    2       -0.020  -0.041   0.694   0.633
    3       -0.023  -0.045   0.715   0.646
    4       -0.020  -0.047   0.755   0.687
    5       -0.025  -0.054   0.736   0.657
    6       -0.023  -0.049   0.755   0.682
    7       -0.018  -0.039   0.707   0.649
    8       -0.020  -0.032   0.690   0.638
    9       -0.020  -0.039   0.731   0.673
   10       -0.026  -0.047   0.699   0.626
   11       -0.021  -0.032   0.709   0.657
   12       -0.025  -0.035   0.717   0.657
   13       -0.017  -0.040   0.744   0.687
   14       -0.020  -0.047   0.744   0.677
   15       -0.028  -0.061   0.752   0.662
   16       -0.029  -0.047   0.733   0.657
   17       -0.025  -0.042   0.700   0.633
   18       -0.019  -0.040   0.691   0.633
   19       -0.021  -0.035   0.676   0.620
   20       -0.028  -0.042   0.685   0.615
   21       -0.014  -0.034   0.727   0.679
   22       -0.024  -0.051   0.729   0.655
   23       -0.026  -0.058   0.757   0.673
   24       -0.029  -0.045   0.748   0.674
   25       -0.030  -0.041   0.705   0.635
   26       -0.019  -0.029   0.670   0.621
   27       -0.022  -0.033   0.677   0.622
   28       -0.021  -0.026   0.675   0.629
   29       -0.022  -0.029   0.699   0.647
   30       -0.021  -0.034   0.701   0.646
   31       -0.023  -0.038   0.719   0.658
   32       -0.023  -0.041   0.733   0.668
   33       -0.030  -0.045   0.705   0.631
   34       -0.001  -0.028   2.711   2.682
   35       -0.008  -0.040   2.664   2.616
   36        0.004  -0.018   2.772   2.757
   37        0.009  -0.009   2.891   2.892
   38        0.003  -0.018   2.824   2.809
   39       -0.001  -0.024   2.721   2.696
   40        0.005  -0.014   2.844   2.834
   41        0.001  -0.022   2.776   2.755
   42       -0.009  -0.040   2.660   2.611
   43       -0.006  -0.033   2.681   2.642
   44       -0.004  -0.026   2.669   2.639
   45       -0.005  -0.028   2.649   2.617
   46        0.005  -0.016   2.814   2.803
   47       -0.003  -0.024   2.792   2.765
   48        0.012  -0.009   2.902   2.905
   49        0.012  -0.007   2.887   2.891
   50       -0.001  -0.024   2.729   2.705
   51       -0.006  -0.031   2.693   2.656
   52       -0.012  -0.041   2.615   2.562
   53        0.007  -0.010   2.840   2.837
   54        0.007  -0.010   2.843   2.840
   55       -0.014  -0.042   2.558   2.502
   56       -0.000  -0.023   2.691   2.668
   57        0.008  -0.010   2.825   2.824
   58        0.004  -0.010   2.803   2.797
   59       -0.002  -0.022   2.694   2.669
   60       -0.001  -0.017   2.673   2.654
   61       -0.010  -0.036   2.606   2.560
   62       -0.009  -0.038   2.635   2.587
   63        0.003  -0.012   2.805   2.796
   64        0.000  -0.014   2.776   2.763
--------------------------------------------------
tot         -0.769  -2.066 108.660 105.825
 
 BZINTS: Fermi energy:  0.018632;578.000000 electrons
         Band energy:***********;  BLOECHL correction: -0.005815

 total amount of memory used by VASP MPI-rank0   113831. kBytes
=======================================================================

   base      :      30000. kBytes
   nonlr-proj:      13007. kBytes
   fftplans  :       6403. kBytes
   grid      :      16455. kBytes
   one-center:         93. kBytes
   wavefun   :      47873. kBytes
 
  
  
 General timing and accounting informations for this job:
 ========================================================
  
                  Total CPU time used (sec):      554.306
                            User time (sec):      548.587
                          System time (sec):        5.719
                         Elapsed time (sec):      568.837
  
                   Maximum memory used (kb):      193220.
                   Average memory used (kb):           0.
  
                          Minor page faults:        93394
                          Major page faults:            0
                 Voluntary context switches:        10608
