SQS-NiFe                                
           1
    10.100310    0.000000    0.000000
    -5.050155    8.747125    0.000000
     0.000000    0.000000   21.253799
   Ni   Fe
  33  31
Direct configuration=     1
   0.99904300  0.00064200  0.19052303
   0.24849100  0.99862800  0.19205463
   0.49902500  0.00192700  0.19180553
   0.99813900  0.25067400  0.19194230
   0.24921500  0.24886200  0.19118596
   0.33461386  0.16487469  0.28792957
   0.74893500  0.25278100  0.19317475
   0.41837500  0.08394000  0.09411799
   0.41754032  0.08331073  0.38287485
   0.83382202  0.16668346  0.29034930
   0.66797000  0.08472300  0.09569325
   0.66707578  0.08445348  0.38451699
   0.99908600  0.49910800  0.19304001
   0.74816900  0.49871100  0.19204590
   0.58535506  0.41398011  0.28893412
   0.41961000  0.33337100  0.09413982
   0.41749334  0.33216495  0.38216811
   0.83014922  0.41388692  0.29024965
   0.91855900  0.33501600  0.09568743
   0.91879482  0.33562789  0.38363986
   0.99765800  0.74896900  0.19256042
   0.08090657  0.66389106  0.28934230
   0.75346500  0.75172800  0.19162859
   0.41737300  0.58352400  0.09623425
   0.41463458  0.58132190  0.38583615
   0.91550800  0.58461900  0.09542872
   0.91210546  0.58476454  0.38361341
   0.16682900  0.83490800  0.09456674
   0.16424923  0.83647324  0.38333368
   0.41715300  0.83338800  0.09679270
   0.41451869  0.83572825  0.38582413
   0.91985100  0.83263700  0.09539845
   0.91651741  0.83291479  0.38366759
   0.74918200  0.00453800  0.19311305
   0.08496426  0.16873964  0.28606004
   0.49319000  0.24544000  0.19167806
   0.17139600  0.08339300  0.09535888
   0.16880407  0.08477604  0.38357270
   0.58771376  0.16938992  0.28915879
   0.91693100  0.08581500  0.09410082
   0.91618178  0.08615549  0.38458117
   0.24596400  0.49669300  0.19369944
   0.07663564  0.41614980  0.29017835
   0.50297300  0.49962100  0.19096333
   0.33999616  0.41544507  0.28918304
   0.17081400  0.33724200  0.09550526
   0.16860431  0.33418928  0.38686631
   0.67264700  0.33598100  0.09600347
   0.66992884  0.33520321  0.38720892
   0.24490500  0.75270000  0.19343637
   0.49840300  0.74988300  0.19260698
   0.33264639  0.66330559  0.29254162
   0.16470600  0.58627100  0.09733079
   0.16464553  0.58900645  0.38723087
   0.58771025  0.66802981  0.29064983
   0.83049879  0.65808747  0.28860880
   0.66762500  0.58426200  0.09519882
   0.66384784  0.58480309  0.38783370
   0.08214462  0.91334751  0.28663538
   0.33242647  0.91474374  0.29082949
   0.58259688  0.91856153  0.29112074
   0.83380574  0.91558513  0.28944234
   0.66841400  0.83351100  0.09659831
   0.66105608  0.83213983  0.38817020
