       N       E                     dE             d eps       ncg     rms          rms(c)
DAV:   1     0.463099799931E+04    0.46310E+04   -0.26839E+05  8280   0.162E+03
DAV:   2     0.849932829256E+02   -0.45460E+04   -0.42808E+04  8280   0.360E+02
DAV:   3    -0.351302196650E+03   -0.43630E+03   -0.37638E+03  8514   0.151E+02
DAV:   4    -0.369754680868E+03   -0.18452E+02   -0.18097E+02  8793   0.339E+01
DAV:   5    -0.370118669636E+03   -0.36399E+00   -0.36387E+00  9864   0.365E+00    0.835E-01
RMM:   6    -0.370266805360E+03   -0.14814E+00   -0.23882E-01  8563   0.117E+00    0.692E+00
RMM:   7    -0.370171802334E+03    0.95003E-01   -0.68244E-02  9017   0.590E-01    0.410E+00
RMM:   8    -0.370127223835E+03    0.44578E-01   -0.36600E-02  8685   0.441E-01    0.121E+00
RMM:   9    -0.370128979051E+03   -0.17552E-02   -0.11222E-02  8690   0.245E-01    0.118E+00
RMM:  10    -0.370124474990E+03    0.45041E-02   -0.54494E-03  8684   0.177E-01    0.479E-01
RMM:  11    -0.370124963140E+03   -0.48815E-03   -0.26573E-03  8673   0.120E-01    0.601E-01
RMM:  12    -0.370124414926E+03    0.54821E-03   -0.14373E-03  8629   0.922E-02    0.456E-01
RMM:  13    -0.370123881585E+03    0.53334E-03   -0.79786E-04  8663   0.703E-02    0.198E-01
RMM:  14    -0.370124413817E+03   -0.53223E-03   -0.59299E-04  8615   0.592E-02    0.337E-01
RMM:  15    -0.370124468352E+03   -0.54535E-04   -0.40605E-04  8593   0.513E-02    0.199E-01
RMM:  16    -0.370124514287E+03   -0.45935E-04   -0.16599E-04  8665   0.327E-02    0.110E-01
RMM:  17    -0.370124874364E+03   -0.36008E-03   -0.11365E-04  8576   0.261E-02    0.148E-01
RMM:  18    -0.370125031374E+03   -0.15701E-03   -0.68296E-05  8578   0.215E-02    0.101E-01
RMM:  19    -0.370125105220E+03   -0.73847E-04   -0.24071E-05  8614   0.122E-02    0.785E-02
RMM:  20    -0.370125282346E+03   -0.17713E-03   -0.17482E-05  8475   0.960E-03    0.568E-02
RMM:  21    -0.370125383456E+03   -0.10111E-03   -0.12411E-05  8422   0.868E-03    0.316E-02
RMM:  22    -0.370125521228E+03   -0.13777E-03   -0.13587E-05  8458   0.824E-03    0.504E-02
RMM:  23    -0.370125664333E+03   -0.14310E-03   -0.13709E-05  8303   0.782E-03    0.371E-02
RMM:  24    -0.370125732840E+03   -0.68507E-04   -0.81812E-06  8172   0.655E-03    0.318E-02
RMM:  25    -0.370125876915E+03   -0.14408E-03   -0.15504E-05  8338   0.696E-03    0.516E-02
RMM:  26    -0.370125921165E+03   -0.44249E-04   -0.76552E-06  7885   0.616E-03    0.558E-02
RMM:  27    -0.370125958774E+03   -0.37609E-04   -0.55817E-06  7137   0.504E-03    0.437E-02
RMM:  28    -0.370125983029E+03   -0.24255E-04   -0.48836E-06  6945   0.465E-03    0.264E-02
RMM:  29    -0.370125999193E+03   -0.16163E-04   -0.19026E-06  5233   0.349E-03    0.150E-02
RMM:  30    -0.370126023939E+03   -0.24746E-04   -0.15356E-06  5080   0.287E-03    0.107E-02
RMM:  31    -0.370126034760E+03   -0.10821E-04   -0.67920E-07  4961   0.215E-03    0.105E-02
RMM:  32    -0.370126049397E+03   -0.14638E-04   -0.41775E-07  4912   0.135E-03    0.661E-03
RMM:  33    -0.370126059911E+03   -0.10513E-04   -0.32158E-07  4893   0.128E-03    0.698E-03
RMM:  34    -0.370126065621E+03   -0.57106E-05   -0.33717E-07  4903   0.955E-04    0.307E-02
RMM:  35    -0.370126068749E+03   -0.31278E-05   -0.13158E-07  4803   0.885E-04    0.379E-02
RMM:  36    -0.370126069158E+03   -0.40893E-06   -0.29758E-08  4083   0.507E-04
   1 F= -.37012607E+03 E0= -.37012607E+03  d E =0.000000E+00  mag=    71.5634
