 vasp.5.4.4.18Apr17-6-g9f103f2a35 (build Sep 06 2021 19:49:22) complex          
  
 executed on             LinuxIFC date 2022.01.05  02:32:43
 running on   72 total cores
 distrk:  each k-point on   72 cores,    1 groups
 distr:  one band on NCORES_PER_BAND=  24 cores,    3 groups


--------------------------------------------------------------------------------------------------------


 INCAR:
 POTCAR:    PAW_PBE Ni 02Aug2007                  
 POTCAR:    PAW_PBE Fe 06Sep2000                  

 ----------------------------------------------------------------------------- 
|                                                                             |
|           W    W    AA    RRRRR   N    N  II  N    N   GGGG   !!!           |
|           W    W   A  A   R    R  NN   N  II  NN   N  G    G  !!!           |
|           W    W  A    A  R    R  N N  N  II  N N  N  G       !!!           |
|           W WW W  AAAAAA  RRRRR   N  N N  II  N  N N  G  GGG   !            |
|           WW  WW  A    A  R   R   N   NN  II  N   NN  G    G                |
|           W    W  A    A  R    R  N    N  II  N    N   GGGG   !!!           |
|                                                                             |
|      For optimal performance we recommend to set                            |
|        NCORE= 4 - approx SQRT( number of cores)                             |
|      NCORE specifies how many cores store one orbital (NPAR=cpu/NCORE).     |
|      This setting can  greatly improve the performance of VASP for DFT.     |
|      The default,   NCORE=1            might be grossly inefficient         |
|      on modern multi-core architectures or massively parallel machines.     |
|      Do your own testing !!!!                                               |
|      Unfortunately you need to use the default for GW and RPA calculations. |
|      (for HF NCORE is supported but not extensively tested yet)             |
|                                                                             |
 ----------------------------------------------------------------------------- 

 POTCAR:    PAW_PBE Ni 02Aug2007                  
   VRHFIN =Ni:                                                                  
   LEXCH  = PE                                                                  
   EATOM  =  1077.6739 eV,   79.2068 Ry                                         
                                                                                
   TITEL  = PAW_PBE Ni 02Aug2007                                                
   LULTRA =        F    use ultrasoft PP ?                                      
   IUNSCR =        1    unscreen: 0-lin 1-nonlin 2-no                           
   RPACOR =    2.000    partial core radius                                     
   POMASS =   58.690; ZVAL   =   10.000    mass and valenz                      
   RCORE  =    2.300    outmost cutoff radius                                   
   RWIGS  =    2.430; RWIGS  =    1.286    wigner-seitz radius (au A)           
   ENMAX  =  269.532; ENMIN  =  202.149 eV                                      
   RCLOC  =    1.201    cutoff for local pot                                    
   LCOR   =        T    correct aug charges                                     
   LPAW   =        T    paw PP                                                  
   EAUG   =  544.565                                                            
   DEXC   =    0.000                                                            
   RMAX   =    2.357    core radius for proj-oper                               
   RAUG   =    1.300    factor for augmentation sphere                          
   RDEP   =    2.390    radius for radial grids                                 
   RDEPT  =    1.838    core radius for aug-charge                              
                                                                                
   Atomic configuration                                                         
    9 entries                                                                   
     n  l   j            E        occ.                                          
     1  0  0.50     -8206.4253   2.0000                                         
     2  0  0.50      -976.1748   2.0000                                         
     2  1  1.50      -839.0571   6.0000                                         
     3  0  0.50      -105.9991   2.0000                                         
     3  1  1.50       -66.4603   6.0000                                         
     3  2  2.50        -4.6458   9.0000                                         
     4  0  0.50        -4.4926   1.0000                                         
     4  1  1.50        -4.0817   0.0000                                         
     4  3  2.50        -1.3606   0.0000                                         
   Description                                                                  
     l       E           TYP  RCUT    TYP  RCUT                                 
     2     -4.6457903     23  2.300                                             
     2     -6.0063729     23  2.300                                             
     0     -4.4925590     23  2.300                                             
     0      5.0102601     23  2.300                                             
     1     -2.7211652     23  2.300                                             
     1     16.5183231     23  2.300                                             
  local pseudopotential read in
  partial core-charges read in
  partial kinetic energy density read in
  atomic valenz-charges read in
  non local Contribution for L=           2  read in
    real space projection operators read in
  non local Contribution for L=           2  read in
    real space projection operators read in
  non local Contribution for L=           0  read in
    real space projection operators read in
  non local Contribution for L=           0  read in
    real space projection operators read in
  non local Contribution for L=           1  read in
    real space projection operators read in
  non local Contribution for L=           1  read in
    real space projection operators read in
    PAW grid and wavefunctions read in
 
   number of l-projection  operators is LMAX  =           6
   number of lm-projection operators is LMMAX =          18
 
 POTCAR:    PAW_PBE Fe 06Sep2000                  
   VRHFIN =Fe:  d7 s1                                                           
   LEXCH  = PE                                                                  
   EATOM  =   594.3153 eV,   43.6809 Ry                                         
                                                                                
   TITEL  = PAW_PBE Fe 06Sep2000                                                
   LULTRA =        F    use ultrasoft PP ?                                      
   IUNSCR =        1    unscreen: 0-lin 1-nonlin 2-no                           
   RPACOR =    2.000    partial core radius                                     
   POMASS =   55.847; ZVAL   =    8.000    mass and valenz                      
   RCORE  =    2.300    outmost cutoff radius                                   
   RWIGS  =    2.460; RWIGS  =    1.302    wigner-seitz radius (au A)           
   ENMAX  =  267.882; ENMIN  =  200.911 eV                                      
   RCLOC  =    1.701    cutoff for local pot                                    
   LCOR   =        T    correct aug charges                                     
   LPAW   =        T    paw PP                                                  
   EAUG   =  511.368                                                            
   DEXC   =    0.000                                                            
   RMAX   =    2.356    core radius for proj-oper                               
   RAUG   =    1.300    factor for augmentation sphere                          
   RDEP   =    2.442    radius for radial grids                                 
   RDEPT  =    1.890    core radius for aug-charge                              
                                                                                
   Atomic configuration                                                         
    9 entries                                                                   
     n  l   j            E        occ.                                          
     1  0  0.50     -6993.8440   2.0000                                         
     2  0  0.50      -814.6047   2.0000                                         
     2  1  1.50      -693.3689   6.0000                                         
     3  0  0.50       -89.4732   2.0000                                         
     3  1  1.50       -55.6373   6.0000                                         
     3  2  2.50        -3.8151   7.0000                                         
     4  0  0.50        -4.2551   1.0000                                         
     4  1  1.50        -3.4015   0.0000                                         
     4  3  2.50        -1.3606   0.0000                                         
   Description                                                                  
     l       E           TYP  RCUT    TYP  RCUT                                 
     2     -3.8151135     23  2.300                                             
     2     -5.1756961     23  2.300                                             
     0     -4.2550963     23  2.300                                             
     0      7.2035603     23  2.300                                             
     1     -2.7211652     23  2.300                                             
     1     18.4316424     23  2.300                                             
  local pseudopotential read in
  partial core-charges read in
  partial kinetic energy density read in
  atomic valenz-charges read in
  non local Contribution for L=           2  read in
    real space projection operators read in
  non local Contribution for L=           2  read in
    real space projection operators read in
  non local Contribution for L=           0  read in
    real space projection operators read in
  non local Contribution for L=           0  read in
    real space projection operators read in
  non local Contribution for L=           1  read in
    real space projection operators read in
  non local Contribution for L=           1  read in
    real space projection operators read in
    PAW grid and wavefunctions read in
 
   number of l-projection  operators is LMAX  =           6
   number of lm-projection operators is LMMAX =          18
 
 Optimization of the real space projectors (new method)

 maximal supplied QI-value         = 16.25
 optimisation between [QCUT,QGAM] = [ 11.54, 23.24] = [ 37.28,151.24] Ry 
 Optimized for a Real-space Cutoff    1.45 Angstroem

   l    n(q)    QCUT    max X(q) W(low)/X(q) W(high)/X(q)  e(spline) 
   2      9    11.539    60.317    0.19E-03    0.47E-04    0.16E-06
   2      9    11.539    55.921    0.19E-03    0.48E-04    0.16E-06
   0     10    11.539    51.690    0.80E-04    0.50E-04    0.24E-06
   0     10    11.539    30.015    0.73E-04    0.45E-04    0.22E-06
   1     10    11.539    18.849    0.87E-04    0.16E-03    0.71E-07
   1     10    11.539    14.624    0.73E-04    0.13E-03    0.64E-07
 Optimization of the real space projectors (new method)

 maximal supplied QI-value         = 16.25
 optimisation between [QCUT,QGAM] = [ 11.54, 23.24] = [ 37.28,151.24] Ry 
 Optimized for a Real-space Cutoff    1.53 Angstroem

   l    n(q)    QCUT    max X(q) W(low)/X(q) W(high)/X(q)  e(spline) 
   2     10    11.539    80.901    0.11E-03    0.14E-03    0.21E-06
   2     10    11.539    75.754    0.11E-03    0.14E-03    0.22E-06
   0     11    11.539    58.752    0.52E-04    0.18E-04    0.33E-06
   0     11    11.539    30.679    0.44E-04    0.16E-04    0.30E-06
   1     10    11.539    17.977    0.53E-04    0.29E-04    0.13E-06
   1     10    11.539    13.559    0.44E-04    0.25E-04    0.11E-06
  PAW_PBE Ni 02Aug2007                  :
 energy of atom  1       EATOM=-1077.6739
 kinetic energy error for atom=    0.0030 (will be added to EATOM!!)
  PAW_PBE Fe 06Sep2000                  :
 energy of atom  2       EATOM= -594.3153
 kinetic energy error for atom=    0.0026 (will be added to EATOM!!)
 
 
 POSCAR: POSCAR                                  
  positions in direct lattice
  velocities in cartesian coordinates
 exchange correlation table for  LEXCH =        8
   RHO(1)=    0.500       N(1)  =     2000
   RHO(2)=  100.500       N(2)  =     4000
 


--------------------------------------------------------------------------------------------------------


 ion  position               nearest neighbor table
   1  0.001  0.001  0.096-  44 2.49   9 2.50  13 2.50  38 2.50   3 2.50  11 2.50  30 2.50   7 2.51
                            48 2.52
   2  0.000  0.000  0.382-  51 2.44  22 2.47  10 2.48   4 2.48  50 2.48  31 2.50  39 2.51   8 2.51
                            12 2.53
   3  0.250  0.000  0.095-  30 2.50   1 2.50  14 2.50  11 2.51   5 2.51  44 2.51  32 2.52  45 2.52
                            16 2.52
   4  0.249  0.002  0.382-  52 2.46  51 2.47  46 2.48   2 2.48  15 2.49  31 2.50  12 2.50  33 2.52
                             6 2.53
   5  0.499  0.999  0.096-  45 2.49  14 2.50   7 2.50  64 2.51  35 2.51   3 2.51  32 2.51  17 2.52
                            19 2.53
   6  0.500  0.999  0.383-  52 2.45  21 2.47  47 2.48  15 2.49   8 2.50  33 2.50  36 2.51  18 2.52
                             4 2.53
   7  0.749  0.999  0.096-  38 2.50   9 2.50   5 2.50  35 2.50  64 2.51  48 2.51  17 2.51   1 2.51
                            20 2.52
   8  0.749  0.999  0.382-  49 2.47  21 2.47  22 2.47  10 2.49   6 2.50  39 2.50  36 2.51   2 2.51
                            18 2.52
   9  0.999  0.249  0.096-  17 2.50   1 2.50   7 2.50  13 2.51  53 2.51  20 2.51  23 2.51  11 2.51
                            25 2.52
  10  0.998  0.247  0.384-  61 2.42   2 2.48   8 2.49  22 2.49  26 2.50  18 2.51  54 2.51  12 2.52
                            24 2.52
  11  0.250  0.250  0.095-   1 2.50  53 2.50   3 2.51  16 2.51   9 2.51  13 2.52  57 2.52  14 2.52
                            55 2.55
  12  0.252  0.253  0.384-  58 2.45  26 2.49  54 2.50   4 2.50  15 2.51  51 2.51  10 2.52  56 2.52
                             2 2.53
  13  0.083  0.166  0.192-  51 2.47  22 2.48  20 2.50   1 2.50  44 2.50  57 2.50  16 2.50   9 2.51
                            48 2.51  25 2.51  11 2.52  26 2.52
  14  0.501  0.249  0.096-   5 2.50  17 2.50   3 2.50  19 2.51  16 2.51  29 2.51  55 2.51  11 2.52
                            27 2.53
  15  0.499  0.247  0.385-  60 2.45  58 2.47   4 2.49   6 2.49  18 2.50  12 2.51  52 2.51  56 2.53
                            28 2.53
  16  0.333  0.167  0.192-  19 2.50  13 2.50  29 2.51  44 2.51  51 2.51  45 2.51  11 2.51  14 2.51
                            57 2.52   3 2.52  52 2.53  58 2.53
  17  0.751  0.250  0.097-  59 2.48   9 2.50  14 2.50  20 2.50   7 2.51  23 2.52  19 2.52   5 2.52
                            27 2.52
  18  0.750  0.251  0.385-  60 2.44  61 2.45  15 2.50  24 2.50  28 2.51  10 2.51  21 2.52   8 2.52
                             6 2.52
  19  0.582  0.167  0.193-  52 2.47  21 2.48  29 2.49  45 2.50  16 2.50  14 2.51  17 2.52  64 2.52
                            59 2.52  60 2.53  20 2.53   5 2.53
  20  0.834  0.167  0.193-  22 2.47  25 2.49  21 2.49  48 2.49  13 2.50  17 2.50  61 2.51   9 2.51
                            64 2.51   7 2.52  59 2.53  19 2.53
  21  0.666  0.084  0.288-  52 2.47  61 2.47   8 2.47   6 2.47  60 2.47  19 2.48  20 2.49  64 2.50
                            47 2.51  18 2.52  22 2.52  49 2.52
  22  0.917  0.083  0.288-  61 2.46  51 2.46   2 2.47  48 2.47  20 2.47   8 2.47  13 2.48  10 2.49
                            50 2.51  49 2.51  21 2.52  26 2.52
  23  0.002  0.500  0.094-  53 2.48  32 2.48   9 2.51  27 2.52  17 2.52  30 2.52  59 2.52  25 2.52
                            34 2.52
  24  0.001  0.500  0.382-  61 2.44  54 2.46  43 2.49  62 2.50  33 2.50  18 2.50  28 2.51  31 2.52
                            10 2.52
  25  0.081  0.416  0.193-  20 2.49  62 2.49  59 2.49  26 2.49  57 2.51  34 2.51  13 2.51   9 2.52
                            23 2.52  37 2.52  53 2.53  61 2.54
  26  0.167  0.336  0.289-  54 2.46  61 2.48  41 2.49  57 2.49  12 2.49  25 2.49  10 2.50  51 2.51
                            13 2.52  22 2.52  62 2.53  58 2.53
  27  0.752  0.502  0.095-  55 2.46  38 2.50  59 2.50  30 2.50  42 2.51  23 2.52  17 2.52  14 2.53
                            29 2.54
  28  0.751  0.501  0.383-  60 2.43  56 2.46  43 2.49  39 2.50  63 2.51  18 2.51  31 2.51  24 2.51
                            15 2.53
  29  0.584  0.416  0.193-  19 2.49  55 2.49  59 2.50  63 2.50  16 2.51  14 2.51  40 2.51  42 2.52
                            58 2.52  57 2.53  27 2.54  60 2.56
  30  0.001  0.751  0.095-   3 2.50  32 2.50  27 2.50   1 2.50  38 2.50  34 2.51  44 2.51  42 2.52
                            23 2.52
  31  0.001  0.751  0.381-  50 2.46  46 2.47  43 2.48  33 2.50   4 2.50   2 2.50  39 2.51  28 2.51
                            24 2.52
  32  0.249  0.749  0.094-  23 2.48  30 2.50  37 2.50  53 2.50  34 2.51   5 2.51  35 2.51   3 2.52
                            45 2.53
  33  0.249  0.750  0.382-  62 2.45  47 2.46  46 2.48  31 2.50   6 2.50  24 2.50  54 2.51  36 2.51
                             4 2.52
  34  0.084  0.668  0.191-  62 2.47  46 2.49  43 2.49  44 2.50  42 2.50  37 2.50  45 2.50  30 2.51
                            59 2.51  32 2.51  25 2.51  23 2.52
  35  0.500  0.749  0.095-  40 2.50  37 2.50   7 2.50   5 2.51  55 2.51  32 2.51  38 2.51  53 2.51
                            64 2.53
  36  0.499  0.748  0.383-  41 2.46  47 2.47  49 2.48  56 2.50  39 2.51   6 2.51   8 2.51  33 2.51
                            54 2.52
  37  0.333  0.667  0.191-  62 2.47  45 2.50  57 2.50  32 2.50  34 2.50  53 2.50  47 2.50  64 2.50
                            35 2.50  40 2.51  25 2.52  41 2.53
  38  0.751  0.751  0.095-  55 2.47  42 2.50   7 2.50  27 2.50  40 2.50   1 2.50  30 2.50  35 2.51
                            48 2.52
  39  0.750  0.750  0.382-  63 2.45  49 2.46  56 2.47  50 2.47  28 2.50   8 2.50  36 2.51  31 2.51
                             2 2.51
  40  0.583  0.667  0.191-  55 2.47  63 2.48  38 2.50  35 2.50  64 2.50  48 2.51  49 2.51  37 2.51
                            42 2.51  41 2.51  57 2.51  29 2.51
  41  0.417  0.582  0.288-  36 2.46  57 2.49  26 2.49  63 2.49  58 2.50  47 2.50  49 2.51  54 2.51
                            40 2.51  62 2.52  37 2.53  56 2.57
  42  0.834  0.668  0.192-  50 2.48  63 2.48  43 2.48  38 2.50  44 2.50  59 2.50  34 2.50  48 2.51
                            27 2.51  40 2.51  30 2.52  29 2.52
  43  0.916  0.582  0.287-  59 2.47  31 2.48  42 2.48  34 2.49  24 2.49  28 2.49  62 2.50  60 2.51
                            50 2.51  63 2.51  46 2.52  61 2.56
  44  0.083  0.917  0.192-  46 2.47  50 2.48   1 2.49  42 2.50  51 2.50  34 2.50  13 2.50  16 2.51
                            30 2.51   3 2.51  48 2.51  45 2.52
  45  0.334  0.917  0.192-  52 2.47  46 2.48   5 2.49  19 2.50  64 2.50  37 2.50  47 2.50  34 2.50
                            16 2.51   3 2.52  44 2.52  32 2.53
  46  0.167  0.835  0.287-  31 2.47  44 2.47  52 2.47  45 2.48   4 2.48  62 2.48  33 2.48  34 2.49
                            50 2.50  51 2.51  43 2.52  47 2.53
  47  0.417  0.832  0.288-  33 2.46  62 2.46  52 2.46  36 2.47   6 2.48  64 2.49  49 2.49  45 2.50
                            37 2.50  41 2.50  21 2.51  46 2.53
  48  0.832  0.917  0.193-  22 2.47  50 2.47  49 2.48  20 2.49  64 2.50  13 2.51  40 2.51   7 2.51
                            42 2.51  44 2.51  38 2.52   1 2.52
  49  0.666  0.833  0.288-  39 2.46  63 2.46   8 2.47  48 2.48  36 2.48  64 2.49  47 2.49  41 2.51
                            40 2.51  22 2.51  50 2.51  21 2.52
  50  0.916  0.833  0.287-  31 2.46  63 2.47  48 2.47  39 2.47  42 2.48  44 2.48   2 2.48  51 2.49
                            46 2.50  22 2.51  43 2.51  49 2.51
  51  0.162  0.083  0.288-   2 2.44  22 2.46  13 2.47   4 2.47  50 2.49  44 2.50  12 2.51  26 2.51
                            16 2.51  46 2.51  58 2.54  52 2.59
  52  0.417  0.078  0.288-   6 2.45   4 2.46  47 2.46  21 2.47  45 2.47  19 2.47  46 2.47  15 2.51
                            16 2.53  60 2.53  58 2.56  51 2.59
  53  0.248  0.499  0.095-  23 2.48  32 2.50  37 2.50  11 2.50   9 2.51  57 2.51  35 2.51  25 2.53
                            55 2.57
  54  0.246  0.499  0.384-  26 2.46  24 2.46  12 2.50  33 2.51  10 2.51  41 2.51  36 2.52  62 2.52
                            56 2.59
  55  0.506  0.503  0.096-  27 2.46  40 2.47  38 2.47  29 2.49  35 2.51  14 2.51  57 2.55  11 2.55
                            53 2.57
  56  0.506  0.502  0.388-  28 2.46  39 2.47  36 2.50  12 2.52  15 2.53  58 2.54  63 2.56  41 2.57
                            54 2.59
  57  0.331  0.417  0.192-  41 2.49  26 2.49  37 2.50  13 2.50  25 2.51  53 2.51  40 2.51  11 2.52
                            16 2.52  29 2.53  58 2.54  55 2.55
  58  0.418  0.333  0.290-  12 2.45  15 2.47  41 2.50  60 2.51  29 2.52  16 2.53  26 2.53  51 2.54
                            56 2.54  63 2.54  57 2.54  52 2.56
  59  0.834  0.418  0.191-  43 2.47  17 2.48  25 2.49  29 2.50  42 2.50  27 2.50  34 2.51  23 2.52
                            19 2.52  20 2.53  60 2.57  61 2.60
  60  0.667  0.332  0.292-  28 2.43  18 2.44  15 2.45  21 2.47  61 2.51  43 2.51  58 2.51  19 2.53
                            52 2.53  29 2.56  63 2.57  59 2.57
  61  0.915  0.327  0.291-  10 2.42  24 2.44  18 2.45  22 2.46  21 2.47  26 2.48  20 2.51  60 2.51
                            25 2.54  43 2.56  62 2.59  59 2.60
  62  0.169  0.589  0.286-  33 2.45  47 2.46  34 2.47  37 2.47  46 2.48  25 2.49  24 2.50  43 2.50
                            54 2.52  41 2.52  26 2.53  61 2.59
  63  0.669  0.588  0.287-  39 2.45  49 2.46  50 2.47  42 2.48  40 2.48  41 2.49  29 2.50  28 2.51
                            43 2.51  58 2.54  56 2.56  60 2.57
  64  0.583  0.917  0.193-  49 2.49  47 2.49  48 2.50  45 2.50  21 2.50  37 2.50  40 2.50   7 2.51
                             5 2.51  20 2.51  19 2.52  35 2.53
 

IMPORTANT INFORMATION: All symmetrisations will be switched off!
NOSYMM: (Re-)initialisation of all symmetry stuff for point group C_1.

 
 

Automatic generation of k-mesh.
 generate k-points for:    3    3    1
Space group operators:
 irot       det(A)        alpha          n_x          n_y          n_z        tau_x        tau_y        tau_z
    1     1.000000     0.000000     1.000000     0.000000     0.000000     0.000000     0.000000     0.000000
 
 Subroutine IBZKPT returns following result:
 ===========================================
 
 Found      5 irreducible k-points:
 
 Following reciprocal coordinates:
            Coordinates               Weight
  0.000000  0.000000  0.000000      1.000000
  0.333333  0.000000  0.000000      2.000000
  0.000000  0.333333  0.000000      2.000000
  0.333333  0.333333  0.000000      2.000000
 -0.333333  0.333333  0.000000      2.000000
 
 Following cartesian coordinates:
            Coordinates               Weight
  0.000000  0.000000  0.000000      1.000000
  0.033244  0.019194  0.000000      2.000000
  0.000000  0.038387  0.000000      2.000000
  0.033244  0.057581  0.000000      2.000000
 -0.033244  0.019194  0.000000      2.000000
 
 TETIRR: Found     24 inequivalent tetrahedra from       54


--------------------------------------------------------------------------------------------------------




 Dimension of arrays:
   k-points           NKPTS =      5   k-points in BZ     NKDIM =      5   number of bands    NBANDS=    414
   number of dos      NEDOS =    301   number of ions     NIONS =     64
   non local maximal  LDIM  =      6   non local SUM 2l+1 LMDIM =     18
   total plane-waves  NPLWV = ******
   max r-space proj   IRMAX =   8439   max aug-charges    IRDMAX=  19969
   dimension x,y,z NGX =    80 NGY =   80 NGZ =  160
   dimension x,y,z NGXF=   160 NGYF=  160 NGZF=  320
   support grid    NGXF=   160 NGYF=  160 NGZF=  320
   ions per type =              50  14
   NGX,Y,Z   is equivalent  to a cutoff of  13.26, 13.26, 12.55 a.u.
   NGXF,Y,Z  is equivalent  to a cutoff of  26.53, 26.53, 25.11 a.u.

 SYSTEM =  SQS-NiFe                                
 POSCAR =  POSCAR                                  

 Startparameter for this run:
   NWRITE =      2    write-flag & timer
   PREC   = accura    normal or accurate (medium, high low for compatibility)
   ISTART =      0    job   : 0-new  1-cont  2-samecut
   ICHARG =      1    charge: 1-file 2-atom 10-const
   ISPIN  =      2    spin polarized calculation?
   LNONCOLLINEAR =      F non collinear calculations
   LSORBIT =      F    spin-orbit coupling
   INIWAV =      1    electr: 0-lowe 1-rand  2-diag
   LASPH  =      F    aspherical Exc in radial PAW
   METAGGA=      F    non-selfconsistent MetaGGA calc.

 Electronic Relaxation 1
   ENCUT  =  520.0 eV  38.22 Ry    6.18 a.u.  18.64 18.64 39.40*2*pi/ulx,y,z
   ENINI  =  520.0     initial cutoff
   ENAUG  =  544.6 eV  augmentation charge cutoff
   NELM   =    200;   NELMIN=  2; NELMDL= -5     # of ELM steps 
   EDIFF  = 0.1E-05   stopping-criterion for ELM
   LREAL  =      T    real-space projection
   NLSPLINE    = F    spline interpolate recip. space projectors
   LCOMPAT=      F    compatible to vasp.4.4
   GGA_COMPAT  = T    GGA compatible to vasp.4.4-vasp.4.6
   LMAXPAW     = -100 max onsite density
   LMAXMIX     =    2 max onsite mixed and CHGCAR
   VOSKOWN=      0    Vosko Wilk Nusair interpolation
   ROPT   =   -0.00025  -0.00025
 Ionic relaxation
   EDIFFG = -.2E-01   stopping-criterion for IOM
   NSW    =      0    number of steps for IOM
   NBLOCK =      1;   KBLOCK =      1    inner block; outer block 
   IBRION =     -1    ionic relax: 0-MD 1-quasi-New 2-CG
   NFREE  =      0    steps in history (QN), initial steepest desc. (CG)
   ISIF   =      2    stress and relaxation
   IWAVPR =     10    prediction:  0-non 1-charg 2-wave 3-comb
   ISYM   =      0    0-nonsym 1-usesym 2-fastsym
   LCORR  =      T    Harris-Foulkes like correction to forces

   POTIM  = 0.5000    time-step for ionic-motion
   TEIN   =    0.0    initial temperature
   TEBEG  =    0.0;   TEEND  =   0.0 temperature during run
   SMASS  =  -3.00    Nose mass-parameter (am)
   estimated Nose-frequenzy (Omega)   =  0.10E-29 period in steps =****** mass=  -0.230E-26a.u.
   SCALEE = 1.0000    scale energy and forces
   NPACO  =    256;   APACO  = 16.0  distance and # of slots for P.C.
   PSTRESS=    0.0 pullay stress

  Mass of Ions in am
   POMASS =  58.69 55.85
  Ionic Valenz
   ZVAL   =  10.00  8.00
  Atomic Wigner-Seitz radii
   RWIGS  =  -1.00 -1.00
  virtual crystal weights 
   VCA    =   1.00  1.00
   NELECT =     612.0000    total number of electrons
   NUPDOWN=      -1.0000    fix difference up-down

 DOS related values:
   EMIN   =  10.00;   EMAX   =-10.00  energy-range for DOS
   EFERMI =   0.00
   ISMEAR =    -5;   SIGMA  =   0.20  broadening in eV -4-tet -1-fermi 0-gaus

 Electronic relaxation 2 (details)
   IALGO  =     68    algorithm
   LDIAG  =      T    sub-space diagonalisation (order eigenvalues)
   LSUBROT=      F    optimize rotation matrix (better conditioning)
   TURBO    =      0    0=normal 1=particle mesh
   IRESTART =      0    0=no restart 2=restart with 2 vectors
   NREBOOT  =      0    no. of reboots
   NMIN     =      0    reboot dimension
   EREF     =   0.00    reference energy to select bands
   IMIX   =      4    mixing-type and parameters
     AMIX     =   0.40;   BMIX     =  1.00
     AMIX_MAG =   1.60;   BMIX_MAG =  1.00
     AMIN     =   0.10
     WC   =   100.;   INIMIX=   1;  MIXPRE=   1;  MAXMIX= -45

 Intra band minimization:
   WEIMIN = 0.0000     energy-eigenvalue tresh-hold
   EBREAK =  0.60E-09  absolut break condition
   DEPER  =   0.30     relativ break condition  

   TIME   =   0.40     timestep for ELM

  volume/ion in A,a.u.               =      28.83       194.53
  Fermi-wavevector in a.u.,A,eV,Ry     =   1.133281  2.141591 17.474320  1.284326
  Thomas-Fermi vector in A             =   2.269984
 
 Write flags
   LWAVE        =      F    write WAVECAR
   LDOWNSAMPLE  =      F    k-point downsampling of WAVECAR
   LCHARG       =      T    write CHGCAR
   LVTOT        =      F    write LOCPOT, total local potential
   LVHAR        =      F    write LOCPOT, Hartree potential only
   LELF         =      F    write electronic localiz. function (ELF)
   LORBIT       =     11    0 simple, 1 ext, 2 COOP (PROOUT), +10 PAW based schemes


 Dipole corrections
   LMONO  =      F    monopole corrections only (constant potential shift)
   LDIPOL =      T    correct potential (dipole corrections)
   IDIPOL =      3    1-x, 2-y, 3-z, 4-all directions 
   EPSILON=  1.0000000 bulk dielectric constant

 Exchange correlation treatment:
   GGA     =    --    GGA type
   LEXCH   =     8    internal setting for exchange type
   VOSKOWN=      0    Vosko Wilk Nusair interpolation
   LHFCALC =     F    Hartree Fock is set to
   LHFONE  =     F    Hartree Fock one center treatment
   AEXX    =    0.0000 exact exchange contribution

 Linear response parameters
   LEPSILON=     F    determine dielectric tensor
   LRPA    =     F    only Hartree local field effects (RPA)
   LNABLA  =     F    use nabla operator in PAW spheres
   LVEL    =     F    velocity operator in full k-point grid
   LINTERFAST=   F  fast interpolation
   KINTER  =     0    interpolate to denser k-point grid
   CSHIFT  =0.1000    complex shift for real part using Kramers Kronig
   OMEGAMAX=  -1.0    maximum frequency
   DEG_THRESHOLD= 0.2000000E-02 threshold for treating states as degnerate
   RTIME   =   -0.100 relaxation time in fs
  (WPLASMAI=    0.000 imaginary part of plasma frequency in eV, 0.658/RTIME)
   DFIELD  = 0.0000000 0.0000000 0.0000000 field for delta impulse in time
 
 Orbital magnetization related:
   ORBITALMAG=     F  switch on orbital magnetization
   LCHIMAG   =     F  perturbation theory with respect to B field
   DQ        =  0.001000  dq finite difference perturbation B field
   LLRAUG    =     F  two centre corrections for induced B field



--------------------------------------------------------------------------------------------------------


 Static calculation
 charge density and potential will be updated during run
 spin polarized calculation
 RMM-DIIS sequential band-by-band and
  variant of blocked Davidson during initial phase
 perform sub-space diagonalisation
    before iterative eigenvector-optimisation
 modified Broyden-mixing scheme, WC =      100.0
 initial mixing is a Kerker type mixing with AMIX =  0.4000 and BMIX =      1.0000
 Hartree-type preconditioning will be used
 using additional bands          108
 real space projection scheme for non local part
 use partial core corrections
 calculate Harris-corrections to forces 
   (improved forces if not selfconsistent)
 use gradient corrections 
 use of overlap-Matrix (Vanderbilt PP)
 Fermi weights with tetrahedron method with Bloechl corrections


--------------------------------------------------------------------------------------------------------


  energy-cutoff  :      520.00
  volume of cell :     1844.86
      direct lattice vectors                 reciprocal lattice vectors
    10.026770000  0.000000000  0.000000000     0.099733015  0.057580883  0.000000000
    -5.013385000  8.683437540  0.000000000     0.000000000  0.115161766  0.000000000
     0.000000000  0.000000000 21.188983070     0.000000000  0.000000000  0.047194337

  length of vectors
    10.026770000 10.026770002 21.188983070     0.115161766  0.115161766  0.047194337


 
 k-points in units of 2pi/SCALE and weight: read from INCAR                         
   0.00000000  0.00000000  0.00000000       0.111
   0.03324434  0.01919363  0.00000000       0.222
   0.00000000  0.03838726  0.00000000       0.222
   0.03324434  0.05758088  0.00000000       0.222
  -0.03324434  0.01919363  0.00000000       0.222
 
 k-points in reciprocal lattice and weights: read from INCAR                         
   0.00000000  0.00000000  0.00000000       0.111
   0.33333333  0.00000000  0.00000000       0.222
   0.00000000  0.33333333  0.00000000       0.222
   0.33333333  0.33333333  0.00000000       0.222
  -0.33333333  0.33333333  0.00000000       0.222
 
 position of ions in fractional coordinates (direct lattice) 
   0.00052900  0.00053000  0.09593319
   0.00029197  0.00027097  0.38226740
   0.25001300  0.00028700  0.09507516
   0.24877910  0.00159649  0.38182477
   0.49948700  0.99908000  0.09580077
   0.49975913  0.99855374  0.38297659
   0.74930200  0.99919300  0.09588248
   0.74910613  0.99928694  0.38222719
   0.99864000  0.24850700  0.09577903
   0.99815726  0.24670308  0.38422973
   0.25012600  0.25021600  0.09542058
   0.25198788  0.25258835  0.38375587
   0.08288200  0.16633200  0.19236263
   0.50064200  0.24891300  0.09586799
   0.49898930  0.24695485  0.38452591
   0.33293900  0.16685800  0.19242841
   0.75052500  0.25006200  0.09669473
   0.75019684  0.25076038  0.38548852
   0.58230700  0.16720100  0.19338931
   0.83403200  0.16672400  0.19313692
   0.66605724  0.08431116  0.28834005
   0.91655597  0.08286786  0.28779582
   0.00183400  0.50047500  0.09438867
   0.00070152  0.49971888  0.38222824
   0.08092200  0.41609700  0.19263386
   0.16677895  0.33600836  0.28867503
   0.75170200  0.50186900  0.09460572
   0.75051258  0.50075367  0.38283399
   0.58357300  0.41617200  0.19261966
   0.00109100  0.75115300  0.09468309
   0.00064887  0.75111219  0.38114044
   0.24902600  0.74885700  0.09449183
   0.24946129  0.75042573  0.38152233
   0.08375800  0.66810400  0.19148344
   0.49972500  0.74917300  0.09464107
   0.49905315  0.74810061  0.38274740
   0.33297400  0.66727700  0.19107398
   0.75128300  0.75093600  0.09543333
   0.74982840  0.74989337  0.38189576
   0.58298100  0.66668200  0.19119569
   0.41705547  0.58225395  0.28834709
   0.83395900  0.66770600  0.19166513
   0.91626041  0.58243508  0.28667381
   0.08291700  0.91685800  0.19187232
   0.33420600  0.91705400  0.19206792
   0.16659648  0.83533629  0.28666060
   0.41684561  0.83194165  0.28805151
   0.83233100  0.91715000  0.19302274
   0.66612431  0.83292812  0.28794811
   0.91645060  0.83286022  0.28715088
   0.16195759  0.08345717  0.28795980
   0.41692099  0.07778548  0.28826836
   0.24829900  0.49904600  0.09513485
   0.24596970  0.49890350  0.38366682
   0.50648100  0.50259500  0.09587930
   0.50564080  0.50201419  0.38794943
   0.33134100  0.41714300  0.19246231
   0.41764193  0.33324589  0.29024079
   0.83354800  0.41839000  0.19117395
   0.66741332  0.33155684  0.29171160
   0.91502343  0.32699199  0.29147321
   0.16901914  0.58897331  0.28645745
   0.66862474  0.58845996  0.28719658
   0.58310400  0.91651500  0.19252114
 
 position of ions in cartesian coordinates  (Angst):
   0.00264707  0.00460222  2.03272674
   0.00156906  0.00235296  8.09985748
   2.50538401  0.00249215  2.01454596
   2.48644702  0.01386305  8.09047865
  -0.00053142  8.67544878  2.02992089
   0.00483551  8.67087900  8.11488446
   2.50373962  8.67643001  2.03165225
   2.50130470  8.67724575  8.09900539
   8.76727233  2.15789501  2.02946025
   8.77147572  2.14223081  8.14143715
   1.25352673  2.17273501  2.02186505
   1.26030185  2.19333515  8.13139661
  -0.00284760  1.44433353  4.07596851
   3.77192549  2.16142049  2.03134522
   3.76517118  2.14441702  8.14771290
   2.50177938  1.44890102  4.07736232
   6.27168447  2.17139776  2.04886300
   6.26489280  2.17746212  8.16810972
   5.00041537  1.45187944  4.09772282
   7.52679544  1.44773744  4.09237493
   6.25571847  0.73211073  6.10963251
   8.77464748  0.71957786  6.09810075
  -2.49068476  4.34584340  1.99999993
  -2.49824914  4.33927764  8.09902772
  -1.27466818  3.61315231  4.08171560
  -0.01228514  2.91770760  6.11673024
   5.02108055  4.35794811  2.00459900
   5.01474603  4.34826324  8.11186302
   3.76492179  3.61380357  4.08141471
  -3.75487998  6.52259016  2.00623839
  -3.75910856  6.52223578  8.07597830
  -1.25738202  6.50265299  2.00218579
  -1.26088206  6.51627492  8.08407017
  -2.50964037  5.80143935  4.05733937
   1.25473496  6.50539695  2.00534803
   1.25337478  6.49608492  8.11002824
  -0.00666279  5.79425815  4.04866333
   3.76821057  6.52070585  2.02213521
   3.75885268  6.51165228  8.09198284
   2.50308286  5.78909151  4.05124224
   1.26265611  5.05596577  6.10978165
   5.01444784  5.79798335  4.06118919
   6.26716113  5.05753862  6.07432652
  -3.76517246  7.96147918  4.06557934
  -1.24653807  7.96318113  4.06972391
  -2.51743783  7.25359051  6.07404652
   0.00877124  7.22411339  6.10351863
   3.74756545  7.96401474  4.08995557
   2.50328588  7.23267934  6.10132764
   5.01359045  7.23208968  6.08443506
   1.20550860  0.72469509  6.10157526
   3.79040230  0.67544539  6.10811340
  -0.01227277  4.33343477  2.01581073
  -0.03491368  4.33219734  8.12950980
   2.55866626  4.36425229  2.03158486
   2.55315353  4.35920889  8.22025381
   1.23098154  3.62223519  4.07808063
   2.51690968  2.89371985  6.14990728
   6.26024393  3.63306343  4.05078159
   5.02977775  2.87905308  6.18107220
   7.53539268  2.83941456  6.17602087
  -1.25803391  5.11431292  6.06974202
   3.75397010  5.10985533  6.08540351
   1.25180714  7.95850076  4.07932718
 


--------------------------------------------------------------------------------------------------------


 k-point  1 :   0.0000 0.0000 0.0000  plane waves:   49741
 k-point  2 :   0.3333 0.0000 0.0000  plane waves:   49680
 k-point  3 :   0.0000 0.3333 0.0000  plane waves:   49680
 k-point  4 :   0.3333 0.3333 0.0000  plane waves:   49662
 k-point  5 :  -0.3333 0.3333 0.0000  plane waves:   49680

 maximum and minimum number of plane-waves per node :      2099     2053

 maximum number of plane-waves:     49741
 maximum index in each direction: 
   IXMAX=   18   IYMAX=   18   IZMAX=   39
   IXMIN=  -18   IYMIN=  -18   IZMIN=  -39


 real space projection operators:
  total allocation   :      63943.73 KBytes
  max/ min on nodes  :       3186.14       2381.20


 parallel 3D FFT for wavefunctions:
    minimum data exchange during FFTs selected (reduces bandwidth)
 parallel 3D FFT for charge:
    minimum data exchange during FFTs selected (reduces bandwidth)


 total amount of memory used by VASP MPI-rank0   113069. kBytes
=======================================================================

   base      :      30000. kBytes
   nonlr-proj:      13089. kBytes
   fftplans  :       6402. kBytes
   grid      :      16455. kBytes
   one-center:         93. kBytes
   wavefun   :      47030. kBytes
 
     INWAV:  cpu time    0.0010: real time    0.0002
 Broyden mixing: mesh for mixing (old mesh)
   NGX = 37   NGY = 37   NGZ = 79
  (NGX  =160   NGY  =160   NGZ  =320)
  gives a total of 108151 points

 initial charge density was supplied:
 number of electron     612.0000063 magnetization      71.3200411
 keeping initial charge density in first step


--------------------------------------------------------------------------------------------------------


 Maximum index for non-local projection operator          767
 Maximum index for augmentation-charges         1116 (set IRDMAX)


--------------------------------------------------------------------------------------------------------


 First call to EWALD:  gamma=   0.145
 Maximum number of real-space cells 4x 4x 2
 Maximum number of reciprocal cells 2x 2x 4

    FEWALD:  cpu time    0.0050: real time    0.0047


--------------------------------------- Iteration      1(   1)  ---------------------------------------


    POTLOK:  cpu time    0.2480: real time    0.2516
    SETDIJ:  cpu time    0.0180: real time    0.0198
     EDDAV:  cpu time   25.2102: real time   25.3388
 BZINTS: Fermi energy: 11.450034;612.000000 electrons
         Band energy:3840.666276;  BLOECHL correction: -0.010587
       DOS:  cpu time    0.0420: real time    0.0437
    --------------------------------------------
      LOOP:  cpu time   25.5181: real time   25.6539

 eigenvalue-minimisations  :  8280
 total energy-change (2. order) : 0.4630998E+04  (-0.2683921E+05)
 number of electron     612.0000063 magnetization      71.3200411
 augmentation part      612.0000063 magnetization      71.3200411

 DIPCOR: dipole corrections for dipol
 direction  3 min pos   242,
 dipolmoment           0.000000      0.000000     -0.030865 electrons x Angstroem
 Tr[quadrupol]    -10380.140716

 energy correction for charged system         0.000000 eV
 dipol+quadrupol energy correction           -0.000047 eV
 added-field ion interaction         -0.550800 eV  (added to PSCEN)


 Free energy of the ion-electron system (eV)
  ---------------------------------------------------
  alpha Z        PSCENC =      1246.58616825
  Ewald energy   TEWEN  =    214171.34398573
  -Hartree energ DENC   =   -274877.02062636
  -exchange      EXHF   =         0.00000000
  -V(xc)+E(xc)   XCENC  =      1591.24717165
  PAW double counting   =     65744.75691723   -69290.50539348
  entropy T*S    EENTRO =         0.00000000
  eigenvalues    EBANDS =      3840.66627631
  atomic energy  EATOM  =     62203.92349997
  Solvation  Ediel_sol  =         0.00000000
  ---------------------------------------------------
  free energy    TOTEN  =      4630.99799931 eV

  energy without entropy =     4630.99799931  energy(sigma->0) =     4630.99799931


--------------------------------------------------------------------------------------------------------




--------------------------------------- Iteration      1(   2)  ---------------------------------------


     EDDAV:  cpu time   25.2932: real time   25.3687
 BZINTS: Fermi energy:  1.584798;612.000000 electrons
         Band energy:-705.338440;  BLOECHL correction: -0.011782
       DOS:  cpu time    0.0440: real time    0.0436
    --------------------------------------------
      LOOP:  cpu time   25.3371: real time   25.4124

 eigenvalue-minimisations  :  8280
 total energy-change (2. order) :-0.4546005E+04  (-0.4280838E+04)
 number of electron     612.0000063 magnetization      71.3200411
 augmentation part      612.0000063 magnetization      71.3200411

 DIPCOR: dipole corrections for dipol
 direction  3 min pos   242,
 dipolmoment           0.000000      0.000000     -0.030865 electrons x Angstroem
 Tr[quadrupol]    -10380.140716

 energy correction for charged system         0.000000 eV
 dipol+quadrupol energy correction           -0.000047 eV
 added-field ion interaction         -0.550800 eV  (added to PSCEN)


 Free energy of the ion-electron system (eV)
  ---------------------------------------------------
  alpha Z        PSCENC =      1246.58616825
  Ewald energy   TEWEN  =    214171.34398573
  -Hartree energ DENC   =   -274877.02062636
  -exchange      EXHF   =         0.00000000
  -V(xc)+E(xc)   XCENC  =      1591.24717165
  PAW double counting   =     65744.75691723   -69290.50539348
  entropy T*S    EENTRO =         0.00000000
  eigenvalues    EBANDS =      -705.33844007
  atomic energy  EATOM  =     62203.92349997
  Solvation  Ediel_sol  =         0.00000000
  ---------------------------------------------------
  free energy    TOTEN  =        84.99328293 eV

  energy without entropy =       84.99328293  energy(sigma->0) =       84.99328293


--------------------------------------------------------------------------------------------------------




--------------------------------------- Iteration      1(   3)  ---------------------------------------


     EDDAV:  cpu time   25.9531: real time   26.0211
 BZINTS: Fermi energy:  0.330725;612.000000 electrons
         Band energy:***********;  BLOECHL correction: -0.010420
       DOS:  cpu time    0.0430: real time    0.0434
    --------------------------------------------
      LOOP:  cpu time   25.9960: real time   26.0644

 eigenvalue-minimisations  :  8514
 total energy-change (2. order) :-0.4362955E+03  (-0.3763813E+03)
 number of electron     612.0000063 magnetization      71.3200411
 augmentation part      612.0000063 magnetization      71.3200411

 DIPCOR: dipole corrections for dipol
 direction  3 min pos   242,
 dipolmoment           0.000000      0.000000     -0.030865 electrons x Angstroem
 Tr[quadrupol]    -10380.140716

 energy correction for charged system         0.000000 eV
 dipol+quadrupol energy correction           -0.000047 eV
 added-field ion interaction         -0.550800 eV  (added to PSCEN)


 Free energy of the ion-electron system (eV)
  ---------------------------------------------------
  alpha Z        PSCENC =      1246.58616825
  Ewald energy   TEWEN  =    214171.34398573
  -Hartree energ DENC   =   -274877.02062636
  -exchange      EXHF   =         0.00000000
  -V(xc)+E(xc)   XCENC  =      1591.24717165
  PAW double counting   =     65744.75691723   -69290.50539348
  entropy T*S    EENTRO =         0.00000000
  eigenvalues    EBANDS =     -1141.63391965
  atomic energy  EATOM  =     62203.92349997
  Solvation  Ediel_sol  =         0.00000000
  ---------------------------------------------------
  free energy    TOTEN  =      -351.30219665 eV

  energy without entropy =     -351.30219665  energy(sigma->0) =     -351.30219665


--------------------------------------------------------------------------------------------------------




--------------------------------------- Iteration      1(   4)  ---------------------------------------


     EDDAV:  cpu time   26.6529: real time   26.7507
 BZINTS: Fermi energy:  0.301023;612.000000 electrons
         Band energy:***********;  BLOECHL correction: -0.007646
       DOS:  cpu time    0.0410: real time    0.0411
    --------------------------------------------
      LOOP:  cpu time   26.6939: real time   26.7918

 eigenvalue-minimisations  :  8793
 total energy-change (2. order) :-0.1845248E+02  (-0.1809699E+02)
 number of electron     612.0000063 magnetization      71.3200411
 augmentation part      612.0000063 magnetization      71.3200411

 DIPCOR: dipole corrections for dipol
 direction  3 min pos   242,
 dipolmoment           0.000000      0.000000     -0.030865 electrons x Angstroem
 Tr[quadrupol]    -10380.140716

 energy correction for charged system         0.000000 eV
 dipol+quadrupol energy correction           -0.000047 eV
 added-field ion interaction         -0.550800 eV  (added to PSCEN)


 Free energy of the ion-electron system (eV)
  ---------------------------------------------------
  alpha Z        PSCENC =      1246.58616825
  Ewald energy   TEWEN  =    214171.34398573
  -Hartree energ DENC   =   -274877.02062636
  -exchange      EXHF   =         0.00000000
  -V(xc)+E(xc)   XCENC  =      1591.24717165
  PAW double counting   =     65744.75691723   -69290.50539348
  entropy T*S    EENTRO =         0.00000000
  eigenvalues    EBANDS =     -1160.08640387
  atomic energy  EATOM  =     62203.92349997
  Solvation  Ediel_sol  =         0.00000000
  ---------------------------------------------------
  free energy    TOTEN  =      -369.75468087 eV

  energy without entropy =     -369.75468087  energy(sigma->0) =     -369.75468087


--------------------------------------------------------------------------------------------------------




--------------------------------------- Iteration      1(   5)  ---------------------------------------


     EDDAV:  cpu time   28.4547: real time   28.5135
 BZINTS: Fermi energy:  0.300567;612.000000 electrons
         Band energy:***********;  BLOECHL correction: -0.007554
       DOS:  cpu time    0.0420: real time    0.0418
    CHARGE:  cpu time    0.7789: real time    0.7797
    MIXING:  cpu time    0.0050: real time    0.0051
    --------------------------------------------
      LOOP:  cpu time   29.2805: real time   29.3402

 eigenvalue-minimisations  :  9864
 total energy-change (2. order) :-0.3639888E+00  (-0.3638662E+00)
 number of electron     612.0000062 magnetization      71.3516711
 augmentation part      367.1717704 magnetization      62.0678155

 DIPCOR: dipole corrections for dipol
 direction  3 min pos   242,
 dipolmoment           0.000000      0.000000     -0.030865 electrons x Angstroem
 Tr[quadrupol]    -10380.140716

 energy correction for charged system         0.000000 eV
 dipol+quadrupol energy correction           -0.000047 eV
 added-field ion interaction         -0.550800 eV  (added to PSCEN)


 Broyden mixing:
  rms(total) = 0.83507E-01    rms(broyden)= 0.83383E-01
  rms(prec ) = 0.88678E-01
  weight for this iteration     100.00

 Free energy of the ion-electron system (eV)
  ---------------------------------------------------
  alpha Z        PSCENC =      1246.58616825
  Ewald energy   TEWEN  =    214171.34398573
  -Hartree energ DENC   =   -274877.02062636
  -exchange      EXHF   =         0.00000000
  -V(xc)+E(xc)   XCENC  =      1591.24717165
  PAW double counting   =     65744.75691723   -69290.50539348
  entropy T*S    EENTRO =         0.00000000
  eigenvalues    EBANDS =     -1160.45039263
  atomic energy  EATOM  =     62203.92349997
  Solvation  Ediel_sol  =         0.00000000
  ---------------------------------------------------
  free energy    TOTEN  =      -370.11866964 eV

  energy without entropy =     -370.11866964  energy(sigma->0) =     -370.11866964


--------------------------------------------------------------------------------------------------------




--------------------------------------- Iteration      1(   6)  ---------------------------------------


    POTLOK:  cpu time    0.2450: real time    0.2457
    SETDIJ:  cpu time    0.0200: real time    0.0197
    EDDIAG:  cpu time    3.8854: real time    3.8952
  RMM-DIIS:  cpu time   16.2565: real time   16.3002
    ORTHCH:  cpu time    0.6719: real time    0.6720
 BZINTS: Fermi energy:  0.290336;612.000000 electrons
         Band energy:***********;  BLOECHL correction: -0.008415
       DOS:  cpu time    0.0430: real time    0.0434
    CHARGE:  cpu time    0.8299: real time    0.8305
    MIXING:  cpu time    0.0050: real time    0.0051
    --------------------------------------------
      LOOP:  cpu time   21.9567: real time   22.0118

 eigenvalue-minimisations  :  8563
 total energy-change (2. order) :-0.1481357E+00  (-0.2388178E-01)
 number of electron     612.0000064 magnetization      71.3527772
 augmentation part      367.2818935 magnetization      62.0591196

 DIPCOR: dipole corrections for dipol
 direction  3 min pos   241,
 dipolmoment           0.000000      0.000000      0.019225 electrons x Angstroem
 Tr[quadrupol]    -10380.142805

 energy correction for charged system         0.000000 eV
 dipol+quadrupol energy correction           -0.000018 eV
 added-field ion interaction          0.266658 eV  (added to PSCEN)


 Broyden mixing:
  rms(total) = 0.69188E+00    rms(broyden)= 0.69184E+00
  rms(prec ) = 0.87888E+00
  weight for this iteration     100.00

 eigenvalues of (default mixing * dielectric matrix)
  average eigenvalue GAMMA=   0.0844
  0.0844

 Free energy of the ion-electron system (eV)
  ---------------------------------------------------
  alpha Z        PSCENC =      1247.40365482
  Ewald energy   TEWEN  =    214171.34398573
  -Hartree energ DENC   =   -274874.49698743
  -exchange      EXHF   =         0.00000000
  -V(xc)+E(xc)   XCENC  =      1591.28493729
  PAW double counting   =     65801.82685134   -69347.29818173
  entropy T*S    EENTRO =         0.00000000
  eigenvalues    EBANDS =     -1164.25456535
  atomic energy  EATOM  =     62203.92349997
  Solvation  Ediel_sol  =         0.00000000
  ---------------------------------------------------
  free energy    TOTEN  =      -370.26680536 eV

  energy without entropy =     -370.26680536  energy(sigma->0) =     -370.26680536


--------------------------------------------------------------------------------------------------------




--------------------------------------- Iteration      1(   7)  ---------------------------------------


    POTLOK:  cpu time    0.2610: real time    0.2621
    SETDIJ:  cpu time    0.0210: real time    0.0205
    EDDIAG:  cpu time    3.7334: real time    3.7397
  RMM-DIIS:  cpu time   16.9794: real time   17.0161
    ORTHCH:  cpu time    0.6609: real time    0.6632
 BZINTS: Fermi energy:  0.301781;612.000000 electrons
         Band energy:***********;  BLOECHL correction: -0.005468
       DOS:  cpu time    0.0430: real time    0.0426
    CHARGE:  cpu time    0.8209: real time    0.8212
    MIXING:  cpu time    0.0050: real time    0.0049
    --------------------------------------------
      LOOP:  cpu time   22.5246: real time   22.5703

 eigenvalue-minimisations  :  9017
 total energy-change (2. order) : 0.9500303E-01  (-0.6824399E-02)
 number of electron     612.0000062 magnetization      71.3571087
 augmentation part      367.1390136 magnetization      62.0918878

 DIPCOR: dipole corrections for dipol
 direction  3 min pos   239,
 dipolmoment           0.000000      0.000000     -0.063741 electrons x Angstroem
 Tr[quadrupol]    -10380.107504

 energy correction for charged system         0.000000 eV
 dipol+quadrupol energy correction           -0.000199 eV
 added-field ion interaction         -0.377392 eV  (added to PSCEN)


 Broyden mixing:
  rms(total) = 0.41021E+00    rms(broyden)= 0.41011E+00
  rms(prec ) = 0.53299E+00
  weight for this iteration     100.00

 eigenvalues of (default mixing * dielectric matrix)
  average eigenvalue GAMMA=   0.1224
  0.2049  0.0399

 Free energy of the ion-electron system (eV)
  ---------------------------------------------------
  alpha Z        PSCENC =      1246.75942415
  Ewald energy   TEWEN  =    214171.34398573
  -Hartree energ DENC   =   -274874.05613872
  -exchange      EXHF   =         0.00000000
  -V(xc)+E(xc)   XCENC  =      1591.31846763
  PAW double counting   =     65803.60400704   -69349.16593497
  entropy T*S    EENTRO =         0.00000000
  eigenvalues    EBANDS =     -1163.89911317
  atomic energy  EATOM  =     62203.92349997
  Solvation  Ediel_sol  =         0.00000000
  ---------------------------------------------------
  free energy    TOTEN  =      -370.17180233 eV

  energy without entropy =     -370.17180233  energy(sigma->0) =     -370.17180233


--------------------------------------------------------------------------------------------------------




--------------------------------------- Iteration      1(   8)  ---------------------------------------


    POTLOK:  cpu time    0.2600: real time    0.2599
    SETDIJ:  cpu time    0.0200: real time    0.0201
    EDDIAG:  cpu time    3.8154: real time    3.8203
  RMM-DIIS:  cpu time   16.2815: real time   16.3198
    ORTHCH:  cpu time    0.6529: real time    0.6542
 BZINTS: Fermi energy:  0.293909;612.000000 electrons
         Band energy:***********;  BLOECHL correction: -0.006917
       DOS:  cpu time    0.0420: real time    0.0417
    CHARGE:  cpu time    0.8589: real time    0.8606
    MIXING:  cpu time    0.0060: real time    0.0051
    --------------------------------------------
      LOOP:  cpu time   21.9367: real time   21.9817

 eigenvalue-minimisations  :  8685
 total energy-change (2. order) : 0.4457850E-01  (-0.3660000E-02)
 number of electron     612.0000062 magnetization      71.3676216
 augmentation part      367.1750805 magnetization      62.1413837

 DIPCOR: dipole corrections for dipol
 direction  3 min pos   237,
 dipolmoment           0.000000      0.000000     -0.027858 electrons x Angstroem
 Tr[quadrupol]    -10380.079488

 energy correction for charged system         0.000000 eV
 dipol+quadrupol energy correction           -0.000038 eV
 added-field ion interaction          0.056531 eV  (added to PSCEN)


 Broyden mixing:
  rms(total) = 0.12053E+00    rms(broyden)= 0.12047E+00
  rms(prec ) = 0.13204E+00
  weight for this iteration     100.00

 eigenvalues of (default mixing * dielectric matrix)
  average eigenvalue GAMMA=   0.2189
  0.5099  0.1075  0.0394

 Free energy of the ion-electron system (eV)
  ---------------------------------------------------
  alpha Z        PSCENC =      1247.19350795
  Ewald energy   TEWEN  =    214171.34398573
  -Hartree energ DENC   =   -274872.96070820
  -exchange      EXHF   =         0.00000000
  -V(xc)+E(xc)   XCENC  =      1591.32521010
  PAW double counting   =     65804.74963001   -69350.38057382
  entropy T*S    EENTRO =         0.00000000
  eigenvalues    EBANDS =     -1165.32177558
  atomic energy  EATOM  =     62203.92349997
  Solvation  Ediel_sol  =         0.00000000
  ---------------------------------------------------
  free energy    TOTEN  =      -370.12722384 eV

  energy without entropy =     -370.12722384  energy(sigma->0) =     -370.12722384


--------------------------------------------------------------------------------------------------------




--------------------------------------- Iteration      1(   9)  ---------------------------------------


    POTLOK:  cpu time    0.2440: real time    0.2464
    SETDIJ:  cpu time    0.0200: real time    0.0194
    EDDIAG:  cpu time    3.8084: real time    3.8156
  RMM-DIIS:  cpu time   16.1825: real time   16.3483
    ORTHCH:  cpu time    0.6549: real time    0.6574
 BZINTS: Fermi energy:  0.293814;612.000000 electrons
         Band energy:***********;  BLOECHL correction: -0.007158
       DOS:  cpu time    0.0410: real time    0.0417
    CHARGE:  cpu time    0.8419: real time    0.8411
    MIXING:  cpu time    0.0050: real time    0.0049
    --------------------------------------------
      LOOP:  cpu time   21.7977: real time   21.9747

 eigenvalue-minimisations  :  8690
 total energy-change (2. order) :-0.1755216E-02  (-0.1122196E-02)
 number of electron     612.0000062 magnetization      71.3761380
 augmentation part      367.1269062 magnetization      62.1612842

 DIPCOR: dipole corrections for dipol
 direction  3 min pos   233,
 dipolmoment           0.000000      0.000000     -0.032656 electrons x Angstroem
 Tr[quadrupol]    -10380.074143

 energy correction for charged system         0.000000 eV
 dipol+quadrupol energy correction           -0.000052 eV
 added-field ion interaction          0.585490 eV  (added to PSCEN)


 Broyden mixing:
  rms(total) = 0.11818E+00    rms(broyden)= 0.11817E+00
  rms(prec ) = 0.13122E+00
  weight for this iteration     100.00

 eigenvalues of (default mixing * dielectric matrix)
  average eigenvalue GAMMA=   0.2219
  0.6117  0.0392  0.1183  0.1183

 Free energy of the ion-electron system (eV)
  ---------------------------------------------------
  alpha Z        PSCENC =      1247.72245278
  Ewald energy   TEWEN  =    214171.34398573
  -Hartree energ DENC   =   -274872.53135700
  -exchange      EXHF   =         0.00000000
  -V(xc)+E(xc)   XCENC  =      1591.33160121
  PAW double counting   =     65803.66610447   -69349.42127304
  entropy T*S    EENTRO =         0.00000000
  eigenvalues    EBANDS =     -1166.16399317
  atomic energy  EATOM  =     62203.92349997
  Solvation  Ediel_sol  =         0.00000000
  ---------------------------------------------------
  free energy    TOTEN  =      -370.12897905 eV

  energy without entropy =     -370.12897905  energy(sigma->0) =     -370.12897905


--------------------------------------------------------------------------------------------------------




--------------------------------------- Iteration      1(  10)  ---------------------------------------


    POTLOK:  cpu time    0.2440: real time    0.2450
    SETDIJ:  cpu time    0.0200: real time    0.0193
    EDDIAG:  cpu time    3.7484: real time    3.7620
  RMM-DIIS:  cpu time   15.9876: real time   16.0416
    ORTHCH:  cpu time    0.6379: real time    0.6394
 BZINTS: Fermi energy:  0.291898;612.000000 electrons
         Band energy:***********;  BLOECHL correction: -0.006977
       DOS:  cpu time    0.0420: real time    0.0420
    CHARGE:  cpu time    0.8429: real time    0.8434
    MIXING:  cpu time    0.0060: real time    0.0055
    --------------------------------------------
      LOOP:  cpu time   21.5287: real time   21.5982

 eigenvalue-minimisations  :  8684
 total energy-change (2. order) : 0.4504061E-02  (-0.5449357E-03)
 number of electron     612.0000062 magnetization      71.3843445
 augmentation part      367.1569616 magnetization      62.1553121

 DIPCOR: dipole corrections for dipol
 direction  3 min pos   231,
 dipolmoment           0.000000      0.000000     -0.032401 electrons x Angstroem
 Tr[quadrupol]    -10380.088115

 energy correction for charged system         0.000000 eV
 dipol+quadrupol energy correction           -0.000051 eV
 added-field ion interaction          0.838507 eV  (added to PSCEN)


 Broyden mixing:
  rms(total) = 0.47867E-01    rms(broyden)= 0.47858E-01
  rms(prec ) = 0.53775E-01
  weight for this iteration     100.00

 eigenvalues of (default mixing * dielectric matrix)
  average eigenvalue GAMMA=   0.2614
  0.5916  0.4430  0.0392  0.1364  0.0966

 Free energy of the ion-electron system (eV)
  ---------------------------------------------------
  alpha Z        PSCENC =      1247.97547123
  Ewald energy   TEWEN  =    214171.34398573
  -Hartree energ DENC   =   -274872.10969941
  -exchange      EXHF   =         0.00000000
  -V(xc)+E(xc)   XCENC  =      1591.29071654
  PAW double counting   =     65800.23188578   -69345.91004784
  entropy T*S    EENTRO =         0.00000000
  eigenvalues    EBANDS =     -1166.87028699
  atomic energy  EATOM  =     62203.92349997
  Solvation  Ediel_sol  =         0.00000000
  ---------------------------------------------------
  free energy    TOTEN  =      -370.12447499 eV

  energy without entropy =     -370.12447499  energy(sigma->0) =     -370.12447499


--------------------------------------------------------------------------------------------------------




--------------------------------------- Iteration      1(  11)  ---------------------------------------


    POTLOK:  cpu time    0.2450: real time    0.2449
    SETDIJ:  cpu time    0.0190: real time    0.0190
    EDDIAG:  cpu time    3.6954: real time    3.7016
  RMM-DIIS:  cpu time   15.9346: real time   16.0270
    ORTHCH:  cpu time    0.6419: real time    0.6627
 BZINTS: Fermi energy:  0.289733;612.000000 electrons
         Band energy:***********;  BLOECHL correction: -0.006983
       DOS:  cpu time    0.0420: real time    0.0422
    CHARGE:  cpu time    0.8139: real time    0.8180
    MIXING:  cpu time    0.0070: real time    0.0068
    --------------------------------------------
      LOOP:  cpu time   21.3987: real time   21.5222

 eigenvalue-minimisations  :  8673
 total energy-change (2. order) :-0.4881503E-03  (-0.2657292E-03)
 number of electron     612.0000062 magnetization      71.3988500
 augmentation part      367.1734519 magnetization      62.1616842

 DIPCOR: dipole corrections for dipol
 direction  3 min pos   228,
 dipolmoment           0.000000      0.000000     -0.033284 electrons x Angstroem
 Tr[quadrupol]    -10380.088193

 energy correction for charged system         0.000000 eV
 dipol+quadrupol energy correction           -0.000054 eV
 added-field ion interaction          1.258274 eV  (added to PSCEN)


 Broyden mixing:
  rms(total) = 0.60076E-01    rms(broyden)= 0.60073E-01
  rms(prec ) = 0.66893E-01
  weight for this iteration     100.00

 eigenvalues of (default mixing * dielectric matrix)
  average eigenvalue GAMMA=   0.3345
  0.8044  0.8044  0.0392  0.1521  0.1111  0.0962

 Free energy of the ion-electron system (eV)
  ---------------------------------------------------
  alpha Z        PSCENC =      1248.39523471
  Ewald energy   TEWEN  =    214171.34398573
  -Hartree energ DENC   =   -274871.36300371
  -exchange      EXHF   =         0.00000000
  -V(xc)+E(xc)   XCENC  =      1591.26702772
  PAW double counting   =     65794.26491871   -69339.89739702
  entropy T*S    EENTRO =         0.00000000
  eigenvalues    EBANDS =     -1168.05922926
  atomic energy  EATOM  =     62203.92349997
  Solvation  Ediel_sol  =         0.00000000
  ---------------------------------------------------
  free energy    TOTEN  =      -370.12496314 eV

  energy without entropy =     -370.12496314  energy(sigma->0) =     -370.12496314


--------------------------------------------------------------------------------------------------------




--------------------------------------- Iteration      1(  12)  ---------------------------------------


    POTLOK:  cpu time    0.2620: real time    0.2618
    SETDIJ:  cpu time    0.0190: real time    0.0192
    EDDIAG:  cpu time    3.6444: real time    3.6923
  RMM-DIIS:  cpu time   15.6826: real time   15.9033
    ORTHCH:  cpu time    0.6569: real time    0.6574
 BZINTS: Fermi energy:  0.289108;612.000000 electrons
         Band energy:***********;  BLOECHL correction: -0.007033
       DOS:  cpu time    0.0420: real time    0.0419
    CHARGE:  cpu time    0.7989: real time    0.8004
    MIXING:  cpu time    0.0060: real time    0.0053
    --------------------------------------------
      LOOP:  cpu time   21.1118: real time   21.3816

 eigenvalue-minimisations  :  8629
 total energy-change (2. order) : 0.5482146E-03  (-0.1437285E-03)
 number of electron     612.0000062 magnetization      71.4055356
 augmentation part      367.1652182 magnetization      62.1626991

 DIPCOR: dipole corrections for dipol
 direction  3 min pos   226,
 dipolmoment           0.000000      0.000000     -0.032776 electrons x Angstroem
 Tr[quadrupol]    -10380.088568

 energy correction for charged system         0.000000 eV
 dipol+quadrupol energy correction           -0.000053 eV
 added-field ion interaction          1.499623 eV  (added to PSCEN)


 Broyden mixing:
  rms(total) = 0.45556E-01    rms(broyden)= 0.45552E-01
  rms(prec ) = 0.50910E-01
  weight for this iteration     100.00

 eigenvalues of (default mixing * dielectric matrix)
  average eigenvalue GAMMA=   0.3317
  1.0096  0.7549  0.1893  0.0392  0.1224  0.1141  0.0926

 Free energy of the ion-electron system (eV)
  ---------------------------------------------------
  alpha Z        PSCENC =      1248.63658603
  Ewald energy   TEWEN  =    214171.34398573
  -Hartree energ DENC   =   -274871.11721635
  -exchange      EXHF   =         0.00000000
  -V(xc)+E(xc)   XCENC  =      1591.26414805
  PAW double counting   =     65782.82306191   -69328.52437559
  entropy T*S    EENTRO =         0.00000000
  eigenvalues    EBANDS =     -1168.47410467
  atomic energy  EATOM  =     62203.92349997
  Solvation  Ediel_sol  =         0.00000000
  ---------------------------------------------------
  free energy    TOTEN  =      -370.12441493 eV

  energy without entropy =     -370.12441493  energy(sigma->0) =     -370.12441493


--------------------------------------------------------------------------------------------------------




--------------------------------------- Iteration      1(  13)  ---------------------------------------


    POTLOK:  cpu time    0.2460: real time    0.2720
    SETDIJ:  cpu time    0.0200: real time    0.0191
    EDDIAG:  cpu time    3.6244: real time    3.6487
  RMM-DIIS:  cpu time   15.6066: real time   15.7117
    ORTHCH:  cpu time    0.6449: real time    0.6457
 BZINTS: Fermi energy:  0.288430;612.000000 electrons
         Band energy:***********;  BLOECHL correction: -0.006998
       DOS:  cpu time    0.0440: real time    0.0443
    CHARGE:  cpu time    0.7949: real time    0.8178
    MIXING:  cpu time    0.0060: real time    0.0055
    --------------------------------------------
      LOOP:  cpu time   20.9868: real time   21.1648

 eigenvalue-minimisations  :  8663
 total energy-change (2. order) : 0.5333409E-03  (-0.7978640E-04)
 number of electron     612.0000062 magnetization      71.4181041
 augmentation part      367.1562629 magnetization      62.1795407

 DIPCOR: dipole corrections for dipol
 direction  3 min pos   225,
 dipolmoment           0.000000      0.000000     -0.032206 electrons x Angstroem
 Tr[quadrupol]    -10380.081397

 energy correction for charged system         0.000000 eV
 dipol+quadrupol energy correction           -0.000051 eV
 added-field ion interaction          1.601546 eV  (added to PSCEN)


 Broyden mixing:
  rms(total) = 0.19833E-01    rms(broyden)= 0.19829E-01
  rms(prec ) = 0.21957E-01
  weight for this iteration     100.00

 eigenvalues of (default mixing * dielectric matrix)
  average eigenvalue GAMMA=   0.3788
  1.1732  0.8098  0.5370  0.0392  0.1558  0.1236  0.1003  0.0914

 Free energy of the ion-electron system (eV)
  ---------------------------------------------------
  alpha Z        PSCENC =      1248.73851073
  Ewald energy   TEWEN  =    214171.34398573
  -Hartree energ DENC   =   -274870.81386126
  -exchange      EXHF   =         0.00000000
  -V(xc)+E(xc)   XCENC  =      1591.27148040
  PAW double counting   =     65777.76200255   -69323.51359771
  entropy T*S    EENTRO =         0.00000000
  eigenvalues    EBANDS =     -1168.83590199
  atomic energy  EATOM  =     62203.92349997
  Solvation  Ediel_sol  =         0.00000000
  ---------------------------------------------------
  free energy    TOTEN  =      -370.12388158 eV

  energy without entropy =     -370.12388158  energy(sigma->0) =     -370.12388158


--------------------------------------------------------------------------------------------------------




--------------------------------------- Iteration      1(  14)  ---------------------------------------


    POTLOK:  cpu time    0.2450: real time    0.2470
    SETDIJ:  cpu time    0.0190: real time    0.0206
    EDDIAG:  cpu time    3.6604: real time    3.7098
  RMM-DIIS:  cpu time   15.6576: real time   15.7267
    ORTHCH:  cpu time    0.6379: real time    0.6385
 BZINTS: Fermi energy:  0.290521;612.000000 electrons
         Band energy:***********;  BLOECHL correction: -0.006988
       DOS:  cpu time    0.0410: real time    0.0414
    CHARGE:  cpu time    0.7979: real time    0.7992
    MIXING:  cpu time    0.0060: real time    0.0054
    --------------------------------------------
      LOOP:  cpu time   21.0648: real time   21.1884

 eigenvalue-minimisations  :  8615
 total energy-change (2. order) :-0.5322325E-03  (-0.5929896E-04)
 number of electron     612.0000062 magnetization      71.4350552
 augmentation part      367.1582454 magnetization      62.1925978

 DIPCOR: dipole corrections for dipol
 direction  3 min pos   239,
 dipolmoment           0.000000      0.000000     -0.028791 electrons x Angstroem
 Tr[quadrupol]    -10380.013201

 energy correction for charged system         0.000000 eV
 dipol+quadrupol energy correction           -0.000041 eV
 added-field ion interaction         -0.170460 eV  (added to PSCEN)


 Broyden mixing:
  rms(total) = 0.33734E-01    rms(broyden)= 0.33732E-01
  rms(prec ) = 0.37235E-01
  weight for this iteration     100.00

 eigenvalues of (default mixing * dielectric matrix)
  average eigenvalue GAMMA=   0.4266
  1.4938  1.0454  0.6540  0.0392  0.1703  0.1322  0.1156  0.0993  0.0898

 Free energy of the ion-electron system (eV)
  ---------------------------------------------------
  alpha Z        PSCENC =      1246.96651459
  Ewald energy   TEWEN  =    214171.34398573
  -Hartree energ DENC   =   -274870.20935994
  -exchange      EXHF   =         0.00000000
  -V(xc)+E(xc)   XCENC  =      1591.26922390
  PAW double counting   =     65768.37595827   -69314.14834112
  entropy T*S    EENTRO =         0.00000000
  eigenvalues    EBANDS =     -1167.64589521
  atomic energy  EATOM  =     62203.92349997
  Solvation  Ediel_sol  =         0.00000000
  ---------------------------------------------------
  free energy    TOTEN  =      -370.12441382 eV

  energy without entropy =     -370.12441382  energy(sigma->0) =     -370.12441382


--------------------------------------------------------------------------------------------------------




--------------------------------------- Iteration      1(  15)  ---------------------------------------


    POTLOK:  cpu time    0.2440: real time    0.2450
    SETDIJ:  cpu time    0.0200: real time    0.0192
    EDDIAG:  cpu time    3.8114: real time    3.8189
  RMM-DIIS:  cpu time   15.6526: real time   15.6914
    ORTHCH:  cpu time    0.6479: real time    0.6483
 BZINTS: Fermi energy:  0.290802;612.000000 electrons
         Band energy:***********;  BLOECHL correction: -0.007000
       DOS:  cpu time    0.0420: real time    0.0420
    CHARGE:  cpu time    0.8009: real time    0.8012
    MIXING:  cpu time    0.0070: real time    0.0069
    --------------------------------------------
      LOOP:  cpu time   21.2258: real time   21.2729

 eigenvalue-minimisations  :  8593
 total energy-change (2. order) :-0.5453459E-04  (-0.4060476E-04)
 number of electron     612.0000062 magnetization      71.4408116
 augmentation part      367.1631142 magnetization      62.1905333

 DIPCOR: dipole corrections for dipol
 direction  3 min pos   246,
 dipolmoment           0.000000      0.000000     -0.028007 electrons x Angstroem
 Tr[quadrupol]    -10379.981615

 energy correction for charged system         0.000000 eV
 dipol+quadrupol energy correction           -0.000038 eV
 added-field ion interaction         -0.945119 eV  (added to PSCEN)


 Broyden mixing:
  rms(total) = 0.19866E-01    rms(broyden)= 0.19864E-01
  rms(prec ) = 0.22580E-01
  weight for this iteration     100.00

 eigenvalues of (default mixing * dielectric matrix)
  average eigenvalue GAMMA=   0.4198
  1.6346  1.0492  0.6696  0.2276  0.0392  0.1510  0.1289  0.1090  0.0982  0.0905

 Free energy of the ion-electron system (eV)
  ---------------------------------------------------
  alpha Z        PSCENC =      1246.19185775
  Ewald energy   TEWEN  =    214171.34398573
  -Hartree energ DENC   =   -274869.84350143
  -exchange      EXHF   =         0.00000000
  -V(xc)+E(xc)   XCENC  =      1591.26045433
  PAW double counting   =     65756.28632376   -69302.06538357
  entropy T*S    EENTRO =         0.00000000
  eigenvalues    EBANDS =     -1167.22170489
  atomic energy  EATOM  =     62203.92349997
  Solvation  Ediel_sol  =         0.00000000
  ---------------------------------------------------
  free energy    TOTEN  =      -370.12446835 eV

  energy without entropy =     -370.12446835  energy(sigma->0) =     -370.12446835


--------------------------------------------------------------------------------------------------------




--------------------------------------- Iteration      1(  16)  ---------------------------------------


    POTLOK:  cpu time    0.2440: real time    0.2446
    SETDIJ:  cpu time    0.0200: real time    0.0194
    EDDIAG:  cpu time    3.8364: real time    3.8433
  RMM-DIIS:  cpu time   16.1555: real time   16.2188
    ORTHCH:  cpu time    0.6519: real time    0.6537
 BZINTS: Fermi energy:  0.291205;612.000000 electrons
         Band energy:***********;  BLOECHL correction: -0.006992
       DOS:  cpu time    0.0440: real time    0.0434
    CHARGE:  cpu time    0.8139: real time    0.8150
    MIXING:  cpu time    0.0060: real time    0.0061
    --------------------------------------------
      LOOP:  cpu time   21.7717: real time   21.8443

 eigenvalue-minimisations  :  8665
 total energy-change (2. order) :-0.4593505E-04  (-0.1659908E-04)
 number of electron     612.0000062 magnetization      71.4530941
 augmentation part      367.1609648 magnetization      62.2017026

 DIPCOR: dipole corrections for dipol
 direction  3 min pos   249,
 dipolmoment           0.000000      0.000000     -0.027841 electrons x Angstroem
 Tr[quadrupol]    -10379.962675

 energy correction for charged system         0.000000 eV
 dipol+quadrupol energy correction           -0.000038 eV
 added-field ion interaction         -1.271528 eV  (added to PSCEN)


 Broyden mixing:
  rms(total) = 0.11034E-01    rms(broyden)= 0.11032E-01
  rms(prec ) = 0.12910E-01
  weight for this iteration     100.00

 eigenvalues of (default mixing * dielectric matrix)
  average eigenvalue GAMMA=   0.4764
  2.0178  1.0904  0.7953  0.5762  0.0392  0.1677  0.1420  0.1208  0.1047  0.0967
  0.0894

 Free energy of the ion-electron system (eV)
  ---------------------------------------------------
  alpha Z        PSCENC =      1245.86544966
  Ewald energy   TEWEN  =    214171.34398573
  -Hartree energ DENC   =   -274869.60172850
  -exchange      EXHF   =         0.00000000
  -V(xc)+E(xc)   XCENC  =      1591.26063444
  PAW double counting   =     65753.15415983   -69298.94094780
  entropy T*S    EENTRO =         0.00000000
  eigenvalues    EBANDS =     -1167.12956762
  atomic energy  EATOM  =     62203.92349997
  Solvation  Ediel_sol  =         0.00000000
  ---------------------------------------------------
  free energy    TOTEN  =      -370.12451429 eV

  energy without entropy =     -370.12451429  energy(sigma->0) =     -370.12451429


--------------------------------------------------------------------------------------------------------




--------------------------------------- Iteration      1(  17)  ---------------------------------------


    POTLOK:  cpu time    0.2460: real time    0.2471
    SETDIJ:  cpu time    0.0200: real time    0.0195
    EDDIAG:  cpu time    3.9774: real time    3.9887
  RMM-DIIS:  cpu time   16.0736: real time   16.2116
    ORTHCH:  cpu time    0.6869: real time    0.6870
 BZINTS: Fermi energy:  0.291229;612.000000 electrons
         Band energy:***********;  BLOECHL correction: -0.006966
       DOS:  cpu time    0.0370: real time    0.0375
    CHARGE:  cpu time    0.8159: real time    0.8174
    MIXING:  cpu time    0.0070: real time    0.0064
    --------------------------------------------
      LOOP:  cpu time   21.8637: real time   22.0151

 eigenvalue-minimisations  :  8576
 total energy-change (2. order) :-0.3600767E-03  (-0.1136475E-04)
 number of electron     612.0000062 magnetization      71.4615808
 augmentation part      367.1604104 magnetization      62.2067761

 DIPCOR: dipole corrections for dipol
 direction  3 min pos   251,
 dipolmoment           0.000000      0.000000     -0.029195 electrons x Angstroem
 Tr[quadrupol]    -10379.944298

 energy correction for charged system         0.000000 eV
 dipol+quadrupol energy correction           -0.000042 eV
 added-field ion interaction         -1.565465 eV  (added to PSCEN)


 Broyden mixing:
  rms(total) = 0.14766E-01    rms(broyden)= 0.14764E-01
  rms(prec ) = 0.16521E-01
  weight for this iteration     100.00

 eigenvalues of (default mixing * dielectric matrix)
  average eigenvalue GAMMA=   0.4877
  2.2794  1.1754  0.8773  0.6185  0.0392  0.1761  0.1538  0.1312  0.1169  0.1003
  0.0896  0.0951

 Free energy of the ion-electron system (eV)
  ---------------------------------------------------
  alpha Z        PSCENC =      1245.57150866
  Ewald energy   TEWEN  =    214171.34398573
  -Hartree energ DENC   =   -274869.26183601
  -exchange      EXHF   =         0.00000000
  -V(xc)+E(xc)   XCENC  =      1591.26059565
  PAW double counting   =     65748.14451479   -69293.94365928
  entropy T*S    EENTRO =         0.00000000
  eigenvalues    EBANDS =     -1167.16348387
  atomic energy  EATOM  =     62203.92349997
  Solvation  Ediel_sol  =         0.00000000
  ---------------------------------------------------
  free energy    TOTEN  =      -370.12487436 eV

  energy without entropy =     -370.12487436  energy(sigma->0) =     -370.12487436


--------------------------------------------------------------------------------------------------------




--------------------------------------- Iteration      1(  18)  ---------------------------------------


    POTLOK:  cpu time    0.2500: real time    0.2505
    SETDIJ:  cpu time    0.0190: real time    0.0196
    EDDIAG:  cpu time    3.9484: real time    3.9535
[...]
   0.107E+02 -.231E+02 0.286E+04   -.107E+02 0.231E+02 -.286E+04   0.145E-01 -.427E-01 -.131E+01   0.337E-02 -.228E-02 -.582E-01
   0.210E+02 -.367E+02 -.291E+04   -.209E+02 0.368E+02 0.291E+04   -.402E-01 -.149E+00 0.149E+01   -.613E-02 0.101E-01 -.494E-01
   0.171E+01 -.583E+02 0.864E+03   -.175E+01 0.584E+02 -.864E+03   0.824E-01 -.759E-01 -.240E+00   -.128E-02 0.984E-03 -.194E+00
   0.518E+02 -.605E+02 0.910E+03   -.518E+02 0.606E+02 -.909E+03   -.610E-01 0.298E-01 -.219E+00   0.682E-03 0.380E-02 -.199E+00
   0.491E+02 -.675E+02 -.952E+03   -.490E+02 0.675E+02 0.952E+03   -.356E-01 0.159E-01 0.211E+00   -.452E-02 0.118E-01 -.193E+00
   -.129E+02 -.632E+02 -.976E+03   0.128E+02 0.630E+02 0.976E+03   0.115E+00 0.136E+00 0.223E+00   0.371E-02 0.744E-02 -.194E+00
   -.234E+02 0.283E+02 0.290E+04   0.233E+02 -.284E+02 -.290E+04   -.341E-01 -.321E-01 -.136E+01   -.733E-02 0.631E-03 -.544E-01
   -.395E+02 0.781E+01 -.286E+04   0.396E+02 -.782E+01 0.286E+04   -.120E+00 0.191E-01 0.113E+01   -.516E-03 -.228E-02 -.532E-01
   -.166E+02 -.217E+02 0.907E+03   0.167E+02 0.217E+02 -.907E+03   -.111E+00 -.201E-01 -.333E+00   -.764E-02 -.540E-02 -.189E+00
   -.528E+02 -.591E+02 -.993E+03   0.529E+02 0.591E+02 0.992E+03   -.654E-01 0.102E-01 0.353E+00   0.513E-03 -.877E-03 -.184E+00
   0.313E+02 0.371E+02 0.289E+04   -.312E+02 -.371E+02 -.289E+04   -.624E-03 -.237E-01 -.139E+01   0.117E-01 0.124E-02 -.549E-01
   0.541E+02 0.278E+02 -.285E+04   -.541E+02 -.277E+02 0.285E+04   0.394E-01 -.595E-01 0.122E+01   -.410E-02 -.643E-02 -.523E-01
   0.362E+02 0.117E+02 0.862E+03   -.364E+02 -.118E+02 -.861E+03   0.168E+00 0.535E-01 -.622E+00   0.663E-02 -.546E-02 -.184E+00
   -.128E+00 0.251E+02 0.293E+04   0.131E+00 -.252E+02 -.293E+04   -.725E-02 -.200E-01 -.126E+01   0.261E-02 0.400E-02 -.542E-01
   -.859E+01 0.283E+02 -.291E+04   0.855E+01 -.282E+02 0.291E+04   0.406E-01 -.104E+00 0.139E+01   0.778E-03 -.285E-02 -.498E-01
   -.446E+02 0.385E+02 0.293E+04   0.446E+02 -.386E+02 -.293E+04   0.501E-01 0.123E+00 -.123E+01   -.117E-01 0.751E-02 -.538E-01
   -.194E+02 0.552E+02 -.290E+04   0.194E+02 -.553E+02 0.290E+04   -.218E-01 0.152E+00 0.102E+01   -.366E-02 -.432E-02 -.503E-01
   -.194E+02 0.779E+02 0.941E+03   0.194E+02 -.777E+02 -.941E+03   0.587E-01 -.209E+00 -.101E+00   -.259E-02 0.305E-02 -.198E+00
   0.164E+01 0.701E+02 0.291E+04   -.168E+01 -.702E+02 -.290E+04   0.279E-01 0.172E+00 -.111E+01   -.190E-02 0.134E-01 -.572E-01
   0.793E+01 0.951E+02 -.293E+04   -.797E+01 -.953E+02 0.292E+04   0.375E-01 0.193E+00 0.945E+00   -.361E-03 -.969E-02 -.476E-01
   -.416E+02 0.708E+02 0.975E+03   0.416E+02 -.708E+02 -.975E+03   0.112E-01 -.924E-01 -.149E+00   -.860E-02 0.413E-02 -.189E+00
   0.419E+02 0.468E+02 0.292E+04   -.419E+02 -.468E+02 -.292E+04   -.819E-01 0.351E-01 -.127E+01   0.109E-01 0.100E-01 -.559E-01
   0.194E+02 0.749E+02 -.290E+04   -.194E+02 -.750E+02 0.290E+04   -.295E-02 0.763E-01 0.921E+00   0.325E-02 -.974E-02 -.502E-01
   0.388E+02 0.910E+02 0.967E+03   -.389E+02 -.910E+02 -.966E+03   -.320E-01 -.101E+00 -.250E+00   0.664E-02 0.351E-02 -.187E+00
   -.261E+02 0.109E+03 -.101E+04   0.262E+02 -.109E+03 0.101E+04   -.970E-01 0.158E+00 0.184E+00   0.201E-02 -.912E-02 -.181E+00
   0.227E+02 0.950E+02 0.936E+03   -.227E+02 -.949E+02 -.936E+03   -.319E-01 -.200E+00 -.139E+00   0.453E-02 0.247E-02 -.196E+00
   0.524E+01 0.117E+03 -.937E+03   -.520E+01 -.118E+03 0.937E+03   -.338E-01 0.216E+00 0.325E+00   -.382E-03 -.721E-02 -.188E+00
   -.211E+02 -.366E+02 0.934E+03   0.212E+02 0.367E+02 -.934E+03   0.234E-01 0.788E-02 -.949E-01   0.197E-02 0.579E-03 -.201E+00
   -.333E+02 -.278E+02 0.929E+03   0.333E+02 0.278E+02 -.929E+03   0.930E-02 -.525E-02 -.130E+00   -.561E-02 0.416E-02 -.198E+00
   -.283E+02 -.203E+02 -.966E+03   0.281E+02 0.203E+02 0.965E+03   0.104E+00 -.872E-02 0.342E+00   0.115E-02 0.375E-02 -.192E+00
   0.799E+01 0.190E+02 -.959E+03   -.786E+01 -.191E+02 0.959E+03   -.127E+00 0.375E-01 0.281E+00   -.668E-02 0.111E-02 -.191E+00
   0.377E+02 0.101E+02 0.948E+03   -.377E+02 -.101E+02 -.948E+03   -.961E-02 0.103E-01 -.240E+00   0.479E-02 0.444E-02 -.201E+00
   0.242E+02 0.569E+02 -.958E+03   -.242E+02 -.568E+02 0.958E+03   0.359E-01 -.135E+00 0.252E+00   0.385E-02 -.351E-02 -.191E+00
   -.321E+01 0.254E+02 -.974E+03   0.323E+01 -.254E+02 0.974E+03   -.141E-01 -.446E-02 0.307E+00   0.178E-02 -.626E-03 -.192E+00
   -.700E+02 -.788E+02 -.784E+03   0.702E+02 0.791E+02 0.784E+03   -.170E+00 -.260E+00 0.292E+00   0.423E-02 0.458E-02 -.149E+00
   0.384E+02 -.927E+02 -.783E+03   -.385E+02 0.930E+02 0.782E+03   0.112E+00 -.315E+00 0.291E+00   -.375E-02 0.697E-02 -.150E+00
   -.605E+02 0.152E+02 0.231E+04   0.607E+02 -.152E+02 -.231E+04   -.294E+00 -.570E-02 -.276E+01   -.103E-01 -.728E-03 -.441E-01
   -.362E+02 0.882E+00 -.232E+04   0.362E+02 -.879E+00 0.231E+04   0.251E-01 -.115E-02 0.249E+01   0.469E-03 -.355E-02 -.389E-01
   0.593E+02 0.303E+02 0.230E+04   -.595E+02 -.303E+02 -.230E+04   0.274E+00 -.517E-01 -.273E+01   0.709E-02 0.513E-03 -.446E-01
   0.287E+02 0.326E+02 -.233E+04   -.287E+02 -.324E+02 0.233E+04   -.468E-01 -.877E-01 0.326E+01   0.313E-02 -.729E-02 -.340E-01
   -.322E+02 -.761E+01 0.756E+03   0.323E+02 0.776E+01 -.756E+03   -.632E-01 -.245E+00 -.366E-01   -.750E-03 -.610E-02 -.144E+00
   -.241E+02 -.206E+02 -.810E+03   0.246E+02 0.205E+02 0.810E+03   -.468E+00 0.839E-01 0.282E+00   0.355E-02 -.278E-02 -.141E+00
   0.115E+02 0.264E+02 0.713E+03   -.116E+02 -.267E+02 -.712E+03   0.502E-01 0.171E+00 -.497E+00   0.142E-02 -.290E-02 -.153E+00
   0.454E+02 -.266E+02 -.796E+03   -.455E+02 0.264E+02 0.796E+03   0.102E+00 0.151E+00 0.416E+00   -.271E-02 -.287E-03 -.144E+00
   0.276E+02 -.651E+02 -.798E+03   -.279E+02 0.651E+02 0.797E+03   0.300E+00 0.204E-02 0.265E+00   -.163E-02 0.264E-02 -.148E+00
   -.158E+02 0.695E+02 -.776E+03   0.160E+02 -.696E+02 0.776E+03   -.234E+00 0.109E+00 0.182E+00   -.258E-02 -.492E-02 -.149E+00
   0.295E+02 0.118E+03 -.785E+03   -.298E+02 -.119E+03 0.785E+03   0.302E+00 0.367E+00 0.150E+00   0.129E-02 -.725E-02 -.146E+00
   0.134E+02 0.429E+01 0.763E+03   -.134E+02 -.438E+01 -.763E+03   -.369E-01 0.923E-01 -.337E+00   -.101E-02 0.594E-02 -.157E+00
 -----------------------------------------------------------------------------------------------
   0.165E+00 0.331E+00 0.706E+01   0.128E-12 -.718E-12 0.227E-11   -.163E+00 -.336E+00 0.324E+00   -.156E-03 0.675E-02 -.735E+01
 
 
 POSITION                                       TOTAL-FORCE (eV/Angst)
 -----------------------------------------------------------------------------------
      0.00265      0.00460      2.03273        -0.025558     -0.005267      0.270679
      0.00157      0.00235      8.09986        -0.003217      0.030396      0.021083
      2.50538      0.00249      2.01455         0.025690     -0.054123      0.304213
      2.48645      0.01386      8.09048         0.018995     -0.000653      0.025457
     -0.00053      8.67545      2.02992         0.017786     -0.083389      0.202473
      0.00484      8.67088      8.11488        -0.008003     -0.007550     -0.008440
      2.50374      8.67643      2.03165        -0.011035     -0.110466      0.207286
      2.50130      8.67725      8.09901         0.007530     -0.014984      0.003907
      8.76727      2.15790      2.02946        -0.007863      0.044363      0.225371
      8.77148      2.14223      8.14144         0.010920      0.021311      0.016990
      1.25353      2.17274      2.02187         0.020718      0.095889      0.270973
      1.26030      2.19334      8.13140         0.005676     -0.026838     -0.004723
     -0.00285      1.44433      4.07597         0.020522      0.097536     -0.238033
      3.77193      2.16142      2.03135        -0.026073      0.086826      0.251061
      3.76517      2.14442      8.14771        -0.021524      0.011499      0.029997
      2.50178      1.44890      4.07736         0.012382      0.056135     -0.009407
      6.27168      2.17140      2.04886         0.033603      0.011011      0.117722
      6.26489      2.17746      8.16811         0.017546     -0.022022     -0.006755
      5.00042      1.45188      4.09772         0.040493      0.080883     -0.181055
      7.52680      1.44774      4.09237        -0.086370      0.127482     -0.213274
      6.25572      0.73211      6.10963         0.007011      0.004740     -0.029799
      8.77465      0.71958      6.09810        -0.004654      0.006915     -0.012029
     -2.49068      4.34584      2.00000        -0.079112     -0.034380      0.356405
     -2.49825      4.33928      8.09903         0.015275      0.008516      0.000045
     -1.27467      3.61315      4.08172         0.035841     -0.011465     -0.139766
     -0.01229      2.91771      6.11673         0.017084      0.005236     -0.019175
      5.02108      4.35795      2.00460         0.075765     -0.051182      0.251171
      5.01475      4.34826      8.11186        -0.013952     -0.008702      0.004693
      3.76492      3.61380      4.08141        -0.037568     -0.039409     -0.118520
     -3.75488      6.52259      2.00624        -0.001290     -0.076202      0.148679
     -3.75911      6.52224      8.07598        -0.001372     -0.003845      0.001362
     -1.25738      6.50265      2.00219         0.078709      0.090890      0.274990
     -1.26088      6.51627      8.08407        -0.001052     -0.023132      0.031091
     -2.50964      5.80144      4.05734         0.010554     -0.040572     -0.297806
      1.25473      6.50540      2.00535        -0.015226      0.067334      0.102390
      1.25337      6.49608      8.11003        -0.000143     -0.010004      0.008998
     -0.00666      5.79426      4.04866         0.080447     -0.058828     -0.119422
      3.76821      6.52071      2.02214        -0.036797      0.126858      0.276738
      3.75885      6.51165      8.09198         0.008196     -0.026203      0.018210
      2.50308      5.78909      4.05124        -0.089688     -0.080155     -0.154290
      1.26266      5.05597      6.10978        -0.013082     -0.031053     -0.031421
      5.01445      5.79798      4.06119        -0.019698     -0.077048     -0.261363
      6.26716      5.05754      6.07433         0.005327     -0.012700      0.046664
     -3.76517      7.96148      4.06558         0.034271      0.087525     -0.213318
     -1.24654      7.96318      4.06972         0.002054      0.002421     -0.199671
     -2.51744      7.25359      6.07405        -0.001591      0.015967      0.018906
      0.00877      7.22411      6.10352        -0.008282     -0.004687     -0.001088
      3.74757      7.96401      4.08996        -0.022712     -0.002322     -0.245317
      2.50329      7.23268      6.10133         0.003260      0.006948      0.002023
      5.01359      7.23209      6.08444         0.008142     -0.029852     -0.009950
      1.20551      0.72470      6.10158         0.003949      0.001422     -0.034859
      3.79040      0.67545      6.10811         0.027138      0.005367     -0.030972
     -0.01227      4.33343      2.01581        -0.103353      0.033841      0.045996
     -0.03491      4.33220      8.12951        -0.004015     -0.002330     -0.013241
      2.55867      4.36425      2.03158         0.081447     -0.085405     -0.054666
      2.55315      4.35921      8.22025         0.013415      0.032432      0.035783
      1.23098      3.62224      4.07808         0.000583     -0.096399     -0.183789
      2.51691      2.89372      6.14991        -0.021040     -0.012076     -0.005197
      6.26024      3.63306      4.05078        -0.014723     -0.062175     -0.427753
      5.02978      2.87905      6.18107         0.000326      0.020692     -0.010248
      7.53539      2.83941      6.17602        -0.020288     -0.002814      0.012085
     -1.25803      5.11431      6.06974        -0.004974     -0.008043     -0.002432
      3.75397      5.10986      6.08540        -0.002951      0.019785     -0.005190
      1.25181      7.95850      4.07933        -0.033447      0.016055     -0.300466
 -----------------------------------------------------------------------------------
    total drift:                                0.001528      0.001707      0.029164


--------------------------------------------------------------------------------------------------------



  FREE ENERGIE OF THE ION-ELECTRON SYSTEM (eV)
  ---------------------------------------------------
  free  energy   TOTEN  =      -370.12606916 eV

  energy  without entropy=     -370.12606916  energy(sigma->0) =     -370.12606916
 


--------------------------------------------------------------------------------------------------------


    POTLOK:  cpu time    0.2660: real time    0.2671


--------------------------------------------------------------------------------------------------------


     LOOP+:  cpu time  788.3222: real time  791.9024
    4ORBIT:  cpu time    0.0000: real time    0.0000
 


 total charge     
 
# of ion       s       p       d       tot
------------------------------------------
    1        0.481   0.365   8.305   9.151
    2        0.492   0.380   8.322   9.194
    3        0.479   0.360   8.306   9.144
    4        0.496   0.388   8.313   9.196
    5        0.484   0.367   8.307   9.158
    6        0.489   0.378   8.319   9.186
    7        0.485   0.366   8.310   9.161
    8        0.483   0.374   8.315   9.173
    9        0.483   0.370   8.313   9.166
   10        0.494   0.387   8.324   9.205
   11        0.492   0.381   8.299   9.172
   12        0.503   0.397   8.313   9.213
   13        0.494   0.491   8.323   9.308
   14        0.481   0.367   8.310   9.158
   15        0.503   0.395   8.318   9.217
   16        0.496   0.492   8.321   9.309
   17        0.484   0.369   8.310   9.164
   18        0.494   0.381   8.323   9.198
   19        0.499   0.501   8.321   9.321
   20        0.497   0.498   8.315   9.311
   21        0.510   0.514   8.337   9.361
   22        0.504   0.509   8.328   9.341
   23        0.488   0.374   8.309   9.171
   24        0.500   0.394   8.314   9.209
   25        0.504   0.504   8.323   9.330
   26        0.513   0.523   8.328   9.364
   27        0.489   0.373   8.315   9.177
   28        0.501   0.394   8.318   9.213
   29        0.504   0.504   8.326   9.335
   30        0.480   0.362   8.309   9.151
   31        0.482   0.376   8.311   9.170
   32        0.483   0.369   8.312   9.164
   33        0.495   0.388   8.320   9.203
   34        0.496   0.496   8.313   9.306
   35        0.491   0.381   8.311   9.183
   36        0.494   0.389   8.309   9.191
   37        0.500   0.503   8.330   9.333
   38        0.486   0.376   8.308   9.170
   39        0.500   0.392   8.323   9.215
   40        0.501   0.505   8.329   9.335
   41        0.510   0.517   8.324   9.351
   42        0.495   0.495   8.315   9.305
   43        0.508   0.509   8.332   9.348
   44        0.490   0.487   8.318   9.295
   45        0.494   0.488   8.328   9.310
   46        0.507   0.510   8.331   9.348
   47        0.506   0.510   8.338   9.354
   48        0.490   0.485   8.322   9.297
   49        0.502   0.504   8.329   9.335
   50        0.503   0.506   8.332   9.341
   51        0.477   0.511   6.164   7.152
   52        0.479   0.516   6.179   7.175
   53        0.466   0.395   6.114   6.975
   54        0.465   0.399   6.125   6.990
   55        0.468   0.398   6.115   6.980
   56        0.463   0.388   6.121   6.972
   57        0.469   0.498   6.178   7.145
   58        0.475   0.509   6.207   7.191
   59        0.468   0.496   6.144   7.109
   60        0.480   0.516   6.207   7.203
   61        0.477   0.515   6.178   7.171
   62        0.476   0.512   6.165   7.153
   63        0.477   0.513   6.170   7.161
   64        0.467   0.498   6.136   7.101
--------------------------------------------------
tot         31.345  28.307 502.133 561.786
 


 magnetization (x)
 
# of ion       s       p       d       tot
------------------------------------------
    1       -0.007  -0.021   0.677   0.649
    2       -0.011  -0.021   0.677   0.645
    3       -0.008  -0.020   0.674   0.647
    4       -0.013  -0.025   0.733   0.694
    5       -0.012  -0.024   0.687   0.652
    6       -0.010  -0.022   0.689   0.658
    7       -0.012  -0.023   0.673   0.638
    8       -0.006  -0.021   0.675   0.648
    9       -0.011  -0.025   0.656   0.620
   10       -0.014  -0.028   0.675   0.632
   11       -0.020  -0.035   0.733   0.679
   12       -0.019  -0.034   0.740   0.687
   13       -0.010  -0.031   0.700   0.659
   14       -0.011  -0.027   0.665   0.628
   15       -0.018  -0.030   0.730   0.681
   16       -0.016  -0.037   0.702   0.649
   17       -0.012  -0.025   0.669   0.632
   18       -0.016  -0.027   0.690   0.648
   19       -0.015  -0.039   0.721   0.667
   20       -0.013  -0.037   0.739   0.689
   21       -0.016  -0.034   0.701   0.651
   22       -0.011  -0.031   0.711   0.669
   23       -0.012  -0.026   0.702   0.665
   24       -0.017  -0.031   0.733   0.685
   25       -0.019  -0.043   0.741   0.680
   26       -0.020  -0.048   0.751   0.682
   27       -0.014  -0.026   0.680   0.641
   28       -0.016  -0.029   0.722   0.677
   29       -0.021  -0.046   0.717   0.650
   30       -0.011  -0.023   0.642   0.609
   31       -0.006  -0.023   0.684   0.655
   32       -0.010  -0.025   0.657   0.621
   33       -0.016  -0.028   0.679   0.635
   34       -0.010  -0.033   0.742   0.698
   35       -0.018  -0.034   0.695   0.644
   36       -0.015  -0.031   0.710   0.665
   37       -0.016  -0.043   0.699   0.639
   38       -0.009  -0.025   0.685   0.650
   39       -0.017  -0.028   0.668   0.624
   40       -0.016  -0.043   0.702   0.644
   41       -0.022  -0.049   0.748   0.677
   42       -0.010  -0.033   0.733   0.690
   43       -0.019  -0.037   0.716   0.660
   44       -0.009  -0.029   0.697   0.660
   45       -0.011  -0.029   0.669   0.630
   46       -0.014  -0.031   0.712   0.667
   47       -0.014  -0.032   0.683   0.637
   48       -0.008  -0.027   0.679   0.644
   49       -0.012  -0.032   0.694   0.650
   50       -0.011  -0.028   0.694   0.655
   51        0.006  -0.010   2.802   2.798
   52        0.004  -0.015   2.758   2.747
   53        0.013  -0.011   2.893   2.895
   54        0.013  -0.012   2.880   2.881
   55        0.012  -0.011   2.891   2.891
   56        0.012  -0.011   2.896   2.896
   57        0.004  -0.019   2.745   2.729
   58       -0.004  -0.029   2.670   2.637
   59        0.007  -0.012   2.836   2.831
   60       -0.002  -0.023   2.679   2.654
   61        0.004  -0.016   2.766   2.754
   62        0.007  -0.013   2.803   2.797
   63        0.005  -0.016   2.787   2.775
   64        0.011  -0.010   2.850   2.851
--------------------------------------------------
tot         -0.578  -1.736  74.206  71.891
 
 BZINTS: Fermi energy:  0.287880;612.000000 electrons
         Band energy:***********;  BLOECHL correction: -0.006946

 total amount of memory used by VASP MPI-rank0   113069. kBytes
=======================================================================

   base      :      30000. kBytes
   nonlr-proj:      13089. kBytes
   fftplans  :       6402. kBytes
   grid      :      16455. kBytes
   one-center:         93. kBytes
   wavefun   :      47030. kBytes
 
  
  
 General timing and accounting informations for this job:
 ========================================================
  
                  Total CPU time used (sec):      902.005
                            User time (sec):      841.362
                          System time (sec):       60.643
                         Elapsed time (sec):      914.008
  
                   Maximum memory used (kb):      160720.
                   Average memory used (kb):           0.
  
                          Minor page faults:       126739
                          Major page faults:            0
                 Voluntary context switches:         8737
