SQS-NiFe                                
           1
    10.026770    0.000000    0.000000
    -5.013385    8.683438    0.000000
     0.000000    0.000000   21.188983
   Ni   Fe
  50  14
Direct configuration=     1
   0.00052900  0.00053000  0.09593319
   0.00029197  0.00027097  0.38226740
   0.25001300  0.00028700  0.09507516
   0.24877910  0.00159649  0.38182477
   0.49948700  0.99908000  0.09580077
   0.49975913  0.99855374  0.38297659
   0.74930200  0.99919300  0.09588248
   0.74910613  0.99928694  0.38222719
   0.99864000  0.24850700  0.09577903
   0.99815726  0.24670308  0.38422973
   0.25012600  0.25021600  0.09542058
   0.25198788  0.25258835  0.38375587
   0.08288200  0.16633200  0.19236263
   0.50064200  0.24891300  0.09586799
   0.49898930  0.24695485  0.38452591
   0.33293900  0.16685800  0.19242841
   0.75052500  0.25006200  0.09669473
   0.75019684  0.25076038  0.38548852
   0.58230700  0.16720100  0.19338931
   0.83403200  0.16672400  0.19313692
   0.66605724  0.08431116  0.28834005
   0.91655597  0.08286786  0.28779582
   0.00183400  0.50047500  0.09438867
   0.00070152  0.49971888  0.38222824
   0.08092200  0.41609700  0.19263386
   0.16677895  0.33600836  0.28867503
   0.75170200  0.50186900  0.09460572
   0.75051258  0.50075367  0.38283399
   0.58357300  0.41617200  0.19261966
   0.00109100  0.75115300  0.09468309
   0.00064887  0.75111219  0.38114044
   0.24902600  0.74885700  0.09449183
   0.24946129  0.75042573  0.38152233
   0.08375800  0.66810400  0.19148344
   0.49972500  0.74917300  0.09464107
   0.49905315  0.74810061  0.38274740
   0.33297400  0.66727700  0.19107398
   0.75128300  0.75093600  0.09543333
   0.74982840  0.74989337  0.38189576
   0.58298100  0.66668200  0.19119569
   0.41705547  0.58225395  0.28834709
   0.83395900  0.66770600  0.19166513
   0.91626041  0.58243508  0.28667381
   0.08291700  0.91685800  0.19187232
   0.33420600  0.91705400  0.19206792
   0.16659648  0.83533629  0.28666060
   0.41684561  0.83194165  0.28805151
   0.83233100  0.91715000  0.19302274
   0.66612431  0.83292812  0.28794811
   0.91645060  0.83286022  0.28715088
   0.16195759  0.08345717  0.28795980
   0.41692099  0.07778548  0.28826836
   0.24829900  0.49904600  0.09513485
   0.24596970  0.49890350  0.38366682
   0.50648100  0.50259500  0.09587930
   0.50564080  0.50201419  0.38794943
   0.33134100  0.41714300  0.19246231
   0.41764193  0.33324589  0.29024079
   0.83354800  0.41839000  0.19117395
   0.66741332  0.33155684  0.29171160
   0.91502343  0.32699199  0.29147321
   0.16901914  0.58897331  0.28645745
   0.66862474  0.58845996  0.28719658
   0.58310400  0.91651500  0.19252114
