  68  68   1   0
  0.2881718E+02  0.9929500E-09  0.9929500E-09  0.2108055E-08  0.5000000E-15
  1.000000000000000E-004
  CAR 
 SQS-NiFe                                
      4.05549882    -21.77984025  301     -0.61920996      1.00000000
    -21.780  0.0000E+00  0.0000E+00  0.0000E+00  0.0000E+00
    -21.694  0.0000E+00  0.0000E+00  0.0000E+00  0.0000E+00
    -21.608  0.0000E+00  0.0000E+00  0.0000E+00  0.0000E+00
    -21.521  0.0000E+00  0.0000E+00  0.0000E+00  0.0000E+00
    -21.435 -0.8534E-30  0.0000E+00 -0.7349E-31  0.0000E+00
    -21.349 -0.8700E-27  0.0000E+00 -0.7500E-28  0.0000E+00
    -21.263 -0.6109E-24 -0.3540E-28 -0.5269E-25 -0.3049E-29
    -21.177 -0.2952E-21 -0.2960E-25 -0.2547E-22 -0.2552E-26
    -21.091 -0.9808E-19 -0.1704E-22 -0.8472E-20 -0.1470E-23
    -21.005 -0.2240E-16 -0.6750E-20 -0.1937E-17 -0.5828E-21
    -20.919 -0.3406E-14 -0.1838E-17 -0.2953E-15 -0.1589E-18
    -20.833 -0.3647E-12 -0.3388E-15 -0.3170E-13 -0.2934E-16
    -20.746 -0.2670E-10 -0.4272E-13 -0.2331E-11 -0.3708E-14
    -20.660 -0.1334E-08 -0.3738E-11 -0.1172E-09 -0.3256E-12
    -20.574 -0.4530E-07 -0.2235E-09 -0.4018E-08 -0.1957E-10
    -20.488 -0.1041E-05 -0.9101E-08 -0.9364E-07 -0.8033E-09
    -20.402 -0.1604E-04 -0.2514E-06 -0.1475E-05 -0.2245E-07
    -20.316 -0.1635E-03 -0.4678E-05 -0.1556E-04 -0.4253E-06
    -20.230 -0.1074E-02 -0.5801E-04 -0.1081E-03 -0.5421E-05
    -20.144 -0.4289E-02 -0.4705E-03 -0.4774E-03 -0.4594E-04
    -20.057 -0.8584E-02 -0.2400E-02 -0.1217E-02 -0.2526E-03
    -19.971  0.1878E-02 -0.6943E-02 -0.1055E-02 -0.8506E-03
    -19.885  0.5401E-01 -0.6707E-02  0.3597E-02 -0.1428E-02
    -19.799  0.1339E+00  0.2349E-01  0.1513E-01  0.5950E-03
    -19.713  0.1654E+00  0.9708E-01  0.2937E-01  0.8955E-02
    -19.627  0.1109E+00  0.1616E+00  0.3892E-01  0.2287E-01
    -19.541  0.3322E-01  0.1448E+00  0.4178E-01  0.3534E-01
    -19.455 -0.4593E-02  0.6699E-01  0.4139E-01  0.4111E-01
    -19.369 -0.7702E-02  0.7181E-02  0.4073E-01  0.4173E-01
    -19.282 -0.2996E-02 -0.8607E-02  0.4047E-01  0.4099E-01
    -19.196 -0.6390E-03 -0.5104E-02  0.4041E-01  0.4055E-01
    -19.110 -0.8483E-04 -0.1405E-02  0.4040E-01  0.4043E-01
    -19.024 -0.7329E-05 -0.2311E-03  0.4040E-01  0.4041E-01
    -18.938 -0.4209E-06 -0.2434E-04  0.4040E-01  0.4040E-01
    -18.852 -0.1627E-07 -0.1690E-05  0.4040E-01  0.4040E-01
    -18.766 -0.4258E-09 -0.7856E-07  0.4040E-01  0.4040E-01
    -18.680 -0.7589E-11 -0.2467E-08  0.4040E-01  0.4040E-01
    -18.593 -0.9233E-13 -0.5264E-10  0.4040E-01  0.4040E-01
    -18.507 -0.7958E-15 -0.7658E-12  0.4040E-01  0.4040E-01
    -18.421  0.0000E+00 -0.7608E-14  0.4040E-01  0.4040E-01
    -18.335  0.0000E+00 -0.6077E-16  0.4040E-01  0.4040E-01
    -18.249  0.0000E+00  0.0000E+00  0.4040E-01  0.4040E-01
    -18.163  0.0000E+00  0.0000E+00  0.4040E-01  0.4040E-01
    -18.077  0.0000E+00  0.0000E+00  0.4040E-01  0.4040E-01
    -17.991  0.0000E+00  0.0000E+00  0.4040E-01  0.4040E-01
    -17.905  0.0000E+00  0.0000E+00  0.4040E-01  0.4040E-01
    -17.818  0.0000E+00  0.0000E+00  0.4040E-01  0.4040E-01
    -17.732  0.0000E+00  0.0000E+00  0.4040E-01  0.4040E-01
    -17.646  0.0000E+00  0.0000E+00  0.4040E-01  0.4040E-01
    -17.560  0.0000E+00  0.0000E+00  0.4040E-01  0.4040E-01
    -17.474  0.0000E+00  0.0000E+00  0.4040E-01  0.4040E-01
    -17.388  0.0000E+00  0.0000E+00  0.4040E-01  0.4040E-01
    -17.302  0.0000E+00  0.0000E+00  0.4040E-01  0.4040E-01
    -17.216  0.0000E+00  0.0000E+00  0.4040E-01  0.4040E-01
    -17.129  0.0000E+00  0.0000E+00  0.4040E-01  0.4040E-01
    -17.043  0.0000E+00  0.0000E+00  0.4040E-01  0.4040E-01
    -16.957  0.0000E+00  0.0000E+00  0.4040E-01  0.4040E-01
    -16.871  0.0000E+00  0.0000E+00  0.4040E-01  0.4040E-01
    -16.785  0.0000E+00  0.0000E+00  0.4040E-01  0.4040E-01
    -16.699  0.0000E+00  0.0000E+00  0.4040E-01  0.4040E-01
    -16.613  0.0000E+00  0.0000E+00  0.4040E-01  0.4040E-01
    -16.527  0.0000E+00  0.0000E+00  0.4040E-01  0.4040E-01
    -16.441  0.0000E+00  0.0000E+00  0.4040E-01  0.4040E-01
    -16.354  0.0000E+00  0.0000E+00  0.4040E-01  0.4040E-01
    -16.268  0.0000E+00  0.0000E+00  0.4040E-01  0.4040E-01
    -16.182  0.0000E+00  0.0000E+00  0.4040E-01  0.4040E-01
    -16.096  0.0000E+00  0.0000E+00  0.4040E-01  0.4040E-01
    -16.010  0.0000E+00  0.0000E+00  0.4040E-01  0.4040E-01
    -15.924  0.0000E+00  0.0000E+00  0.4040E-01  0.4040E-01
    -15.838  0.0000E+00  0.0000E+00  0.4040E-01  0.4040E-01
    -15.752  0.0000E+00  0.0000E+00  0.4040E-01  0.4040E-01
    -15.665  0.0000E+00  0.0000E+00  0.4040E-01  0.4040E-01
    -15.579  0.0000E+00  0.0000E+00  0.4040E-01  0.4040E-01
    -15.493  0.0000E+00  0.0000E+00  0.4040E-01  0.4040E-01
    -15.407  0.0000E+00  0.0000E+00  0.4040E-01  0.4040E-01
    -15.321  0.0000E+00  0.0000E+00  0.4040E-01  0.4040E-01
    -15.235  0.0000E+00  0.0000E+00  0.4040E-01  0.4040E-01
    -15.149  0.0000E+00  0.0000E+00  0.4040E-01  0.4040E-01
    -15.063  0.0000E+00  0.0000E+00  0.4040E-01  0.4040E-01
    -14.977  0.0000E+00  0.0000E+00  0.4040E-01  0.4040E-01
    -14.890  0.0000E+00  0.0000E+00  0.4040E-01  0.4040E-01
    -14.804  0.0000E+00  0.0000E+00  0.4040E-01  0.4040E-01
    -14.718  0.0000E+00  0.0000E+00  0.4040E-01  0.4040E-01
    -14.632  0.0000E+00  0.0000E+00  0.4040E-01  0.4040E-01
    -14.546  0.0000E+00  0.0000E+00  0.4040E-01  0.4040E-01
    -14.460  0.0000E+00  0.0000E+00  0.4040E-01  0.4040E-01
    -14.374  0.0000E+00  0.0000E+00  0.4040E-01  0.4040E-01
    -14.288  0.0000E+00  0.0000E+00  0.4040E-01  0.4040E-01
    -14.201  0.0000E+00  0.0000E+00  0.4040E-01  0.4040E-01
    -14.115  0.0000E+00  0.0000E+00  0.4040E-01  0.4040E-01
    -14.029  0.0000E+00  0.0000E+00  0.4040E-01  0.4040E-01
    -13.943  0.0000E+00  0.0000E+00  0.4040E-01  0.4040E-01
    -13.857  0.0000E+00  0.0000E+00  0.4040E-01  0.4040E-01
    -13.771  0.0000E+00  0.0000E+00  0.4040E-01  0.4040E-01
    -13.685  0.0000E+00  0.0000E+00  0.4040E-01  0.4040E-01
    -13.599  0.0000E+00  0.0000E+00  0.4040E-01  0.4040E-01
    -13.513  0.0000E+00  0.0000E+00  0.4040E-01  0.4040E-01
    -13.426  0.0000E+00  0.0000E+00  0.4040E-01  0.4040E-01
    -13.340  0.0000E+00  0.0000E+00  0.4040E-01  0.4040E-01
    -13.254  0.0000E+00  0.0000E+00  0.4040E-01  0.4040E-01
    -13.168  0.0000E+00  0.0000E+00  0.4040E-01  0.4040E-01
    -13.082  0.0000E+00  0.0000E+00  0.4040E-01  0.4040E-01
    -12.996  0.0000E+00  0.0000E+00  0.4040E-01  0.4040E-01
    -12.910  0.0000E+00  0.0000E+00  0.4040E-01  0.4040E-01
    -12.824  0.0000E+00  0.0000E+00  0.4040E-01  0.4040E-01
    -12.737  0.0000E+00  0.0000E+00  0.4040E-01  0.4040E-01
    -12.651  0.0000E+00  0.0000E+00  0.4040E-01  0.4040E-01
    -12.565  0.0000E+00  0.0000E+00  0.4040E-01  0.4040E-01
    -12.479  0.0000E+00  0.0000E+00  0.4040E-01  0.4040E-01
    -12.393  0.0000E+00  0.0000E+00  0.4040E-01  0.4040E-01
    -12.307  0.0000E+00  0.0000E+00  0.4040E-01  0.4040E-01
    -12.221  0.0000E+00  0.0000E+00  0.4040E-01  0.4040E-01
    -12.135  0.0000E+00  0.0000E+00  0.4040E-01  0.4040E-01
    -12.049  0.0000E+00  0.0000E+00  0.4040E-01  0.4040E-01
    -11.962  0.0000E+00  0.0000E+00  0.4040E-01  0.4040E-01
    -11.876  0.0000E+00  0.0000E+00  0.4040E-01  0.4040E-01
    -11.790  0.0000E+00  0.0000E+00  0.4040E-01  0.4040E-01
    -11.704  0.0000E+00  0.0000E+00  0.4040E-01  0.4040E-01
    -11.618  0.0000E+00  0.0000E+00  0.4040E-01  0.4040E-01
    -11.532  0.0000E+00  0.0000E+00  0.4040E-01  0.4040E-01
    -11.446  0.0000E+00  0.0000E+00  0.4040E-01  0.4040E-01
    -11.360  0.0000E+00  0.0000E+00  0.4040E-01  0.4040E-01
    -11.273  0.0000E+00  0.0000E+00  0.4040E-01  0.4040E-01
    -11.187  0.0000E+00  0.0000E+00  0.4040E-01  0.4040E-01
    -11.101  0.0000E+00  0.0000E+00  0.4040E-01  0.4040E-01
    -11.015  0.0000E+00  0.0000E+00  0.4040E-01  0.4040E-01
    -10.929  0.0000E+00  0.0000E+00  0.4040E-01  0.4040E-01
    -10.843  0.0000E+00  0.0000E+00  0.4040E-01  0.4040E-01
    -10.757  0.0000E+00  0.0000E+00  0.4040E-01  0.4040E-01
    -10.671  0.0000E+00  0.0000E+00  0.4040E-01  0.4040E-01
    -10.585  0.0000E+00  0.0000E+00  0.4040E-01  0.4040E-01
    -10.498  0.0000E+00  0.0000E+00  0.4040E-01  0.4040E-01
    -10.412  0.0000E+00  0.0000E+00  0.4040E-01  0.4040E-01
    -10.326  0.0000E+00  0.0000E+00  0.4040E-01  0.4040E-01
    -10.240  0.0000E+00  0.0000E+00  0.4040E-01  0.4040E-01
    -10.154 -0.7302E-32  0.0000E+00  0.4040E-01  0.4040E-01
    -10.068 -0.7950E-29  0.0000E+00  0.4040E-01  0.4040E-01
     -9.982 -0.5960E-26  0.0000E+00  0.4040E-01  0.4040E-01
     -9.896 -0.3073E-23 -0.1754E-29  0.4040E-01  0.4040E-01
     -9.809 -0.1089E-20 -0.1427E-26  0.4040E-01  0.4040E-01
     -9.723 -0.2652E-18 -0.7992E-24  0.4040E-01  0.4040E-01
     -9.637 -0.4289E-16 -0.3077E-21  0.4040E-01  0.4040E-01
     -9.551 -0.4911E-14 -0.8142E-19  0.4040E-01  0.4040E-01
     -9.465 -0.3832E-12 -0.1407E-16  0.4040E-01  0.4040E-01
     -9.379 -0.2040E-10 -0.1783E-14  0.4040E-01  0.4040E-01
     -9.293 -0.7391E-09 -0.1513E-12  0.4040E-01  0.4040E-01
     -9.207 -0.1813E-07 -0.8767E-11  0.4040E-01  0.4040E-01
     -9.121 -0.2990E-06 -0.3459E-09  0.4040E-01  0.4040E-01
     -9.034 -0.3284E-05 -0.9249E-08  0.4040E-01  0.4040E-01
     -8.948 -0.2361E-04 -0.1666E-06  0.4040E-01  0.4040E-01
     -8.862 -0.1079E-03 -0.2003E-05  0.4039E-01  0.4040E-01
     -8.776 -0.2947E-03 -0.1583E-04  0.4037E-01  0.4040E-01
     -8.690 -0.3908E-03 -0.8001E-04  0.4033E-01  0.4040E-01
     -8.604  0.1871E-03 -0.2453E-03  0.4035E-01  0.4037E-01
     -8.518  0.2280E-02 -0.3895E-03  0.4055E-01  0.4034E-01
     -8.432  0.7472E-02 -0.8246E-05  0.4119E-01  0.4034E-01
     -8.345  0.1690E-01  0.1617E-02  0.4264E-01  0.4048E-01
     -8.259  0.2549E-01  0.5756E-02  0.4484E-01  0.4098E-01
     -8.173  0.2430E-01  0.1415E-01  0.4693E-01  0.4219E-01
     -8.087  0.1492E-01  0.2387E-01  0.4822E-01  0.4425E-01
     -8.001  0.9316E-02  0.2572E-01  0.4902E-01  0.4646E-01
     -7.915  0.1472E-01  0.1742E-01  0.5029E-01  0.4796E-01
     -7.829  0.2786E-01  0.9326E-02  0.5269E-01  0.4877E-01
     -7.743  0.3632E-01  0.1051E-01  0.5582E-01  0.4967E-01
     -7.657  0.2988E-01  0.2119E-01  0.5839E-01  0.5150E-01
     -7.570  0.1716E-01  0.3353E-01  0.5987E-01  0.5439E-01
     -7.484  0.1399E-01  0.3446E-01  0.6107E-01  0.5735E-01
     -7.398  0.2121E-01  0.2250E-01  0.6290E-01  0.5929E-01
     -7.312  0.3098E-01  0.1288E-01  0.6557E-01  0.6040E-01
     -7.226  0.4063E-01  0.1437E-01  0.6906E-01  0.6164E-01
     -7.140  0.5060E-01  0.1950E-01  0.7342E-01  0.6332E-01
     -7.054  0.6332E-01  0.2194E-01  0.7887E-01  0.6521E-01
     -6.968  0.8194E-01  0.2763E-01  0.8593E-01  0.6759E-01
     -6.881  0.9818E-01  0.4099E-01  0.9439E-01  0.7112E-01
     -6.795  0.1012E+00  0.5405E-01  0.1031E+00  0.7577E-01
     -6.709  0.1083E+00  0.6163E-01  0.1124E+00  0.8108E-01
     -6.623  0.1529E+00  0.7038E-01  0.1256E+00  0.8714E-01
     -6.537  0.2230E+00  0.8214E-01  0.1448E+00  0.9421E-01
     -6.451  0.2490E+00  0.8330E-01  0.1663E+00  0.1014E+00
     -6.365  0.1985E+00  0.6633E-01  0.1833E+00  0.1071E+00
     -6.279  0.1286E+00  0.5793E-01  0.1944E+00  0.1121E+00
     -6.193  0.9547E-01  0.9804E-01  0.2026E+00  0.1205E+00
     -6.106  0.9353E-01  0.1789E+00  0.2107E+00  0.1359E+00
     -6.020  0.9818E-01  0.2371E+00  0.2191E+00  0.1564E+00
     -5.934  0.9765E-01  0.2241E+00  0.2276E+00  0.1757E+00
     -5.848  0.9194E-01  0.1576E+00  0.2355E+00  0.1892E+00
     -5.762  0.9107E-01  0.9139E-01  0.2433E+00  0.1971E+00
     -5.676  0.1013E+00  0.6001E-01  0.2520E+00  0.2023E+00
     -5.590  0.1138E+00  0.6328E-01  0.2618E+00  0.2077E+00
     -5.504  0.1170E+00  0.8432E-01  0.2719E+00  0.2150E+00
     -5.417  0.1205E+00  0.1025E+00  0.2823E+00  0.2238E+00
     -5.331  0.1577E+00  0.1069E+00  0.2959E+00  0.2330E+00
     -5.245  0.2419E+00  0.1032E+00  0.3167E+00  0.2419E+00
     -5.159  0.3348E+00  0.9620E-01  0.3455E+00  0.2502E+00
     -5.073  0.3864E+00  0.8287E-01  0.3788E+00  0.2573E+00
     -4.987  0.3906E+00  0.6967E-01  0.4125E+00  0.2633E+00
     -4.901  0.3799E+00  0.6712E-01  0.4452E+00  0.2691E+00
     -4.815  0.3838E+00  0.7184E-01  0.4782E+00  0.2753E+00
     -4.729  0.4251E+00  0.7550E-01  0.5148E+00  0.2818E+00
     -4.642  0.5080E+00  0.7629E-01  0.5586E+00  0.2884E+00
     -4.556  0.5735E+00  0.7813E-01  0.6080E+00  0.2951E+00
     -4.470  0.5597E+00  0.9335E-01  0.6562E+00  0.3031E+00
     -4.384  0.4924E+00  0.1270E+00  0.6986E+00  0.3141E+00
     -4.298  0.4351E+00  0.1553E+00  0.7360E+00  0.3274E+00
     -4.212  0.4061E+00  0.1531E+00  0.7710E+00  0.3406E+00
     -4.126  0.4047E+00  0.1357E+00  0.8059E+00  0.3523E+00
     -4.040  0.4698E+00  0.1343E+00  0.8463E+00  0.3639E+00
     -3.953  0.6329E+00  0.1465E+00  0.9008E+00  0.3765E+00
     -3.867  0.8267E+00  0.1536E+00  0.9720E+00  0.3897E+00
     -3.781  0.9434E+00  0.1647E+00  0.1053E+01  0.4039E+00
     -3.695  0.9520E+00  0.1968E+00  0.1135E+01  0.4209E+00
     -3.609  0.8873E+00  0.2290E+00  0.1212E+01  0.4406E+00
     -3.523  0.7999E+00  0.2267E+00  0.1281E+01  0.4601E+00
     -3.437  0.7428E+00  0.2040E+00  0.1345E+01  0.4777E+00
     -3.351  0.7471E+00  0.2102E+00  0.1409E+01  0.4958E+00
     -3.265  0.7996E+00  0.2620E+00  0.1478E+01  0.5183E+00
     -3.178  0.8601E+00  0.3247E+00  0.1552E+01  0.5463E+00
     -3.092  0.8925E+00  0.3582E+00  0.1629E+01  0.5772E+00
     -3.006  0.8689E+00  0.3621E+00  0.1703E+01  0.6083E+00
     -2.920  0.7789E+00  0.3584E+00  0.1771E+01  0.6392E+00
     -2.834  0.6517E+00  0.3520E+00  0.1827E+01  0.6695E+00
     -2.748  0.5270E+00  0.3415E+00  0.1872E+01  0.6989E+00
     -2.662  0.4249E+00  0.3310E+00  0.1909E+01  0.7274E+00
     -2.576  0.3700E+00  0.3145E+00  0.1941E+01  0.7545E+00
     -2.489  0.3901E+00  0.2815E+00  0.1974E+01  0.7788E+00
     -2.403  0.4853E+00  0.2478E+00  0.2016E+01  0.8001E+00
     -2.317  0.6209E+00  0.2583E+00  0.2069E+01  0.8223E+00
     -2.231  0.7417E+00  0.3424E+00  0.2133E+01  0.8518E+00
     -2.145  0.8202E+00  0.4761E+00  0.2204E+01  0.8928E+00
     -2.059  0.9016E+00  0.5977E+00  0.2282E+01  0.9443E+00
     -1.973  0.1041E+01  0.6699E+00  0.2371E+01  0.1002E+01
     -1.887  0.1213E+01  0.7188E+00  0.2476E+01  0.1064E+01
     -1.801  0.1350E+01  0.7806E+00  0.2592E+01  0.1131E+01
     -1.714  0.1420E+01  0.8223E+00  0.2714E+01  0.1202E+01
     -1.628  0.1412E+01  0.7879E+00  0.2836E+01  0.1270E+01
     -1.542  0.1301E+01  0.7119E+00  0.2948E+01  0.1331E+01
     -1.456  0.1086E+01  0.6746E+00  0.3041E+01  0.1389E+01
     -1.370  0.8323E+00  0.6837E+00  0.3113E+01  0.1448E+01
     -1.284  0.6294E+00  0.6986E+00  0.3167E+01  0.1508E+01
     -1.198  0.5232E+00  0.7000E+00  0.3212E+01  0.1569E+01
     -1.112  0.5098E+00  0.6909E+00  0.3256E+01  0.1628E+01
     -1.025  0.5568E+00  0.6775E+00  0.3304E+01  0.1686E+01
     -0.939  0.6113E+00  0.6524E+00  0.3357E+01  0.1743E+01
     -0.853  0.6123E+00  0.6036E+00  0.3409E+01  0.1795E+01
     -0.767  0.5390E+00  0.5319E+00  0.3456E+01  0.1840E+01
     -0.681  0.4274E+00  0.4448E+00  0.3493E+01  0.1879E+01
     -0.595  0.3156E+00  0.3500E+00  0.3520E+01  0.1909E+01
     -0.509  0.2155E+00  0.2658E+00  0.3538E+01  0.1932E+01
     -0.423  0.1394E+00  0.2333E+00  0.3550E+01  0.1952E+01
     -0.337  0.1125E+00  0.2740E+00  0.3560E+01  0.1975E+01
     -0.250  0.1369E+00  0.3334E+00  0.3572E+01  0.2004E+01
     -0.164  0.1644E+00  0.3389E+00  0.3586E+01  0.2033E+01
     -0.078  0.1422E+00  0.3074E+00  0.3598E+01  0.2060E+01
      0.008  0.7791E-01  0.3099E+00  0.3605E+01  0.2086E+01
      0.094  0.2161E-01  0.3667E+00  0.3607E+01  0.2118E+01
      0.180 -0.1747E-02  0.4486E+00  0.3607E+01  0.2157E+01
      0.266 -0.4305E-02  0.5219E+00  0.3606E+01  0.2202E+01
      0.352 -0.2139E-02  0.5627E+00  0.3606E+01  0.2250E+01
      0.439 -0.7109E-03  0.5760E+00  0.3606E+01  0.2300E+01
      0.525 -0.1791E-03  0.6002E+00  0.3606E+01  0.2351E+01
      0.611 -0.3338E-04  0.6704E+00  0.3606E+01  0.2409E+01
      0.697 -0.4391E-05  0.7725E+00  0.3606E+01  0.2476E+01
      0.783 -0.3969E-06  0.8691E+00  0.3606E+01  0.2550E+01
      0.869 -0.2443E-07  0.9478E+00  0.3606E+01  0.2632E+01
      0.955 -0.1022E-08  0.9974E+00  0.3606E+01  0.2718E+01
      1.041 -0.2907E-10  0.1011E+01  0.3606E+01  0.2805E+01
      1.127 -0.5639E-12  0.1020E+01  0.3606E+01  0.2893E+01
      1.214 -0.7472E-14  0.1066E+01  0.3606E+01  0.2985E+01
      1.300 -0.6656E-16  0.1148E+01  0.3606E+01  0.3083E+01
      1.386  0.0000E+00  0.1200E+01  0.3606E+01  0.3187E+01
      1.472  0.0000E+00  0.1151E+01  0.3606E+01  0.3286E+01
      1.558  0.0000E+00  0.1006E+01  0.3606E+01  0.3373E+01
      1.644  0.0000E+00  0.8298E+00  0.3606E+01  0.3444E+01
      1.730  0.0000E+00  0.6673E+00  0.3606E+01  0.3502E+01
      1.816  0.0000E+00  0.5165E+00  0.3606E+01  0.3546E+01
      1.903  0.0000E+00  0.3672E+00  0.3606E+01  0.3578E+01
      1.989  0.0000E+00  0.2221E+00  0.3606E+01  0.3597E+01
      2.075  0.0000E+00  0.1006E+00  0.3606E+01  0.3605E+01
      2.161  0.0000E+00  0.2499E-01  0.3606E+01  0.3608E+01
      2.247  0.0000E+00 -0.4348E-02  0.3606E+01  0.3607E+01
      2.333  0.0000E+00 -0.7643E-02  0.3606E+01  0.3607E+01
      2.419  0.0000E+00 -0.3930E-02  0.3606E+01  0.3606E+01
      2.505  0.0000E+00 -0.1220E-02  0.3606E+01  0.3606E+01
      2.591  0.0000E+00 -0.2504E-03  0.3606E+01  0.3606E+01
      2.678  0.0000E+00 -0.3468E-04  0.3606E+01  0.3606E+01
      2.764  0.0000E+00 -0.3261E-05  0.3606E+01  0.3606E+01
      2.850  0.0000E+00 -0.2087E-06  0.3606E+01  0.3606E+01
      2.936  0.0000E+00 -0.9112E-08  0.3606E+01  0.3606E+01
      3.022  0.0000E+00 -0.2718E-09  0.3606E+01  0.3606E+01
      3.108  0.0000E+00 -0.5546E-11  0.3606E+01  0.3606E+01
      3.194  0.0000E+00 -0.7757E-13  0.3606E+01  0.3606E+01
      3.280  0.0000E+00 -0.7437E-15  0.3606E+01  0.3606E+01
      3.367  0.0000E+00  0.0000E+00  0.3606E+01  0.3606E+01
      3.453  0.0000E+00  0.0000E+00  0.3606E+01  0.3606E+01
      3.539  0.0000E+00  0.0000E+00  0.3606E+01  0.3606E+01
      3.625  0.0000E+00  0.0000E+00  0.3606E+01  0.3606E+01
      3.711  0.0000E+00  0.0000E+00  0.3606E+01  0.3606E+01
      3.797  0.0000E+00  0.0000E+00  0.3606E+01  0.3606E+01
      3.883  0.0000E+00  0.0000E+00  0.3606E+01  0.3606E+01
      3.969  0.0000E+00  0.0000E+00  0.3606E+01  0.3606E+01
      4.055  0.0000E+00  0.0000E+00  0.3606E+01  0.3606E+01
      4.05549882    -21.77984025  301     -0.61920996      1.00000000
    -21.780  0.0000E+00  0.0000E+00  0.0000E+00  0.0000E+00  0.0000E+00  0.0000E+00
    -21.694  0.0000E+00  0.0000E+00  0.0000E+00  0.0000E+00  0.0000E+00  0.0000E+00
    -21.608  0.0000E+00  0.0000E+00  0.0000E+00  0.0000E+00  0.0000E+00  0.0000E+00
    -21.521  0.0000E+00  0.0000E+00  0.0000E+00  0.0000E+00  0.0000E+00  0.0000E+00
    -21.435 -0.2038E-38  0.0000E+00 -0.1409E-38  0.0000E+00 -0.1104E-38  0.0000E+00
    -21.349 -0.2046E-35  0.0000E+00 -0.1416E-35  0.0000E+00 -0.1125E-35  0.0000E+00
    -21.263 -0.1414E-32 -0.8284E-37 -0.9801E-33 -0.5782E-37 -0.7902E-33 -0.4538E-37
    -21.177 -0.6726E-30 -0.6824E-34 -0.4667E-30 -0.4770E-34 -0.3818E-30 -0.3794E-34
    -21.091 -0.2199E-27 -0.3872E-31 -0.1528E-27 -0.2710E-31 -0.1269E-27 -0.2185E-31
    -21.005 -0.4942E-25 -0.1511E-28 -0.3438E-25 -0.1059E-28 -0.2897E-25 -0.8656E-29
    -20.919 -0.7394E-23 -0.4051E-26 -0.5152E-23 -0.2845E-26 -0.4406E-23 -0.2357E-26
    -20.833 -0.7783E-21 -0.7232E-24 -0.5432E-21 -0.5099E-24 -0.4717E-21 -0.4345E-24
    -20.746 -0.5602E-19 -0.9126E-22 -0.3916E-19 -0.6429E-22 -0.3453E-19 -0.5477E-22
    -20.660 -0.2751E-17 -0.7859E-20 -0.1926E-17 -0.5547E-20 -0.1725E-17 -0.4793E-20
    -20.574 -0.9183E-16 -0.4624E-18 -0.6441E-16 -0.3269E-18 -0.5857E-16 -0.2865E-18
    -20.488 -0.2072E-14 -0.1852E-16 -0.1456E-14 -0.1312E-16 -0.1345E-14 -0.1167E-16
    -20.402 -0.3135E-13 -0.5031E-15 -0.2207E-13 -0.3571E-15 -0.2073E-13 -0.3222E-15
    -20.316 -0.3135E-12 -0.9203E-14 -0.2212E-12 -0.6546E-14 -0.2113E-12 -0.5994E-14
    -20.230 -0.2016E-11 -0.1121E-12 -0.1426E-11 -0.7992E-13 -0.1388E-11 -0.7433E-13
    -20.144 -0.7846E-11 -0.8921E-12 -0.5565E-11 -0.6374E-12 -0.5537E-11 -0.6027E-12
    -20.057 -0.1502E-10 -0.4452E-11 -0.1071E-10 -0.3190E-11 -0.1107E-10 -0.3073E-11
    -19.971  0.5604E-11 -0.1250E-10  0.3794E-11 -0.8993E-11  0.2454E-11 -0.8888E-11
    -19.885  0.1001E-09 -0.1090E-10  0.7090E-10 -0.7958E-11  0.6976E-10 -0.8572E-11
    -19.799  0.2385E-09  0.4530E-10  0.1698E-09  0.3229E-10  0.1728E-09  0.3010E-10
    -19.713  0.2863E-09  0.1761E-09  0.2044E-09  0.1265E-09  0.2133E-09  0.1243E-09
    -19.627  0.1863E-09  0.2845E-09  0.1335E-09  0.2053E-09  0.1429E-09  0.2067E-09
    -19.541  0.5281E-10  0.2483E-09  0.3814E-10  0.1798E-09  0.4277E-10  0.1852E-09
    -19.455 -0.9185E-11  0.1109E-09 -0.6447E-11  0.8073E-10 -0.5945E-11  0.8561E-10
    -19.369 -0.1305E-10  0.9861E-11 -0.9345E-11  0.7399E-11 -0.9929E-11  0.9148E-11
    -19.282 -0.4905E-11 -0.1510E-10 -0.3528E-11 -0.1090E-10 -0.3859E-11 -0.1101E-10
    -19.196 -0.1021E-11 -0.8530E-11 -0.7372E-12 -0.6202E-11 -0.8226E-12 -0.6524E-11
    -19.110 -0.1328E-12 -0.2289E-11 -0.9612E-13 -0.1671E-11 -0.1091E-12 -0.1795E-11
    -19.024 -0.1125E-13 -0.3688E-12 -0.8167E-14 -0.2700E-12 -0.9425E-14 -0.2952E-12
    -18.938 -0.6344E-15 -0.3811E-13 -0.4617E-15 -0.2798E-13 -0.5411E-15 -0.3107E-13
    -18.852 -0.2407E-16 -0.2599E-14 -0.1756E-16 -0.1914E-14 -0.2090E-16 -0.2156E-14
    -18.766 -0.6189E-18 -0.1187E-15 -0.4529E-18 -0.8767E-16 -0.5469E-18 -0.1002E-15
    -18.680 -0.1084E-19 -0.3665E-17 -0.7951E-20 -0.2714E-17 -0.9741E-20 -0.3145E-17
    -18.593 -0.1295E-21 -0.7688E-19 -0.9532E-22 -0.5709E-19 -0.1185E-21 -0.6708E-19
    -18.507 -0.1115E-23 -0.1100E-20 -0.8214E-24 -0.8193E-21 -0.1027E-23 -0.9756E-21
    -18.421  0.0000E+00 -0.1079E-22  0.0000E+00 -0.8054E-23  0.0000E+00 -0.9686E-23
    -18.335  0.0000E+00 -0.4945E-25  0.0000E+00 -0.4175E-25  0.0000E+00 -0.8056E-25
    -18.249  0.0000E+00  0.0000E+00  0.0000E+00  0.0000E+00  0.0000E+00  0.0000E+00
    -18.163  0.0000E+00  0.0000E+00  0.0000E+00  0.0000E+00  0.0000E+00  0.0000E+00
    -18.077  0.0000E+00  0.0000E+00  0.0000E+00  0.0000E+00  0.0000E+00  0.0000E+00
    -17.991  0.0000E+00  0.0000E+00  0.0000E+00  0.0000E+00  0.0000E+00  0.0000E+00
    -17.905  0.0000E+00  0.0000E+00  0.0000E+00  0.0000E+00  0.0000E+00  0.0000E+00
    -17.818  0.0000E+00  0.0000E+00  0.0000E+00  0.0000E+00  0.0000E+00  0.0000E+00
    -17.732  0.0000E+00  0.0000E+00  0.0000E+00  0.0000E+00  0.0000E+00  0.0000E+00
    -17.646  0.0000E+00  0.0000E+00  0.0000E+00  0.0000E+00  0.0000E+00  0.0000E+00
    -17.560  0.0000E+00  0.0000E+00  0.0000E+00  0.0000E+00  0.0000E+00  0.0000E+00
    -17.474  0.0000E+00  0.0000E+00  0.0000E+00  0.0000E+00  0.0000E+00  0.0000E+00
    -17.388  0.0000E+00  0.0000E+00  0.0000E+00  0.0000E+00  0.0000E+00  0.0000E+00
    -17.302  0.0000E+00  0.0000E+00  0.0000E+00  0.0000E+00  0.0000E+00  0.0000E+00
    -17.216  0.0000E+00  0.0000E+00  0.0000E+00  0.0000E+00  0.0000E+00  0.0000E+00
    -17.129  0.0000E+00  0.0000E+00  0.0000E+00  0.0000E+00  0.0000E+00  0.0000E+00
    -17.043  0.0000E+00  0.0000E+00  0.0000E+00  0.0000E+00  0.0000E+00  0.0000E+00
    -16.957  0.0000E+00  0.0000E+00  0.0000E+00  0.0000E+00  0.0000E+00  0.0000E+00
    -16.871  0.0000E+00  0.0000E+00  0.0000E+00  0.0000E+00  0.0000E+00  0.0000E+00
    -16.785  0.0000E+00  0.0000E+00  0.0000E+00  0.0000E+00  0.0000E+00  0.0000E+00
    -16.699  0.0000E+00  0.0000E+00  0.0000E+00  0.0000E+00  0.0000E+00  0.0000E+00
    -16.613  0.0000E+00  0.0000E+00  0.0000E+00  0.0000E+00  0.0000E+00  0.0000E+00
    -16.527  0.0000E+00  0.0000E+00  0.0000E+00  0.0000E+00  0.0000E+00  0.0000E+00
    -16.441  0.0000E+00  0.0000E+00  0.0000E+00  0.0000E+00  0.0000E+00  0.0000E+00
    -16.354  0.0000E+00  0.0000E+00  0.0000E+00  0.0000E+00  0.0000E+00  0.0000E+00
    -16.268  0.0000E+00  0.0000E+00  0.0000E+00  0.0000E+00  0.0000E+00  0.0000E+00
    -16.182  0.0000E+00  0.0000E+00  0.0000E+00  0.0000E+00  0.0000E+00  0.0000E+00
    -16.096  0.0000E+00  0.0000E+00  0.0000E+00  0.0000E+00  0.0000E+00  0.0000E+00
    -16.010  0.0000E+00  0.0000E+00  0.0000E+00  0.0000E+00  0.0000E+00  0.0000E+00
    -15.924  0.0000E+00  0.0000E+00  0.0000E+00  0.0000E+00  0.0000E+00  0.0000E+00
    -15.838  0.0000E+00  0.0000E+00  0.0000E+00  0.0000E+00  0.0000E+00  0.0000E+00
    -15.752  0.0000E+00  0.0000E+00  0.0000E+00  0.0000E+00  0.0000E+00  0.0000E+00
    -15.665  0.0000E+00  0.0000E+00  0.0000E+00  0.0000E+00  0.0000E+00  0.0000E+00
    -15.579  0.0000E+00  0.0000E+00  0.0000E+00  0.0000E+00  0.0000E+00  0.0000E+00
    -15.493  0.0000E+00  0.0000E+00  0.0000E+00  0.0000E+00  0.0000E+00  0.0000E+00
    -15.407  0.0000E+00  0.0000E+00  0.0000E+00  0.0000E+00  0.0000E+00  0.0000E+00
    -15.321  0.0000E+00  0.0000E+00  0.0000E+00  0.0000E+00  0.0000E+00  0.0000E+00
    -15.235  0.0000E+00  0.0000E+00  0.0000E+00  0.0000E+00  0.0000E+00  0.0000E+00
    -15.149  0.0000E+00  0.0000E+00  0.0000E+00  0.0000E+00  0.0000E+00  0.0000E+00
    -15.063  0.0000E+00  0.0000E+00  0.0000E+00  0.0000E+00  0.0000E+00  0.0000E+00
    -14.977  0.0000E+00  0.0000E+00  0.0000E+00  0.0000E+00  0.0000E+00  0.0000E+00
    -14.890  0.0000E+00  0.0000E+00  0.0000E+00  0.0000E+00  0.0000E+00  0.0000E+00
    -14.804  0.0000E+00  0.0000E+00  0.0000E+00  0.0000E+00  0.0000E+00  0.0000E+00
    -14.718  0.0000E+00  0.0000E+00  0.0000E+00  0.0000E+00  0.0000E+00  0.0000E+00
    -14.632  0.0000E+00  0.0000E+00  0.0000E+00  0.0000E+00  0.0000E+00  0.0000E+00
    -14.546  0.0000E+00  0.0000E+00  0.0000E+00  0.0000E+00  0.0000E+00  0.0000E+00
    -14.460  0.0000E+00  0.0000E+00  0.0000E+00  0.0000E+00  0.0000E+00  0.0000E+00
    -14.374  0.0000E+00  0.0000E+00  0.0000E+00  0.0000E+00  0.0000E+00  0.0000E+00
    -14.288  0.0000E+00  0.0000E+00  0.0000E+00  0.0000E+00  0.0000E+00  0.0000E+00
    -14.201  0.0000E+00  0.0000E+00  0.0000E+00  0.0000E+00  0.0000E+00  0.0000E+00
    -14.115  0.0000E+00  0.0000E+00  0.0000E+00  0.0000E+00  0.0000E+00  0.0000E+00
    -14.029  0.0000E+00  0.0000E+00  0.0000E+00  0.0000E+00  0.0000E+00  0.0000E+00
    -13.943  0.0000E+00  0.0000E+00  0.0000E+00  0.0000E+00  0.0000E+00  0.0000E+00
    -13.857  0.0000E+00  0.0000E+00  0.0000E+00  0.0000E+00  0.0000E+00  0.0000E+00
    -13.771  0.0000E+00  0.0000E+00  0.0000E+00  0.0000E+00  0.0000E+00  0.0000E+00
    -13.685  0.0000E+00  0.0000E+00  0.0000E+00  0.0000E+00  0.0000E+00  0.0000E+00
    -13.599  0.0000E+00  0.0000E+00  0.0000E+00  0.0000E+00  0.0000E+00  0.0000E+00
    -13.513  0.0000E+00  0.0000E+00  0.0000E+00  0.0000E+00  0.0000E+00  0.0000E+00
    -13.426  0.0000E+00  0.0000E+00  0.0000E+00  0.0000E+00  0.0000E+00  0.0000E+00
    -13.340  0.0000E+00  0.0000E+00  0.0000E+00  0.0000E+00  0.0000E+00  0.0000E+00
    -13.254  0.0000E+00  0.0000E+00  0.0000E+00  0.0000E+00  0.0000E+00  0.0000E+00
    -13.168  0.0000E+00  0.0000E+00  0.0000E+00  0.0000E+00  0.0000E+00  0.0000E+00
    -13.082  0.0000E+00  0.0000E+00  0.0000E+00  0.0000E+00  0.0000E+00  0.0000E+00
    -12.996  0.0000E+00  0.0000E+00  0.0000E+00  0.0000E+00  0.0000E+00  0.0000E+00
    -12.910  0.0000E+00  0.0000E+00  0.0000E+00  0.0000E+00  0.0000E+00  0.0000E+00
    -12.824  0.0000E+00  0.0000E+00  0.0000E+00  0.0000E+00  0.0000E+00  0.0000E+00
    -12.737  0.0000E+00  0.0000E+00  0.0000E+00  0.0000E+00  0.0000E+00  0.0000E+00
    -12.651  0.0000E+00  0.0000E+00  0.0000E+00  0.0000E+00  0.0000E+00  0.0000E+00
    -12.565  0.0000E+00  0.0000E+00  0.0000E+00  0.0000E+00  0.0000E+00  0.0000E+00
    -12.479  0.0000E+00  0.0000E+00  0.0000E+00  0.0000E+00  0.0000E+00  0.0000E+00
    -12.393  0.0000E+00  0.0000E+00  0.0000E+00  0.0000E+00  0.0000E+00  0.0000E+00
    -12.307  0.0000E+00  0.0000E+00  0.0000E+00  0.0000E+00  0.0000E+00  0.0000E+00
    -12.221  0.0000E+00  0.0000E+00  0.0000E+00  0.0000E+00  0.0000E+00  0.0000E+00
    -12.135  0.0000E+00  0.0000E+00  0.0000E+00  0.0000E+00  0.0000E+00  0.0000E+00
    -12.049  0.0000E+00  0.0000E+00  0.0000E+00  0.0000E+00  0.0000E+00  0.0000E+00
    -11.962  0.0000E+00  0.0000E+00  0.0000E+00  0.0000E+00  0.0000E+00  0.0000E+00
    -11.876  0.0000E+00  0.0000E+00  0.0000E+00  0.0000E+00  0.0000E+00  0.0000E+00
    -11.790  0.0000E+00  0.0000E+00  0.0000E+00  0.0000E+00  0.0000E+00  0.0000E+00
    -11.704  0.0000E+00  0.0000E+00  0.0000E+00  0.0000E+00  0.0000E+00  0.0000E+00
    -11.618  0.0000E+00  0.0000E+00  0.0000E+00  0.0000E+00  0.0000E+00  0.0000E+00
    -11.532  0.0000E+00  0.0000E+00  0.0000E+00  0.0000E+00  0.0000E+00  0.0000E+00
    -11.446  0.0000E+00  0.0000E+00  0.0000E+00  0.0000E+00  0.0000E+00  0.0000E+00
    -11.360  0.0000E+00  0.0000E+00  0.0000E+00  0.0000E+00  0.0000E+00  0.0000E+00
    -11.273  0.0000E+00  0.0000E+00  0.0000E+00  0.0000E+00  0.0000E+00  0.0000E+00
    -11.187  0.0000E+00  0.0000E+00  0.0000E+00  0.0000E+00  0.0000E+00  0.0000E+00
    -11.101  0.0000E+00  0.0000E+00  0.0000E+00  0.0000E+00  0.0000E+00  0.0000E+00
    -11.015  0.0000E+00  0.0000E+00  0.0000E+00  0.0000E+00  0.0000E+00  0.0000E+00
    -10.929  0.0000E+00  0.0000E+00  0.0000E+00  0.0000E+00  0.0000E+00  0.0000E+00
    -10.843  0.0000E+00  0.0000E+00  0.0000E+00  0.0000E+00  0.0000E+00  0.0000E+00
    -10.757  0.0000E+00  0.0000E+00  0.0000E+00  0.0000E+00  0.0000E+00  0.0000E+00
    -10.671  0.0000E+00  0.0000E+00  0.0000E+00  0.0000E+00  0.0000E+00  0.0000E+00
    -10.585  0.0000E+00  0.0000E+00  0.0000E+00  0.0000E+00  0.0000E+00  0.0000E+00
    -10.498  0.0000E+00  0.0000E+00  0.0000E+00  0.0000E+00  0.0000E+00  0.0000E+00
    -10.412  0.0000E+00  0.0000E+00  0.0000E+00  0.0000E+00  0.0000E+00  0.0000E+00
    -10.326  0.0000E+00  0.0000E+00  0.0000E+00  0.0000E+00  0.0000E+00  0.0000E+00
    -10.240  0.0000E+00  0.0000E+00  0.0000E+00  0.0000E+00  0.0000E+00  0.0000E+00
    -10.154 -0.3748E-32  0.0000E+00 -0.3950E-33  0.0000E+00 -0.5012E-35  0.0000E+00
    -10.068 -0.4081E-29  0.0000E+00 -0.4301E-30  0.0000E+00 -0.5458E-32  0.0000E+00
     -9.982 -0.3060E-26  0.0000E+00 -0.3225E-27  0.0000E+00 -0.4091E-29  0.0000E+00