       N       E                     dE             d eps       ncg     rms          rms(c)
DAV:   1    -0.523314425573E+03   -0.52331E+03   -0.10391E+03  7914   0.391E+01    0.575E+00
RMM:   2    -0.530779325102E+03   -0.74649E+01   -0.69677E+01  7342   0.194E+01    0.105E+01
RMM:   3    -0.534325707986E+03   -0.35464E+01   -0.20085E+01  8490   0.493E+00    0.178E+01
RMM:   4    -0.532029975302E+03    0.22957E+01   -0.36427E+00  8036   0.264E+00    0.513E+00
RMM:   5    -0.532051009582E+03   -0.21034E-01   -0.14559E+00  8289   0.142E+00    0.426E+00
RMM:   6    -0.532033243700E+03    0.17766E-01   -0.81653E-01  8045   0.100E+00    0.259E+00
RMM:   7    -0.532063163130E+03   -0.29919E-01   -0.54236E-01  8528   0.565E-01    0.234E+00
RMM:   8    -0.532090136487E+03   -0.26973E-01   -0.37912E-01  7747   0.453E-01    0.224E+00
RMM:   9    -0.532097186939E+03   -0.70505E-02   -0.27139E-01  7578   0.421E-01    0.176E+00
RMM:  10    -0.532107128888E+03   -0.99419E-02   -0.23281E-01  7445   0.435E-01    0.110E+00
RMM:  11    -0.532123998705E+03   -0.16870E-01   -0.19714E-01  7779   0.402E-01    0.576E-01
RMM:  12    -0.532147371907E+03   -0.23373E-01   -0.13770E-01  8116   0.246E-01    0.649E-01
RMM:  13    -0.532178420524E+03   -0.31049E-01   -0.77329E-02  7708   0.168E-01    0.534E-01
RMM:  14    -0.532221851431E+03   -0.43431E-01   -0.58253E-02  7678   0.146E-01    0.508E-01
RMM:  15    -0.532260808733E+03   -0.38957E-01   -0.41812E-02  7454   0.146E-01    0.367E-01
RMM:  16    -0.532318720908E+03   -0.57912E-01   -0.31459E-02  7506   0.132E-01    0.385E-01
RMM:  17    -0.532340042266E+03   -0.21321E-01   -0.15260E-02  7485   0.109E-01    0.272E-01
RMM:  18    -0.532368029919E+03   -0.27988E-01   -0.10296E-02  7705   0.822E-02    0.231E-01
RMM:  19    -0.532376357792E+03   -0.83279E-02   -0.12502E-02  7472   0.687E-02    0.183E-01
RMM:  20    -0.532382314630E+03   -0.59568E-02   -0.14457E-02  7753   0.522E-02    0.100E-01
RMM:  21    -0.532384500672E+03   -0.21860E-02   -0.13488E-02  8069   0.330E-02    0.907E-02
RMM:  22    -0.532386043605E+03   -0.15429E-02   -0.12221E-02  6588   0.163E-02    0.743E-02
RMM:  23    -0.532387137683E+03   -0.10941E-02   -0.10343E-02  4953   0.138E-02    0.818E-02
RMM:  24    -0.532388004855E+03   -0.86717E-03   -0.86810E-03  4628   0.965E-03    0.896E-02
RMM:  25    -0.532389173232E+03   -0.11684E-02   -0.74717E-03  5183   0.146E-02    0.104E-01
RMM:  26    -0.532390376249E+03   -0.12030E-02   -0.65808E-03  6585   0.233E-02    0.125E-01
RMM:  27    -0.532391454897E+03   -0.10786E-02   -0.58779E-03  5792   0.191E-02    0.136E-01
RMM:  28    -0.532392704250E+03   -0.12494E-02   -0.53228E-03  5681   0.136E-02    0.166E-01
RMM:  29    -0.532393724566E+03   -0.10203E-02   -0.49093E-03  5707   0.166E-02    0.183E-01
RMM:  30    -0.532394987939E+03   -0.12634E-02   -0.44690E-03  7206   0.216E-02    0.244E-01
RMM:  31    -0.532395612786E+03   -0.62485E-03   -0.41140E-03  7242   0.177E-02    0.294E-01
RMM:  32    -0.532395916093E+03   -0.30331E-03   -0.37253E-03  6128   0.146E-02    0.333E-01
RMM:  33    -0.532396189064E+03   -0.27297E-03   -0.33003E-03  4965   0.103E-02    0.352E-01
RMM:  34    -0.532396473783E+03   -0.28472E-03   -0.29801E-03  4437   0.813E-03    0.358E-01
RMM:  35    -0.532396853798E+03   -0.38001E-03   -0.26788E-03  4401   0.780E-03    0.335E-01
RMM:  36    -0.532397121914E+03   -0.26812E-03   -0.24188E-03  4229   0.552E-03    0.322E-01
RMM:  37    -0.532397366487E+03   -0.24457E-03   -0.22456E-03  4262   0.614E-03    0.309E-01
RMM:  38    -0.532397610932E+03   -0.24445E-03   -0.19741E-03  4226   0.613E-03    0.292E-01
RMM:  39    -0.532397803777E+03   -0.19284E-03   -0.18134E-03  4063   0.492E-03    0.286E-01
RMM:  40    -0.532397973616E+03   -0.16984E-03   -0.15745E-03  4020   0.467E-03    0.280E-01
RMM:  41    -0.532398154872E+03   -0.18126E-03   -0.14817E-03  3998   0.428E-03    0.269E-01
RMM:  42    -0.532398349048E+03   -0.19418E-03   -0.12921E-03  4195   0.716E-03    0.244E-01
RMM:  43    -0.532398576612E+03   -0.22756E-03   -0.11927E-03  5401   0.121E-02    0.194E-01
RMM:  44    -0.532398774491E+03   -0.19788E-03   -0.10597E-03  5480   0.123E-02    0.153E-01
RMM:  45    -0.532399019782E+03   -0.24529E-03   -0.98341E-04  5656   0.136E-02    0.110E-01
RMM:  46    -0.532399203701E+03   -0.18392E-03   -0.81823E-04  4779   0.996E-03    0.899E-02
RMM:  47    -0.532399376933E+03   -0.17323E-03   -0.72562E-04  4688   0.102E-02    0.671E-02
RMM:  48    -0.532399576377E+03   -0.19944E-03   -0.63786E-04  4579   0.793E-03    0.535E-02
RMM:  49    -0.532399727956E+03   -0.15158E-03   -0.55638E-04  4384   0.741E-03    0.455E-02
RMM:  50    -0.532399856313E+03   -0.12836E-03   -0.51757E-04  4249   0.649E-03    0.439E-02
RMM:  51    -0.532400008849E+03   -0.15254E-03   -0.43145E-04  4289   0.579E-03    0.371E-02
RMM:  52    -0.532400102425E+03   -0.93576E-04   -0.37664E-04  4169   0.495E-03    0.301E-02
RMM:  53    -0.532400178185E+03   -0.75759E-04   -0.32968E-04  4092   0.461E-03    0.247E-02
RMM:  54    -0.532400307559E+03   -0.12937E-03   -0.28931E-04  4239   0.424E-03    0.163E-02
RMM:  55    -0.532400396106E+03   -0.88547E-04   -0.28331E-04  3908   0.400E-03    0.115E-02
RMM:  56    -0.532400488210E+03   -0.92104E-04   -0.22366E-04  4142   0.402E-03    0.482E-03
RMM:  57    -0.532400535885E+03   -0.47675E-04   -0.19284E-04  3766   0.346E-03    0.421E-03
RMM:  58    -0.532400568857E+03   -0.32972E-04   -0.16716E-04  3771   0.325E-03    0.468E-03
RMM:  59    -0.532400596273E+03   -0.27416E-04   -0.14344E-04  3021   0.246E-03    0.491E-03
RMM:  60    -0.532400621928E+03   -0.25655E-04   -0.15575E-04  2866   0.219E-03    0.493E-03
RMM:  61    -0.532400635102E+03   -0.13175E-04   -0.10931E-04  2238   0.185E-03    0.471E-03
RMM:  62    -0.532400644326E+03   -0.92237E-05   -0.93760E-05  2142   0.162E-03
   1 F= -.54563570E+03 E0= -.54566018E+03  d E =-.545636E+03  mag=   159.5877
       N       E                     dE             d eps       ncg     rms          rms(c)
DAV:   1    -0.532398664002E+03    0.19711E-02   -0.41503E-01  7302   0.105E+00    0.301E-01
RMM:   2    -0.532401528761E+03   -0.28648E-02   -0.19610E-02  8430   0.277E-01    0.313E-01
RMM:   3    -0.532404736419E+03   -0.32077E-02   -0.63898E-03  7408   0.200E-01    0.709E-01
RMM:   4    -0.532402271595E+03    0.24648E-02   -0.22199E-03  7331   0.113E-01    0.449E-01
RMM:   5    -0.532400904605E+03    0.13670E-02   -0.66388E-04  7192   0.826E-02    0.101E-01
RMM:   6    -0.532400901489E+03    0.31160E-05   -0.22014E-04  7640   0.335E-02    0.109E-01
RMM:   7    -0.532400798396E+03    0.10309E-03   -0.72588E-05  7184   0.232E-02    0.694E-02
RMM:   8    -0.532400740494E+03    0.57902E-04   -0.16933E-04  7242   0.364E-02    0.101E-01
RMM:   9    -0.532400652698E+03    0.87796E-04   -0.68690E-05  6984   0.285E-02    0.404E-02
RMM:  10    -0.532400651282E+03    0.14157E-05   -0.90533E-06  4686   0.132E-02
   2 F= -.54563558E+03 E0= -.54566210E+03  d E =0.124088E-03  mag=   159.5866
