 vasp.5.4.4.18Apr17-6-g9f103f2a35 (build Dec 15 2018 21:27:11) complex          
  
 executed on             LinuxIFC date 2022.03.01  22:09:46
 running on   72 total cores
 distrk:  each k-point on   72 cores,    1 groups
 distr:  one band on NCORES_PER_BAND=  24 cores,    3 groups


--------------------------------------------------------------------------------------------------------


 INCAR:
 POTCAR:    PAW_PBE Fe 06Sep2000                  
 POTCAR:    PAW_PBE O 08Apr2002                   

 ----------------------------------------------------------------------------- 
|                                                                             |
|           W    W    AA    RRRRR   N    N  II  N    N   GGGG   !!!           |
|           W    W   A  A   R    R  NN   N  II  NN   N  G    G  !!!           |
|           W    W  A    A  R    R  N N  N  II  N N  N  G       !!!           |
|           W WW W  AAAAAA  RRRRR   N  N N  II  N  N N  G  GGG   !            |
|           WW  WW  A    A  R   R   N   NN  II  N   NN  G    G                |
|           W    W  A    A  R    R  N    N  II  N    N   GGGG   !!!           |
|                                                                             |
|      For optimal performance we recommend to set                            |
|        NCORE= 4 - approx SQRT( number of cores)                             |
|      NCORE specifies how many cores store one orbital (NPAR=cpu/NCORE).     |
|      This setting can  greatly improve the performance of VASP for DFT.     |
|      The default,   NCORE=1            might be grossly inefficient         |
|      on modern multi-core architectures or massively parallel machines.     |
|      Do your own testing !!!!                                               |
|      Unfortunately you need to use the default for GW and RPA calculations. |
|      (for HF NCORE is supported but not extensively tested yet)             |
|                                                                             |
 ----------------------------------------------------------------------------- 

 POTCAR:    PAW_PBE Fe 06Sep2000                  
   VRHFIN =Fe:  d7 s1                                                           
   LEXCH  = PE                                                                  
   EATOM  =   594.3153 eV,   43.6809 Ry                                         
                                                                                
   TITEL  = PAW_PBE Fe 06Sep2000                                                
   LULTRA =        F    use ultrasoft PP ?                                      
   IUNSCR =        1    unscreen: 0-lin 1-nonlin 2-no                           
   RPACOR =    2.000    partial core radius                                     
   POMASS =   55.847; ZVAL   =    8.000    mass and valenz                      
   RCORE  =    2.300    outmost cutoff radius                                   
   RWIGS  =    2.460; RWIGS  =    1.302    wigner-seitz radius (au A)           
   ENMAX  =  267.882; ENMIN  =  200.911 eV                                      
   RCLOC  =    1.701    cutoff for local pot                                    
   LCOR   =        T    correct aug charges                                     
   LPAW   =        T    paw PP                                                  
   EAUG   =  511.368                                                            
   DEXC   =    0.000                                                            
   RMAX   =    2.356    core radius for proj-oper                               
   RAUG   =    1.300    factor for augmentation sphere                          
   RDEP   =    2.442    radius for radial grids                                 
   RDEPT  =    1.890    core radius for aug-charge                              
                                                                                
   Atomic configuration                                                         
    9 entries                                                                   
     n  l   j            E        occ.                                          
     1  0  0.50     -6993.8440   2.0000                                         
     2  0  0.50      -814.6047   2.0000                                         
     2  1  1.50      -693.3689   6.0000                                         
     3  0  0.50       -89.4732   2.0000                                         
     3  1  1.50       -55.6373   6.0000                                         
     3  2  2.50        -3.8151   7.0000                                         
     4  0  0.50        -4.2551   1.0000                                         
     4  1  1.50        -3.4015   0.0000                                         
     4  3  2.50        -1.3606   0.0000                                         
   Description                                                                  
     l       E           TYP  RCUT    TYP  RCUT                                 
     2     -3.8151135     23  2.300                                             
     2     -5.1756961     23  2.300                                             
     0     -4.2550963     23  2.300                                             
     0      7.2035603     23  2.300                                             
     1     -2.7211652     23  2.300                                             
     1     18.4316424     23  2.300                                             
  local pseudopotential read in
  partial core-charges read in
  partial kinetic energy density read in
  atomic valenz-charges read in
  non local Contribution for L=           2  read in
    real space projection operators read in
  non local Contribution for L=           2  read in
    real space projection operators read in
  non local Contribution for L=           0  read in
    real space projection operators read in
  non local Contribution for L=           0  read in
    real space projection operators read in
  non local Contribution for L=           1  read in
    real space projection operators read in
  non local Contribution for L=           1  read in
    real space projection operators read in
    PAW grid and wavefunctions read in
 
   number of l-projection  operators is LMAX  =           6
   number of lm-projection operators is LMMAX =          18
 
 POTCAR:    PAW_PBE O 08Apr2002                   
   VRHFIN =O: s2p4                                                              
   LEXCH  = PE                                                                  
   EATOM  =   432.3788 eV,   31.7789 Ry                                         
                                                                                
   TITEL  = PAW_PBE O 08Apr2002                                                 
   LULTRA =        F    use ultrasoft PP ?                                      
   IUNSCR =        1    unscreen: 0-lin 1-nonlin 2-no                           
   RPACOR =    1.200    partial core radius                                     
   POMASS =   16.000; ZVAL   =    6.000    mass and valenz                      
   RCORE  =    1.520    outmost cutoff radius                                   
   RWIGS  =    1.550; RWIGS  =    0.820    wigner-seitz radius (au A)           
   ENMAX  =  400.000; ENMIN  =  300.000 eV                                      
   ICORE  =        2    local potential                                         
   LCOR   =        T    correct aug charges                                     
   LPAW   =        T    paw PP                                                  
   EAUG   =  605.392                                                            
   DEXC   =    0.000                                                            
   RMAX   =    1.553    core radius for proj-oper                               
   RAUG   =    1.300    factor for augmentation sphere                          
   RDEP   =    1.550    radius for radial grids                                 
   RDEPT  =    1.329    core radius for aug-charge                              
                                                                                
   Atomic configuration                                                         
    4 entries                                                                   
     n  l   j            E        occ.                                          
     1  0  0.50      -514.6923   2.0000                                         
     2  0  0.50       -23.9615   2.0000                                         
     2  1  0.50        -9.0305   4.0000                                         
     3  2  1.50        -9.5241   0.0000                                         
   Description                                                                  
     l       E           TYP  RCUT    TYP  RCUT                                 
     0    -23.9615318     23  1.200                                             
     0     -9.5240782     23  1.200                                             
     1     -9.0304911     23  1.520                                             
     1      8.1634956     23  1.520                                             
     2     -9.5240782      7  1.500                                             
  local pseudopotential read in
  partial core-charges read in
  partial kinetic energy density read in
  kinetic energy density of atom read in
  atomic valenz-charges read in
  non local Contribution for L=           0  read in
    real space projection operators read in
  non local Contribution for L=           0  read in
    real space projection operators read in
  non local Contribution for L=           1  read in
    real space projection operators read in
  non local Contribution for L=           1  read in
    real space projection operators read in
    PAW grid and wavefunctions read in
 
   number of l-projection  operators is LMAX  =           4
   number of lm-projection operators is LMMAX =           8
 
 Optimization of the real space projectors (new method)

 maximal supplied QI-value         = 16.25
 optimisation between [QCUT,QGAM] = [ 11.54, 23.24] = [ 37.28,151.24] Ry 
 Optimized for a Real-space Cutoff    1.53 Angstroem

   l    n(q)    QCUT    max X(q) W(low)/X(q) W(high)/X(q)  e(spline) 
   2     10    11.539    80.901    0.11E-03    0.14E-03    0.21E-06
   2     10    11.539    75.754    0.11E-03    0.14E-03    0.22E-06
   0     11    11.539    58.752    0.52E-04    0.18E-04    0.33E-06
   0     11    11.539    30.679    0.44E-04    0.16E-04    0.30E-06
   1     10    11.539    17.977    0.53E-04    0.29E-04    0.13E-06
   1     10    11.539    13.559    0.44E-04    0.25E-04    0.11E-06
 Optimization of the real space projectors (new method)

 maximal supplied QI-value         = 24.76
 optimisation between [QCUT,QGAM] = [ 11.64, 23.27] = [ 37.91,151.63] Ry 
 Optimized for a Real-space Cutoff    1.14 Angstroem

   l    n(q)    QCUT    max X(q) W(low)/X(q) W(high)/X(q)  e(spline) 
   0      8    11.635    20.381    0.10E-03    0.33E-03    0.24E-06
   0      8    11.635    15.268    0.11E-03    0.35E-03    0.26E-06
   1      7    11.635     5.964    0.24E-03    0.31E-03    0.30E-06
   1      7    11.635     5.382    0.22E-03    0.25E-03    0.26E-06
  PAW_PBE Fe 06Sep2000                  :
 energy of atom  1       EATOM= -594.3153
 kinetic energy error for atom=    0.0026 (will be added to EATOM!!)
  PAW_PBE O 08Apr2002                   :
 energy of atom  2       EATOM= -432.3788
 kinetic energy error for atom=    0.0208 (will be added to EATOM!!)
 
 
 POSCAR: POSCAR                                  
  positions in direct lattice
  velocities in cartesian coordinates
 exchange correlation table for  LEXCH =        8
   RHO(1)=    0.500       N(1)  =     2000
   RHO(2)=  100.500       N(2)  =     4000

 VTST: version 3.2, (02/03/18)

 CHAIN: initializing optimizer
 
 OPT: Using VASP Conjugate-Gradient optimizer
 CHAIN: Read ICHAIN            0
 
 POSCAR: POSCAR                                  
  positions in direct lattice
  velocities in cartesian coordinates
 


--------------------------------------------------------------------------------------------------------


 ion  position               nearest neighbor table
   1  0.087  0.163  0.095-   5 2.48  13 2.48  17 2.48  49 2.48  31 2.48   3 2.48  29 2.87  53 2.87
                            15 2.87  19 2.87
   2  0.087  0.162  0.286-  32 2.45   4 2.46  31 2.46   3 2.46  14 2.48  50 2.48  18 2.48   6 2.48
                            16 2.79  20 2.80  15 2.85  19 2.85  30 2.87  54 2.87
   3  0.212  0.038  0.191-   2 2.46  54 2.47  15 2.48   7 2.48  51 2.48  19 2.48  53 2.48   1 2.48
                             6 2.82  50 2.83  31 2.87  55 2.87  49 2.87   5 2.87
   4  0.216  0.041  0.381-  65 2.19  54 2.45   2 2.46  16 2.46  52 2.47  20 2.51   8 2.51   6 2.84
                            56 2.87  32 2.87  50 2.91
   5  0.337  0.163  0.095-   1 2.48   9 2.48  21 2.48  53 2.48   7 2.48  19 2.48  17 2.87  57 2.87
                             3 2.87  23 2.87
   6  0.337  0.162  0.284-   7 2.43  19 2.43  54 2.48  10 2.48   2 2.48  22 2.49  20 2.50   8 2.50
                             3 2.82  23 2.82   4 2.84  24 2.84  58 2.86  18 2.87
   7  0.462  0.038  0.191-   6 2.43  58 2.43  11 2.48   3 2.48  55 2.48  23 2.48  57 2.48   5 2.48
                            54 2.85  10 2.85  19 2.87  59 2.87  53 2.87   9 2.87
   8  0.472  0.028  0.377-  65 1.85  58 2.37  12 2.46  56 2.47   6 2.50  24 2.51   4 2.51  60 2.65
                            10 2.79  54 2.80  20 3.08
   9  0.587  0.163  0.095-   5 2.48  13 2.48  25 2.48  57 2.48  11 2.48  23 2.48  21 2.87  61 2.87
                             7 2.87  27 2.87
  10  0.587  0.163  0.286-  12 2.45  24 2.46  23 2.47  11 2.47  58 2.48  14 2.48   6 2.48  26 2.48
                             8 2.79  28 2.79   7 2.85  27 2.85  22 2.87  62 2.87
  11  0.712  0.038  0.191-  10 2.47  62 2.47  15 2.48   7 2.48  59 2.48  27 2.48  61 2.48   9 2.48
                            14 2.82  58 2.82  23 2.87  63 2.87  57 2.87  13 2.87
  12  0.715  0.041  0.381-  66 2.18  10 2.45  62 2.46   8 2.46  60 2.47  28 2.51  16 2.51  14 2.84
                            24 2.87  64 2.87  58 2.91
  13  0.837  0.163  0.095-   1 2.48   9 2.48  29 2.48  61 2.48  15 2.48  27 2.48  49 2.87  25 2.87
                            11 2.87  31 2.87
  14  0.837  0.162  0.284-  15 2.43  27 2.43  62 2.48  10 2.48   2 2.48  30 2.49  16 2.50  28 2.50
                            11 2.82  31 2.82  12 2.84  32 2.84  26 2.87  50 2.87
  15  0.962  0.038  0.191-  14 2.43  50 2.44   3 2.48  11 2.48  31 2.48  63 2.48  13 2.48  49 2.48
                             2 2.85  62 2.85  27 2.87  51 2.87   1 2.87  61 2.87
  16  0.972  0.028  0.377-  66 1.85  50 2.36   4 2.46  64 2.47  14 2.50  32 2.51  12 2.51  52 2.65
                            62 2.79   2 2.79  28 3.09
  17  0.087  0.413  0.095-  21 2.48  29 2.48   1 2.48  33 2.48  19 2.48  47 2.48  45 2.87   5 2.87
                            31 2.87  35 2.87
  18  0.087  0.412  0.284-  20 2.37  48 2.37  47 2.43  19 2.43  30 2.48   2 2.48  34 2.48  22 2.48
                            31 2.82  35 2.83  46 2.87   6 2.87  32 2.90  36 2.91
  19  0.212  0.288  0.191-   6 2.43  18 2.43  23 2.48  31 2.48   3 2.48  35 2.48   5 2.48  17 2.48
                            22 2.85   2 2.85   7 2.87  47 2.87  21 2.87   1 2.87
  20  0.203  0.297  0.377-  65 1.85  18 2.37  32 2.46  36 2.47   6 2.50   4 2.51  24 2.51  48 2.65
                            22 2.79   2 2.80   8 3.08
  21  0.337  0.413  0.095-  17 2.48  25 2.48   5 2.48  37 2.48  35 2.48  23 2.48   9 2.87  33 2.87
                            19 2.87  39 2.87
  22  0.337  0.413  0.286-  24 2.45  36 2.45  35 2.47  23 2.47  18 2.48  26 2.48   6 2.49  38 2.49
                            40 2.79  20 2.79  19 2.85  39 2.85  10 2.87  34 2.87
  23  0.462  0.288  0.191-  10 2.47  22 2.47  19 2.48  27 2.48   7 2.48  39 2.48  21 2.48   9 2.48
                             6 2.82  26 2.83  35 2.87  11 2.87   5 2.87  25 2.87
  24  0.459  0.285  0.381-  65 2.20  22 2.45  10 2.46  28 2.46  40 2.47   8 2.51  20 2.51   6 2.84
                            36 2.86  12 2.87  26 2.91
  25  0.587  0.413  0.095-  21 2.48  29 2.48   9 2.48  41 2.48  39 2.48  27 2.48  13 2.87  37 2.87
                            23 2.87  43 2.87
  26  0.588  0.413  0.284-  40 2.37  28 2.37  39 2.43  27 2.43  30 2.48  42 2.48  10 2.48  22 2.48
                            43 2.82  23 2.83  14 2.87  38 2.87  44 2.90  24 2.91
  27  0.712  0.288  0.191-  14 2.43  26 2.43  23 2.48  31 2.48  11 2.48  43 2.48  25 2.48  13 2.48
                            30 2.85  10 2.85  39 2.87  15 2.87   9 2.87  29 2.87
  28  0.703  0.297  0.377-  66 1.85  26 2.37  24 2.46  44 2.47  14 2.50  12 2.51  32 2.51  40 2.65
                            10 2.79  30 2.80  16 3.09
  29  0.837  0.413  0.095-  17 2.48  25 2.48  13 2.48  45 2.48  43 2.48  31 2.48   1 2.87  41 2.87
                            27 2.87  47 2.87
  30  0.837  0.413  0.286-  32 2.45  44 2.45  43 2.47  31 2.47  18 2.48  26 2.48  46 2.49  14 2.49
                            48 2.80  28 2.80  27 2.85  47 2.85  42 2.87   2 2.87
  31  0.962  0.288  0.191-   2 2.46  30 2.47  27 2.48  19 2.48  15 2.48  47 2.48   1 2.48  29 2.48
                            14 2.82  18 2.82  43 2.87   3 2.87  17 2.87  13 2.87
  32  0.959  0.284  0.381-  66 2.20   2 2.45  30 2.45  20 2.46  48 2.47  16 2.51  28 2.51  14 2.84
                             4 2.87  44 2.87  18 2.90
  33  0.087  0.663  0.095-  37 2.48  45 2.48  17 2.48  49 2.48  35 2.48  63 2.48  61 2.87  21 2.87
                            47 2.87  51 2.87
  34  0.088  0.663  0.286-  64 2.45  36 2.46  35 2.47  63 2.47  50 2.48  46 2.48  38 2.48  18 2.48
                            52 2.79  48 2.79  51 2.85  47 2.85  22 2.87  62 2.87
  35  0.212  0.538  0.191-  34 2.47  22 2.47  39 2.48  47 2.48  19 2.48  51 2.48  21 2.48  33 2.48
                            38 2.82  18 2.83  23 2.87  63 2.87  37 2.87  17 2.87
  36  0.216  0.541  0.381-  68 2.20  22 2.45  34 2.46  48 2.46  20 2.47  52 2.51  40 2.51  38 2.84
                            24 2.86  64 2.87  18 2.91
  37  0.337  0.663  0.095-  33 2.48  41 2.48  21 2.48  53 2.48  51 2.48  39 2.48  25 2.87  49 2.87
                            35 2.87  55 2.87
  38  0.337  0.663  0.284-  51 2.43  39 2.43  54 2.48  34 2.48  42 2.48  22 2.49  40 2.50  52 2.50
                            55 2.82  35 2.82  56 2.84  36 2.84  50 2.86  26 2.87
  39  0.462  0.538  0.191-  38 2.43  26 2.43  35 2.48  43 2.48  23 2.48  55 2.48  37 2.48  25 2.48
                            22 2.85  42 2.85  51 2.87  27 2.87  21 2.87  41 2.87
  40  0.472  0.528  0.377-  68 1.85  26 2.37  44 2.46  24 2.47  38 2.50  56 2.51  36 2.51  28 2.65
                            22 2.79  42 2.80  52 3.08
  41  0.587  0.663  0.095-  37 2.48  45 2.48  25 2.48  57 2.48  55 2.48  43 2.48  29 2.87  53 2.87
                            39 2.87  59 2.87
  42  0.588  0.663  0.286-  44 2.45  56 2.46  43 2.46  55 2.46  46 2.48  26 2.48  58 2.48  38 2.48
                            60 2.79  40 2.80  59 2.85  39 2.85  30 2.87  54 2.87
  43  0.712  0.538  0.191-  42 2.46  30 2.47  39 2.48  47 2.48  27 2.48  59 2.48  41 2.48  29 2.48
                            46 2.82  26 2.82  55 2.87  31 2.87  25 2.87  45 2.87
  44  0.716  0.541  0.381-  67 2.20  42 2.45  30 2.45  40 2.46  28 2.47  60 2.51  48 2.51  46 2.84
                            56 2.87  32 2.87  26 2.90
  45  0.837  0.663  0.095-  33 2.48  41 2.48  29 2.48  61 2.48  59 2.48  47 2.48  17 2.87  57 2.87
                            43 2.87  63 2.87
  46  0.838  0.663  0.284-  59 2.43  47 2.43  62 2.48  34 2.48  42 2.48  30 2.49  60 2.50  48 2.50
                            63 2.82  43 2.82  64 2.84  44 2.84  18 2.87  58 2.87
  47  0.962  0.538  0.191-  46 2.43  18 2.43  43 2.48  35 2.48  31 2.48  63 2.48  17 2.48  45 2.48
                            30 2.85  34 2.85  59 2.87  19 2.87  33 2.87  29 2.87
  48  0.972  0.528  0.377-  67 1.85  18 2.37  36 2.46  32 2.47  46 2.50  64 2.51  44 2.51  20 2.65
                            34 2.79  30 2.80  60 3.09
  49  0.087  0.913  0.095-  53 2.48  61 2.48   1 2.48  33 2.48  15 2.48  51 2.48  37 2.87  13 2.87
                             3 2.87  63 2.87
  50  0.087  0.912  0.284-  16 2.36  52 2.37  51 2.44  15 2.44  34 2.48  62 2.48   2 2.48  54 2.48
                            63 2.82   3 2.83  38 2.86  14 2.87   4 2.91  64 2.91
  51  0.212  0.788  0.191-  38 2.43  50 2.44  55 2.48  63 2.48   3 2.48  35 2.48  49 2.48  37 2.48
                            54 2.85  34 2.85  39 2.87  15 2.87  53 2.87  33 2.87
  52  0.203  0.797  0.377-  68 1.85  50 2.37  64 2.46   4 2.47  38 2.50  36 2.51  56 2.51  16 2.65
                            34 2.79  54 2.80  40 3.08
  53  0.337  0.913  0.095-  49 2.48  57 2.48   5 2.48  37 2.48  55 2.48   3 2.48  41 2.87   1 2.87
                             7 2.87  51 2.87
  54  0.337  0.913  0.286-  56 2.45   4 2.45   3 2.47  55 2.47  38 2.48   6 2.48  58 2.48  50 2.48
                             8 2.80  52 2.80  51 2.85   7 2.85  42 2.87   2 2.87
  55  0.462  0.788  0.191-  42 2.46  54 2.47  51 2.48  59 2.48   7 2.48  39 2.48  41 2.48  53 2.48
                            38 2.82  58 2.83  43 2.87   3 2.87  37 2.87  57 2.87
  56  0.459  0.785  0.381-  68 2.19  54 2.45  42 2.46  60 2.46   8 2.47  40 2.51  52 2.51  38 2.84
                             4 2.87  44 2.87  58 2.91
  57  0.587  0.913  0.095-  53 2.48  61 2.48   9 2.48  41 2.48  59 2.48   7 2.48  45 2.87   5 2.87
                            11 2.87  55 2.87
  58  0.587  0.913  0.284-  60 2.36   8 2.37   7 2.43  59 2.44  10 2.48  62 2.48  42 2.48  54 2.48
                            11 2.82  55 2.83   6 2.86  46 2.87  12 2.91  56 2.91
  59  0.712  0.788  0.191-  46 2.43  58 2.44  55 2.48  63 2.48  11 2.48  43 2.48  45 2.48  57 2.48
                            42 2.85  62 2.85  47 2.87   7 2.87  41 2.87  61 2.87
  60  0.703  0.797  0.377-  67 1.85  58 2.36  56 2.46  12 2.47  46 2.50  44 2.51  64 2.51   8 2.65
                            62 2.79  42 2.79  48 3.09
  61  0.837  0.913  0.095-  49 2.48  57 2.48  13 2.48  45 2.48  11 2.48  63 2.48   9 2.87  33 2.87
                            59 2.87  15 2.87
  62  0.837  0.913  0.286-  64 2.45  12 2.46  11 2.47  63 2.47  14 2.48  46 2.48  50 2.48  58 2.48
                            16 2.79  60 2.79  59 2.85  15 2.85  10 2.87  34 2.87
  63  0.962  0.788  0.191-  34 2.47  62 2.47  59 2.48  51 2.48  47 2.48  15 2.48  61 2.48  33 2.48
                            46 2.82  50 2.82  35 2.87  11 2.87  49 2.87  45 2.87
  64  0.959  0.784  0.381-  67 2.18  62 2.45  34 2.45  52 2.46  16 2.47  48 2.51  60 2.51  46 2.84
                            36 2.87  12 2.87  50 2.91
  65  0.337  0.162  0.426-   8 1.85  20 1.85   4 2.19  24 2.20
  66  0.837  0.162  0.426-  28 1.85  16 1.85  12 2.18  32 2.20
  67  0.838  0.663  0.426-  48 1.85  60 1.85  64 2.18  44 2.20
  68  0.337  0.663  0.426-  52 1.85  40 1.85  56 2.19  36 2.20
 

IMPORTANT INFORMATION: All symmetrisations will be switched off!
NOSYMM: (Re-)initialisation of all symmetry stuff for point group C_1.

 
 

Automatic generation of k-mesh.
 generate k-points for:    3    3    1
Space group operators:
 irot       det(A)        alpha          n_x          n_y          n_z        tau_x        tau_y        tau_z
    1     1.000000     0.000001     1.000000     0.000000     0.000000     0.000000     0.000000     0.000000
 
 Subroutine IBZKPT returns following result:
 ===========================================
 
 Found      5 irreducible k-points:
 
 Following reciprocal coordinates:
            Coordinates               Weight
  0.000000  0.000000  0.000000      1.000000
  0.333333  0.000000  0.000000      2.000000
  0.000000  0.333333  0.000000      2.000000
  0.333333  0.333333  0.000000      2.000000
 -0.333333  0.333333  0.000000      2.000000
 
 Following cartesian coordinates:
            Coordinates               Weight
  0.000000  0.000000  0.000000      1.000000
  0.033570 -0.011869  0.000000      2.000000
  0.000000  0.035606  0.000000      2.000000
  0.033570  0.023738  0.000000      2.000000
 -0.033570  0.047475  0.000000      2.000000
 


--------------------------------------------------------------------------------------------------------




 Dimension of arrays:
   k-points           NKPTS =      5   k-points in BZ     NKDIM =      5   number of bands    NBANDS=    357
   number of dos      NEDOS =    301   number of ions     NIONS =     68
   non local maximal  LDIM  =      6   non local SUM 2l+1 LMDIM =     18
   total plane-waves  NPLWV = ******
   max r-space proj   IRMAX =   7948   max aug-charges    IRDMAX=  18812
   dimension x,y,z NGX =    80 NGY =   80 NGZ =  160
   dimension x,y,z NGXF=   160 NGYF=  160 NGZF=  320
   support grid    NGXF=   160 NGYF=  160 NGZF=  320
   ions per type =              64   4
   NGX,Y,Z   is equivalent  to a cutoff of  13.39, 13.39, 12.62 a.u.
   NGXF,Y,Z  is equivalent  to a cutoff of  26.79, 26.79, 25.24 a.u.

 SYSTEM =  SQS-NiFe                                
 POSCAR =  POSCAR                                  

 Startparameter for this run:
   NWRITE =      2    write-flag & timer
   PREC   = accura    normal or accurate (medium, high low for compatibility)
   ISTART =      1    job   : 0-new  1-cont  2-samecut
   ICHARG =      1    charge: 1-file 2-atom 10-const
   ISPIN  =      2    spin polarized calculation?
   LNONCOLLINEAR =      F non collinear calculations
   LSORBIT =      F    spin-orbit coupling
   INIWAV =      1    electr: 0-lowe 1-rand  2-diag
   LASPH  =      F    aspherical Exc in radial PAW
   METAGGA=      F    non-selfconsistent MetaGGA calc.

 Electronic Relaxation 1
   ENCUT  =  520.0 eV  38.22 Ry    6.18 a.u.  18.46 18.46 39.20*2*pi/ulx,y,z
   ENINI  =  520.0     initial cutoff
   ENAUG  =  605.4 eV  augmentation charge cutoff
   NELM   =    200;   NELMIN=  2; NELMDL=  0     # of ELM steps 
   EDIFF  = 0.1E-04   stopping-criterion for ELM
   LREAL  =      T    real-space projection
   NLSPLINE    = F    spline interpolate recip. space projectors
   LCOMPAT=      F    compatible to vasp.4.4
   GGA_COMPAT  = T    GGA compatible to vasp.4.4-vasp.4.6
   LMAXPAW     = -100 max onsite density
   LMAXMIX     =    2 max onsite mixed and CHGCAR
   VOSKOWN=      0    Vosko Wilk Nusair interpolation
   ROPT   =   -0.00025  -0.00025
 Ionic relaxation
   EDIFFG = -.5E-01   stopping-criterion for IOM
   NSW    =     99    number of steps for IOM
   NBLOCK =      1;   KBLOCK =     99    inner block; outer block 
   IBRION =      2    ionic relax: 0-MD 1-quasi-New 2-CG
   NFREE  =      1    steps in history (QN), initial steepest desc. (CG)
   ISIF   =      2    stress and relaxation
   IWAVPR =     11    prediction:  0-non 1-charg 2-wave 3-comb
   ISYM   =      0    0-nonsym 1-usesym 2-fastsym
   LCORR  =      T    Harris-Foulkes like correction to forces

   POTIM  = 0.5000    time-step for ionic-motion
   TEIN   =    0.0    initial temperature
   TEBEG  =    0.0;   TEEND  =   0.0 temperature during run
   SMASS  =  -3.00    Nose mass-parameter (am)
   estimated Nose-frequenzy (Omega)   =  0.10E-29 period in steps =****** mass=  -0.225E-26a.u.
   SCALEE = 1.0000    scale energy and forces
   NPACO  =    256;   APACO  = 16.0  distance and # of slots for P.C.
   PSTRESS=    0.0 pullay stress

  Mass of Ions in am
   POMASS =  55.85 16.00
  Ionic Valenz
   ZVAL   =   8.00  6.00
  Atomic Wigner-Seitz radii
   RWIGS  =  -1.00 -1.00
  virtual crystal weights 
   VCA    =   1.00  1.00
   NELECT =     536.0000    total number of electrons
   NUPDOWN=      -1.0000    fix difference up-down

 DOS related values:
   EMIN   =  10.00;   EMAX   =-10.00  energy-range for DOS
   EFERMI =   0.00
   ISMEAR =     1;   SIGMA  =   0.20  broadening in eV -4-tet -1-fermi 0-gaus

 Electronic relaxation 2 (details)
   IALGO  =     68    algorithm
   LDIAG  =      T    sub-space diagonalisation (order eigenvalues)
   LSUBROT=      F    optimize rotation matrix (better conditioning)
   TURBO    =      0    0=normal 1=particle mesh
   IRESTART =      0    0=no restart 2=restart with 2 vectors
   NREBOOT  =      0    no. of reboots
   NMIN     =      0    reboot dimension
   EREF     =   0.00    reference energy to select bands
   IMIX   =      4    mixing-type and parameters
     AMIX     =   0.40;   BMIX     =  1.00
     AMIX_MAG =   1.60;   BMIX_MAG =  1.00
     AMIN     =   0.10
     WC   =   100.;   INIMIX=   1;  MIXPRE=   1;  MAXMIX= -45

 Intra band minimization:
   WEIMIN = 0.0010     energy-eigenvalue tresh-hold
   EBREAK =  0.70E-08  absolut break condition
   DEPER  =   0.30     relativ break condition  

   TIME   =   0.40     timestep for ELM

  volume/ion in A,a.u.               =      28.82       194.47
  Fermi-wavevector in a.u.,A,eV,Ry     =   1.062697  2.008207 15.365410  1.129326
  Thomas-Fermi vector in A             =   2.198157
 
 Write flags
   LWAVE        =      T    write WAVECAR
   LDOWNSAMPLE  =      F    k-point downsampling of WAVECAR
   LCHARG       =      T    write CHGCAR
   LVTOT        =      F    write LOCPOT, total local potential
   LVHAR        =      F    write LOCPOT, Hartree potential only
   LELF         =      F    write electronic localiz. function (ELF)
   LORBIT       =     10    0 simple, 1 ext, 2 COOP (PROOUT), +10 PAW based schemes


 Dipole corrections
   LMONO  =      F    monopole corrections only (constant potential shift)
   LDIPOL =      T    correct potential (dipole corrections)
   IDIPOL =      3    1-x, 2-y, 3-z, 4-all directions 
   EPSILON=  1.0000000 bulk dielectric constant

 Exchange correlation treatment:
   GGA     =    --    GGA type
   LEXCH   =     8    internal setting for exchange type
   VOSKOWN=      0    Vosko Wilk Nusair interpolation
   LHFCALC =     F    Hartree Fock is set to
   LHFONE  =     F    Hartree Fock one center treatment
   AEXX    =    0.0000 exact exchange contribution

 Linear response parameters
   LEPSILON=     F    determine dielectric tensor
   LRPA    =     F    only Hartree local field effects (RPA)
   LNABLA  =     F    use nabla operator in PAW spheres
   LVEL    =     F    velocity operator in full k-point grid
   LINTERFAST=   F  fast interpolation
   KINTER  =     0    interpolate to denser k-point grid
   CSHIFT  =0.1000    complex shift for real part using Kramers Kronig
   OMEGAMAX=  -1.0    maximum frequency
   DEG_THRESHOLD= 0.2000000E-02 threshold for treating states as degnerate
   RTIME   =   -0.100 relaxation time in fs
  (WPLASMAI=    0.000 imaginary part of plasma frequency in eV, 0.658/RTIME)
   DFIELD  = 0.0000000 0.0000000 0.0000000 field for delta impulse in time
 
 Orbital magnetization related:
   ORBITALMAG=     F  switch on orbital magnetization
   LCHIMAG   =     F  perturbation theory with respect to B field
   DQ        =  0.001000  dq finite difference perturbation B field
   LLRAUG    =     F  two centre corrections for induced B field



--------------------------------------------------------------------------------------------------------


 conjugate gradient relaxation of ions
   using selective dynamics as specified on POSCAR
 charge density and potential will be updated during run
 spin polarized calculation
 RMM-DIIS sequential band-by-band and
  variant of blocked Davidson during initial phase
 perform sub-space diagonalisation
    before iterative eigenvector-optimisation
 modified Broyden-mixing scheme, WC =      100.0
 initial mixing is a Kerker type mixing with AMIX =  0.4000 and BMIX =      1.0000
 Hartree-type preconditioning will be used
 using additional bands           89
 real space projection scheme for non local part
 use partial core corrections
 calculate Harris-corrections to forces 
   (improved forces if not selfconsistent)
 use gradient corrections 
 use of overlap-Matrix (Vanderbilt PP)
 Methfessel and Paxton  Order N= 1 SIGMA  =   0.20


--------------------------------------------------------------------------------------------------------


  energy-cutoff  :      520.00
  volume of cell :     1959.57
      direct lattice vectors                 reciprocal lattice vectors
     9.929500000  0.000000000  0.000000000     0.100710006 -0.035606363  0.000000000
     3.309833230  9.361622420  0.000000000     0.000000000  0.106819091  0.000000000
     0.000000000  0.000000000 21.080550000     0.000000000  0.000000000  0.047437092

  length of vectors
     9.929500000  9.929500005 21.080550000     0.106819091  0.106819091  0.047437092


 
 old parameters found on file WAVECAR:
  energy-cutoff  :      520.00
  volume of cell :     1959.57
      direct lattice vectors                 reciprocal lattice vectors
     9.929500000  0.000000000  0.000000000     0.100710006 -0.035606363  0.000000000
     3.309833230  9.361622420  0.000000000     0.000000000  0.106819091  0.000000000
     0.000000000  0.000000000 21.080550000     0.000000000  0.000000000  0.047437092

  length of vectors

 
 k-points in units of 2pi/SCALE and weight: read from INCAR                         
   0.00000000  0.00000000  0.00000000       0.111
   0.03357000 -0.01186879  0.00000000       0.222
   0.00000000  0.03560636  0.00000000       0.222
   0.03357000  0.02373758  0.00000000       0.222
  -0.03357000  0.04747515  0.00000000       0.222
 
 k-points in reciprocal lattice and weights: read from INCAR                         
   0.00000000  0.00000000  0.00000000       0.111
   0.33333333  0.00000000  0.00000000       0.222
   0.00000000  0.33333333  0.00000000       0.222
   0.33333333  0.33333333  0.00000000       0.222
  -0.33333333  0.33333333  0.00000000       0.222
 
 position of ions in fractional coordinates (direct lattice) 
   0.08738900  0.16261100  0.09487400
   0.08716839  0.16247534  0.28613596
   0.21238900  0.03761100  0.19102200
   0.21555309  0.04064064  0.38067207
   0.33738900  0.16261100  0.09487400
   0.33733130  0.16238216  0.28400433
   0.46238900  0.03761100  0.19102200
   0.47194664  0.02825004  0.37744786
   0.58738900  0.16261100  0.09487400
   0.58724139  0.16266882  0.28626390
   0.71238900  0.03761100  0.19102200
   0.71547796  0.04101028  0.38078418
   0.83738900  0.16261100  0.09487400
   0.83721584  0.16242987  0.28389646
   0.96238900  0.03761100  0.19102200
   0.97200301  0.02794909  0.37729181
   0.08738900  0.41261100  0.09487400
   0.08722275  0.41247205  0.28433823
   0.21238900  0.28761100  0.19102200
   0.20280758  0.29689777  0.37726904
   0.33738900  0.41261100  0.09487400
   0.33737264  0.41260658  0.28623574
   0.46238900  0.28761100  0.19102200
   0.45906149  0.28468290  0.38078358
   0.58738900  0.41261100  0.09487400
   0.58751881  0.41275429  0.28433320
   0.71238900  0.28761100  0.19102200
   0.70272628  0.29721951  0.37737849
   0.83738900  0.41261100  0.09487400
   0.83737135  0.41261421  0.28620140
   0.96238900  0.28761100  0.19102200
   0.95917045  0.28423066  0.38059476
   0.08738900  0.66261100  0.09487400
   0.08750574  0.66254737  0.28626611
   0.21238900  0.53761100  0.19102200
   0.21565101  0.54051486  0.38078870
   0.33738900  0.66261100  0.09487400
   0.33741575  0.66283314  0.28400423
   0.46238900  0.53761100  0.19102200
   0.47192595  0.52829640  0.37726390
   0.58738900  0.66261100  0.09487400
   0.58757734  0.66273999  0.28613294
   0.71238900  0.53761100  0.19102200
   0.71552693  0.54101659  0.38059747
   0.83738900  0.66261100  0.09487400
   0.83752181  0.66279091  0.28389693
   0.96238900  0.53761100  0.19102200
   0.97200328  0.52800520  0.37737045
   0.08738900  0.91261100  0.09487400
   0.08730070  0.91241652  0.28442870
   0.21238900  0.78761100  0.19102200
   0.20278057  0.79694429  0.37745304
   0.33738900  0.91261100  0.09487400
   0.33737268  0.91260713  0.28616725
   0.46238900  0.78761100  0.19102200
   0.45915323  0.78455896  0.38066790
   0.58738900  0.91261100  0.09487400
   0.58743502  0.91281579  0.28442614
   0.71238900  0.78761100  0.19102200
   0.70271163  0.79728289  0.37729963
   0.83738900  0.91261100  0.09487400
   0.83736923  0.91261355  0.28631622
   0.96238900  0.78761100  0.19102200
   0.95920401  0.78424394  0.38077953
   0.33698667  0.16220890  0.42606988
   0.83687810  0.16221731  0.42585005
   0.83782014  0.66303792  0.42584773
   0.33738775  0.66270379  0.42607471
 
 position of ions in cartesian coordinates  (Angst):
   1.40594437  1.52230278  1.99999610
   1.40330481  1.52103277  6.03190331
   2.23340271  0.35209998  4.02684882
   2.27484813  0.38046236  8.02477663
   3.88831937  1.52230278  1.99999610
   3.88698903  1.52016048  5.98696756
   4.71577771  0.35209998  4.02684882
   4.77969713  0.26446624  7.95680844
   6.37069437  1.52230278  1.99999610
   6.36942004  1.52284403  6.03460042
   7.19815271  0.35209998  4.02684882
   7.24007558  0.38392273  8.02713992
   8.85306937  1.52230278  1.99999610
   8.85075046  1.52060711  5.98469353
   9.68052771  0.35209998  4.02684882
   9.74401070  0.26164886  7.95351885
   2.23340267  3.86270839  1.99999610
   2.23129199  3.86140759  5.99400629
   3.06086102  2.69250559  4.02684882
   2.99645997  2.77944485  7.95303891
   4.71577767  3.86270839  1.99999610
   4.71560061  3.86266698  6.03400683
   5.54323602  2.69250559  4.02684882
   5.50050395  2.66509381  8.02712724
   7.19815267  3.86270839  1.99999610
   7.19991592  3.86404985  5.99390019
   8.02561102  2.69250559  4.02684882
   7.96146759  2.78245679  7.95534610
   9.68052767  3.86270839  1.99999610
   9.68036301  3.86273847  6.03328294
  10.50798602  2.69250559  4.02684882
  10.46483906  2.66086010  8.02314682
   3.06086098  6.20311399  1.99999610
   3.06180953  6.20251827  6.03464712
   3.88831933  5.03291119  4.02684882
   3.93032079  5.06009608  8.02723525
   5.54323598  6.20311399  1.99999610
   5.54423686  6.20519361  5.98696530
   6.37069433  5.03291119  4.02684882
   6.43456169  4.94571145  7.95293043
   8.02561098  6.20311399  1.99999610
   8.02790804  6.20432151  6.03183966
   8.85306933  5.03291119  4.02684882
   8.89549933  5.06479308  8.02320401
  10.50798598  6.20311399  1.99999610
  10.50990020  6.20479824  5.98470350
  11.33544433  5.03291119  4.02684882
  11.39911572  4.94298529  7.95517667
   3.88831929  8.54351960  1.99999610
   3.88679881  8.54169895  5.99591337
   4.71577764  7.37331680  4.02684882
   4.65126232  7.46069150  7.95691778
   6.37069429  8.54351960  1.99999610
   6.37051941  8.54348336  6.03256297
   7.19815264  7.37331680  4.02684882
   7.15592130  7.34474473  8.02468869
   8.85306929  8.54351960  1.99999610
   8.85420407  8.54543680  5.99585936
   9.68052764  7.37331680  4.02684882
   9.61644856  7.46386141  7.95368373
  11.33544429  8.54351960  1.99999610
  11.33525638  8.54354344  6.03570343
  12.16290264  7.37331680  4.02684882
  12.12013282  7.34179561  8.02704194
   3.88299358  1.51853852  8.98178740
   8.84669337  1.51861718  8.97715336
  10.51368002  6.20711070  8.97710428
   5.54353065  6.20398263  8.98188927
 


--------------------------------------------------------------------------------------------------------


 k-point  1 :   0.0000 0.0000 0.0000  plane waves:   52797
 k-point  2 :   0.3333 0.0000 0.0000  plane waves:   52741
 k-point  3 :   0.0000 0.3333 0.0000  plane waves:   52741
 k-point  4 :   0.3333 0.3333 0.0000  plane waves:   52754
 k-point  5 :  -0.3333 0.3333 0.0000  plane waves:   52703

 maximum and minimum number of plane-waves per node :      2214     2178

 maximum number of plane-waves:     52797
 maximum index in each direction: 
   IXMAX=   18   IYMAX=   18   IZMAX=   39
   IXMIN=  -18   IYMIN=  -18   IZMIN=  -39


 real space projection operators:
  total allocation   :      69507.69 KBytes
  max/ min on nodes  :       3515.47       2558.52


 parallel 3D FFT for wavefunctions:
    minimum data exchange during FFTs selected (reduces bandwidth)
 parallel 3D FFT for charge:
    minimum data exchange during FFTs selected (reduces bandwidth)


 total amount of memory used by VASP MPI-rank0   109542. kBytes
=======================================================================

   base      :      30000. kBytes
   nonlr-proj:      13411. kBytes
   fftplans  :       6401. kBytes
   grid      :      16455. kBytes
   one-center:         93. kBytes
   wavefun   :      43182. kBytes
 
     INWAV:  cpu time    9.9956: real time   10.3399
 Broyden mixing: mesh for mixing (old mesh)
   NGX = 37   NGY = 37   NGZ = 79
  (NGX  =160   NGY  =160   NGZ  =320)
  gives a total of 108151 points

 initial charge density was supplied:
 number of electron     536.0000173 magnetization     161.7583397
 keeping initial charge density in first step


--------------------------------------------------------------------------------------------------------


 Maximum index for non-local projection operator          801
 Maximum index for augmentation-charges         1219 (set IRDMAX)


--------------------------------------------------------------------------------------------------------


 First call to EWALD:  gamma=   0.142
 Maximum number of real-space cells 4x 4x 2
 Maximum number of reciprocal cells 2x 2x 4

    FEWALD:  cpu time    0.0033: real time    0.0033


--------------------------------------- Iteration      1(   1)  ---------------------------------------


    POTLOK:  cpu time    0.4148: real time    0.4215
    SETDIJ:  cpu time    0.0247: real time    0.0247
     EDDAV:  cpu time   35.1306: real time   35.1434
       DOS:  cpu time    0.0082: real time    0.0082
    CHARGE:  cpu time    1.1811: real time    1.1813
    MIXING:  cpu time    0.0063: real time    0.0063
    --------------------------------------------
      LOOP:  cpu time   36.7658: real time   36.7855

 eigenvalue-minimisations  :  7914
 total energy-change (2. order) :-0.5233144E+03  (-0.1039075E+03)
 number of electron     536.0000174 magnetization     161.4929617
 augmentation part      271.0898487 magnetization     129.7963264

 DIPCOR: dipole corrections for dipol
 direction  3 min pos   243,
 dipolmoment           0.000000      0.000000      0.169820 electrons x Angstroem
 Tr[quadrupol]     -8728.683003

 energy correction for charged system         0.000000 eV
 dipol+quadrupol energy correction           -0.001332 eV
 added-field ion interaction          1.822424 eV  (added to PSCEN)


 Broyden mixing:
  rms(total) = 0.57548E+00    rms(broyden)= 0.57546E+00
  rms(prec ) = 0.58342E+00
  weight for this iteration     100.00

 Free energy of the ion-electron system (eV)
  ---------------------------------------------------
  alpha Z        PSCENC =      1539.53301693
  Ewald energy   TEWEN  =    148211.73064899
  -Hartree energ DENC   =   -188172.61113465
  -exchange      EXHF   =         0.00000000
  -V(xc)+E(xc)   XCENC  =       393.33674923
  PAW double counting   =     46955.31703523   -47544.75556480
  entropy T*S    EENTRO =         0.09632332
  eigenvalues    EBANDS =     -1671.40501094
  atomic energy  EATOM  =     39765.44351111
  Solvation  Ediel_sol  =         0.00000000
  ---------------------------------------------------
  free energy    TOTEN  =      -523.31442557 eV

  energy without entropy =     -523.41074890  energy(sigma->0) =     -523.34653335


--------------------------------------------------------------------------------------------------------




--------------------------------------- Iteration      1(   2)  ---------------------------------------


    POTLOK:  cpu time    0.4170: real time    0.4280
    SETDIJ:  cpu time    0.0242: real time    0.0242
    EDDIAG:  cpu time    4.7924: real time    4.7986
  RMM-DIIS:  cpu time   17.9354: real time   17.9416
    ORTHCH:  cpu time    1.3115: real time    1.3119
       DOS:  cpu time    0.0083: real time    0.0083
    CHARGE:  cpu time    1.1792: real time    1.1793
    MIXING:  cpu time    0.0066: real time    0.0066
    --------------------------------------------
      LOOP:  cpu time   25.6746: real time   25.6986

 eigenvalue-minimisations  :  7342
 total energy-change (2. order) :-0.7464900E+01  (-0.6967746E+01)
 number of electron     536.0000171 magnetization     161.4526334
 augmentation part      268.8559090 magnetization     128.7520344

 DIPCOR: dipole corrections for dipol
 direction  3 min pos   242,
 dipolmoment           0.000000      0.000000      0.034000 electrons x Angstroem
 Tr[quadrupol]     -8728.656831

 energy correction for charged system         0.000000 eV
 dipol+quadrupol energy correction           -0.000053 eV
 added-field ion interaction          0.254000 eV  (added to PSCEN)


 Broyden mixing:
  rms(total) = 0.10545E+01    rms(broyden)= 0.10545E+01
  rms(prec ) = 0.12325E+01
  weight for this iteration     100.00

 eigenvalues of (default mixing * dielectric matrix)
  average eigenvalue GAMMA=   0.3305
  0.3305

 Free energy of the ion-electron system (eV)
  ---------------------------------------------------
  alpha Z        PSCENC =      1537.96587173
  Ewald energy   TEWEN  =    148211.73064899
  -Hartree energ DENC   =   -188199.36447661
  -exchange      EXHF   =         0.00000000
  -V(xc)+E(xc)   XCENC  =       392.87834535
  PAW double counting   =     47126.65558909   -47725.33740551
  entropy T*S    EENTRO =         0.09143755
  eigenvalues    EBANDS =     -1640.84284679
  atomic energy  EATOM  =     39765.44351111
  Solvation  Ediel_sol  =         0.00000000
  ---------------------------------------------------
  free energy    TOTEN  =      -530.77932510 eV

  energy without entropy =     -530.87076265  energy(sigma->0) =     -530.80980429


--------------------------------------------------------------------------------------------------------




--------------------------------------- Iteration      1(   3)  ---------------------------------------


    POTLOK:  cpu time    0.4167: real time    0.4273
    SETDIJ:  cpu time    0.0246: real time    0.0245
    EDDIAG:  cpu time    4.7850: real time    4.7866
  RMM-DIIS:  cpu time   20.5359: real time   20.5498
    ORTHCH:  cpu time    1.3033: real time    1.3036
       DOS:  cpu time    0.0086: real time    0.0086
    CHARGE:  cpu time    1.1758: real time    1.1760
    MIXING:  cpu time    0.0065: real time    0.0065
    --------------------------------------------
      LOOP:  cpu time   28.2563: real time   28.2827

 eigenvalue-minimisations  :  8490
 total energy-change (2. order) :-0.3546383E+01  (-0.2008469E+01)
 number of electron     536.0000179 magnetization     161.3594428
 augmentation part      267.8644692 magnetization     131.0846185

 DIPCOR: dipole corrections for dipol
 direction  3 min pos   238,
 dipolmoment           0.000000      0.000000      0.502207 electrons x Angstroem
 Tr[quadrupol]     -8729.004138

 energy correction for charged system         0.000000 eV
 dipol+quadrupol energy correction           -0.011646 eV
 added-field ion interaction         -2.798838 eV  (added to PSCEN)


 Broyden mixing:
  rms(total) = 0.17819E+01    rms(broyden)= 0.17818E+01
  rms(prec ) = 0.25244E+01
  weight for this iteration     100.00

 eigenvalues of (default mixing * dielectric matrix)
  average eigenvalue GAMMA=   0.1974
  0.3196  0.0752

 Free energy of the ion-electron system (eV)
  ---------------------------------------------------
  alpha Z        PSCENC =      1534.90144055
  Ewald energy   TEWEN  =    148211.73064899
  -Hartree energ DENC   =   -188207.24257100
  -exchange      EXHF   =         0.00000000
  -V(xc)+E(xc)   XCENC  =       392.70092049
  PAW double counting   =     47107.78522669   -47703.57226708
  entropy T*S    EENTRO =         0.02736018
  eigenvalues    EBANDS =     -1636.09997791
  atomic energy  EATOM  =     39765.44351111
  Solvation  Ediel_sol  =         0.00000000
  ---------------------------------------------------
  free energy    TOTEN  =      -534.32570799 eV

  energy without entropy =     -534.35306816  energy(sigma->0) =     -534.33482805


--------------------------------------------------------------------------------------------------------




--------------------------------------- Iteration      1(   4)  ---------------------------------------


    POTLOK:  cpu time    0.4190: real time    0.4314
    SETDIJ:  cpu time    0.0241: real time    0.0241
    EDDIAG:  cpu time    4.7910: real time    4.7924
  RMM-DIIS:  cpu time   19.5900: real time   19.5996
    ORTHCH:  cpu time    1.3036: real time    1.3038
       DOS:  cpu time    0.0084: real time    0.0084
    CHARGE:  cpu time    1.1800: real time    1.1802
    MIXING:  cpu time    0.0089: real time    0.0089
    --------------------------------------------
      LOOP:  cpu time   27.3250: real time   27.3488

 eigenvalue-minimisations  :  8036
 total energy-change (2. order) : 0.2295733E+01  (-0.3642682E+00)
 number of electron     536.0000170 magnetization     161.3088553
 augmentation part      268.5917204 magnetization     129.0319524

 DIPCOR: dipole corrections for dipol
 direction  3 min pos   243,
 dipolmoment           0.000000      0.000000      0.124590 electrons x Angstroem
 Tr[quadrupol]     -8728.901644

 energy correction for charged system         0.000000 eV
 dipol+quadrupol energy correction           -0.000717 eV
 added-field ion interaction          1.337037 eV  (added to PSCEN)


 Broyden mixing:
  rms(total) = 0.51255E+00    rms(broyden)= 0.51244E+00
  rms(prec ) = 0.54693E+00
  weight for this iteration     100.00

 eigenvalues of (default mixing * dielectric matrix)
  average eigenvalue GAMMA=   0.2269
  0.2994  0.2994  0.0821

 Free energy of the ion-electron system (eV)
  ---------------------------------------------------
  alpha Z        PSCENC =      1539.04824470
  Ewald energy   TEWEN  =    148211.73064899
  -Hartree energ DENC   =   -188193.63993329
  -exchange      EXHF   =         0.00000000
  -V(xc)+E(xc)   XCENC  =       391.97529949
  PAW double counting   =     47086.14140121   -47680.15914481
  entropy T*S    EENTRO =         0.09557408
  eigenvalues    EBANDS =     -1652.66557678
  atomic energy  EATOM  =     39765.44351111
  Solvation  Ediel_sol  =         0.00000000
  ---------------------------------------------------
  free energy    TOTEN  =      -532.02997530 eV

  energy without entropy =     -532.12554938  energy(sigma->0) =     -532.06183333


--------------------------------------------------------------------------------------------------------




--------------------------------------- Iteration      1(   5)  ---------------------------------------


    POTLOK:  cpu time    0.4186: real time    0.4302
    SETDIJ:  cpu time    0.0242: real time    0.0242
    EDDIAG:  cpu time    4.7807: real time    4.7821
  RMM-DIIS:  cpu time   20.0973: real time   20.1066
    ORTHCH:  cpu time    1.3080: real time    1.3082
       DOS:  cpu time    0.0085: real time    0.0085
    CHARGE:  cpu time    1.1768: real time    1.1770
    MIXING:  cpu time    0.0067: real time    0.0067
    --------------------------------------------
      LOOP:  cpu time   27.8208: real time   27.8434

 eigenvalue-minimisations  :  8289
 total energy-change (2. order) :-0.2103428E-01  (-0.1455931E+00)
 number of electron     536.0000174 magnetization     161.2086539
 augmentation part      268.7968744 magnetization     128.9974474

 DIPCOR: dipole corrections for dipol
 direction  3 min pos   239,
 dipolmoment           0.000000      0.000000      0.171218 electrons x Angstroem
 Tr[quadrupol]     -8728.513336

 energy correction for charged system         0.000000 eV
 dipol+quadrupol energy correction           -0.001354 eV
 added-field ion interaction         -0.395884 eV  (added to PSCEN)


 Broyden mixing:
  rms(total) = 0.42648E+00    rms(broyden)= 0.42647E+00
  rms(prec ) = 0.46463E+00
  weight for this iteration     100.00

 eigenvalues of (default mixing * dielectric matrix)
  average eigenvalue GAMMA=   0.3070
  0.4952  0.4952  0.0768  0.1608

 Free energy of the ion-electron system (eV)
  ---------------------------------------------------
  alpha Z        PSCENC =      1537.31468667
  Ewald energy   TEWEN  =    148211.73064899
  -Hartree energ DENC   =   -188181.54885469
  -exchange      EXHF   =         0.00000000
  -V(xc)+E(xc)   XCENC  =       391.80454678
  PAW double counting   =     47066.57283598   -47659.32357253
  entropy T*S    EENTRO =         0.09873880
  eigenvalues    EBANDS =     -1664.14355068
  atomic energy  EATOM  =     39765.44351111
  Solvation  Ediel_sol  =         0.00000000
  ---------------------------------------------------
  free energy    TOTEN  =      -532.05100958 eV

  energy without entropy =     -532.14974839  energy(sigma->0) =     -532.08392252


--------------------------------------------------------------------------------------------------------




--------------------------------------- Iteration      1(   6)  ---------------------------------------


    POTLOK:  cpu time    0.4177: real time    0.4310
    SETDIJ:  cpu time    0.0243: real time    0.0243
    EDDIAG:  cpu time    4.7792: real time    4.7808
  RMM-DIIS:  cpu time   19.5083: real time   19.5181
    ORTHCH:  cpu time    1.3119: real time    1.3120
       DOS:  cpu time    0.0085: real time    0.0085
    CHARGE:  cpu time    1.1775: real time    1.1776
    MIXING:  cpu time    0.0069: real time    0.0069
    --------------------------------------------
      LOOP:  cpu time   27.2343: real time   27.2593

 eigenvalue-minimisations  :  8045
 total energy-change (2. order) : 0.1776588E-01  (-0.8165296E-01)
 number of electron     536.0000172 magnetization     161.1240496
 augmentation part      269.0965637 magnetization     128.8389786

 DIPCOR: dipole corrections for dipol
 direction  3 min pos   238,
 dipolmoment           0.000000      0.000000      0.147296 electrons x Angstroem
 Tr[quadrupol]     -8728.567314

 energy correction for charged system         0.000000 eV
 dipol+quadrupol energy correction           -0.001002 eV
 added-field ion interaction         -0.820894 eV  (added to PSCEN)


 Broyden mixing:
  rms(total) = 0.25944E+00    rms(broyden)= 0.25943E+00
  rms(prec ) = 0.26320E+00
  weight for this iteration     100.00

 eigenvalues of (default mixing * dielectric matrix)
  average eigenvalue GAMMA=   0.3719
  0.6232  0.6232  0.3752  0.1610  0.0767

 Free energy of the ion-electron system (eV)
  ---------------------------------------------------
  alpha Z        PSCENC =      1536.89002916
  Ewald energy   TEWEN  =    148211.73064899
  -Hartree energ DENC   =   -188177.53484447
  -exchange      EXHF   =         0.00000000
  -V(xc)+E(xc)   XCENC  =       391.60700007
  PAW double counting   =     47028.55210611   -47619.30365447
  entropy T*S    EENTRO =         0.08943691
  eigenvalues    EBANDS =     -1669.50747710
  atomic energy  EATOM  =     39765.44351111
  Solvation  Ediel_sol  =         0.00000000
  ---------------------------------------------------
  free energy    TOTEN  =      -532.03324370 eV

  energy without entropy =     -532.12268061  energy(sigma->0) =     -532.06305600


--------------------------------------------------------------------------------------------------------




--------------------------------------- Iteration      1(   7)  ---------------------------------------


    POTLOK:  cpu time    0.4205: real time    0.4334
    SETDIJ:  cpu time    0.0241: real time    0.0241
    EDDIAG:  cpu time    4.7694: real time    4.7706
  RMM-DIIS:  cpu time   20.6002: real time   20.6109
    ORTHCH:  cpu time    1.3079: real time    1.3082
       DOS:  cpu time    0.0083: real time    0.0083
    CHARGE:  cpu time    1.1790: real time    1.1792
    MIXING:  cpu time    0.0070: real time    0.0070
    --------------------------------------------
      LOOP:  cpu time   28.3166: real time   28.3418

 eigenvalue-minimisations  :  8528
 total energy-change (2. order) :-0.2991943E-01  (-0.5423554E-01)
 number of electron     536.0000173 magnetization     161.0161216
 augmentation part      269.2326100 magnetization     128.6887403

 DIPCOR: dipole corrections for dipol
 direction  3 min pos   236,
 dipolmoment           0.000000      0.000000      0.151607 electrons x Angstroem
 Tr[quadrupol]     -8728.512300

 energy correction for charged system         0.000000 eV
 dipol+quadrupol energy correction           -0.001061 eV
 added-field ion interaction         -1.833677 eV  (added to PSCEN)


 Broyden mixing:
  rms(total) = 0.23356E+00    rms(broyden)= 0.23356E+00
  rms(prec ) = 0.23931E+00
  weight for this iteration     100.00

 eigenvalues of (default mixing * dielectric matrix)
  average eigenvalue GAMMA=   0.4188
  0.8026  0.8026  0.4614  0.0766  0.1699  0.1994

 Free energy of the ion-electron system (eV)
  ---------------------------------------------------
  alpha Z        PSCENC =      1535.87718673
  Ewald energy   TEWEN  =    148211.73064899
  -Hartree energ DENC   =   -188175.76453131
  -exchange      EXHF   =         0.00000000
  -V(xc)+E(xc)   XCENC  =       391.52017495
  PAW double counting   =     47007.89287663   -47597.98613758
  entropy T*S    EENTRO =         0.08873153
  eigenvalues    EBANDS =     -1670.86562418
  atomic energy  EATOM  =     39765.44351111
  Solvation  Ediel_sol  =         0.00000000
  ---------------------------------------------------
  free energy    TOTEN  =      -532.06316313 eV

  energy without entropy =     -532.15189466  energy(sigma->0) =     -532.09274031


--------------------------------------------------------------------------------------------------------




--------------------------------------- Iteration      1(   8)  ---------------------------------------


    POTLOK:  cpu time    0.4163: real time    0.4284
    SETDIJ:  cpu time    0.0242: real time    0.0242
    EDDIAG:  cpu time    4.7735: real time    4.7749
  RMM-DIIS:  cpu time   18.8568: real time   18.8678
    ORTHCH:  cpu time    1.3056: real time    1.3058
       DOS:  cpu time    0.0083: real time    0.0083
    CHARGE:  cpu time    1.1767: real time    1.1768
    MIXING:  cpu time    0.0072: real time    0.0072
    --------------------------------------------
      LOOP:  cpu time   26.5686: real time   26.5934

 eigenvalue-minimisations  :  7747
 total energy-change (2. order) :-0.2697336E-01  (-0.3791206E-01)
 number of electron     536.0000173 magnetization     160.8095082
 augmentation part      269.2054226 magnetization     128.6384321

 DIPCOR: dipole corrections for dipol
 direction  3 min pos   241,
 dipolmoment           0.000000      0.000000      0.171744 electrons x Angstroem
 Tr[quadrupol]     -8728.753229

 energy correction for charged system         0.000000 eV
 dipol+quadrupol energy correction           -0.001362 eV
 added-field ion interaction          0.722987 eV  (added to PSCEN)


 Broyden mixing:
  rms(total) = 0.22391E+00    rms(broyden)= 0.22391E+00
  rms(prec ) = 0.25517E+00
  weight for this iteration     100.00

 eigenvalues of (default mixing * dielectric matrix)
  average eigenvalue GAMMA=   0.4785
  0.9978  0.9978  0.4712  0.4712  0.0767  0.1572  0.1776

 Free energy of the ion-electron system (eV)
  ---------------------------------------------------
  alpha Z        PSCENC =      1538.43354983
  Ewald energy   TEWEN  =    148211.73064899
  -Hartree energ DENC   =   -188179.42332500
  -exchange      EXHF   =         0.00000000
  -V(xc)+E(xc)   XCENC  =       391.55555851
  PAW double counting   =     46986.02529116   -47575.66824799
  entropy T*S    EENTRO =         0.09237956
  eigenvalues    EBANDS =     -1670.27950266
  atomic energy  EATOM  =     39765.44351111
  Solvation  Ediel_sol  =         0.00000000
  ---------------------------------------------------
  free energy    TOTEN  =      -532.09013649 eV

  energy without entropy =     -532.18251605  energy(sigma->0) =     -532.12092967


--------------------------------------------------------------------------------------------------------




--------------------------------------- Iteration      1(   9)  ---------------------------------------


    POTLOK:  cpu time    0.4192: real time    0.4313
    SETDIJ:  cpu time    0.0242: real time    0.0242
    EDDIAG:  cpu time    4.7764: real time    4.7776
  RMM-DIIS:  cpu time   18.3019: real time   18.3118
    ORTHCH:  cpu time    1.3031: real time    1.3033
       DOS:  cpu time    0.0083: real time    0.0083
    CHARGE:  cpu time    1.1759: real time    1.1761
    MIXING:  cpu time    0.0074: real time    0.0074
    --------------------------------------------
      LOOP:  cpu time   26.0165: real time   26.0399

 eigenvalue-minimisations  :  7578
 total energy-change (2. order) :-0.7050452E-02  (-0.2713943E-01)
 number of electron     536.0000173 magnetization     160.6248547
 augmentation part      269.3112931 magnetization     128.3398308

 DIPCOR: dipole corrections for dipol
 direction  3 min pos   241,
 dipolmoment           0.000000      0.000000      0.169966 electrons x Angstroem
 Tr[quadrupol]     -8728.738622

 energy correction for charged system         0.000000 eV
 dipol+quadrupol energy correction           -0.001334 eV
 added-field ion interaction          0.715499 eV  (added to PSCEN)


 Broyden mixing:
  rms(total) = 0.17583E+00    rms(broyden)= 0.17583E+00
  rms(prec ) = 0.19186E+00
  weight for this iteration     100.00

 eigenvalues of (default mixing * dielectric matrix)
  average eigenvalue GAMMA=   0.4904
  1.1501  1.1501  0.4861  0.4861  0.0767  0.2327  0.1564  0.1852

 Free energy of the ion-electron system (eV)
  ---------------------------------------------------
  alpha Z        PSCENC =      1538.42609001
  Ewald energy   TEWEN  =    148211.73064899
  -Hartree energ DENC   =   -188178.88653841
  -exchange      EXHF   =         0.00000000
  -V(xc)+E(xc)   XCENC  =       391.57408542
  PAW double counting   =     46951.05614568   -47539.79194310
  entropy T*S    EENTRO =         0.09012544
  eigenvalues    EBANDS =     -1671.73931207
  atomic energy  EATOM  =     39765.44351111
  Solvation  Ediel_sol  =         0.00000000
  ---------------------------------------------------
  free energy    TOTEN  =      -532.09718694 eV

  energy without entropy =     -532.18731238  energy(sigma->0) =     -532.12722875


--------------------------------------------------------------------------------------------------------




--------------------------------------- Iteration      1(  10)  ---------------------------------------


    POTLOK:  cpu time    0.4187: real time    0.4301
    SETDIJ:  cpu time    0.0241: real time    0.0241
    EDDIAG:  cpu time    4.7727: real time    4.7738
  RMM-DIIS:  cpu time   18.0681: real time   18.0740
    ORTHCH:  cpu time    1.3057: real time    1.3060
       DOS:  cpu time    0.0082: real time    0.0082
    CHARGE:  cpu time    1.1778: real time    1.1823
    MIXING:  cpu time    0.0075: real time    0.0075
    --------------------------------------------
      LOOP:  cpu time   25.7829: real time   25.8059

 eigenvalue-minimisations  :  7445
 total energy-change (2. order) :-0.9941949E-02  (-0.2328127E-01)
 number of electron     536.0000173 magnetization     160.3090806
 augmentation part      269.3511946 magnetization     128.0700641

 DIPCOR: dipole corrections for dipol
 direction  3 min pos   243,
 dipolmoment           0.000000      0.000000      0.168492 electrons x Angstroem
 Tr[quadrupol]     -8728.872787

 energy correction for charged system         0.000000 eV
 dipol+quadrupol energy correction           -0.001311 eV
 added-field ion interaction          1.808175 eV  (added to PSCEN)


 Broyden mixing:
  rms(total) = 0.11032E+00    rms(broyden)= 0.11032E+00
  rms(prec ) = 0.11939E+00
  weight for this iteration     100.00

 eigenvalues of (default mixing * dielectric matrix)
  average eigenvalue GAMMA=   0.5658
  1.3805  1.3805  0.6197  0.6197  0.5071  0.0767  0.1864  0.1553  0.1661

 Free energy of the ion-electron system (eV)
  ---------------------------------------------------
  alpha Z        PSCENC =      1539.51878865
  Ewald energy   TEWEN  =    148211.73064899
  -Hartree energ DENC   =   -188181.29345388
  -exchange      EXHF   =         0.00000000
  -V(xc)+E(xc)   XCENC  =       391.60932301
  PAW double counting   =     46922.61104913   -47510.60397219
  entropy T*S    EENTRO =         0.08751403
  eigenvalues    EBANDS =     -1671.21053774
  atomic energy  EATOM  =     39765.44351111
  Solvation  Ediel_sol  =         0.00000000
  ---------------------------------------------------
  free energy    TOTEN  =      -532.10712889 eV

  energy without entropy =     -532.19464292  energy(sigma->0) =     -532.13630023


--------------------------------------------------------------------------------------------------------




--------------------------------------- Iteration      1(  11)  ---------------------------------------


    POTLOK:  cpu time    0.4172: real time    0.4290
    SETDIJ:  cpu time    0.0244: real time    0.0244
    EDDIAG:  cpu time    4.7686: real time    4.7698
  RMM-DIIS:  cpu time   18.8740: real time   18.8799
    ORTHCH:  cpu time    1.3094: real time    1.3096
       DOS:  cpu time    0.0085: real time    0.0085
    CHARGE:  cpu time    1.1827: real time    1.1830
    MIXING:  cpu time    0.0079: real time    0.0079
    --------------------------------------------
      LOOP:  cpu time   26.5926: real time   26.6120

 eigenvalue-minimisations  :  7779
 total energy-change (2. order) :-0.1686982E-01  (-0.1971383E-01)
 number of electron     536.0000172 magnetization     160.2001599
 augmentation part      269.5110185 magnetization     127.9602654

 DIPCOR: dipole corrections for dipol
 direction  3 min pos   243,
 dipolmoment           0.000000      0.000000      0.166205 electrons x Angstroem
 Tr[quadrupol]     -8728.930672

 energy correction for charged system         0.000000 eV
 dipol+quadrupol energy correction           -0.001276 eV
 added-field ion interaction          1.783624 eV  (added to PSCEN)


 Broyden mixing:
  rms(total) = 0.57595E-01    rms(broyden)= 0.57592E-01
  rms(prec ) = 0.60452E-01
  weight for this iteration     100.00

 eigenvalues of (default mixing * dielectric matrix)
  average eigenvalue GAMMA=   0.5669
  1.9293  0.9428  0.6374  0.6374  0.5130  0.4099  0.0767  0.1561  0.1917  0.1744

 Free energy of the ion-electron system (eV)
  ---------------------------------------------------
  alpha Z        PSCENC =      1539.49427355
  Ewald energy   TEWEN  =    148211.73064899
  -Hartree energ DENC   =   -188180.99792145
  -exchange      EXHF   =         0.00000000
  -V(xc)+E(xc)   XCENC  =       391.44925420
  PAW double counting   =     46879.05496718   -47465.51187429
  entropy T*S    EENTRO =         0.08298774
  eigenvalues    EBANDS =     -1672.86984574
  atomic energy  EATOM  =     39765.44351111
  Solvation  Ediel_sol  =         0.00000000
  ---------------------------------------------------
  free energy    TOTEN  =      -532.12399871 eV

  energy without entropy =     -532.20698645  energy(sigma->0) =     -532.15166129


--------------------------------------------------------------------------------------------------------




--------------------------------------- Iteration      1(  12)  ---------------------------------------


    POTLOK:  cpu time    0.4173: real time    0.4309
    SETDIJ:  cpu time    0.0242: real time    0.0242
    EDDIAG:  cpu time    4.7982: real time    4.8037
  RMM-DIIS:  cpu time   19.7796: real time   19.7854
    ORTHCH:  cpu time    1.3009: real time    1.3011
       DOS:  cpu time    0.0084: real time    0.0083
    CHARGE:  cpu time    1.1773: real time    1.1775
    MIXING:  cpu time    0.0080: real time    0.0080
    --------------------------------------------
      LOOP:  cpu time   27.5137: real time   27.5391

 eigenvalue-minimisations  :  8116
 total energy-change (2. order) :-0.2337320E-01  (-0.1377047E-01)
 number of electron     536.0000172 magnetization     160.0437694
 augmentation part      269.5716840 magnetization     127.8265042

 DIPCOR: dipole corrections for dipol
 direction  3 min pos   243,
 dipolmoment           0.000000      0.000000      0.166514 electrons x Angstroem
 Tr[quadrupol]     -8728.942085

 energy correction for charged system         0.000000 eV
 dipol+quadrupol energy correction           -0.001280 eV
 added-field ion interaction          1.786942 eV  (added to PSCEN)


 Broyden mixing:
  rms(total) = 0.64877E-01    rms(broyden)= 0.64874E-01
  rms(prec ) = 0.68651E-01
  weight for this iteration     100.00

 eigenvalues of (default mixing * dielectric matrix)
  average eigenvalue GAMMA=   0.6119
  2.3328  0.8967  0.8967  0.6367  0.6367  0.5519  0.0767  0.1562  0.1703  0.1881
  0.1881

 Free energy of the ion-electron system (eV)
  ---------------------------------------------------
  alpha Z        PSCENC =      1539.49758699
  Ewald energy   TEWEN  =    148211.73064899
  -Hartree energ DENC   =   -188180.76937443
  -exchange      EXHF   =         0.00000000
  -V(xc)+E(xc)   XCENC  =       391.37920632
  PAW double counting   =     46870.39476455   -47456.51077164
  entropy T*S    EENTRO =         0.07969413
  eigenvalues    EBANDS =     -1673.39263793
  atomic energy  EATOM  =     39765.44351111
  Solvation  Ediel_sol  =         0.00000000
  ---------------------------------------------------
  free energy    TOTEN  =      -532.14737191 eV

  energy without entropy =     -532.22706604  energy(sigma->0) =     -532.17393662


--------------------------------------------------------------------------------------------------------




--------------------------------------- Iteration      1(  13)  ---------------------------------------


    POTLOK:  cpu time    0.4154: real time    0.4279
    SETDIJ:  cpu time    0.0242: real time    0.0242
    EDDIAG:  cpu time    4.7897: real time    4.7951
  RMM-DIIS:  cpu time   18.7345: real time   18.7399
    ORTHCH:  cpu time    1.3048: real time    1.3051
       DOS:  cpu time    0.0084: real time    0.0084
    CHARGE:  cpu time    1.1760: real time    1.1762
    MIXING:  cpu time    0.0084: real time    0.0084
    --------------------------------------------
      LOOP:  cpu time   26.4615: real time   26.4852

 eigenvalue-minimisations  :  7708
 total energy-change (2. order) :-0.3104862E-01  (-0.7732881E-02)
 number of electron     536.0000172 magnetization     159.9406789
 augmentation part      269.6080613 magnetization     127.7346720

 DIPCOR: dipole corrections for dipol
 direction  3 min pos   242,
 dipolmoment           0.000000      0.000000      0.170356 electrons x Angstroem
 Tr[quadrupol]     -8728.921128

 energy correction for charged system         0.000000 eV
 dipol+quadrupol energy correction           -0.001340 eV
 added-field ion interaction          1.272658 eV  (added to PSCEN)


 Broyden mixing:
  rms(total) = 0.53425E-01    rms(broyden)= 0.53424E-01
  rms(prec ) = 0.54171E-01
  weight for this iteration     100.00

 eigenvalues of (default mixing * dielectric matrix)
  average eigenvalue GAMMA=   0.6222
  2.2687  0.9670  0.9670  0.6684  0.6684  0.5744  0.5744  0.0767  0.1557  0.1936
  0.1812  0.1709

 Free energy of the ion-electron system (eV)
  ---------------------------------------------------
  alpha Z        PSCENC =      1538.98324258
  Ewald energy   TEWEN  =    148211.73064899
  -Hartree energ DENC   =   -188180.36988907
  -exchange      EXHF   =         0.00000000
  -V(xc)+E(xc)   XCENC  =       391.30079285
  PAW double counting   =     46864.04904678   -47449.87629954
  entropy T*S    EENTRO =         0.07956618
  eigenvalues    EBANDS =     -1673.51904040
  atomic energy  EATOM  =     39765.44351111
  Solvation  Ediel_sol  =         0.00000000
  ---------------------------------------------------
  free energy    TOTEN  =      -532.17842052 eV

  energy without entropy =     -532.25798671  energy(sigma->0) =     -532.20494258


--------------------------------------------------------------------------------------------------------




--------------------------------------- Iteration      1(  14)  ---------------------------------------


    POTLOK:  cpu time    0.4178: real time    0.4301
    SETDIJ:  cpu time    0.0243: real time    0.0243
    EDDIAG:  cpu time    4.7866: real time    4.7879
  RMM-DIIS:  cpu time   18.6457: real time   18.6561
    ORTHCH:  cpu time    1.3006: real time    1.3008
       DOS:  cpu time    0.0084: real time    0.0084
    CHARGE:  cpu time    1.1769: real time    1.1770
    MIXING:  cpu time    0.0083: real time    0.0083
    --------------------------------------------
      LOOP:  cpu time   26.3686: real time   26.3929

 eigenvalue-minimisations  :  7678
 total energy-change (2. order) :-0.4343091E-01  (-0.5825328E-02)
 number of electron     536.0000172 magnetization     159.8515206
 augmentation part      269.5873371 magnetization     127.6641180

 DIPCOR: dipole corrections for dipol
 direction  3 min pos   241,
 dipolmoment           0.000000      0.000000      0.170653 electrons x Angstroem
 Tr[quadrupol]     -8728.904177

 energy correction for charged system         0.000000 eV
 dipol+quadrupol energy correction           -0.001345 eV
 added-field ion interaction          0.718392 eV  (added to PSCEN)


 Broyden mixing:
  rms(total) = 0.50760E-01    rms(broyden)= 0.50759E-01
  rms(prec ) = 0.52837E-01
  weight for this iteration     100.00

 eigenvalues of (default mixing * dielectric matrix)
  average eigenvalue GAMMA=   0.6223
  2.2043  1.0304  1.0304  0.9036  0.6622  0.6622  0.5647  0.0767  0.2509  0.1559
  0.1988  0.1702  0.1802

 Free energy of the ion-electron system (eV)
  ---------------------------------------------------
  alpha Z        PSCENC =      1538.42897191
  Ewald energy   TEWEN  =    148211.73064899
  -Hartree energ DENC   =   -188181.06390174
  -exchange      EXHF   =         0.00000000
  -V(xc)+E(xc)   XCENC  =       391.32406111
  PAW double counting   =     46870.68107482   -47456.68745849
  entropy T*S    EENTRO =         0.07879382
  eigenvalues    EBANDS =     -1672.15755297
  atomic energy  EATOM  =     39765.44351111
  Solvation  Ediel_sol  =         0.00000000
  ---------------------------------------------------
  free energy    TOTEN  =      -532.22185143 eV

  energy without entropy =     -532.30064525  energy(sigma->0) =     -532.24811604


--------------------------------------------------------------------------------------------------------




--------------------------------------- Iteration      1(  15)  ---------------------------------------


    POTLOK:  cpu time    0.4199: real time    0.4324
    SETDIJ:  cpu time    0.0242: real time    0.0242
    EDDIAG:  cpu time    4.7824: real time    4.7835
  RMM-DIIS:  cpu time   18.1133: real time   18.1251
    ORTHCH:  cpu time    1.2997: real time    1.2999
       DOS:  cpu time    0.0086: real time    0.0086
    CHARGE:  cpu time    1.1773: real time    1.1775
    MIXING:  cpu time    0.0087: real time    0.0087
    --------------------------------------------
      LOOP:  cpu time   25.8342: real time   25.8599

 eigenvalue-minimisations  :  7454
 total energy-change (2. order) :-0.3895730E-01  (-0.4181159E-02)
 number of electron     536.0000172 magnetization     159.7045146
 augmentation part      269.5636019 magnetization     127.5399914

 DIPCOR: dipole corrections for dipol
 direction  3 min pos   240,
 dipolmoment           0.000000      0.000000      0.171542 electrons x Angstroem
 Tr[quadrupol]     -8728.888249

 energy correction for charged system         0.000000 eV
 dipol+quadrupol energy correction           -0.001359 eV
 added-field ion interaction          0.162751 eV  (added to PSCEN)


 Broyden mixing:
  rms(total) = 0.36750E-01    rms(broyden)= 0.36749E-01
  rms(prec ) = 0.38288E-01
  weight for this iteration     100.00

 eigenvalues of (default mixing * dielectric matrix)
  average eigenvalue GAMMA=   0.7292
  2.9776  1.4533  1.4533  0.7217  0.7217  0.6740  0.6740  0.5659  0.0767  0.1558
  0.1705  0.1841  0.1900  0.1900

 Free energy of the ion-electron system (eV)
  ---------------------------------------------------
  alpha Z        PSCENC =      1537.87331719
  Ewald energy   TEWEN  =    148211.73064899
  -Hartree energ DENC   =   -188181.64195445
  -exchange      EXHF   =         0.00000000
  -V(xc)+E(xc)   XCENC  =       391.34044694
  PAW double counting   =     46876.95382970   -47463.11711772
  entropy T*S    EENTRO =         0.08017514
  eigenvalues    EBANDS =     -1670.92366563
  atomic energy  EATOM  =     39765.44351111
  Solvation  Ediel_sol  =         0.00000000
  ---------------------------------------------------
  free energy    TOTEN  =      -532.26080873 eV

  energy without entropy =     -532.34098388  energy(sigma->0) =     -532.28753378


--------------------------------------------------------------------------------------------------------




--------------------------------------- Iteration      1(  16)  ---------------------------------------


    POTLOK:  cpu time    0.4189: real time    0.4309
    SETDIJ:  cpu time    0.0241: real time    0.0241
    EDDIAG:  cpu time    4.7832: real time    4.7844
  RMM-DIIS:  cpu time   18.1201: real time   18.1303
    ORTHCH:  cpu time    1.3012: real time    1.3014
       DOS:  cpu time    0.0084: real time    0.0084
    CHARGE:  cpu time    1.1770: real time    1.1773
    MIXING:  cpu time    0.0089: real time    0.0089
    --------------------------------------------
      LOOP:  cpu time   25.8419: real time   25.8658

 eigenvalue-minimisations  :  7506
 total energy-change (2. order) :-0.5791217E-01  (-0.3145902E-02)
 number of electron     536.0000172 magnetization     159.6393958
 augmentation part      269.5463004 magnetization     127.5294828

 DIPCOR: dipole corrections for dipol
 direction  3 min pos   238,
 dipolmoment           0.000000      0.000000      0.174446 electrons x Angstroem
 Tr[quadrupol]     -8728.847909

 energy correction for charged system         0.000000 eV
 dipol+quadrupol energy correction           -0.001405 eV
 added-field ion interaction         -0.972199 eV  (added to PSCEN)


 Broyden mixing:
  rms(total) = 0.38549E-01    rms(broyden)= 0.38548E-01
  rms(prec ) = 0.41427E-01
  weight for this iteration     100.00

 eigenvalues of (default mixing * dielectric matrix)
  average eigenvalue GAMMA=   0.7465
  3.5300  1.5450  1.5450  0.7718  0.7718  0.6470  0.6470  0.5507  0.0767  0.2125
  0.2125  0.1558  0.1868  0.1709  0.1739

 Free energy of the ion-electron system (eV)
  ---------------------------------------------------
  alpha Z        PSCENC =      1536.73832043
  Ewald energy   TEWEN  =    148211.73064899
  -Hartree energ DENC   =   -188181.74647239
  -exchange      EXHF   =         0.00000000
  -V(xc)+E(xc)   XCENC  =       391.31849534
  PAW double counting   =     46883.13008187   -47469.36010132
  entropy T*S    EENTRO =         0.08186689
  eigenvalues    EBANDS =     -1669.65507183
  atomic energy  EATOM  =     39765.44351111
  Solvation  Ediel_sol  =         0.00000000
  ---------------------------------------------------
  free energy    TOTEN  =      -532.31872091 eV

  energy without entropy =     -532.40058780  energy(sigma->0) =     -532.34600987


--------------------------------------------------------------------------------------------------------




--------------------------------------- Iteration      1(  17)  ---------------------------------------


    POTLOK:  cpu time    0.4176: real time    0.4306
    SETDIJ:  cpu time    0.0244: real time    0.0243
    EDDIAG:  cpu time    4.7938: real time    4.7954
  RMM-DIIS:  cpu time   18.1861: real time   18.1973
    ORTHCH:  cpu time    1.3040: real time    1.3043
       DOS:  cpu time    0.0082: real time    0.0082
    CHARGE:  cpu time    1.1910: real time    1.1912
    MIXING:  cpu time    0.0094: real time    0.0094
    --------------------------------------------
[...]
   -.155E+00 0.282E+00 -.500E+03   0.159E+00 -.280E+00 0.500E+03   -.462E-02 0.109E-02 0.487E+00   -.282E-02 -.293E-02 0.367E-01
   0.191E+00 0.208E+00 0.721E+03   -.243E+00 -.254E+00 -.721E+03   0.278E-01 0.194E-01 -.544E+00   0.274E-02 0.941E-02 0.772E-02
   0.477E+02 0.339E+02 -.176E+04   -.499E+02 -.355E+02 0.175E+04   0.215E+01 0.154E+01 0.424E+01   0.567E-02 -.149E-01 0.135E-01
   0.251E-01 0.113E-01 0.191E+04   -.276E-01 -.276E-01 -.190E+04   -.500E-03 -.673E-03 -.337E+01   0.316E-02 0.165E-01 -.213E-01
   0.152E+00 0.385E+00 -.466E+03   -.152E+00 -.384E+00 0.465E+03   -.522E-02 -.735E-02 0.128E+01   0.694E-03 -.438E-02 0.347E-01
   -.165E+00 0.567E+00 0.725E+03   0.156E+00 -.582E+00 -.726E+03   0.104E-01 -.115E-01 -.362E+00   0.583E-02 0.160E-01 0.843E-02
   -.578E+02 0.815E+02 -.168E+04   0.592E+02 -.835E+02 0.168E+04   -.141E+01 0.200E+01 0.216E+01   -.164E-01 -.134E-01 0.110E-01
   0.153E-01 -.117E-01 0.191E+04   -.200E-01 -.826E-03 -.190E+04   0.444E-03 -.590E-03 -.334E+01   0.439E-02 0.127E-01 -.118E-01
   0.199E+00 0.959E-01 -.499E+03   -.210E+00 -.956E-01 0.499E+03   -.718E-02 -.344E-02 0.493E+00   0.831E-02 0.372E-04 0.158E-01
   0.239E+00 0.219E+00 0.722E+03   -.300E+00 -.267E+00 -.721E+03   0.307E-01 0.206E-01 -.546E+00   0.950E-02 0.122E-01 0.567E-02
   0.472E+02 0.339E+02 -.176E+04   -.494E+02 -.355E+02 0.175E+04   0.218E+01 0.154E+01 0.425E+01   0.588E-03 -.591E-02 0.708E-02
   -.193E-01 -.221E-01 0.191E+04   0.251E-01 0.103E-01 -.190E+04   -.159E-04 -.101E-02 -.337E+01   -.554E-02 0.123E-01 -.150E-01
   0.309E-01 0.276E+00 -.466E+03   -.292E-01 -.280E+00 0.464E+03   -.402E-02 -.156E-02 0.129E+01   -.567E-02 -.317E-02 0.234E-01
   -.510E+00 0.515E+00 0.726E+03   0.529E+00 -.529E+00 -.726E+03   0.947E-02 -.109E-01 -.362E+00   -.182E-01 0.122E-01 0.102E-01
   -.565E+02 0.818E+02 -.168E+04   0.579E+02 -.838E+02 0.168E+04   -.141E+01 0.201E+01 0.218E+01   0.886E-02 0.344E-02 0.823E-02
   0.853E-02 0.225E-01 0.191E+04   -.806E-02 -.262E-01 -.190E+04   0.292E-03 -.533E-03 -.345E+01   -.675E-03 0.444E-02 -.125E-01
   -.139E+00 0.111E+00 -.468E+03   0.144E+00 -.120E+00 0.468E+03   -.555E-04 0.616E-02 0.834E-01   0.921E-03 0.622E-02 0.147E-01
   0.457E+00 -.442E+00 0.726E+03   -.463E+00 0.429E+00 -.726E+03   -.912E-02 0.110E-01 -.362E+00   0.502E-02 0.140E-01 -.130E-02
   0.575E+02 -.811E+02 -.168E+04   -.589E+02 0.831E+02 0.168E+04   0.143E+01 -.200E+01 0.217E+01   -.589E-02 -.163E-01 0.828E-02
   0.133E-03 0.215E-04 0.191E+04   -.465E-03 -.262E-03 -.190E+04   0.272E-03 0.161E-05 -.334E+01   0.167E-03 0.105E-03 -.106E-01
   -.186E-01 0.226E-01 -.499E+03   0.179E-01 -.216E-01 0.499E+03   0.132E-02 0.111E-03 0.498E+00   -.477E-03 -.119E-02 0.714E-02
   -.230E+00 -.224E+00 0.722E+03   0.275E+00 0.252E+00 -.721E+03   -.263E-01 -.192E-01 -.545E+00   0.437E-02 0.789E-02 -.356E-02
   -.479E+02 -.335E+02 -.176E+04   0.501E+02 0.351E+02 0.175E+04   -.217E+01 -.153E+01 0.423E+01   -.342E-02 -.115E-01 0.898E-02
   -.828E-02 -.220E-01 0.191E+04   0.788E-02 0.255E-01 -.190E+04   -.206E-03 0.322E-04 -.345E+01   0.825E-03 -.413E-02 -.126E-01
   0.157E+00 -.868E-01 -.468E+03   -.161E+00 0.979E-01 0.468E+03   -.659E-03 -.730E-02 0.836E-01   -.862E-03 -.745E-02 0.131E-01
   0.354E+00 -.698E+00 0.726E+03   -.357E+00 0.704E+00 -.726E+03   -.401E-02 0.135E-01 -.364E+00   -.740E-03 -.260E-02 0.165E-02
   0.579E+02 -.805E+02 -.168E+04   -.593E+02 0.825E+02 0.168E+04   0.143E+01 -.201E+01 0.218E+01   0.987E-02 -.795E-02 0.421E-02
   -.458E-03 -.220E-03 0.191E+04   0.717E-03 -.475E-03 -.190E+04   0.189E-03 0.120E-03 -.334E+01   -.251E-03 0.308E-03 -.106E-01
   0.299E-02 -.546E-02 -.500E+03   -.361E-02 0.551E-02 0.500E+03   0.303E-03 -.585E-04 0.481E+00   0.454E-03 -.816E-04 0.173E-01
   -.331E+00 -.206E+00 0.721E+03   0.389E+00 0.230E+00 -.721E+03   -.270E-01 -.200E-01 -.547E+00   -.696E-02 0.109E-01 -.717E-02
   -.486E+02 -.342E+02 -.176E+04   0.507E+02 0.357E+02 0.175E+04   -.215E+01 -.151E+01 0.421E+01   -.172E-02 -.124E-01 0.158E-01
   -.551E-01 -.408E+00 -.169E+04   0.665E-01 0.424E+00 0.171E+04   -.130E-01 -.369E-01 -.230E+02   0.317E-02 0.213E-01 0.832E-02
   -.553E+00 -.765E+00 -.169E+04   0.616E+00 0.817E+00 0.171E+04   -.563E-01 -.476E-01 -.229E+02   -.667E-02 0.257E-02 0.968E-02
   0.619E+00 0.736E+00 -.169E+04   -.685E+00 -.784E+00 0.171E+04   0.576E-01 0.443E-01 -.229E+02   0.802E-02 -.460E-02 0.984E-02
   -.217E+00 0.229E+00 -.169E+04   0.232E+00 -.218E+00 0.171E+04   -.138E-01 0.132E-01 -.230E+02   -.236E-02 -.230E-01 0.610E-02
 -----------------------------------------------------------------------------------------------
   0.523E-01 0.477E-01 0.920E+02   -.506E-12 0.485E-12 0.227E-12   -.469E-01 -.544E-01 -.924E+02   0.158E-02 -.298E-02 0.395E+00
 
 
 POSITION                                       TOTAL-FORCE (eV/Angst)
 -----------------------------------------------------------------------------------
      1.40594      1.52230      2.00000        -0.000151      0.000452      0.335528
      1.40398      1.52099      6.03172         0.010466      0.003023     -0.001791
      2.23340      0.35210      4.02685        -0.023639     -0.017629     -0.291459
      2.27528      0.38078      8.02442         0.006299      0.006480     -0.005196
      3.88832      1.52230      2.00000        -0.000007      0.000351      0.296822
      3.88736      1.52117      5.98657         0.005183      0.010838      0.000131
      4.71578      0.35210      4.02685         0.009090     -0.010847     -0.396197
      4.77920      0.26400      7.95756        -0.011274      0.003044      0.014295
      6.37069      1.52230      2.00000         0.000390     -0.000351      0.336090
      6.36970      1.52319      6.03378         0.003553      0.000107     -0.011866
      7.19815      0.35210      4.02685        -0.024366     -0.015106     -0.284229
      7.24040      0.38385      8.02645         0.006618      0.003279     -0.012250
      8.85307      1.52230      2.00000        -0.000023      0.000280      0.295237
      8.85131      1.52148      5.98541         0.008861      0.008127      0.010476
      9.68053      0.35210      4.02685         0.007422     -0.016423     -0.396397
      9.74366      0.26147      7.95505        -0.006760      0.005714      0.025968
      2.23340      3.86271      2.00000        -0.000248      0.000326      0.361569
      2.23216      3.86178      5.99285         0.010877      0.000711     -0.006171
      3.06086      2.69251      4.02685        -0.008112      0.010442     -0.397348
      2.99680      2.77948      7.95478         0.004457      0.000570      0.024935
      4.71578      3.86271      2.00000         0.000014      0.000033      0.336345
      4.71559      3.86268      6.03319         0.000204      0.000016     -0.012049
      5.54324      2.69251      4.02685         0.020905      0.016603     -0.286151
      5.49992      2.66451      8.02623        -0.009798     -0.009963     -0.014537
      7.19815      3.86271      2.00000         0.000330     -0.000365      0.361653
      7.19911      3.86365      5.99277        -0.010710     -0.000131     -0.005964
      8.02561      2.69251      4.02685        -0.010645      0.012450     -0.399048
      7.96121      2.78367      7.95544         0.011426     -0.009839      0.024172
      9.68053      3.86271      2.00000         0.000095     -0.000115      0.335470
      9.68036      3.86272      6.03257         0.000110     -0.000045     -0.010585
     10.50799      2.69251      4.02685         0.020303      0.014996     -0.292160
     10.46432      2.66093      8.02284        -0.009686     -0.003658     -0.002489
      3.06086      6.20311      2.00000        -0.000411      0.000478      0.336064
      3.06153      6.20221      6.03382        -0.003280     -0.000104     -0.011913
      3.88832      5.03291      4.02685        -0.021404     -0.016800     -0.285852
      3.93093      5.06065      8.02637         0.009202      0.010355     -0.014047
      5.54324      6.20311      2.00000         0.000106     -0.000353      0.296785
      5.54389      6.20421      5.98658        -0.004698     -0.010769      0.000140
      6.37069      5.03291      4.02685         0.007646     -0.010282     -0.397634
      6.43410      4.94586      7.95482        -0.003579     -0.001422      0.024070
      8.02561      6.20311      2.00000         0.000110     -0.000335      0.335534
      8.02726      6.20440      6.03166        -0.010189     -0.002929     -0.001668
      8.85307      5.03291      4.02685        -0.020796     -0.015062     -0.292227
      8.89604      5.06469      8.02292         0.009561      0.003872     -0.002204
     10.50799      6.20311      2.00000         0.000118     -0.000336      0.295259
     10.50939      6.20394      5.98541        -0.008105     -0.008483      0.010489
     11.33544      5.03291      4.02685         0.010265     -0.012410     -0.398819
     11.39924      4.94194      7.95541        -0.011300      0.009442      0.023219
      3.88832      8.54352      2.00000        -0.000005      0.000436      0.361306
      3.88745      8.54203      5.99387         0.006243      0.003514     -0.010485
      4.71578      7.37332      4.02685        -0.009576      0.011056     -0.395877
      4.65167      7.46131      7.95756         0.012063     -0.003840      0.015298
      6.37069      8.54352      2.00000         0.000004      0.000009      0.335805
      6.37050      8.54348      6.03242         0.000095      0.000097     -0.004095
      7.19815      7.37332      4.02685         0.023150      0.017475     -0.291796
      7.15548      7.34439      8.02430        -0.006586     -0.005972     -0.005651
      8.85307      8.54352      2.00000         0.000110     -0.000493      0.361383
      8.85363      8.54505      5.99381        -0.006021     -0.003502     -0.010688
      9.68053      7.37332      4.02685        -0.007830      0.016498     -0.396523
      9.61669      7.46416      7.95510         0.007227     -0.006275      0.026438
     11.33544      8.54352      2.00000         0.000093     -0.000124      0.336068
     11.33525      8.54354      6.03436         0.000034      0.000055     -0.016985
     12.16290      7.37332      4.02685         0.023803      0.015059     -0.284126
     12.11983      7.34183      8.02633        -0.006741     -0.003301     -0.012475
      3.88269      1.51905      8.98443         0.001489      0.000427      0.035833
      8.84719      1.51805      8.98091        -0.000237      0.007276      0.036656
     10.51328      6.20740      8.98085        -0.000235     -0.007318      0.036483
      5.54407      6.20319      8.98453        -0.001513      0.000687      0.033431
 -----------------------------------------------------------------------------------
    total drift:                                0.007052     -0.009703     -0.017395


--------------------------------------------------------------------------------------------------------



  FREE ENERGIE OF THE ION-ELECTRON SYSTEM (eV)
  ---------------------------------------------------
  free  energy   TOTEN  =      -545.63558085 eV

  energy  without entropy=     -545.71513025  energy(sigma->0) =     -545.66209732
 
 d Force = 0.1418743E-02[ 0.948E-03, 0.189E-02]  d Energy =-0.1240885E-03 0.154E-02
 d Force = 0.2262254E+02[ 0.226E+02, 0.226E+02]  d Ewald  = 0.2262255E+02-0.849E-05


--------------------------------------------------------------------------------------------------------


    POTLOK:  cpu time    0.4383: real time    0.4385


--------------------------------------------------------------------------------------------------------


 stress matrix after NEB project (eV)
    -44.82916     -2.31622      0.00665
     -2.31622    -43.18116      0.00022
      0.00665      0.00022    -10.04790
  FORCES: max atom, RMS     0.037372    0.014576
  FORCE total and by dimension    0.120200    0.036656
  Stress total and by dimension   63.134432   44.829159
 Steepest descent step on ions:
 trial-energy change:    0.000124  1 .order   -0.001419   -0.001890   -0.000948
  (g-gl).g = 0.189E-02      g.g   = 0.189E-02  gl.gl    = 0.000E+00
 g(Force)  = 0.189E-02   g(Stress)= 0.000E+00 ortho     = 0.000E+00
 gamma     =   0.00000
 trial     =   1.00000
 opt step  =   2.00552  (harmonic =   2.00552) maximal distance =0.00752605
 next E    =  -545.637600   (d E  =  -0.00190)


--------------------------------------------------------------------------------------------------------


  
 reached required accuracy - stopping structural energy minimisation
 writing wavefunctions
     LOOP+:  cpu time  313.2825: real time  318.7421
    4ORBIT:  cpu time    0.0000: real time    0.0000
 


 total charge     
 
# of ion       s       p       d       tot
------------------------------------------
    1        0.466   0.375   6.197   7.039
    2        0.473   0.518   6.240   7.231
    3        0.471   0.510   6.231   7.212
    4        0.437   0.406   6.205   7.049
    5        0.466   0.375   6.197   7.038
    6        0.472   0.512   6.248   7.233
    7        0.475   0.512   6.242   7.228
    8        0.483   0.529   6.255   7.266
    9        0.466   0.375   6.197   7.039
   10        0.473   0.518   6.240   7.231
   11        0.471   0.509   6.231   7.212
   12        0.437   0.406   6.205   7.048
   13        0.465   0.375   6.197   7.038
   14        0.472   0.512   6.248   7.232
   15        0.475   0.512   6.242   7.228
   16        0.483   0.529   6.255   7.267
   17        0.465   0.374   6.200   7.039
   18        0.494   0.539   6.264   7.298
   19        0.475   0.512   6.242   7.229
   20        0.483   0.529   6.255   7.267
   21        0.466   0.375   6.197   7.039
   22        0.473   0.518   6.239   7.230
   23        0.471   0.509   6.231   7.212
   24        0.437   0.404   6.204   7.046
   25        0.465   0.374   6.200   7.039
   26        0.494   0.539   6.264   7.298
   27        0.475   0.512   6.242   7.229
   28        0.482   0.528   6.254   7.265
   29        0.466   0.375   6.197   7.039
   30        0.473   0.518   6.240   7.231
   31        0.471   0.510   6.231   7.212
   32        0.437   0.405   6.205   7.047
   33        0.466   0.375   6.197   7.039
   34        0.473   0.518   6.240   7.231
   35        0.471   0.509   6.231   7.212
   36        0.437   0.405   6.204   7.046
   37        0.466   0.375   6.197   7.038
   38        0.472   0.512   6.248   7.233
   39        0.475   0.512   6.242   7.229
   40        0.483   0.529   6.255   7.267
   41        0.466   0.375   6.197   7.039
   42        0.473   0.518   6.240   7.231
   43        0.471   0.510   6.231   7.212
   44        0.437   0.405   6.205   7.047
   45        0.465   0.375   6.197   7.038
   46        0.472   0.512   6.248   7.232
   47        0.475   0.512   6.242   7.229
   48        0.482   0.528   6.254   7.265
   49        0.465   0.374   6.200   7.039
   50        0.494   0.539   6.264   7.298
   51        0.475   0.512   6.242   7.228
   52        0.483   0.529   6.255   7.266
   53        0.466   0.375   6.197   7.039
   54        0.473   0.518   6.240   7.231
   55        0.471   0.510   6.231   7.212
   56        0.437   0.406   6.205   7.048
   57        0.465   0.374   6.200   7.039
   58        0.494   0.539   6.264   7.298
   59        0.475   0.512   6.242   7.228
   60        0.483   0.529   6.255   7.267
   61        0.466   0.375   6.197   7.039
   62        0.473   0.518   6.240   7.231
   63        0.471   0.509   6.231   7.212
   64        0.437   0.406   6.205   7.048
   65        1.575   3.367   0.000   4.942
   66        1.574   3.368   0.000   4.942
   67        1.574   3.368   0.000   4.942
   68        1.575   3.367   0.000   4.942
--------------------------------------------------
tot         36.322  43.466 398.599 478.388
 


 magnetization (x)
 
# of ion       s       p       d       tot
------------------------------------------
    1       -0.004  -0.014   2.677   2.659
    2       -0.015  -0.057   2.476   2.404
    3       -0.016  -0.057   2.485   2.412
    4       -0.010  -0.018   2.706   2.677
    5       -0.005  -0.015   2.687   2.668
    6       -0.018  -0.059   2.473   2.397
    7       -0.016  -0.059   2.441   2.366
    8       -0.003  -0.027   2.298   2.268
    9       -0.004  -0.014   2.677   2.659
   10       -0.015  -0.057   2.477   2.406
   11       -0.016  -0.057   2.486   2.414
   12       -0.010  -0.018   2.705   2.677
   13       -0.005  -0.015   2.688   2.668
   14       -0.018  -0.059   2.473   2.396
   15       -0.016  -0.059   2.441   2.366
   16       -0.003  -0.027   2.297   2.267
   17       -0.006  -0.015   2.667   2.646
   18       -0.012  -0.058   2.256   2.186
   19       -0.016  -0.059   2.441   2.367
   20       -0.003  -0.027   2.296   2.266
   21       -0.004  -0.014   2.677   2.659
   22       -0.015  -0.057   2.479   2.407
   23       -0.016  -0.057   2.485   2.413
   24       -0.010  -0.018   2.711   2.683
   25       -0.006  -0.015   2.667   2.646
   26       -0.012  -0.058   2.256   2.186
   27       -0.016  -0.059   2.441   2.366
   28       -0.003  -0.027   2.298   2.269
   29       -0.004  -0.014   2.677   2.659
   30       -0.015  -0.057   2.475   2.404
   31       -0.016  -0.057   2.485   2.412
   32       -0.010  -0.018   2.709   2.680
   33       -0.004  -0.014   2.677   2.659
   34       -0.015  -0.057   2.477   2.406
   35       -0.016  -0.057   2.485   2.413
   36       -0.010  -0.018   2.710   2.681
   37       -0.005  -0.015   2.687   2.668
   38       -0.018  -0.059   2.473   2.397
   39       -0.016  -0.059   2.441   2.366
   40       -0.003  -0.027   2.296   2.266
   41       -0.004  -0.014   2.677   2.659
   42       -0.015  -0.057   2.475   2.404
   43       -0.016  -0.057   2.485   2.412
   44       -0.010  -0.018   2.709   2.680
   45       -0.005  -0.015   2.688   2.668
   46       -0.018  -0.059   2.473   2.396
   47       -0.016  -0.059   2.441   2.366
   48       -0.003  -0.027   2.298   2.268
   49       -0.006  -0.015   2.667   2.647
   50       -0.012  -0.058   2.256   2.186
   51       -0.016  -0.059   2.441   2.366
   52       -0.003  -0.027   2.298   2.268
   53       -0.004  -0.014   2.677   2.659
   54       -0.015  -0.057   2.475   2.404
   55       -0.016  -0.057   2.485   2.412
   56       -0.010  -0.018   2.708   2.679
   57       -0.006  -0.015   2.667   2.647
   58       -0.012  -0.058   2.256   2.186
   59       -0.016  -0.059   2.441   2.366
   60       -0.003  -0.027   2.297   2.267
   61       -0.004  -0.014   2.677   2.659
   62       -0.015  -0.057   2.476   2.405
   63       -0.016  -0.057   2.486   2.414
   64       -0.010  -0.018   2.705   2.677
   65        0.004   0.044   0.000   0.048
   66        0.004   0.043   0.000   0.048
   67        0.004   0.043   0.000   0.048
   68        0.004   0.044   0.000   0.048
--------------------------------------------------
tot         -0.656  -2.261 161.013 158.096
 

 total amount of memory used by VASP MPI-rank0   109542. kBytes
=======================================================================

   base      :      30000. kBytes
   nonlr-proj:      13411. kBytes
   fftplans  :       6401. kBytes
   grid      :      16455. kBytes
   one-center:         93. kBytes
   wavefun   :      43182. kBytes
 
  
  
 General timing and accounting informations for this job:
 ========================================================
  
                  Total CPU time used (sec):     1843.403
                            User time (sec):     1711.784
                          System time (sec):      131.619
                         Elapsed time (sec):     1853.518
  
                   Maximum memory used (kb):      343244.
                   Average memory used (kb):           0.
  
                          Minor page faults:     25789814
                          Major page faults:            0
                 Voluntary context switches:         3576
