Automatically generated mesh
      23
Reciprocal lattice
    0.00000000000000    0.00000000000000    0.00000000000000             1
    0.20000000000000    0.00000000000000    0.00000000000000             2
    0.40000000000000    0.00000000000000    0.00000000000000             2
    0.00000000000000    0.33333333333333    0.00000000000000             2
    0.20000000000000    0.33333333333333    0.00000000000000             2
    0.40000000000000    0.33333333333333    0.00000000000000             2
   -0.40000000000000    0.33333333333333    0.00000000000000             2
   -0.20000000000000    0.33333333333333    0.00000000000000             2
    0.00000000000000    0.00000000000000    0.33333333333333             2
    0.20000000000000    0.00000000000000    0.33333333333333             2
    0.40000000000000    0.00000000000000    0.33333333333333             2
   -0.40000000000000    0.00000000000000    0.33333333333333             2
   -0.20000000000000    0.00000000000000    0.33333333333333             2
    0.00000000000000    0.33333333333333    0.33333333333333             2
    0.20000000000000    0.33333333333333    0.33333333333333             2
    0.40000000000000    0.33333333333333    0.33333333333333             2
   -0.40000000000000    0.33333333333333    0.33333333333333             2
   -0.20000000000000    0.33333333333333    0.33333333333333             2
    0.00000000000000   -0.33333333333333    0.33333333333333             2
    0.20000000000000   -0.33333333333333    0.33333333333333             2
    0.40000000000000   -0.33333333333333    0.33333333333333             2
   -0.40000000000000   -0.33333333333333    0.33333333333333             2
   -0.20000000000000   -0.33333333333333    0.33333333333333             2
Tetrahedra
       132    0.00370370370370
         2         1         2         4        10
         2         2         4         5        10
         2         4         5        10        15
         2         1         4         9        10
         2         4         9        10        14
         2         4        10        14        15
         2         2         3         5        11
         2         3         5         6        11
         2         5         6        11        16
         2         2         5        10        11
         2         5        10        11        15
         2         5        11        15        16
         2         3         3         6        12
         2         3         6         7        12
         2         6         7        12        17
         2         3         6        11        12
         2         6        11        12        16
         2         6        12        16        17
         2         2         3         7        13
         2         2         7         8        13
         2         7         8        13        18
         2         3         7        12        13
         2         7        12        13        17
         2         7        13        17        18
         2         1         2         8         9
         2         1         4         8         9
         2         4         8         9        14
         2         2         8         9        13
         2         8         9        13        18
         2         8         9        14        18
         2         4         4         5        15
         2         4         5         8        15
         2         4         8        15        20
         2         4         4        14        15
         2         4        14        15        19
         2         4        15        19        20
         2         5         6         8        16
         2         6         7         8        16
         2         7         8        16        21
         2         5         8        15        16
         2         8        15        16        20
         2         8        16        20        21
         4         6         7         7        17
         2         6         7        17        22
         2         6         7        16        17
         2         7        16        17        21
         2         7        17        21        22
         2         6         7         8        18
         2         5         6         8        18
         2         5         6        18        23
         2         6         7        17        18
         2         6        17        18        22
         2         6        18        22        23
         2         4         5         8        14
         2         4         4         5        14
         2         4         5        14        19
         2         5         8        14        18
         2         5        14        18        23
         2         5        14        19        23
         2         1         4         8        20
         2         1         2         8        20
         2         1         2        10        20
         2         1         4        19        20
         2         1         9        19        20
         2         1         9        10        20
         2         2         7         8        21
         2         2         3         7        21
         2         2         3        11        21
         2         2         8        20        21
         2         2        10        20        21
         2         2        10        11        21
         2         3         6         7        22
         2         3         3         6        22
         2         3         3        12        22
         2         3         7        21        22
         2         3        11        21        22
         2         3        11        12        22
         2         3         5         6        23
         2         2         3         5        23
         2         2         3        13        23
         2         3         6        22        23
         2         3        12        22        23
         2         3        12        13        23
         2         2         4         5        19
         2         1         2         4        19
         2         1         2         9        19
         2         2         5        19        23
         2         2        13        19        23
         2         2         9        13        19
         2         9        10        13        14
         2        10        13        14        15
         2        13        14        15        23
         2         9         9        13        14
         2         9        13        14        19
         2        13        14        19        23
         2        10        11        12        15
         2        11        12        15        16
         2        12        15        16        22
         2        10        12        13        15
         2        12        13        15        23
         2        12        15        22        23
         4        11        11        12        16
         2        11        12        16        17
         2        11        16        17        21
         2        11        12        16        22
         2        11        16        21        22
         2        10        12        13        17
         2        10        13        17        18
         2        10        17        18        20
         2        10        11        12        17
         2        10        11        17        21
         2        10        17        20        21
         2         9         9        13        18
         2         9         9        14        18
         2         9        14        18        19
         2         9        10        13        18
         2         9        10        18        20
         2         9        18        19        20
         2        14        15        19        23
         2        15        19        20        23
         2        18        19        20        23
         4        14        19        19        23
         2        14        18        19        23
         2        15        16        20        22
         2        16        20        21        22
         2        17        20        21        22
         2        15        20        22        23
         2        18        20        22        23
         2        17        18        20        22
         2        16        17        21        21
         2        17        21        21        22
         2        16        21        21        22
