       N       E                     dE             d eps       ncg     rms          rms(c)
DAV:   1     0.867114508015E+04    0.86711E+04   -0.39288E+05 63756   0.199E+03
DAV:   2     0.498113110907E+03   -0.81730E+04   -0.76932E+04 63756   0.418E+02
DAV:   3    -0.662684903313E+03   -0.11608E+04   -0.91283E+03 63756   0.189E+02
DAV:   4    -0.740084715306E+03   -0.77400E+02   -0.73903E+02 67437   0.582E+01
DAV:   5    -0.741189298986E+03   -0.11046E+01   -0.11027E+01 69120   0.671E+00
RMM:   6    -0.741234222661E+03   -0.44924E-01   -0.44913E-01 70949   0.108E+00
RMM:   7    -0.741246867533E+03   -0.12645E-01   -0.12605E-01 98033   0.359E-01
RMM:   8    -0.741246894765E+03   -0.27231E-04   -0.96016E-04 84374   0.453E-02
RMM:   9    -0.741246904437E+03   -0.96720E-05   -0.94902E-05 85089   0.121E-02
RMM:  10    -0.741246905361E+03   -0.92447E-06   -0.91155E-06 61960   0.318E-03
   1 F= -.74124691E+03 E0= -.74124691E+03  d E =0.000000E+00  mag=   174.1601
