 vasp.5.4.4.18Apr17-6-g9f103f2a35 (build Sep 06 2021 19:49:22) complex          
  
 executed on             LinuxIFC date 2021.12.27  03:42:03
 running on   96 total cores
 distrk:  each k-point on   96 cores,    1 groups
 distr:  one band on NCORES_PER_BAND=  32 cores,    3 groups


--------------------------------------------------------------------------------------------------------


 INCAR:
 POTCAR:    PAW_PBE Fe 06Sep2000                  
 POTCAR:    PAW_PBE Ni 02Aug2007                  

 ----------------------------------------------------------------------------- 
|                                                                             |
|           W    W    AA    RRRRR   N    N  II  N    N   GGGG   !!!           |
|           W    W   A  A   R    R  NN   N  II  NN   N  G    G  !!!           |
|           W    W  A    A  R    R  N N  N  II  N N  N  G       !!!           |
|           W WW W  AAAAAA  RRRRR   N  N N  II  N  N N  G  GGG   !            |
|           WW  WW  A    A  R   R   N   NN  II  N   NN  G    G                |
|           W    W  A    A  R    R  N    N  II  N    N   GGGG   !!!           |
|                                                                             |
|      For optimal performance we recommend to set                            |
|        NCORE= 4 - approx SQRT( number of cores)                             |
|      NCORE specifies how many cores store one orbital (NPAR=cpu/NCORE).     |
|      This setting can  greatly improve the performance of VASP for DFT.     |
|      The default,   NCORE=1            might be grossly inefficient         |
|      on modern multi-core architectures or massively parallel machines.     |
|      Do your own testing !!!!                                               |
|      Unfortunately you need to use the default for GW and RPA calculations. |
|      (for HF NCORE is supported but not extensively tested yet)             |
|                                                                             |
 ----------------------------------------------------------------------------- 

 POTCAR:    PAW_PBE Fe 06Sep2000                  
   VRHFIN =Fe:  d7 s1                                                           
   LEXCH  = PE                                                                  
   EATOM  =   594.3153 eV,   43.6809 Ry                                         
                                                                                
   TITEL  = PAW_PBE Fe 06Sep2000                                                
   LULTRA =        F    use ultrasoft PP ?                                      
   IUNSCR =        1    unscreen: 0-lin 1-nonlin 2-no                           
   RPACOR =    2.000    partial core radius                                     
   POMASS =   55.847; ZVAL   =    8.000    mass and valenz                      
   RCORE  =    2.300    outmost cutoff radius                                   
   RWIGS  =    2.460; RWIGS  =    1.302    wigner-seitz radius (au A)           
   ENMAX  =  267.882; ENMIN  =  200.911 eV                                      
   RCLOC  =    1.701    cutoff for local pot                                    
   LCOR   =        T    correct aug charges                                     
   LPAW   =        T    paw PP                                                  
   EAUG   =  511.368                                                            
   DEXC   =    0.000                                                            
   RMAX   =    2.356    core radius for proj-oper                               
   RAUG   =    1.300    factor for augmentation sphere                          
   RDEP   =    2.442    radius for radial grids                                 
   RDEPT  =    1.890    core radius for aug-charge                              
                                                                                
   Atomic configuration                                                         
    9 entries                                                                   
     n  l   j            E        occ.                                          
     1  0  0.50     -6993.8440   2.0000                                         
     2  0  0.50      -814.6047   2.0000                                         
     2  1  1.50      -693.3689   6.0000                                         
     3  0  0.50       -89.4732   2.0000                                         
     3  1  1.50       -55.6373   6.0000                                         
     3  2  2.50        -3.8151   7.0000                                         
     4  0  0.50        -4.2551   1.0000                                         
     4  1  1.50        -3.4015   0.0000                                         
     4  3  2.50        -1.3606   0.0000                                         
   Description                                                                  
     l       E           TYP  RCUT    TYP  RCUT                                 
     2     -3.8151135     23  2.300                                             
     2     -5.1756961     23  2.300                                             
     0     -4.2550963     23  2.300                                             
     0      7.2035603     23  2.300                                             
     1     -2.7211652     23  2.300                                             
     1     18.4316424     23  2.300                                             
  local pseudopotential read in
  partial core-charges read in
  partial kinetic energy density read in
  atomic valenz-charges read in
  non local Contribution for L=           2  read in
    real space projection operators read in
  non local Contribution for L=           2  read in
    real space projection operators read in
  non local Contribution for L=           0  read in
    real space projection operators read in
  non local Contribution for L=           0  read in
    real space projection operators read in
  non local Contribution for L=           1  read in
    real space projection operators read in
  non local Contribution for L=           1  read in
    real space projection operators read in
    PAW grid and wavefunctions read in
 
   number of l-projection  operators is LMAX  =           6
   number of lm-projection operators is LMMAX =          18
 
 POTCAR:    PAW_PBE Ni 02Aug2007                  
   VRHFIN =Ni:                                                                  
   LEXCH  = PE                                                                  
   EATOM  =  1077.6739 eV,   79.2068 Ry                                         
                                                                                
   TITEL  = PAW_PBE Ni 02Aug2007                                                
   LULTRA =        F    use ultrasoft PP ?                                      
   IUNSCR =        1    unscreen: 0-lin 1-nonlin 2-no                           
   RPACOR =    2.000    partial core radius                                     
   POMASS =   58.690; ZVAL   =   10.000    mass and valenz                      
   RCORE  =    2.300    outmost cutoff radius                                   
   RWIGS  =    2.430; RWIGS  =    1.286    wigner-seitz radius (au A)           
   ENMAX  =  269.532; ENMIN  =  202.149 eV                                      
   RCLOC  =    1.201    cutoff for local pot                                    
   LCOR   =        T    correct aug charges                                     
   LPAW   =        T    paw PP                                                  
   EAUG   =  544.565                                                            
   DEXC   =    0.000                                                            
   RMAX   =    2.357    core radius for proj-oper                               
   RAUG   =    1.300    factor for augmentation sphere                          
   RDEP   =    2.390    radius for radial grids                                 
   RDEPT  =    1.838    core radius for aug-charge                              
                                                                                
   Atomic configuration                                                         
    9 entries                                                                   
     n  l   j            E        occ.                                          
     1  0  0.50     -8206.4253   2.0000                                         
     2  0  0.50      -976.1748   2.0000                                         
     2  1  1.50      -839.0571   6.0000                                         
     3  0  0.50      -105.9991   2.0000                                         
     3  1  1.50       -66.4603   6.0000                                         
     3  2  2.50        -4.6458   9.0000                                         
     4  0  0.50        -4.4926   1.0000                                         
     4  1  1.50        -4.0817   0.0000                                         
     4  3  2.50        -1.3606   0.0000                                         
   Description                                                                  
     l       E           TYP  RCUT    TYP  RCUT                                 
     2     -4.6457903     23  2.300                                             
     2     -6.0063729     23  2.300                                             
     0     -4.4925590     23  2.300                                             
     0      5.0102601     23  2.300                                             
     1     -2.7211652     23  2.300                                             
     1     16.5183231     23  2.300                                             
  local pseudopotential read in
  partial core-charges read in
  partial kinetic energy density read in
  atomic valenz-charges read in
  non local Contribution for L=           2  read in
    real space projection operators read in
  non local Contribution for L=           2  read in
    real space projection operators read in
  non local Contribution for L=           0  read in
    real space projection operators read in
  non local Contribution for L=           0  read in
    real space projection operators read in
  non local Contribution for L=           1  read in
    real space projection operators read in
  non local Contribution for L=           1  read in
    real space projection operators read in
    PAW grid and wavefunctions read in
 
   number of l-projection  operators is LMAX  =           6
   number of lm-projection operators is LMMAX =          18
 
 Optimization of the real space projectors (new method)

 maximal supplied QI-value         = 16.25
 optimisation between [QCUT,QGAM] = [ 11.54, 23.24] = [ 37.28,151.24] Ry 
 Optimized for a Real-space Cutoff    1.53 Angstroem

   l    n(q)    QCUT    max X(q) W(low)/X(q) W(high)/X(q)  e(spline) 
   2     10    11.539    80.901    0.11E-03    0.14E-03    0.21E-06
   2     10    11.539    75.754    0.11E-03    0.14E-03    0.22E-06
   0     11    11.539    58.752    0.52E-04    0.18E-04    0.33E-06
   0     11    11.539    30.679    0.44E-04    0.16E-04    0.30E-06
   1     10    11.539    17.977    0.53E-04    0.29E-04    0.13E-06
   1     10    11.539    13.559    0.44E-04    0.25E-04    0.11E-06
 Optimization of the real space projectors (new method)

 maximal supplied QI-value         = 16.25
 optimisation between [QCUT,QGAM] = [ 11.54, 23.24] = [ 37.28,151.24] Ry 
 Optimized for a Real-space Cutoff    1.45 Angstroem

   l    n(q)    QCUT    max X(q) W(low)/X(q) W(high)/X(q)  e(spline) 
   2      9    11.539    60.317    0.19E-03    0.47E-04    0.16E-06
   2      9    11.539    55.921    0.19E-03    0.48E-04    0.16E-06
   0     10    11.539    51.690    0.80E-04    0.50E-04    0.24E-06
   0     10    11.539    30.015    0.73E-04    0.45E-04    0.22E-06
   1     10    11.539    18.849    0.87E-04    0.16E-03    0.71E-07
   1     10    11.539    14.624    0.73E-04    0.13E-03    0.64E-07
  PAW_PBE Fe 06Sep2000                  :
 energy of atom  1       EATOM= -594.3153
 kinetic energy error for atom=    0.0026 (will be added to EATOM!!)
  PAW_PBE Ni 02Aug2007                  :
 energy of atom  2       EATOM=-1077.6739
 kinetic energy error for atom=    0.0030 (will be added to EATOM!!)
 
 
 POSCAR: POSCAR                                  
  positions in direct lattice
  velocities in cartesian coordinates
 exchange correlation table for  LEXCH =        8
   RHO(1)=    0.500       N(1)  =     2000
   RHO(2)=  100.500       N(2)  =     4000
 


--------------------------------------------------------------------------------------------------------


 ion  position               nearest neighbor table
   1  0.157  0.109  0.916-  71 2.50   3 2.50  62 2.51  58 2.52  37 2.52  20 2.52  39 2.52  83 2.53
                            26 2.55   4 2.55  56 2.56  38 2.59
   2  0.040  0.447  0.915-  65 2.47  77 2.48  96 2.49  75 2.50  53 2.53  57 2.54   5 2.55 107 2.56
                             6 2.56  42 2.58  39 2.59  20 2.60
   3  0.251  0.001  0.750-  71 2.49   1 2.50  24 2.51  56 2.51  60 2.52  68 2.52  69 2.52  67 2.53
                             4 2.53  55 2.54  58 2.55   9 2.58
   4  0.494  0.111  0.917- 100 2.50  48 2.51  11 2.52  62 2.52  37 2.52  69 2.53   3 2.53  49 2.55
                             1 2.55  56 2.55   9 2.58  38 2.58
   5  0.140  0.336  0.749-  86 2.48  63 2.49   6 2.51  61 2.52  57 2.52  12 2.53  32 2.53  75 2.54
                            55 2.54  56 2.55   2 2.55  20 2.56
   6  0.378  0.446  0.915-   5 2.51  57 2.52 102 2.52  13 2.52  12 2.54  65 2.54  56 2.54  39 2.55
                            42 2.55  49 2.56   2 2.56  52 2.57
   7  0.024  0.663  0.745-  87 2.46  64 2.48  90 2.49  78 2.50  86 2.51  67 2.51  57 2.53  77 2.53
                            66 2.54  58 2.55  25 2.58   8 2.60
   8  0.269  0.777  0.918-  57 2.49 102 2.50 105 2.51  98 2.51  96 2.52  37 2.53  25 2.53  14 2.53
                            66 2.53  58 2.54  69 2.56   7 2.60
   9  0.589  0.996  0.747-  91 2.46  79 2.49  71 2.51  72 2.51  80 2.51  62 2.51  24 2.52  69 2.53
                            11 2.56   3 2.58  60 2.58   4 2.58
  10  0.059  0.334  0.502-  61 2.49  86 2.50  64 2.50  73 2.50  74 2.51  63 2.52  43 2.55  32 2.55
                            33 2.55  17 2.57  40 2.58  41 2.59
  11  0.647  0.221  0.832-  65 2.51  56 2.51  72 2.51  60 2.52   4 2.52  75 2.52 107 2.52  62 2.53
                            12 2.54  49 2.55  20 2.55   9 2.56
  12  0.474  0.334  0.749-  63 2.49  18 2.50  75 2.51  65 2.52  56 2.52  21 2.52   5 2.53  60 2.53
                             6 2.54  61 2.54  13 2.54  11 2.54
  13  0.537  0.558  0.833-  63 2.49  54 2.50  66 2.51  57 2.52 102 2.52  78 2.52   6 2.52  77 2.53
                            12 2.54  14 2.54  21 2.55  65 2.58
  14  0.603  0.781  0.916- 100 2.47  80 2.49  69 2.50 108 2.51 105 2.52  25 2.52  66 2.53   8 2.53
                            78 2.53  13 2.54 102 2.55  54 2.59
  15  0.500  0.001  0.501-  72 2.51  60 2.51  36 2.51  18 2.52  91 2.52  59 2.53  89 2.53  16 2.54
                            24 2.55  27 2.55  28 2.56  47 2.56
  16  0.320  0.109  0.414-  89 2.49  81 2.49  70 2.50  17 2.51  59 2.52  40 2.52  61 2.54  73 2.54
                            15 2.54  28 2.55  18 2.56  29 2.56
  17  0.147  0.220  0.331-  82 2.49  70 2.51 101 2.51  50 2.51  16 2.51  29 2.51  30 2.53  41 2.55
                            40 2.55  73 2.56  74 2.56  10 2.57
  18  0.562  0.222  0.583-  12 2.50  73 2.50  60 2.51  61 2.51  15 2.52  32 2.52  75 2.53  28 2.53
                            21 2.53  72 2.54  33 2.54  16 2.56
  19  0.039  0.559  0.333-  34 2.51 103 2.52  85 2.52  31 2.53  51 2.54  23 2.55  44 2.55  74 2.56
                            43 2.57  50 2.57  22 2.58  46 2.61
  20  0.983  0.218  0.829-  55 2.47  71 2.48  72 2.50  56 2.52   1 2.52  62 2.52  75 2.53  39 2.53
                            11 2.55 107 2.56   5 2.56   2 2.60
  21  0.634  0.445  0.667-  77 2.49  33 2.49  86 2.50  76 2.51  87 2.51  78 2.52  12 2.52  75 2.52
                            18 2.53  63 2.54  73 2.54  13 2.55
  22  0.282  0.665  0.505-  79 2.48  76 2.48  64 2.48  67 2.50  74 2.50  88 2.51  24 2.54  46 2.54
                            34 2.55  19 2.58  36 2.59  23 2.67
  23  0.100  0.783  0.415-  59 2.46 106 2.47  99 2.49  89 2.50 103 2.51  68 2.53  85 2.53  24 2.54
                            19 2.55  36 2.57  46 2.60  22 2.67
  24  0.340  0.888  0.584-  67 2.50  68 2.50   3 2.51   9 2.52  59 2.53  60 2.54  91 2.54  23 2.54
                            22 2.54  36 2.54  79 2.54  15 2.55
  25  0.935  0.775  0.917-  77 2.50  54 2.51  98 2.51 108 2.52  96 2.52  14 2.52  78 2.53   8 2.53
                            80 2.54  58 2.54  26 2.56   7 2.58
  26  0.995  0.001  0.001- 101 2.49 100 2.49  83 2.49  80 2.49  62 2.51 108 2.51  98 2.52  82 2.53
                             1 2.55  58 2.56  25 2.56  37 2.58
  27  0.836  0.995  0.502-  68 2.47  99 2.48  91 2.48  59 2.50  55 2.51 106 2.52  72 2.52  47 2.54
                            15 2.55  40 2.56  32 2.58  28 2.63
  28  0.658  0.114  0.417-  40 2.51  32 2.52  41 2.52  33 2.52  92 2.53  81 2.53  18 2.53  29 2.53
                            47 2.54  16 2.55  15 2.56  27 2.63
  29  0.481  0.225  0.334-  94 2.49  84 2.51  30 2.51  17 2.51  41 2.52  73 2.52  33 2.53  28 2.53
                            82 2.54  81 2.54  93 2.55  16 2.56
  30  0.306  0.338  0.253-  74 2.50  31 2.50  95 2.50  84 2.50  94 2.51  29 2.51  34 2.51  38 2.52
                            50 2.52  17 2.53  83 2.56  82 2.57
  31  0.126  0.441  0.165-  53 2.47  30 2.50  83 2.51  50 2.51 107 2.52  19 2.53  95 2.53  42 2.54
                            51 2.54  39 2.54  34 2.57  85 2.60
  32  0.896  0.221  0.584-  72 2.50  75 2.50  55 2.50  86 2.51  28 2.52  18 2.52   5 2.53  61 2.54
                            33 2.55  10 2.55  40 2.56  27 2.58
  33  0.722  0.336  0.501-  21 2.49  86 2.51  87 2.51  43 2.51  84 2.52  28 2.52  73 2.52  29 2.53
                            18 2.54  32 2.55  10 2.55  41 2.56
  34  0.370  0.559  0.334-  36 2.50  19 2.51  95 2.51  30 2.51  97 2.52  44 2.52  85 2.52  88 2.54
                            84 2.55  22 2.55  74 2.56  31 2.57
  35  0.016  0.779  0.166- 108 2.50 104 2.50  70 2.51 103 2.51  85 2.52 106 2.52  96 2.53  89 2.54
                            98 2.54  54 2.54  45 2.56  53 2.59
  36  0.439  0.779  0.418-  91 2.48  34 2.50  97 2.51  15 2.51  99 2.52  88 2.53  24 2.54  85 2.55
                            89 2.55  47 2.56  23 2.57  22 2.59
  37  0.335  0.999  0.999- 105 2.50 100 2.50   1 2.52  93 2.52  98 2.52  69 2.52   4 2.52   8 2.53
                            58 2.53  38 2.55  82 2.55  26 2.58
  38  0.400  0.223  0.088-  94 2.47  93 2.49  82 2.50  30 2.52  83 2.52  95 2.53  37 2.55  48 2.56
                            39 2.57  49 2.57   4 2.58   1 2.59
  39  0.221  0.331  0.998-  56 2.52   1 2.52 107 2.52  49 2.53  20 2.53  83 2.54  31 2.54   6 2.55
                            42 2.55  38 2.57  95 2.57   2 2.59
  40  0.987  0.107  0.414- 106 2.48  92 2.49  28 2.51  70 2.51  59 2.52  16 2.52  17 2.55  61 2.55
                            32 2.56  27 2.56  41 2.56  10 2.58
  41  0.811  0.222  0.331-  50 2.49  93 2.50  94 2.51 101 2.51  92 2.51  28 2.52  29 2.52  17 2.55
                            43 2.55  33 2.56  40 2.56  10 2.59
  42  0.289  0.555  0.085-  95 2.50  52 2.50  85 2.51  97 2.52  96 2.53  31 2.54  53 2.54   6 2.55
                            45 2.55  39 2.55 102 2.56   2 2.58
  43  0.880  0.446  0.419-  87 2.50  64 2.51  33 2.51  74 2.52  44 2.53  84 2.53  50 2.55  10 2.55
                            94 2.55  41 2.55  46 2.56  19 2.57
  44  0.702  0.557  0.335-  99 2.50  34 2.52  84 2.52  95 2.52  94 2.52  88 2.52  51 2.52  43 2.53
                            97 2.53 103 2.55  19 2.55  46 2.60
  45  0.353  0.779  0.164-  96 2.50 102 2.50 105 2.50 104 2.51  98 2.52  81 2.53  85 2.54  47 2.54
                            97 2.54  89 2.55  42 2.55  35 2.56
  46  0.948  0.672  0.507-  68 2.46  67 2.47  90 2.47  87 2.49  64 2.52  88 2.52  99 2.53  22 2.54
                            43 2.56  44 2.60  23 2.60  19 2.61
  47  0.596  0.890  0.332- 106 2.47  92 2.49  97 2.51 104 2.52  81 2.53  45 2.54  28 2.54  27 2.54
                            89 2.55  99 2.56  36 2.56  15 2.56
  48  0.736  0.218  0.082- 101 2.49 100 2.49  83 2.49 107 2.51   4 2.51  93 2.52  50 2.52  62 2.52
                            51 2.54  38 2.56  49 2.57  94 2.60
  49  0.557  0.335  0.001-  65 2.49  51 2.50 107 2.52  52 2.53  39 2.53   4 2.55  11 2.55  95 2.55
                            56 2.55   6 2.56  48 2.57  38 2.57
  50  0.971  0.332  0.250-  41 2.49  17 2.51  31 2.51  51 2.52  30 2.52  48 2.52 101 2.54  74 2.54
                            83 2.54  43 2.55  94 2.55  19 2.57
  51  0.792  0.442  0.168-  94 2.48  49 2.50  95 2.51  53 2.51  50 2.52  44 2.52  31 2.54  48 2.54
                            52 2.54  19 2.54 107 2.58 103 2.58
  52  0.620  0.558  0.086- 103 2.50 104 2.50  97 2.50  42 2.50  95 2.52  54 2.53  49 2.53  53 2.53
                           102 2.54  51 2.54   6 2.57  65 2.58
  53  0.953  0.551  0.086-  31 2.47  51 2.51 103 2.52  85 2.52 107 2.52  52 2.53   2 2.53  42 2.54
                            65 2.55  54 2.56  96 2.59  35 2.59
  54  0.778  0.662  0.998-  13 2.50  77 2.51  65 2.51  25 2.51 102 2.53  52 2.53  96 2.53  35 2.54
                           104 2.54 108 2.56  53 2.56  14 2.59
  55  0.075  0.112  0.666-  20 2.47  61 2.50  32 2.50  27 2.51  60 2.51  56 2.52  59 2.52  71 2.53
                             3 2.54  72 2.54   5 2.54  68 2.55
  56  0.316  0.222  0.832-  60 2.50  11 2.51   3 2.51  20 2.52  55 2.52  39 2.52  12 2.52   6 2.54
                             5 2.55  49 2.55   4 2.55   1 2.56
  57  0.204  0.558  0.833-   8 2.49  66 2.50  63 2.51   6 2.52  13 2.52   5 2.52   7 2.53  96 2.53
                           102 2.53  77 2.53  86 2.54   2 2.54
  58  0.090  0.888  0.833-  80 2.49  90 2.50  67 2.51   1 2.52  71 2.52  37 2.53  25 2.54  69 2.54
                             8 2.54   7 2.55   3 2.55  26 2.56
  59  0.166  1.000  0.500-  23 2.46  27 2.50  55 2.52  16 2.52  40 2.52  60 2.52  61 2.53  15 2.53
                            24 2.53  89 2.53 106 2.53  68 2.55
  60  0.406  0.112  0.666-  56 2.50  55 2.51  18 2.51  15 2.51  11 2.52   3 2.52  61 2.52  59 2.52
                            72 2.53  12 2.53  24 2.54   9 2.58
  61  0.230  0.222  0.583-  10 2.49  55 2.50  73 2.51  18 2.51   5 2.52  60 2.52  59 2.53  12 2.54
                            32 2.54  16 2.54  63 2.54  40 2.55
  62  0.825  0.109  0.914-  80 2.50 107 2.50  26 2.51   1 2.51  71 2.51   9 2.51   4 2.52  48 2.52
                            20 2.52  11 2.53 100 2.54  83 2.54
  63  0.300  0.446  0.668-   5 2.49  12 2.49  13 2.49  57 2.51  76 2.51  64 2.52  66 2.52  10 2.52
                            73 2.53  86 2.54  21 2.54  61 2.54
  64  0.122  0.554  0.584-   7 2.48  22 2.48  10 2.50  74 2.50  43 2.51  86 2.52  63 2.52  66 2.52
                            46 2.52  87 2.53  76 2.53  67 2.55
  65  0.713  0.441  0.916-   2 2.47  49 2.49  11 2.51  54 2.51  75 2.52  12 2.52 107 2.53   6 2.54
                            53 2.55  77 2.56  13 2.58  52 2.58
  66  0.361  0.668  0.750-  79 2.50  57 2.50  67 2.51  13 2.51  69 2.51  64 2.52  63 2.52  14 2.53
                             8 2.53  78 2.54   7 2.54  76 2.54
  67  0.187  0.779  0.668-  46 2.47  69 2.49  24 2.50  22 2.50  66 2.51  68 2.51   7 2.51  58 2.51
                            79 2.52   3 2.53  90 2.54  64 2.55
  68  0.009  0.888  0.585-  46 2.46  27 2.47  71 2.49  24 2.50  67 2.51  90 2.51   3 2.52  99 2.53
                            23 2.53  91 2.54  59 2.55  55 2.55
  69  0.426  0.889  0.832-  67 2.49  14 2.50  79 2.50  66 2.51 100 2.52   3 2.52  37 2.52   4 2.53
                             9 2.53  80 2.54  58 2.54   8 2.56
  70  0.082  0.999  0.249-  16 2.50  35 2.51  17 2.51  40 2.51 101 2.51  89 2.52  98 2.52  82 2.52
                            81 2.52  92 2.52 106 2.52 108 2.53
  71  0.921  1.000  0.749-  20 2.48  68 2.49   3 2.49   1 2.50   9 2.51  62 2.51  58 2.52  90 2.52
                            55 2.53  72 2.53  91 2.55  80 2.55
  72  0.740  0.110  0.666-  20 2.50  32 2.50   9 2.51  15 2.51  11 2.51  75 2.52  27 2.52  91 2.53
                            60 2.53  71 2.53  55 2.54  18 2.54
  73  0.388  0.333  0.500-  10 2.50  18 2.50  61 2.51  76 2.52  29 2.52  33 2.52  74 2.53  63 2.53
                            84 2.53  16 2.54  21 2.54  17 2.56
  74  0.213  0.445  0.418-  64 2.50  30 2.50  22 2.50  10 2.51  76 2.52  84 2.52  43 2.52  73 2.53
                            50 2.54  34 2.56  17 2.56  19 2.56
  75  0.805  0.332  0.750-   2 2.50  32 2.50  12 2.51  65 2.52  11 2.52  72 2.52  21 2.52  18 2.53
                            86 2.53  20 2.53  77 2.53   5 2.54
  76  0.456  0.554  0.583-  22 2.48  84 2.49  21 2.51  87 2.51  63 2.51  73 2.52  74 2.52  78 2.52
                            88 2.52  79 2.53  64 2.53  66 2.54
  77  0.869  0.555  0.832-   2 2.48  21 2.49  25 2.50  54 2.51  78 2.52  86 2.53  13 2.53   7 2.53
                            75 2.53  57 2.53  65 2.56  96 2.56
  78  0.696  0.667  0.750-  90 2.50  79 2.50   7 2.50  77 2.52  13 2.52  87 2.52  76 2.52  21 2.52
                            80 2.52  25 2.53  14 2.53  66 2.54
  79  0.519  0.777  0.667-  22 2.48   9 2.49  66 2.50  78 2.50  69 2.50  88 2.51  90 2.52  67 2.52
                            91 2.53  76 2.53  24 2.54  80 2.54
  80  0.763  0.889  0.835-  14 2.49  58 2.49  26 2.49  62 2.50  90 2.51 100 2.51   9 2.51  78 2.52
                            25 2.54  69 2.54  79 2.54  71 2.55
  81  0.416  0.002  0.251-  16 2.49  89 2.51  82 2.51  93 2.52  70 2.52  28 2.53  92 2.53  45 2.53
                            47 2.53  98 2.54  29 2.54 105 2.55
  82  0.239  0.111  0.167-  17 2.49  83 2.50  38 2.50  98 2.51  81 2.51  70 2.52 101 2.52  26 2.53
                            29 2.54  93 2.54  37 2.55  30 2.57
  83  0.065  0.220  0.083-  26 2.49  48 2.49  82 2.50  31 2.51 107 2.52  38 2.52   1 2.53 101 2.53
                            50 2.54  62 2.54  39 2.54  30 2.56
  84  0.545  0.446  0.418-  76 2.49  30 2.50  29 2.51  94 2.52  33 2.52  87 2.52  44 2.52  74 2.52
                            88 2.52  43 2.53  73 2.53  34 2.55
  85  0.196  0.670  0.250-  89 2.50  42 2.51  19 2.52  35 2.52  97 2.52  53 2.52  34 2.52  23 2.53
                            45 2.54 103 2.54  36 2.55  31 2.60
  86  0.964  0.443  0.666-   5 2.48  10 2.50  21 2.50  33 2.51   7 2.51  32 2.51  64 2.52  77 2.53
                            75 2.53  57 2.54  63 2.54  87 2.54
  87  0.788  0.556  0.583-   7 2.46  46 2.49  43 2.50  88 2.50  33 2.51  21 2.51  76 2.51  84 2.52
                            78 2.52  90 2.52  64 2.53  86 2.54
  88  0.613  0.668  0.502-  91 2.50  87 2.50  79 2.51  90 2.51  22 2.51  76 2.52  84 2.52  44 2.52
                            46 2.52  36 2.53  99 2.53  34 2.54
  89  0.260  0.890  0.333-  16 2.49  23 2.50  85 2.50  81 2.51  70 2.52  59 2.53  15 2.53  35 2.54
                            45 2.55  47 2.55  36 2.55 106 2.56
  90  0.852  0.778  0.668-  46 2.47   7 2.49  78 2.50  58 2.50  80 2.51  88 2.51  68 2.51  79 2.52
                            71 2.52  87 2.52  91 2.53  67 2.54
  91  0.674  0.888  0.583-   9 2.46  27 2.48  36 2.48  88 2.50  15 2.52  72 2.53  79 2.53  90 2.53
                            99 2.53  68 2.54  24 2.54  71 2.55
  92  0.749  0.001  0.250-  40 2.49 101 2.49  47 2.49  93 2.51  41 2.51  70 2.52 106 2.52 105 2.53
                            28 2.53  81 2.53 108 2.53 104 2.54
  93  0.574  0.110  0.166-  38 2.49  41 2.50 105 2.50  92 2.51 101 2.51  48 2.52  37 2.52  81 2.52
                           100 2.53  82 2.54  29 2.55  94 2.55
  94  0.635  0.335  0.251-  38 2.47  51 2.48  29 2.49  30 2.51  95 2.51  41 2.51  84 2.52  44 2.52
                            43 2.55  50 2.55  93 2.55  48 2.60
  95  0.462  0.446  0.169-  42 2.50  30 2.50  51 2.51  94 2.51  34 2.51  44 2.52  52 2.52  38 2.53
                            31 2.53  97 2.54  49 2.55  39 2.57
  96  0.113  0.666  0.001-   2 2.49  45 2.50   8 2.52  25 2.52 102 2.52  54 2.53  57 2.53  42 2.53
                            35 2.53  98 2.55  77 2.56  53 2.59
  97  0.529  0.669  0.251-  52 2.50  47 2.51 103 2.51  99 2.51  36 2.51  34 2.52  85 2.52  42 2.52
                           104 2.53  44 2.53  95 2.54  45 2.54
  98  0.175  0.890  0.083-  82 2.51  25 2.51   8 2.51  45 2.52  70 2.52  26 2.52  37 2.52 108 2.53
                           105 2.54  81 2.54  35 2.54  96 2.55
  99  0.770  0.777  0.417-  27 2.48  23 2.49  44 2.50 103 2.51  97 2.51  36 2.52  88 2.53  68 2.53
                           106 2.53  46 2.53  91 2.53  47 2.56
 100  0.665  0.999  0.999-  14 2.47  26 2.49  48 2.49   4 2.50  37 2.50  80 2.51 105 2.51  69 2.52
                            93 2.53 101 2.53  62 2.54 108 2.54
 101  0.905  0.109  0.166-  26 2.49  48 2.49  92 2.49  93 2.51  41 2.51  17 2.51  70 2.51 108 2.52
                            82 2.52 100 2.53  83 2.53  50 2.54
 102  0.446  0.668  1.000-   8 2.50  45 2.50 104 2.50   6 2.52  13 2.52  96 2.52 105 2.53  54 2.53
                            57 2.53  52 2.54  14 2.55  42 2.56
 103  0.860  0.669  0.250-  52 2.50 106 2.50  99 2.51  23 2.51  97 2.51  35 2.51  19 2.52 104 2.52
                            53 2.52  85 2.54  44 2.55  51 2.58
 104  0.685  0.777  0.165-  52 2.50 108 2.50 102 2.50  35 2.50  45 2.51  47 2.52 103 2.52 106 2.53
                           105 2.53  97 2.53  54 2.54  92 2.54
 105  0.509  0.890  0.083-  45 2.50  93 2.50  37 2.50   8 2.51 100 2.51 108 2.51  14 2.52 102 2.53
                            92 2.53 104 2.53  98 2.54  81 2.55
 106  0.923  0.889  0.333-  47 2.47  23 2.47  40 2.48 103 2.50  27 2.52  35 2.52  92 2.52  70 2.52
                           104 2.53  99 2.53  59 2.53  89 2.56
 107  0.888  0.329  0.998-  62 2.50  48 2.51  31 2.52  11 2.52  49 2.52  83 2.52  53 2.52  39 2.52
                            65 2.53  20 2.56   2 2.56  51 2.58
 108  0.841  0.887  0.083- 104 2.50  35 2.50  14 2.51  26 2.51 105 2.51  25 2.52 101 2.52  98 2.53
                            70 2.53  92 2.53 100 2.54  54 2.56
 

IMPORTANT INFORMATION: All symmetrisations will be switched off!
NOSYMM: (Re-)initialisation of all symmetry stuff for point group C_1.

 
 

Automatic generation of k-mesh.
 generate k-points for:    5    3    3
Space group operators:
 irot       det(A)        alpha          n_x          n_y          n_z        tau_x        tau_y        tau_z
    1     1.000000     0.000001     1.000000     0.000000     0.000000     0.000000     0.000000     0.000000
 
 Subroutine IBZKPT returns following result:
 ===========================================
 
 Found     23 irreducible k-points:
 
 Following reciprocal coordinates:
            Coordinates               Weight
  0.000000  0.000000  0.000000      1.000000
  0.200000  0.000000  0.000000      2.000000
  0.400000  0.000000  0.000000      2.000000
  0.000000  0.333333  0.000000      2.000000
  0.200000  0.333333  0.000000      2.000000
  0.400000  0.333333  0.000000      2.000000
 -0.400000  0.333333  0.000000      2.000000
 -0.200000  0.333333  0.000000      2.000000
  0.000000  0.000000  0.333333      2.000000
  0.200000  0.000000  0.333333      2.000000
  0.400000  0.000000  0.333333      2.000000
 -0.400000  0.000000  0.333333      2.000000
 -0.200000  0.000000  0.333333      2.000000
  0.000000  0.333333  0.333333      2.000000
  0.200000  0.333333  0.333333      2.000000
  0.400000  0.333333  0.333333      2.000000
 -0.400000  0.333333  0.333333      2.000000
 -0.200000  0.333333  0.333333      2.000000
  0.000000 -0.333333  0.333333      2.000000
  0.200000 -0.333333  0.333333      2.000000
  0.400000 -0.333333  0.333333      2.000000
 -0.400000 -0.333333  0.333333      2.000000
 -0.200000 -0.333333  0.333333      2.000000
 
 Following cartesian coordinates:
            Coordinates               Weight
  0.000000 -0.000000  0.000000      1.000000
  0.079630 -0.016667 -0.053704      2.000000
  0.159259 -0.033333 -0.107407      2.000000
  0.074074 -0.000000  0.074074      2.000000
  0.153704 -0.016667  0.020370      2.000000
  0.233333 -0.033333 -0.033333      2.000000
 -0.085185  0.033333  0.181481      2.000000
 -0.005556  0.016667  0.127778      2.000000
  0.027778 -0.083333  0.027778      2.000000
  0.107407 -0.100000 -0.025926      2.000000
  0.187037 -0.116667 -0.079630      2.000000
 -0.131481 -0.050000  0.135185      2.000000
 -0.051852 -0.066667  0.081481      2.000000
  0.101852 -0.083333  0.101852      2.000000
  0.181481 -0.100000  0.048148      2.000000
  0.261111 -0.116667 -0.005556      2.000000
 -0.057407 -0.050000  0.209259      2.000000
  0.022222 -0.066667  0.155556      2.000000
 -0.046296 -0.083333 -0.046296      2.000000
  0.033333 -0.100000 -0.100000      2.000000
  0.112963 -0.116667 -0.153704      2.000000
 -0.205556 -0.050000  0.061111      2.000000
 -0.125926 -0.066667  0.007407      2.000000
 
 TETIRR: Found    132 inequivalent tetrahedra from      270


--------------------------------------------------------------------------------------------------------




 Dimension of arrays:
   k-points           NKPTS =     23   k-points in BZ     NKDIM =     23   number of bands    NBANDS=    693
   number of dos      NEDOS =    301   number of ions     NIONS =    108
   non local maximal  LDIM  =      6   non local SUM 2l+1 LMDIM =     18
   total plane-waves  NPLWV = 580608
   max r-space proj   IRMAX =   7187   max aug-charges    IRDMAX=  17019
   dimension x,y,z NGX =    56 NGY =   96 NGZ =  108
   dimension x,y,z NGXF=   112 NGYF=  192 NGZF=  216
   support grid    NGXF=   112 NGYF=  192 NGZF=  216
   ions per type =              54  54
   NGX,Y,Z   is equivalent  to a cutoff of  12.29, 12.64, 12.38 a.u.
   NGXF,Y,Z  is equivalent  to a cutoff of  24.58, 25.28, 24.76 a.u.

 SYSTEM =  SQS-NiFe                                
 POSCAR =  POSCAR                                  

 Startparameter for this run:
   NWRITE =      2    write-flag & timer
   PREC   = accura    normal or accurate (medium, high low for compatibility)
   ISTART =      0    job   : 0-new  1-cont  2-samecut
   ICHARG =     11    charge: 1-file 2-atom 10-const
   ISPIN  =      2    spin polarized calculation?
   LNONCOLLINEAR =      F non collinear calculations
   LSORBIT =      F    spin-orbit coupling
   INIWAV =      1    electr: 0-lowe 1-rand  2-diag
   LASPH  =      F    aspherical Exc in radial PAW
   METAGGA=      F    non-selfconsistent MetaGGA calc.

 Electronic Relaxation 1
   ENCUT  =  520.0 eV  38.22 Ry    6.18 a.u.  14.08 23.47 26.97*2*pi/ulx,y,z
   ENINI  =  520.0     initial cutoff
   ENAUG  =  544.6 eV  augmentation charge cutoff
   NELM   =    200;   NELMIN=  2; NELMDL= -5     # of ELM steps 
   EDIFF  = 0.1E-05   stopping-criterion for ELM
   LREAL  =      T    real-space projection
   NLSPLINE    = F    spline interpolate recip. space projectors
   LCOMPAT=      F    compatible to vasp.4.4
   GGA_COMPAT  = T    GGA compatible to vasp.4.4-vasp.4.6
   LMAXPAW     = -100 max onsite density
   LMAXMIX     =    2 max onsite mixed and CHGCAR
   VOSKOWN=      0    Vosko Wilk Nusair interpolation
   ROPT   =   -0.00025  -0.00025
 Ionic relaxation
   EDIFFG = -.2E-01   stopping-criterion for IOM
   NSW    =      0    number of steps for IOM
   NBLOCK =      1;   KBLOCK =      1    inner block; outer block 
   IBRION =     -1    ionic relax: 0-MD 1-quasi-New 2-CG
   NFREE  =      0    steps in history (QN), initial steepest desc. (CG)
   ISIF   =      2    stress and relaxation
   IWAVPR =     10    prediction:  0-non 1-charg 2-wave 3-comb
   ISYM   =      0    0-nonsym 1-usesym 2-fastsym
   LCORR  =      T    Harris-Foulkes like correction to forces

   POTIM  = 0.5000    time-step for ionic-motion
   TEIN   =    0.0    initial temperature
   TEBEG  =    0.0;   TEEND  =   0.0 temperature during run
   SMASS  =  -3.00    Nose mass-parameter (am)
   estimated Nose-frequenzy (Omega)   =  0.10E-29 period in steps =****** mass=  -0.131E-26a.u.
   SCALEE = 1.0000    scale energy and forces
   NPACO  =    256;   APACO  = 16.0  distance and # of slots for P.C.
   PSTRESS=    0.0 pullay stress

  Mass of Ions in am
   POMASS =  55.85 58.69
  Ionic Valenz
   ZVAL   =   8.00 10.00
  Atomic Wigner-Seitz radii
   RWIGS  =  -1.00 -1.00
  virtual crystal weights 
   VCA    =   1.00  1.00
   NELECT =     972.0000    total number of electrons
   NUPDOWN=      -1.0000    fix difference up-down

 DOS related values:
   EMIN   =  10.00;   EMAX   =-10.00  energy-range for DOS
   EFERMI =   0.00
   ISMEAR =    -5;   SIGMA  =   0.20  broadening in eV -4-tet -1-fermi 0-gaus

 Electronic relaxation 2 (details)
   IALGO  =     68    algorithm
   LDIAG  =      T    sub-space diagonalisation (order eigenvalues)
   LSUBROT=      F    optimize rotation matrix (better conditioning)
   TURBO    =      0    0=normal 1=particle mesh
   IRESTART =      0    0=no restart 2=restart with 2 vectors
   NREBOOT  =      0    no. of reboots
   NMIN     =      0    reboot dimension
   EREF     =   0.00    reference energy to select bands
   IMIX   =      4    mixing-type and parameters
     AMIX     =   0.40;   BMIX     =  1.00
     AMIX_MAG =   1.60;   BMIX_MAG =  1.00
     AMIN     =   0.10
     WC   =   100.;   INIMIX=   1;  MIXPRE=   1;  MAXMIX= -45

 Intra band minimization:
   WEIMIN = 0.0000     energy-eigenvalue tresh-hold
   EBREAK =  0.36E-09  absolut break condition
   DEPER  =   0.30     relativ break condition  

   TIME   =   0.40     timestep for ELM

  volume/ion in A,a.u.               =      11.38        76.83
  Fermi-wavevector in a.u.,A,eV,Ry     =   1.513744  2.860562 31.176681  2.291421
  Thomas-Fermi vector in A             =   2.623494
 
 Write flags
   LWAVE        =      F    write WAVECAR
   LDOWNSAMPLE  =      F    k-point downsampling of WAVECAR
   LCHARG       =      F    write CHGCAR
   LVTOT        =      F    write LOCPOT, total local potential
   LVHAR        =      F    write LOCPOT, Hartree potential only
   LELF         =      F    write electronic localiz. function (ELF)
   LORBIT       =     11    0 simple, 1 ext, 2 COOP (PROOUT), +10 PAW based schemes


 Dipole corrections
   LMONO  =      F    monopole corrections only (constant potential shift)
   LDIPOL =      F    correct potential (dipole corrections)
   IDIPOL =      0    1-x, 2-y, 3-z, 4-all directions 
   EPSILON=  1.0000000 bulk dielectric constant

 Exchange correlation treatment:
   GGA     =    --    GGA type
   LEXCH   =     8    internal setting for exchange type
   VOSKOWN=      0    Vosko Wilk Nusair interpolation
   LHFCALC =     F    Hartree Fock is set to
   LHFONE  =     F    Hartree Fock one center treatment
   AEXX    =    0.0000 exact exchange contribution

 Linear response parameters
   LEPSILON=     F    determine dielectric tensor
   LRPA    =     F    only Hartree local field effects (RPA)
   LNABLA  =     F    use nabla operator in PAW spheres
   LVEL    =     F    velocity operator in full k-point grid
   LINTERFAST=   F  fast interpolation
   KINTER  =     0    interpolate to denser k-point grid
   CSHIFT  =0.1000    complex shift for real part using Kramers Kronig
   OMEGAMAX=  -1.0    maximum frequency
   DEG_THRESHOLD= 0.2000000E-02 threshold for treating states as degnerate
   RTIME   =   -0.100 relaxation time in fs
  (WPLASMAI=    0.000 imaginary part of plasma frequency in eV, 0.658/RTIME)
   DFIELD  = 0.0000000 0.0000000 0.0000000 field for delta impulse in time
 
 Orbital magnetization related:
   ORBITALMAG=     F  switch on orbital magnetization
   LCHIMAG   =     F  perturbation theory with respect to B field
   DQ        =  0.001000  dq finite difference perturbation B field
   LLRAUG    =     F  two centre corrections for induced B field



--------------------------------------------------------------------------------------------------------


 Static calculation
 charge density and potential remain constant during run
 spin polarized calculation
 RMM-DIIS sequential band-by-band and
  variant of blocked Davidson during initial phase
 perform sub-space diagonalisation
    before iterative eigenvector-optimisation
 no mixing
 using additional bands          207
 real space projection scheme for non local part
 use partial core corrections
 calculate Harris-corrections to forces 
   (improved forces if not selfconsistent)
 use gradient corrections 
 WARNING: stress and forces are not correct
  (second derivative of E(xc) not defined)
 use of overlap-Matrix (Vanderbilt PP)
 Fermi weights with tetrahedron method with Bloechl corrections


--------------------------------------------------------------------------------------------------------


  energy-cutoff  :      520.00
  volume of cell :     1229.51
      direct lattice vectors                 reciprocal lattice vectors
     5.356500000  0.000000000 -5.356500000     0.111494861 -0.023336134 -0.075194208
     7.142000000  5.356500000  8.927500000     0.062229690  0.000000000  0.062229690
    -1.785500000-14.284000000  1.785500000     0.023336134 -0.070008401  0.023336134

  length of vectors
     7.575234947 12.625391578 14.505470571     0.136491202  0.088006071  0.077397199


 
 k-points in units of 2pi/SCALE and weight: read from INCAR                         
   0.00000000 -0.00000000  0.00000000       0.022
   0.07962963 -0.01666667 -0.05370370       0.044
   0.15925926 -0.03333333 -0.10740741       0.044
   0.07407407 -0.00000000  0.07407407       0.044
   0.15370370 -0.01666667  0.02037037       0.044
   0.23333333 -0.03333333 -0.03333333       0.044
  -0.08518519  0.03333333  0.18148148       0.044
  -0.00555556  0.01666667  0.12777778       0.044
   0.02777778 -0.08333333  0.02777778       0.044
   0.10740741 -0.10000000 -0.02592593       0.044
   0.18703704 -0.11666667 -0.07962963       0.044
  -0.13148148 -0.05000000  0.13518519       0.044
  -0.05185185 -0.06666667  0.08148148       0.044
   0.10185185 -0.08333333  0.10185185       0.044
   0.18148148 -0.10000000  0.04814815       0.044
   0.26111111 -0.11666667 -0.00555556       0.044
  -0.05740741 -0.05000000  0.20925926       0.044
   0.02222222 -0.06666667  0.15555556       0.044
  -0.04629630 -0.08333333 -0.04629630       0.044
   0.03333333 -0.10000000 -0.10000000       0.044
   0.11296296 -0.11666667 -0.15370370       0.044
  -0.20555556 -0.05000000  0.06111111       0.044
  -0.12592593 -0.06666667  0.00740741       0.044
 
 k-points in reciprocal lattice and weights: read from INCAR                         
   0.00000000  0.00000000  0.00000000       0.022
   0.20000000  0.00000000  0.00000000       0.044
   0.40000000  0.00000000  0.00000000       0.044
   0.00000000  0.33333333  0.00000000       0.044
   0.20000000  0.33333333  0.00000000       0.044
   0.40000000  0.33333333  0.00000000       0.044
  -0.40000000  0.33333333  0.00000000       0.044
  -0.20000000  0.33333333  0.00000000       0.044
   0.00000000  0.00000000  0.33333333       0.044
   0.20000000  0.00000000  0.33333333       0.044
   0.40000000  0.00000000  0.33333333       0.044
  -0.40000000  0.00000000  0.33333333       0.044
  -0.20000000  0.00000000  0.33333333       0.044
   0.00000000  0.33333333  0.33333333       0.044
   0.20000000  0.33333333  0.33333333       0.044
   0.40000000  0.33333333  0.33333333       0.044
  -0.40000000  0.33333333  0.33333333       0.044
  -0.20000000  0.33333333  0.33333333       0.044
   0.00000000 -0.33333333  0.33333333       0.044
   0.20000000 -0.33333333  0.33333333       0.044
   0.40000000 -0.33333333  0.33333333       0.044
  -0.40000000 -0.33333333  0.33333333       0.044
  -0.20000000 -0.33333333  0.33333333       0.044
 
 position of ions in fractional coordinates (direct lattice) 
   0.15688982  0.10896160  0.91556871
   0.03989950  0.44709447  0.91535776
   0.25079828  0.00130206  0.75049253
   0.49391920  0.11100220  0.91686353
   0.14027589  0.33609597  0.74870406
   0.37823173  0.44631602  0.91548926
   0.02390918  0.66347346  0.74487150
   0.26908977  0.77701099  0.91798238
   0.58885793  0.99593670  0.74725960
   0.05904514  0.33423275  0.50190424
   0.64720287  0.22079165  0.83192900
   0.47351672  0.33446633  0.74897052
   0.53669678  0.55788321  0.83303654
   0.60303947  0.78138523  0.91628260
   0.49987361  0.00050028  0.50083097
   0.31990548  0.10890004  0.41429163
   0.14700437  0.21995202  0.33077623
   0.56228814  0.22249044  0.58340024
   0.03861266  0.55870662  0.33265881
   0.98294118  0.21796275  0.82940564
   0.63438062  0.44530461  0.66664124
   0.28153960  0.66521051  0.50505294
   0.09960192  0.78287635  0.41546831
   0.33976161  0.88842563  0.58437838
   0.93490270  0.77521668  0.91748424
   0.99461396  0.00080723  0.00132848
   0.83601927  0.99460595  0.50184526
   0.65798607  0.11389016  0.41674194
   0.48071731  0.22536810  0.33357047
   0.30573076  0.33765131  0.25300312
   0.12552442  0.44079610  0.16520269
   0.89565869  0.22136381  0.58417501
   0.72193178  0.33555017  0.50090215
   0.37004144  0.55887758  0.33413938
   0.01572014  0.77863681  0.16642706
   0.43908897  0.77920758  0.41832650
   0.33476663  0.99927856  0.99907934
   0.40020929  0.22330239  0.08805685
   0.22147611  0.33109291  0.99763427
   0.98676089  0.10736955  0.41433073
   0.81132829  0.22203778  0.33053586
   0.28870780  0.55511314  0.08546270
   0.88006893  0.44640691  0.41869610
   0.70219679  0.55666483  0.33478567
   0.35345679  0.77908956  0.16430345
   0.94812252  0.67153555  0.50716474
   0.59632951  0.89015697  0.33184369
   0.73567906  0.21840157  0.08219093
   0.55742243  0.33504676  0.00084421
   0.97120567  0.33230595  0.25042455
   0.79155107  0.44175811  0.16795390
   0.62006356  0.55755742  0.08647325
   0.95286961  0.55090033  0.08585462
   0.77776369  0.66207223  0.99795664
   0.07516235  0.11237453  0.66584586
   0.31638930  0.22241034  0.83152938
   0.20445063  0.55790023  0.83279036
   0.09040468  0.88751767  0.83296550
   0.16569396  0.99959730  0.49958342
   0.40613260  0.11153338  0.66618287
   0.22993555  0.22188490  0.58253333
   0.82504911  0.10906786  0.91420270
   0.29972070  0.44573231  0.66838644
   0.12165446  0.55414994  0.58372555
   0.71269128  0.44135523  0.91590061
   0.36126166  0.66771184  0.75006788
   0.18714876  0.77899895  0.66825258
   0.00945938  0.88767062  0.58483769
   0.42614246  0.88866202  0.83204430
   0.08184207  0.99927610  0.24913618
   0.92092434  0.99998586  0.74938757
   0.74022689  0.11035020  0.66616182
   0.38820056  0.33254695  0.50047291
   0.21284262  0.44508151  0.41831699
   0.80527507  0.33208928  0.74963029
   0.45597021  0.55394345  0.58331999
   0.86921979  0.55495082  0.83157251
   0.69577329  0.66726217  0.74951365
   0.51892776  0.77680177  0.66749633
   0.76279681  0.88923575  0.83467029
   0.41550901  0.00194356  0.25050269
   0.23875324  0.11107862  0.16662460
   0.06522508  0.22000065  0.08303127
   0.54546511  0.44588219  0.41799809
   0.19584951  0.66973555  0.24980881
   0.96351621  0.44265562  0.66572155
   0.78796549  0.55636355  0.58314784
   0.61280527  0.66786626  0.50236859
   0.26039931  0.89002034  0.33264695
   0.85164874  0.77846569  0.66837997
   0.67416099  0.88801561  0.58315388
   0.74944903  0.00126143  0.24975417
   0.57415031  0.11012058  0.16577027
   0.63542827  0.33485399  0.25128943
   0.46169143  0.44551073  0.16867461
   0.11310118  0.66588472  0.00094107
   0.52891721  0.66924971  0.25142107
   0.17465106  0.88991225  0.08267967
   0.77041136  0.77668165  0.41702933
   0.66516961  0.99914656  0.99851307
   0.90517107  0.10912827  0.16615214
   0.44583976  0.66778065  0.99994100
   0.86015930  0.66884191  0.25035284
   0.68465946  0.77741144  0.16495231
   0.50948279  0.89007180  0.08267249
   0.92297747  0.88925046  0.33277292
   0.88804727  0.32894664  0.99819569
   0.84090356  0.88748469  0.08262225
 
 position of ions in cartesian coordinates  (Angst):
  -0.01616390-12.49433070  1.76712231
   1.77249908-10.68010876  5.41208542
   0.01269592-10.71306085  0.00822759
   1.80139606-12.50189540 -0.01764622
   1.81497410 -8.89419077  3.58592008
   3.57898118-10.68615681  3.59309405
   3.53662890 -7.08584897  7.12505782
   5.35173429 -8.95040103  7.13444377
   8.93296535 -5.33912119  7.07123938
   1.80721561 -5.37888240  3.56373762
   3.55822688-10.70060338 -0.01021554
   3.58786398 -8.90672596  1.78684267
   5.37183148 -8.91079246  3.59307282
   7.17481165 -8.90269060  5.38165833
   1.78691224 -7.15118986 -1.77887306
   1.75162005 -5.33441853 -0.00165092
   1.76772532 -3.54663470  1.76679372
   3.55926203 -7.14151902  0.01604817
   3.60314905 -1.75898645  5.37498694
   5.34091061-10.67971265 -1.83835823
   5.38813740 -7.13702934  1.76768501
   5.35722836 -3.65097602  5.33237198
   5.38300192 -1.74107219  7.19742966
   7.12166133 -3.58840893  7.15489440
   8.90623569 -8.95289673  3.55110870
   5.33104288 -0.01465207 -5.31807113
  10.68556815 -1.84075102  5.29725210
   3.59381317 -5.34268916 -1.76365523
   3.58895114 -3.55753645  0.03260149
   3.59741541 -1.80526727  1.82847229
   3.52556791  0.00136916  3.55780506
   5.33553163 -7.15862061 -1.77832584
   5.36916607 -5.35751188  0.02295738
   5.37702483 -1.77921909  3.60385850
   5.34807349  1.79352387  7.16423068
   7.17015864 -1.80155026  5.35131757
   7.14616879 -8.91821362  8.91173807
   3.58132122 -0.06168481  0.00703650
   1.76972637-12.47670874  3.55077118
   5.31263050 -5.34317518 -3.58725552
   5.34150200 -3.53202882 -1.77346595
   5.35848775  1.75271428  3.56190291
   7.15474547 -3.58947646  0.01879032
   7.13925752 -1.80030334  1.80606804
   7.16418508  1.82628268  5.35539454
   8.96918258 -3.64726096  1.82205800
   8.95923318  0.02807049  5.34514419
   5.35373696 -0.00414729 -1.84413294
   5.37722991  1.78261930  0.00680403
   7.12845921 -1.79706750 -1.78846880
   7.09509802 -0.03277614  0.00373389
   7.14904756  1.75137243  1.81062139
   8.88528281  1.72455023 -0.03258994
   7.11275952-10.70842274  3.52641025
   0.01631823 -8.90900808  1.78948429
   1.79849825-10.68622465  1.77552478
   3.59271602 -8.90718497  5.37246168
   5.33564402 -7.14409073  8.92632123
   7.13465742 -1.78170657  8.92837138
   1.78255117 -8.91832760  0.00973449
   1.77623846 -7.13237960  1.78934094
   3.56602930-12.47424935 -1.81336329
   3.59547009 -7.15966673  3.56722527
   3.56713902 -5.36963160  5.33777344
   5.33434940-10.71860506  1.75800854
   5.36464985 -7.13737107  5.36514558
   5.37290787 -5.37261201  7.14521577
   5.34618504 -3.59901397  8.91823797
   7.14384114 -7.12480263  7.13651323
   7.13038429  1.79396120  8.92748296
  10.73679876 -5.34782774  5.33247403
   3.56371451 -8.92436463 -1.79044200
   3.56085225 -5.36746731  1.78301096
   3.57195865 -3.59116079  3.58027864
   5.34677263 -8.92888282 -0.01026402
   5.35715074 -5.36494461  3.54444356
   7.13466182 -8.90558773  1.78312032
   7.15423946 -7.13186311  3.56833003
   7.13574010 -5.37357889  5.34707602
   8.94653907 -7.15923915  5.34303488
   1.79228239 -3.56776977 -1.76105031
   1.77469697 -1.78507325  0.01028085
   1.77237046 -0.00758522  1.76293004
   5.35993889 -3.58231676  1.80516499
   5.38628558  0.01916951  5.37602989
   7.13387515 -7.13808182 -0.02062071
   7.15307514 -5.34952236  1.78740889
   7.15541312 -3.59840741  3.57686367
   7.15741301  0.01586488  7.14476879
   8.92826602 -5.37728799  3.58128841
   8.91212960 -3.57311439  5.35783730
   3.57749678 -3.56073171 -3.55722622
   3.56593452 -1.77800165 -1.79635180
   5.34652147 -1.79577280  0.03441473
   5.35371927 -0.02296987  1.80541541
   5.35989490  3.55336925  5.34053968
   7.16401418 -0.00646248  3.59049411
   7.14364710  3.58581850  7.15679776
   8.92916293 -1.79655173  3.55172286
   8.91604068 -8.91083220  7.13974501
   5.33127829 -1.78877155 -3.57764157
   5.37203543-10.70619018  5.35886576
   8.93730723  0.00661179  1.81064785
   8.92512854  1.80802550  3.56748453
   8.93832559  3.58677574  5.36468313
  10.70078958  0.00994171  3.58902075
   5.32388372-12.49622450 -0.03787565
  10.69519353  3.57363553  3.56624168
 


--------------------------------------------------------------------------------------------------------


 k-point  1 :   0.0000 0.0000 0.0000  plane waves:   33103
 k-point  2 :   0.2000 0.0000 0.0000  plane waves:   33112
 k-point  3 :   0.4000 0.0000 0.0000  plane waves:   33116
 k-point  4 :   0.0000 0.3333 0.0000  plane waves:   33088
 k-point  5 :   0.2000 0.3333 0.0000  plane waves:   33099
 k-point  6 :   0.4000 0.3333 0.0000  plane waves:   33090
 k-point  7 :  -0.4000 0.3333 0.0000  plane waves:   33125
 k-point  8 :  -0.2000 0.3333 0.0000  plane waves:   33060
 k-point  9 :   0.0000 0.0000 0.3333  plane waves:   33113
 k-point 10 :   0.2000 0.0000 0.3333  plane waves:   33112
 k-point 11 :   0.4000 0.0000 0.3333  plane waves:   33143
 k-point 12 :  -0.4000 0.0000 0.3333  plane waves:   33125
 k-point 13 :  -0.2000 0.0000 0.3333  plane waves:   33121
 k-point 14 :   0.0000 0.3333 0.3333  plane waves:   33078
 k-point 15 :   0.2000 0.3333 0.3333  plane waves:   33128
 k-point 16 :   0.4000 0.3333 0.3333  plane waves:   33131
 k-point 17 :  -0.4000 0.3333 0.3333  plane waves:   33117
 k-point 18 :  -0.2000 0.3333 0.3333  plane waves:   33095
 k-point 19 :   0.0000-0.3333 0.3333  plane waves:   33084
 k-point 20 :   0.2000-0.3333 0.3333  plane waves:   33086
 k-point 21 :   0.4000-0.3333 0.3333  plane waves:   33131
 k-point 22 :  -0.4000-0.3333 0.3333  plane waves:   33105
 k-point 23 :  -0.2000-0.3333 0.3333  plane waves:   33100

 maximum and minimum number of plane-waves per node :      1060     1009

 maximum number of plane-waves:     33143
 maximum index in each direction: 
   IXMAX=   14   IYMAX=   23   IZMAX=   26
   IXMIN=  -14   IYMIN=  -23   IZMIN=  -27


 real space projection operators:
  total allocation   :      96598.27 KBytes
  max/ min on nodes  :       3461.48       1727.30


 parallel 3D FFT for wavefunctions:
    minimum data exchange during FFTs selected (reduces bandwidth)
 parallel 3D FFT for charge:
    minimum data exchange during FFTs selected (reduces bandwidth)


 total amount of memory used by VASP MPI-rank0   249280. kBytes
=======================================================================

   base      :      30000. kBytes
   nonlr-proj:      17419. kBytes
   fftplans  :       3141. kBytes
   grid      :       8349. kBytes
   one-center:        124. kBytes
   wavefun   :     190247. kBytes
 
     INWAV:  cpu time    0.0010: real time    0.0001
 initial charge density was supplied:
 number of electron     972.0000063 magnetization     174.1601477
 keeping initial charge density in first step


--------------------------------------------------------------------------------------------------------


 Maximum index for non-local projection operator          450
 Maximum index for augmentation-charges         1155 (set IRDMAX)


--------------------------------------------------------------------------------------------------------


 First call to EWALD:  gamma=   0.165
 Maximum number of real-space cells 4x 3x 2
 Maximum number of reciprocal cells 2x 3x 4

    FEWALD:  cpu time    0.0080: real time    0.0074


--------------------------------------- Iteration      1(   1)  ---------------------------------------


    POTLOK:  cpu time    0.1130: real time    0.1182
    SETDIJ:  cpu time    0.0270: real time    0.0266
     EDDAV:  cpu time  140.1577: real time  140.7959
 BZINTS: Fermi energy: 22.767062;972.000000 electrons
         Band energy:***********;  BLOECHL correction: -0.021406
       DOS:  cpu time    0.4359: real time    0.4371
    --------------------------------------------
      LOOP:  cpu time  140.7336: real time  141.3777

 eigenvalue-minimisations  : 63756
 total energy-change (2. order) : 0.8671145E+04  (-0.3928814E+05)
 number of electron     972.0000063 magnetization     174.1601477
 augmentation part      972.0000063 magnetization     174.1601477

 Free energy of the ion-electron system (eV)
  ---------------------------------------------------
  alpha Z        PSCENC =      5865.25579871
  Ewald energy   TEWEN  =    -80857.41610069
  -Hartree energ DENC   =    -18663.01015024
  -exchange      EXHF   =         0.00000000
  -V(xc)+E(xc)   XCENC  =      1905.73394156
  PAW double counting   =     99979.56373197  -104179.00699058
  entropy T*S    EENTRO =         0.00000000
  eigenvalues    EBANDS =     14332.91044370
  atomic energy  EATOM  =     90287.11440572
  Solvation  Ediel_sol  =         0.00000000
  ---------------------------------------------------
  free energy    TOTEN  =      8671.14508015 eV

  energy without entropy =     8671.14508015  energy(sigma->0) =     8671.14508015


--------------------------------------------------------------------------------------------------------




--------------------------------------- Iteration      1(   2)  ---------------------------------------


     EDDAV:  cpu time  140.7446: real time  141.2227
 BZINTS: Fermi energy:  9.689619;972.000000 electrons
         Band energy:6159.878474;  BLOECHL correction: -0.013804
       DOS:  cpu time    0.4359: real time    0.4353
    --------------------------------------------
      LOOP:  cpu time  141.1805: real time  141.6580

 eigenvalue-minimisations  : 63756
 total energy-change (2. order) :-0.8173032E+04  (-0.7693175E+04)
 number of electron     972.0000063 magnetization     174.1601477
 augmentation part      972.0000063 magnetization     174.1601477

 Free energy of the ion-electron system (eV)
  ---------------------------------------------------
  alpha Z        PSCENC =      5865.25579871
  Ewald energy   TEWEN  =    -80857.41610069
  -Hartree energ DENC   =    -18663.01015024
  -exchange      EXHF   =         0.00000000
  -V(xc)+E(xc)   XCENC  =      1905.73394156
  PAW double counting   =     99979.56373197  -104179.00699058
  entropy T*S    EENTRO =         0.00000000
  eigenvalues    EBANDS =      6159.87847446
  atomic energy  EATOM  =     90287.11440572
  Solvation  Ediel_sol  =         0.00000000
  ---------------------------------------------------
  free energy    TOTEN  =       498.11311091 eV

  energy without entropy =      498.11311091  energy(sigma->0) =      498.11311091


--------------------------------------------------------------------------------------------------------




--------------------------------------- Iteration      1(   3)  ---------------------------------------


     EDDAV:  cpu time  141.7105: real time  142.0042
 BZINTS: Fermi energy:  7.543212;972.000000 electrons
         Band energy:4999.080460;  BLOECHL correction: -0.142780
       DOS:  cpu time    0.4249: real time    0.4249
    --------------------------------------------
      LOOP:  cpu time  142.1354: real time  142.4291

 eigenvalue-minimisations  : 63756
 total energy-change (2. order) :-0.1160798E+04  (-0.9128335E+03)
 number of electron     972.0000063 magnetization     174.1601477
 augmentation part      972.0000063 magnetization     174.1601477

 Free energy of the ion-electron system (eV)
  ---------------------------------------------------
  alpha Z        PSCENC =      5865.25579871
  Ewald energy   TEWEN  =    -80857.41610069
  -Hartree energ DENC   =    -18663.01015024
  -exchange      EXHF   =         0.00000000
  -V(xc)+E(xc)   XCENC  =      1905.73394156
  PAW double counting   =     99979.56373197  -104179.00699058
  entropy T*S    EENTRO =         0.00000000
  eigenvalues    EBANDS =      4999.08046024
  atomic energy  EATOM  =     90287.11440572
  Solvation  Ediel_sol  =         0.00000000
  ---------------------------------------------------
  free energy    TOTEN  =      -662.68490331 eV

  energy without entropy =     -662.68490331  energy(sigma->0) =     -662.68490331


--------------------------------------------------------------------------------------------------------




--------------------------------------- Iteration      1(   4)  ---------------------------------------


     EDDAV:  cpu time  148.3265: real time  149.3497
 BZINTS: Fermi energy:  7.456427;972.000000 electrons
         Band energy:4921.680648;  BLOECHL correction: -0.145903
       DOS:  cpu time    0.3749: real time    0.3760
    --------------------------------------------
      LOOP:  cpu time  148.7014: real time  149.7257

 eigenvalue-minimisations  : 67437
 total energy-change (2. order) :-0.7739981E+02  (-0.7390350E+02)
 number of electron     972.0000063 magnetization     174.1601477
 augmentation part      972.0000063 magnetization     174.1601477

 Free energy of the ion-electron system (eV)
  ---------------------------------------------------
  alpha Z        PSCENC =      5865.25579871
  Ewald energy   TEWEN  =    -80857.41610069
  -Hartree energ DENC   =    -18663.01015024
  -exchange      EXHF   =         0.00000000
  -V(xc)+E(xc)   XCENC  =      1905.73394156
  PAW double counting   =     99979.56373197  -104179.00699058
  entropy T*S    EENTRO =         0.00000000
  eigenvalues    EBANDS =      4921.68064824
  atomic energy  EATOM  =     90287.11440572
  Solvation  Ediel_sol  =         0.00000000
  ---------------------------------------------------
  free energy    TOTEN  =      -740.08471531 eV

  energy without entropy =     -740.08471531  energy(sigma->0) =     -740.08471531


--------------------------------------------------------------------------------------------------------




--------------------------------------- Iteration      1(   5)  ---------------------------------------


     EDDAV:  cpu time  150.5981: real time  151.7627
 BZINTS: Fermi energy:  7.455243;972.000000 electrons
         Band energy:4920.576065;  BLOECHL correction: -0.145845
       DOS:  cpu time    0.4189: real time    0.4195
    --------------------------------------------
      LOOP:  cpu time  151.0170: real time  152.1822

 eigenvalue-minimisations  : 69120
 total energy-change (2. order) :-0.1104584E+01  (-0.1102653E+01)
 number of electron     972.0000063 magnetization     174.1601477
 augmentation part      972.0000063 magnetization     174.1601477

 Free energy of the ion-electron system (eV)
  ---------------------------------------------------
  alpha Z        PSCENC =      5865.25579871
  Ewald energy   TEWEN  =    -80857.41610069
  -Hartree energ DENC   =    -18663.01015024
  -exchange      EXHF   =         0.00000000
  -V(xc)+E(xc)   XCENC  =      1905.73394156
  PAW double counting   =     99979.56373197  -104179.00699058
  entropy T*S    EENTRO =         0.00000000
  eigenvalues    EBANDS =      4920.57606456
  atomic energy  EATOM  =     90287.11440572
  Solvation  Ediel_sol  =         0.00000000
  ---------------------------------------------------
  free energy    TOTEN  =      -741.18929899 eV

  energy without entropy =     -741.18929899  energy(sigma->0) =     -741.18929899


--------------------------------------------------------------------------------------------------------




--------------------------------------- Iteration      1(   6)  ---------------------------------------


    EDDIAG:  cpu time   22.8495: real time   22.9703
  RMM-DIIS:  cpu time   69.4654: real time   69.8779
    ORTHCH:  cpu time    8.6137: real time    8.6233
 BZINTS: Fermi energy:  7.455194;972.000000 electrons
         Band energy:4920.531141;  BLOECHL correction: -0.145844
       DOS:  cpu time    0.4129: real time    0.4127
    --------------------------------------------
      LOOP:  cpu time  101.3416: real time  101.8842

 eigenvalue-minimisations  : 70949
 total energy-change (2. order) :-0.4492367E-01  (-0.4491281E-01)
 number of electron     972.0000063 magnetization     174.1601477
 augmentation part      972.0000063 magnetization     174.1601477

 Free energy of the ion-electron system (eV)
  ---------------------------------------------------
  alpha Z        PSCENC =      5865.25579871
  Ewald energy   TEWEN  =    -80857.41610069
  -Hartree energ DENC   =    -18663.01015024
  -exchange      EXHF   =         0.00000000
  -V(xc)+E(xc)   XCENC  =      1905.73394156
  PAW double counting   =     99979.56373197  -104179.00699058
  entropy T*S    EENTRO =         0.00000000
  eigenvalues    EBANDS =      4920.53114089
  atomic energy  EATOM  =     90287.11440572
  Solvation  Ediel_sol  =         0.00000000
  ---------------------------------------------------
  free energy    TOTEN  =      -741.23422266 eV

  energy without entropy =     -741.23422266  energy(sigma->0) =     -741.23422266


--------------------------------------------------------------------------------------------------------




--------------------------------------- Iteration      1(   7)  ---------------------------------------


    EDDIAG:  cpu time   23.5844: real time   23.6051
  RMM-DIIS:  cpu time   94.3527: real time   94.5344
    ORTHCH:  cpu time   11.2103: real time   11.2667
 BZINTS: Fermi energy:  7.455179;972.000000 electrons
         Band energy:4920.518496;  BLOECHL correction: -0.145845
       DOS:  cpu time    0.4099: real time    0.4096
    --------------------------------------------
      LOOP:  cpu time  129.5573: real time  129.8158

 eigenvalue-minimisations  : 98033
 total energy-change (2. order) :-0.1264487E-01  (-0.1260529E-01)
 number of electron     972.0000063 magnetization     174.1601477
 augmentation part      972.0000063 magnetization     174.1601477

 Free energy of the ion-electron system (eV)
  ---------------------------------------------------
  alpha Z        PSCENC =      5865.25579871
  Ewald energy   TEWEN  =    -80857.41610069
  -Hartree energ DENC   =    -18663.01015024
  -exchange      EXHF   =         0.00000000
  -V(xc)+E(xc)   XCENC  =      1905.73394156
  PAW double counting   =     99979.56373197  -104179.00699058
  entropy T*S    EENTRO =         0.00000000
  eigenvalues    EBANDS =      4920.51849602
  atomic energy  EATOM  =     90287.11440572
  Solvation  Ediel_sol  =         0.00000000
  ---------------------------------------------------
  free energy    TOTEN  =      -741.24686753 eV

  energy without entropy =     -741.24686753  energy(sigma->0) =     -741.24686753


--------------------------------------------------------------------------------------------------------




--------------------------------------- Iteration      1(   8)  ---------------------------------------


    EDDIAG:  cpu time   23.5444: real time   23.5679
  RMM-DIIS:  cpu time   82.9714: real time   83.4147
    ORTHCH:  cpu time    8.7167: real time    8.7280
 BZINTS: Fermi energy:  7.455179;972.000000 electrons
         Band energy:4920.518469;  BLOECHL correction: -0.145845
       DOS:  cpu time    0.4219: real time    0.4215
    --------------------------------------------
      LOOP:  cpu time  115.6544: real time  116.1320

 eigenvalue-minimisations  : 84374
 total energy-change (2. order) :-0.2723113E-04  (-0.9601601E-04)
 number of electron     972.0000063 magnetization     174.1601477
 augmentation part      972.0000063 magnetization     174.1601477

 Free energy of the ion-electron system (eV)
  ---------------------------------------------------
  alpha Z        PSCENC =      5865.25579871
  Ewald energy   TEWEN  =    -80857.41610069
  -Hartree energ DENC   =    -18663.01015024
  -exchange      EXHF   =         0.00000000
  -V(xc)+E(xc)   XCENC  =      1905.73394156
  PAW double counting   =     99979.56373197  -104179.00699058
  entropy T*S    EENTRO =         0.00000000
  eigenvalues    EBANDS =      4920.51846878
  atomic energy  EATOM  =     90287.11440572
  Solvation  Ediel_sol  =         0.00000000
  ---------------------------------------------------
  free energy    TOTEN  =      -741.24689476 eV

  energy without entropy =     -741.24689476  energy(sigma->0) =     -741.24689476


--------------------------------------------------------------------------------------------------------




--------------------------------------- Iteration      1(   9)  ---------------------------------------


    EDDIAG:  cpu time   22.9825: real time   23.0082
  RMM-DIIS:  cpu time   82.3475: real time   82.6545
    ORTHCH:  cpu time    8.6157: real time    8.6435
 BZINTS: Fermi energy:  7.455179;972.000000 electrons
         Band energy:4920.518459;  BLOECHL correction: -0.145845
       DOS:  cpu time    0.3999: real time    0.4010
    --------------------------------------------
      LOOP:  cpu time  114.3456: real time  114.7073

 eigenvalue-minimisations  : 85089
 total energy-change (2. order) :-0.9672032E-05  (-0.9490234E-05)
 number of electron     972.0000063 magnetization     174.1601477
 augmentation part      972.0000063 magnetization     174.1601477

 Free energy of the ion-electron system (eV)
  ---------------------------------------------------
  alpha Z        PSCENC =      5865.25579871
  Ewald energy   TEWEN  =    -80857.41610069
  -Hartree energ DENC   =    -18663.01015024
  -exchange      EXHF   =         0.00000000
  -V(xc)+E(xc)   XCENC  =      1905.73394156
  PAW double counting   =     99979.56373197  -104179.00699058
  entropy T*S    EENTRO =         0.00000000
  eigenvalues    EBANDS =      4920.51845911
  atomic energy  EATOM  =     90287.11440572
  Solvation  Ediel_sol  =         0.00000000
  ---------------------------------------------------
  free energy    TOTEN  =      -741.24690444 eV

  energy without entropy =     -741.24690444  energy(sigma->0) =     -741.24690444


--------------------------------------------------------------------------------------------------------




--------------------------------------- Iteration      1(  10)  ---------------------------------------


    EDDIAG:  cpu time   22.9405: real time   22.9910
  RMM-DIIS:  cpu time   60.7108: real time   60.8958
    ORTHCH:  cpu time    8.7467: real time    8.7548
 BZINTS: Fermi energy:  7.455179;972.000000 electrons
         Band energy:4920.518458;  BLOECHL correction: -0.145845
       DOS:  cpu time    0.4179: real time    0.4180
    --------------------------------------------
      LOOP:  cpu time   92.8159: real time   93.0595

 eigenvalue-minimisations  : 61960
 total energy-change (2. order) :-0.9244686E-06  (-0.9115476E-06)
 number of electron     972.0000063 magnetization     174.1601477
 augmentation part      972.0000063 magnetization     174.1601477

 Free energy of the ion-electron system (eV)
  ---------------------------------------------------
  alpha Z        PSCENC =      5865.25579871
  Ewald energy   TEWEN  =    -80857.41610069
  -Hartree energ DENC   =    -18663.01015024
  -exchange      EXHF   =         0.00000000
  -V(xc)+E(xc)   XCENC  =      1905.73394156
  PAW double counting   =     99979.56373197  -104179.00699058
  entropy T*S    EENTRO =         0.00000000
  eigenvalues    EBANDS =      4920.51845819
  atomic energy  EATOM  =     90287.11440572
  Solvation  Ediel_sol  =         0.00000000
  ---------------------------------------------------
  free energy    TOTEN  =      -741.24690536 eV

  energy without entropy =     -741.24690536  energy(sigma->0) =     -741.24690536


--------------------------------------------------------------------------------------------------------




 average (electrostatic) potential at core
  the test charge radii are     1.0103  0.9791
  (the norm of the test charge is              1.0000)
       1 -41.8575       2 -41.9048       3 -41.9626       4 -41.7956       5 -41.9031
       6 -41.8154       7 -42.1522       8 -42.0179       9 -42.0127      10 -41.9766
      11 -41.9650      12 -41.8526      13 -41.9055      14 -42.0082      15 -41.8532
      16 -41.8926      17 -41.8371      18 -41.8561      19 -41.8018      20 -41.9630
      21 -41.9429      22 -41.9633      23 -42.0199      24 -41.8741      25 -41.9880
      26 -42.0931      27 -42.0000      28 -41.7830      29 -41.8829      30 -41.8343
      31 -41.7576      32 -41.9359      33 -41.8509      34 -41.8602      35 -42.0843
      36 -41.9165      37 -41.9261      38 -41.9107      39 -41.8339      40 -41.8885
      41 -41.8566      42 -41.8230      43 -41.8181      44 -41.9524      45 -42.0407
      46 -42.0247      47 -41.9173      48 -41.9289      49 -41.8036      50 -41.7907
      51 -41.7549      52 -41.8918      53 -41.8084      54 -41.8669      55 -83.9627
      56 -83.9110      57 -83.9436      58 -83.9283      59 -83.9588      60 -83.9688
      61 -83.9992      62 -83.9437      63 -83.9502      64 -83.8794      65 -83.9427
      66 -83.8922      67 -83.8705      68 -83.8570      69 -83.9158      70 -83.8848
      71 -83.9094      72 -84.0310      73 -83.9177      74 -83.9118      75 -83.9959
      76 -83.8735      77 -83.8704      78 -83.8488      79 -83.9079      80 -83.9105
      81 -83.8983      82 -83.9636      83 -84.0116      84 -83.9230      85 -83.9608
      86 -83.9129      87 -83.9267      88 -83.9498      89 -83.9023      90 -83.8594
      91 -83.8796      92 -83.8861      93 -83.9504      94 -83.9579      95 -83.9716
      96 -83.9344      97 -83.9586      98 -83.9472      99 -83.9683     100 -83.9307
     101 -83.9360     102 -83.9339     103 -83.9556     104 -83.9321     105 -83.8760
     106 -83.9121     107 -83.9952     108 -83.9221
 
 
 
 E-fermi :   7.4552     XC(G=0): -13.0400     alpha+bet :-14.6744


 spin component 1

 k-point     1 :       0.0000    0.0000    0.0000
  band No.  band energies     occupation 
      1      -1.3112      1.00000
      2      -0.3914      1.00000
      3      -0.3336      1.00000
      4      -0.1113      1.00000
      5      -0.0943      1.00000
      6      -0.0729      1.00000
      7      -0.0389      1.00000
      8       1.3349      1.00000
      9       1.3608      1.00000
     10       1.3864      1.00000
     11       1.4136      1.00000
     12       1.4399      1.00000
     13       1.4543      1.00000
     14       1.5047      1.00000
     15       1.5378      1.00000
     16       1.7235      1.00000
     17       1.7366      1.00000
     18       1.8810      1.00000
     19       1.8969      1.00000
     20       1.9265      1.00000
     21       1.9424      1.00000
     22       2.0143      1.00000
     23       2.0378      1.00000
     24       2.1053      1.00000
     25       2.1458      1.00000
     26       2.2800      1.00000
     27       2.2932      1.00000
     28       2.3063      1.00000
     29       2.3251      1.00000
     30       2.3372      1.00000
     31       2.3490      1.00000
     32       2.3583      1.00000
     33       2.3935      1.00000
     34       2.3996      1.00000
     35       2.4154      1.00000
     36       2.4642      1.00000
     37       2.4689      1.00000
     38       2.4742      1.00000
     39       2.4928      1.00000
     40       2.5278      1.00000
     41       2.5381      1.00000
     42       2.5624      1.00000
     43       2.5715      1.00000
     44       2.6136      1.00000
     45       2.6348      1.00000
     46       2.6659      1.00000
     47       2.6866      1.00000
     48       2.6991      1.00000
     49       2.7372      1.00000
     50       2.7557      1.00000
     51       2.7774      1.00000
     52       2.7841      1.00000
     53       2.8047      1.00000
     54       2.8301      1.00000
     55       2.8434      1.00000
     56       2.8601      1.00000
     57       2.8917      1.00000
     58       2.9144      1.00000
     59       2.9664      1.00000
     60       2.9816      1.00000
     61       3.0006      1.00000
     62       3.0148      1.00000
     63       3.0319      1.00000
     64       3.0415      1.00000
     65       3.0603      1.00000
     66       3.0884      1.00000
     67       3.0992      1.00000
     68       3.1535      1.00000
     69       3.1604      1.00000
     70       3.1725      1.00000
     71       3.1915      1.00000
     72       3.2026      1.00000
     73       3.2205      1.00000
     74       3.2319      1.00000
     75       3.2549      1.00000
     76       3.2730      1.00000
     77       3.2865      1.00000
     78       3.3070      1.00000
     79       3.3111      1.00000
     80       3.3137      1.00000
     81       3.3213      1.00000
     82       3.3286      1.00000
     83       3.3349      1.00000
     84       3.3433      1.00000
     85       3.3506      1.00000
     86       3.3596      1.00000
     87       3.3620      1.00000
     88       3.3772      1.00000
     89       3.3836      1.00000
     90       3.3916      1.00000
     91       3.4049      1.00000
     92       3.4187      1.00000
     93       3.4237      1.00000
     94       3.4262      1.00000
     95       3.4318      1.00000
     96       3.4535      1.00000
     97       3.4666      1.00000
     98       3.4791      1.00000
     99       3.4841      1.00000
    100       3.4962      1.00000
    101       3.5054      1.00000
    102       3.5077      1.00000
    103       3.5181      1.00000
    104       3.5261      1.00000
    105       3.5374      1.00000
    106       3.5411      1.00000
    107       3.5481      1.00000
    108       3.5596      1.00000
    109       3.5644      1.00000
    110       3.5710      1.00000
    111       3.5797      1.00000
    112       3.5850      1.00000
    113       3.5897      1.00000
    114       3.5949      1.00000
    115       3.6044      1.00000
    116       3.6069      1.00000
    117       3.6206      1.00000
    118       3.6250      1.00000
    119       3.6297      1.00000
    120       3.6440      1.00000
    121       3.6494      1.00000
    122       3.6596      1.00000
    123       3.6651      1.00000
    124       3.6707      1.00000
    125       3.6727      1.00000
    126       3.6826      1.00000
    127       3.6867      1.00000
    128       3.7007      1.00000
    129       3.7102      1.00000
    130       3.7243      1.00000
    131       3.7321      1.00000
    132       3.7381      1.00000
    133       3.7486      1.00000
    134       3.7614      1.00000
    135       3.7742      1.00000
    136       3.7786      1.00000
    137       3.7815      1.00000
    138       3.7947      1.00000
    139       3.8074      1.00000
    140       3.8125      1.00000
    141       3.8183      1.00000
    142       3.8231      1.00000
    143       3.8300      1.00000
    144       3.8415      1.00000
    145       3.8480      1.00000
    146       3.8581      1.00000
    147       3.8673      1.00000
    148       3.8745      1.00000
    149       3.8793      1.00000
    150       3.8880      1.00000
    151       3.8922      1.00000
    152       3.9017      1.00000
    153       3.9132      1.00000
    154       3.9268      1.00000
    155       3.9386      1.00000
    156       3.9500      1.00000
    157       3.9573      1.00000
    158       3.9595      1.00000
    159       3.9757      1.00000
    160       3.9942      1.00000
    161       4.0095      1.00000
    162       4.0235      1.00000
    163       4.0412      1.00000
    164       4.0459      1.00000
    165       4.0579      1.00000
    166       4.0718      1.00000
    167       4.0892      1.00000
    168       4.0999      1.00000
    169       4.1027      1.00000
    170       4.1105      1.00000
    171       4.1196      1.00000
    172       4.1246      1.00000
    173       4.1367      1.00000
    174       4.1629      1.00000
    175       4.1939      1.00000
    176       4.2120      1.00000
    177       4.2153      1.00000
    178       4.2513      1.00000
    179       4.2635      1.00000
    180       4.2667      1.00000
    181       4.2881      1.00000
    182       4.2922      1.00000
    183       4.3051      1.00000
    184       4.3160      1.00000
    185       4.3161      1.00000
    186       4.3182      1.00000
    187       4.3499      1.00000
    188       4.3534      1.00000
    189       4.3720      1.00000
[...]
      3.58786     -8.90673      1.78684        -0.021517     -0.044174      0.025938
      5.37183     -8.91079      3.59307         0.000980      0.053123     -0.060132
      7.17481     -8.90269      5.38166        -0.013832     -0.002447      0.003916
      1.78691     -7.15119     -1.77887        -0.035183      0.031048     -0.040358
      1.75162     -5.33442     -0.00165         0.018920     -0.011846      0.012520
      1.76773     -3.54663      1.76679         0.032246      0.025709     -0.008890
      3.55926     -7.14152      0.01605        -0.131436     -0.123428      0.119278
      3.60315     -1.75899      5.37499        -0.011009     -0.031811     -0.006300
      5.34091    -10.67971     -1.83836        -0.008276     -0.004088     -0.025935
      5.38814     -7.13703      1.76769         0.018214     -0.041439      0.080212
      5.35723     -3.65098      5.33237        -0.008312      0.002596      0.009411
      5.38300     -1.74107      7.19743        -0.004457      0.015368     -0.015655
      7.12166     -3.58841      7.15489         0.023929     -0.000784      0.005419
      8.90624     -8.95290      3.55111        -0.006277     -0.012886     -0.011412
      5.33104     -0.01465     -5.31807         0.000665      0.001380      0.008074
     10.68557     -1.84075      5.29725        -0.039147     -0.014484     -0.055899
      3.59381     -5.34269     -1.76366        -0.288370      0.050209     -0.315252
      3.58895     -3.55754      0.03260        -0.202120      0.281839     -0.087056
      3.59742     -1.80527      1.82847        -0.014709     -0.044776      0.025226
      3.52557      0.00137      3.55781        -0.013922      0.003153     -0.009197
      5.33553     -7.15862     -1.77833         0.049907     -0.220978     -0.111250
      5.36917     -5.35751      0.02296         0.177679      0.092061      0.212303
      5.37702     -1.77922      3.60386        -0.011301      0.037513      0.032461
      5.34807      1.79352      7.16423        -0.014869      0.008284     -0.010861
      7.17016     -1.80155      5.35132         0.015240      0.011182      0.004409
      7.14617     -8.91821      8.91174         0.000047      0.008047      0.010765
      3.58132     -0.06168      0.00704         0.017127     -0.004888     -0.003621
      1.76973    -12.47671      3.55077         0.001427      0.018522      0.020590
      5.31263     -5.34318     -3.58726        -0.015696     -0.013626     -0.071084
      5.34150     -3.53203     -1.77347        -0.100077      0.191151     -0.029142
      5.35849      1.75271      3.56190         0.008426      0.008209      0.005677
      7.15475     -3.58948      0.01879         0.091767      0.020473     -0.023059
      7.13926     -1.80030      1.80607         0.012203      0.010756      0.070285
      7.16419      1.82628      5.35539         0.001650      0.023908     -0.011224
      8.96918     -3.64726      1.82206        -0.034673     -0.013684      0.023926
      8.95923      0.02807      5.34514         0.042168      0.021637      0.024122
      5.35374     -0.00415     -1.84413        -0.004659      0.017867      0.005384
      5.37723      1.78262      0.00680         0.012060      0.014248      0.002759
      7.12846     -1.79707     -1.78847        -0.008356      0.021062     -0.034558
      7.09510     -0.03278      0.00373        -0.016921     -0.006828     -0.010433
      7.14905      1.75137      1.81062         0.013972     -0.003157      0.026063
      8.88528      1.72455     -0.03259        -0.000407     -0.003634      0.005240
      7.11276    -10.70842      3.52641        -0.003288     -0.026566     -0.004971
      0.01632     -8.90901      1.78948        -0.013320      0.023440      0.031603
      1.79850    -10.68622      1.77552         0.011500      0.010880     -0.012828
      3.59272     -8.90718      5.37246         0.023824     -0.022182      0.018767
      5.33564     -7.14409      8.92632         0.001414     -0.001519      0.023166
      7.13466     -1.78171      8.92837         0.007331      0.008793      0.016511
      1.78255     -8.91833      0.00973         0.020566      0.035025      0.014001
      1.77624     -7.13238      1.78934         0.034228     -0.016801     -0.002978
      3.56603    -12.47425     -1.81336         0.004377      0.002628     -0.005876
      3.59547     -7.15967      3.56723        -0.023979     -0.019765      0.020225
      3.56714     -5.36963      5.33777        -0.008999      0.003204     -0.011208
      5.33435    -10.71861      1.75801        -0.001853      0.004570     -0.004067
      5.36465     -7.13737      5.36515         0.003451      0.008058     -0.018551
      5.37291     -5.37261      7.14522         0.000982     -0.005044     -0.018835
      5.34619     -3.59901      8.91824        -0.005170     -0.006362      0.015193
      7.14384     -7.12480      7.13651        -0.013924      0.008909     -0.010782
      7.13038      1.79396      8.92748        -0.006588     -0.009373      0.015366
     10.73680     -5.34783      5.33247        -0.006154     -0.006665     -0.008769
      3.56371     -8.92436     -1.79044        -0.000429     -0.002693     -0.000435
      3.56085     -5.36747      1.78301        -0.035907      0.019471      0.073616
      3.57196     -3.59116      3.58028         0.035674     -0.042768     -0.058987
      5.34677     -8.92888     -0.01026        -0.010644     -0.010802     -0.020171
      5.35715     -5.36494      3.54444         0.005529     -0.023535      0.023470
      7.13466     -8.90559      1.78312         0.048887     -0.044731     -0.003825
      7.15424     -7.13186      3.56833         0.053391      0.015529      0.021443
      7.13574     -5.37358      5.34708         0.001967     -0.007324     -0.014425
      8.94654     -7.15924      5.34303         0.007521     -0.009011     -0.009371
      1.79228     -3.56777     -1.76105         0.005793      0.018772      0.002190
      1.77470     -1.78507      0.01028         0.022947     -0.016616     -0.010878
      1.77237     -0.00759      1.76293        -0.008468      0.001387     -0.007362
      5.35994     -3.58232      1.80516        -0.008340     -0.076199      0.065608
      5.38629      0.01917      5.37603        -0.000282     -0.028003     -0.021040
      7.13388     -7.13808     -0.02062         0.065770      0.017800      0.000440
      7.15308     -5.34952      1.78741        -0.009898     -0.052225      0.044820
      7.15541     -3.59841      3.57686        -0.025307     -0.027598     -0.037265
      7.15741      0.01586      7.14477        -0.014130     -0.004374      0.023364
      8.92827     -5.37729      3.58129         0.029976     -0.011777      0.030387
      8.91213     -3.57311      5.35784         0.007289     -0.002109     -0.010837
      3.57750     -3.56073     -3.55723        -0.005157      0.028338     -0.009127
      3.56593     -1.77800     -1.79635        -0.023859     -0.005103     -0.011334
      5.34652     -1.79577      0.03441         0.004286      0.002150      0.011961
      5.35372     -0.02297      1.80542         0.008318     -0.000738      0.028978
      5.35989      3.55337      5.34054        -0.000991      0.007249     -0.017408
      7.16401     -0.00646      3.59049        -0.003438     -0.008092      0.004440
      7.14365      3.58582      7.15680        -0.018086      0.014024      0.000458
      8.92916     -1.79655      3.55172         0.020461      0.000923      0.002229
      8.91604     -8.91083      7.13975         0.003984      0.000166     -0.016326
      5.33128     -1.78877     -3.57764        -0.001652     -0.010181      0.012708
      5.37204    -10.70619      5.35887         0.008951      0.010421      0.008286
      8.93731      0.00661      1.81065        -0.001707      0.009214     -0.004103
      8.92513      1.80803      3.56748        -0.014058     -0.005723     -0.008964
      8.93833      3.58678      5.36468         0.007834      0.005723      0.000933
     10.70079      0.00994      3.58902         0.031229      0.009574      0.009083
      5.32388    -12.49622     -0.03788         0.001520     -0.002840     -0.001216
     10.69519      3.57364      3.56624         0.006893      0.011379     -0.012689
 -----------------------------------------------------------------------------------
    total drift:                                0.000073     -0.009164     -0.000203


--------------------------------------------------------------------------------------------------------



  FREE ENERGIE OF THE ION-ELECTRON SYSTEM (eV)
  ---------------------------------------------------
  free  energy   TOTEN  =      -741.24690536 eV

  energy  without entropy=     -741.24690536  energy(sigma->0) =     -741.24690536
 


--------------------------------------------------------------------------------------------------------


    POTLOK:  cpu time    0.1400: real time    0.1407


--------------------------------------------------------------------------------------------------------


     LOOP+:  cpu time 1393.7301: real time 1400.1978
    4ORBIT:  cpu time    0.0000: real time    0.0000
 


 total charge     
 
# of ion       s       p       d       tot
------------------------------------------
    1        0.478   0.507   6.203   7.188
    2        0.470   0.497   6.180   7.147
    3        0.471   0.493   6.182   7.146
    4        0.477   0.506   6.211   7.194
    5        0.472   0.498   6.189   7.159
    6        0.475   0.504   6.200   7.179
    7        0.467   0.493   6.147   7.108
    8        0.469   0.493   6.177   7.139
    9        0.470   0.497   6.172   7.139
   10        0.472   0.501   6.177   7.149
   11        0.473   0.499   6.179   7.151
   12        0.478   0.507   6.206   7.190
   13        0.471   0.499   6.192   7.162
   14        0.472   0.498   6.182   7.151
   15        0.474   0.501   6.199   7.174
   16        0.475   0.503   6.199   7.177
   17        0.479   0.504   6.209   7.192
   18        0.480   0.510   6.202   7.193
   19        0.470   0.499   6.201   7.170
   20        0.471   0.499   6.177   7.148
   21        0.474   0.498   6.188   7.160
   22        0.474   0.501   6.180   7.155
   23        0.468   0.496   6.165   7.129
   24        0.475   0.501   6.198   7.174
   25        0.470   0.498   6.184   7.152
   26        0.470   0.495   6.162   7.127
   27        0.472   0.501   6.175   7.148
   28        0.483   0.517   6.221   7.221
   29        0.476   0.504   6.198   7.179
   30        0.479   0.509   6.209   7.197
   31        0.482   0.509   6.219   7.210
   32        0.478   0.508   6.184   7.170
   33        0.483   0.518   6.209   7.209
   34        0.475   0.498   6.202   7.174
   35        0.466   0.487   6.149   7.102
   36        0.471   0.496   6.186   7.153
   37        0.470   0.494   6.185   7.150
   38        0.472   0.503   6.180   7.155
   39        0.471   0.500   6.190   7.162
   40        0.476   0.504   6.197   7.177
   41        0.482   0.512   6.205   7.199
   42        0.474   0.500   6.202   7.176
   43        0.472   0.499   6.199   7.170
   44        0.469   0.495   6.178   7.141
   45        0.466   0.489   6.158   7.113
   46        0.473   0.501   6.171   7.144
   47        0.469   0.494   6.186   7.149
   48        0.471   0.498   6.186   7.155
   49        0.474   0.505   6.201   7.179
   50        0.480   0.511   6.211   7.203
   51        0.481   0.513   6.217   7.211
   52        0.475   0.501   6.195   7.172
   53        0.472   0.500   6.207   7.179
   54        0.472   0.495   6.198   7.166
   55        0.503   0.503   8.308   9.313
   56        0.515   0.524   8.314   9.353
   57        0.504   0.505   8.312   9.321
   58        0.503   0.504   8.313   9.320
   59        0.505   0.507   8.313   9.325
   60        0.507   0.511   8.307   9.325
   61        0.507   0.509   8.307   9.323
   62        0.510   0.516   8.322   9.348
   63        0.502   0.500   8.314   9.316
   64        0.506   0.504   8.325   9.335
   65        0.513   0.521   8.315   9.349
   66        0.497   0.492   8.310   9.300
   67        0.506   0.505   8.328   9.339
   68        0.506   0.505   8.326   9.337
   69        0.503   0.502   8.320   9.324
   70        0.500   0.494   8.309   9.302
   71        0.502   0.496   8.324   9.322
   72        0.509   0.516   8.314   9.339
   73        0.505   0.506   8.318   9.328
   74        0.509   0.510   8.312   9.330
   75        0.514   0.523   8.305   9.342
   76        0.492   0.482   8.314   9.289
   77        0.504   0.504   8.323   9.331
   78        0.502   0.498   8.321   9.321
   79        0.498   0.492   8.313   9.303
   80        0.500   0.496   8.321   9.317
   81        0.497   0.492   8.306   9.295
   82        0.503   0.504   8.305   9.312
   83        0.511   0.519   8.305   9.335
   84        0.505   0.505   8.317   9.327
   85        0.511   0.516   8.313   9.340
   86        0.508   0.509   8.322   9.339
   87        0.509   0.508   8.324   9.341
   88        0.501   0.501   8.306   9.308
   89        0.504   0.506   8.312   9.323
   90        0.496   0.489   8.320   9.305
   91        0.505   0.501   8.326   9.331
   92        0.500   0.493   8.310   9.303
   93        0.501   0.501   8.311   9.313
   94        0.516   0.528   8.315   9.360
   95        0.521   0.534   8.312   9.367
   96        0.509   0.512   8.315   9.337
   97        0.509   0.515   8.314   9.338
   98        0.505   0.503   8.314   9.321
   99        0.508   0.508   8.318   9.333
  100        0.507   0.506   8.324   9.337
  101        0.507   0.507   8.314   9.328
  102        0.512   0.516   8.318   9.346
  103        0.507   0.510   8.315   9.332
  104        0.504   0.501   8.313   9.317
  105        0.499   0.494   8.316   9.309
  106        0.506   0.505   8.327   9.338
  107        0.510   0.519   8.306   9.334
  108        0.504   0.500   8.313   9.317
--------------------------------------------------
tot         52.871  54.388 783.295 890.554
 


 magnetization (x)
 
# of ion       s       p       d       tot
------------------------------------------
    1       -0.009  -0.035   2.613   2.569
    2       -0.006  -0.033   2.674   2.635
    3       -0.001  -0.018   2.678   2.659
    4       -0.011  -0.039   2.571   2.521
    5       -0.002  -0.023   2.647   2.622
    6       -0.010  -0.038   2.604   2.556
    7        0.005  -0.016   2.787   2.776
    8        0.000  -0.022   2.710   2.689
    9       -0.000  -0.022   2.714   2.692
   10       -0.004  -0.030   2.710   2.676
   11       -0.002  -0.024   2.692   2.665
   12       -0.007  -0.030   2.599   2.562
   13       -0.002  -0.025   2.644   2.617
   14        0.001  -0.020   2.695   2.675
   15       -0.006  -0.031   2.614   2.577
   16       -0.004  -0.026   2.629   2.599
   17       -0.008  -0.029   2.594   2.557
   18       -0.008  -0.033   2.608   2.567
   19       -0.011  -0.041   2.611   2.559
   20       -0.002  -0.027   2.693   2.665
   21       -0.001  -0.018   2.655   2.636
   22       -0.005  -0.029   2.686   2.651
   23       -0.000  -0.027   2.732   2.705
   24       -0.006  -0.027   2.616   2.583
   25       -0.002  -0.025   2.687   2.661
   26        0.003  -0.016   2.751   2.737
   27       -0.002  -0.025   2.704   2.677
   28       -0.014  -0.045   2.552   2.493
   29       -0.005  -0.025   2.631   2.601
   30       -0.005  -0.030   2.594   2.560
   31       -0.011  -0.034   2.542   2.497
   32       -0.007  -0.030   2.672   2.635
   33       -0.010  -0.037   2.600   2.553
   34       -0.006  -0.026   2.625   2.594
   35        0.002  -0.016   2.768   2.754
   36       -0.004  -0.027   2.661   2.630
   37       -0.002  -0.023   2.659   2.634
   38       -0.007  -0.035   2.679   2.637
   39       -0.009  -0.039   2.642   2.595
   40       -0.007  -0.030   2.631   2.594
   41       -0.010  -0.034   2.606   2.562
   42       -0.008  -0.033   2.605   2.564
   43       -0.007  -0.031   2.610   2.572
   44       -0.002  -0.024   2.696   2.670
   45        0.003  -0.018   2.742   2.726
   46       -0.002  -0.026   2.719   2.691
   47       -0.003  -0.025   2.656   2.628
   48       -0.002  -0.024   2.671   2.645
   49       -0.009  -0.040   2.610   2.561
   50       -0.009  -0.036   2.566   2.521
   51       -0.011  -0.041   2.545   2.493
   52       -0.004  -0.027   2.639   2.608
   53       -0.007  -0.033   2.597   2.557
   54       -0.005  -0.027   2.627   2.594
   55       -0.019  -0.046   0.731   0.666
   56       -0.030  -0.064   0.698   0.604
   57       -0.021  -0.049   0.717   0.648
   58       -0.024  -0.053   0.709   0.632
   59       -0.021  -0.047   0.719   0.651
   60       -0.024  -0.054   0.738   0.660
   61       -0.022  -0.050   0.752   0.680
   62       -0.024  -0.052   0.701   0.625
   63       -0.019  -0.041   0.715   0.656
   64       -0.021  -0.044   0.668   0.603
   65       -0.029  -0.062   0.722   0.631
   66       -0.019  -0.042   0.687   0.626
   67       -0.020  -0.041   0.642   0.581
   68       -0.020  -0.044   0.644   0.580
   69       -0.020  -0.047   0.693   0.626
   70       -0.017  -0.037   0.682   0.628
   71       -0.019  -0.035   0.673   0.620
   72       -0.023  -0.051   0.753   0.679
   73       -0.024  -0.049   0.708   0.635
   74       -0.025  -0.052   0.711   0.633
   75       -0.027  -0.059   0.745   0.660
   76       -0.013  -0.031   0.677   0.632
   77       -0.021  -0.049   0.675   0.604
   78       -0.020  -0.043   0.650   0.587
   79       -0.014  -0.036   0.688   0.638
   80       -0.017  -0.038   0.681   0.626
   81       -0.018  -0.041   0.704   0.645
   82       -0.021  -0.047   0.736   0.667
   83       -0.025  -0.056   0.760   0.679
   84       -0.021  -0.045   0.706   0.639
   85       -0.028  -0.060   0.728   0.640
   86       -0.023  -0.047   0.690   0.620
   87       -0.021  -0.040   0.680   0.620
   88       -0.019  -0.044   0.722   0.658
   89       -0.024  -0.053   0.702   0.625
   90       -0.013  -0.033   0.652   0.605
   91       -0.020  -0.041   0.659   0.598
   92       -0.017  -0.037   0.686   0.632
   93       -0.019  -0.043   0.727   0.665
   94       -0.027  -0.059   0.724   0.638
   95       -0.032  -0.067   0.732   0.632
   96       -0.027  -0.058   0.710   0.625
   97       -0.025  -0.056   0.724   0.643
   98       -0.023  -0.050   0.715   0.642
   99       -0.022  -0.046   0.723   0.655
  100       -0.019  -0.038   0.682   0.625
  101       -0.020  -0.043   0.703   0.640
  102       -0.027  -0.056   0.700   0.616
  103       -0.023  -0.051   0.721   0.647
  104       -0.020  -0.043   0.706   0.643
  105       -0.018  -0.043   0.671   0.610
  106       -0.020  -0.044   0.683   0.619
  107       -0.027  -0.060   0.763   0.677
  108       -0.022  -0.046   0.695   0.627
--------------------------------------------------
tot         -1.436  -4.107 181.044 175.501
 
 BZINTS: Fermi energy:  7.455179;972.000000 electrons
         Band energy:4920.518458;  BLOECHL correction: -0.145845

 total amount of memory used by VASP MPI-rank0   249280. kBytes
=======================================================================

   base      :      30000. kBytes
   nonlr-proj:      17419. kBytes
   fftplans  :       3141. kBytes
   grid      :       8349. kBytes
   one-center:        124. kBytes
   wavefun   :     190247. kBytes
 
  
  
 General timing and accounting informations for this job:
 ========================================================
  
                  Total CPU time used (sec):     1601.518
                            User time (sec):     1550.310
                          System time (sec):       51.207
                         Elapsed time (sec):     1617.773
  
                   Maximum memory used (kb):      541516.
                   Average memory used (kb):           0.
  
                          Minor page faults:       983543
                          Major page faults:            0
                 Voluntary context switches:         8746
