SQS-NiFe                                
           1
     5.356500    0.000000   -5.356500
     7.142000    5.356500    8.927500
    -1.785500  -14.284000    1.785500
   Fe   Ni
  54  54
Direct configuration=     1
   0.15688982  0.10896160  0.91556871
   0.03989950  0.44709447  0.91535776
   0.25079828  0.00130206  0.75049253
   0.49391920  0.11100220  0.91686353
   0.14027589  0.33609597  0.74870406
   0.37823173  0.44631602  0.91548926
   0.02390918  0.66347346  0.74487150
   0.26908977  0.77701099  0.91798238
   0.58885793  0.99593670  0.74725960
   0.05904514  0.33423275  0.50190424
   0.64720287  0.22079165  0.83192900
   0.47351672  0.33446633  0.74897052
   0.53669678  0.55788321  0.83303654
   0.60303947  0.78138523  0.91628260
   0.49987361  0.00050028  0.50083097
   0.31990548  0.10890004  0.41429163
   0.14700437  0.21995202  0.33077623
   0.56228814  0.22249044  0.58340024
   0.03861266  0.55870662  0.33265881
   0.98294118  0.21796275  0.82940564
   0.63438062  0.44530461  0.66664124
   0.28153960  0.66521051  0.50505294
   0.09960192  0.78287635  0.41546831
   0.33976161  0.88842563  0.58437838
   0.93490270  0.77521668  0.91748424
   0.99461396  0.00080723  0.00132848
   0.83601927  0.99460595  0.50184526
   0.65798607  0.11389016  0.41674194
   0.48071731  0.22536810  0.33357047
   0.30573076  0.33765131  0.25300312
   0.12552442  0.44079610  0.16520269
   0.89565869  0.22136381  0.58417501
   0.72193178  0.33555017  0.50090215
   0.37004144  0.55887758  0.33413938
   0.01572014  0.77863681  0.16642706
   0.43908897  0.77920758  0.41832650
   0.33476663  0.99927856  0.99907934
   0.40020929  0.22330239  0.08805685
   0.22147611  0.33109291  0.99763427
   0.98676089  0.10736955  0.41433073
   0.81132829  0.22203778  0.33053586
   0.28870780  0.55511314  0.08546270
   0.88006893  0.44640691  0.41869610
   0.70219679  0.55666483  0.33478567
   0.35345679  0.77908956  0.16430345
   0.94812252  0.67153555  0.50716474
   0.59632951  0.89015697  0.33184369
   0.73567906  0.21840157  0.08219093
   0.55742243  0.33504676  0.00084421
   0.97120567  0.33230595  0.25042455
   0.79155107  0.44175811  0.16795390
   0.62006356  0.55755742  0.08647325
   0.95286961  0.55090033  0.08585462
   0.77776369  0.66207223  0.99795664
   0.07516235  0.11237453  0.66584586
   0.31638930  0.22241034  0.83152938
   0.20445063  0.55790023  0.83279036
   0.09040468  0.88751767  0.83296550
   0.16569396  0.99959730  0.49958342
   0.40613260  0.11153338  0.66618287
   0.22993555  0.22188490  0.58253333
   0.82504911  0.10906786  0.91420270
   0.29972070  0.44573231  0.66838644
   0.12165446  0.55414994  0.58372555
   0.71269128  0.44135523  0.91590061
   0.36126166  0.66771184  0.75006788
   0.18714876  0.77899895  0.66825258
   0.00945938  0.88767062  0.58483769
   0.42614246  0.88866202  0.83204430
   0.08184207  0.99927610  0.24913618
   0.92092434  0.99998586  0.74938757
   0.74022689  0.11035020  0.66616182
   0.38820056  0.33254695  0.50047291
   0.21284262  0.44508151  0.41831699
   0.80527507  0.33208928  0.74963029
   0.45597021  0.55394345  0.58331999
   0.86921979  0.55495082  0.83157251
   0.69577329  0.66726217  0.74951365
   0.51892776  0.77680177  0.66749633
   0.76279681  0.88923575  0.83467029
   0.41550901  0.00194356  0.25050269
   0.23875324  0.11107862  0.16662460
   0.06522508  0.22000065  0.08303127
   0.54546511  0.44588219  0.41799809
   0.19584951  0.66973555  0.24980881
   0.96351621  0.44265562  0.66572155
   0.78796549  0.55636355  0.58314784
   0.61280527  0.66786626  0.50236859
   0.26039931  0.89002034  0.33264695
   0.85164874  0.77846569  0.66837997
   0.67416099  0.88801561  0.58315388
   0.74944903  0.00126143  0.24975417
   0.57415031  0.11012058  0.16577027
   0.63542827  0.33485399  0.25128943
   0.46169143  0.44551073  0.16867461
   0.11310118  0.66588472  0.00094107
   0.52891721  0.66924971  0.25142107
   0.17465106  0.88991225  0.08267967
   0.77041136  0.77668165  0.41702933
   0.66516961  0.99914656  0.99851307
   0.90517107  0.10912827  0.16615214
   0.44583976  0.66778065  0.99994100
   0.86015930  0.66884191  0.25035284
   0.68465946  0.77741144  0.16495231
   0.50948279  0.89007180  0.08267249
   0.92297747  0.88925046  0.33277292
   0.88804727  0.32894664  0.99819569
   0.84090356  0.88748469  0.08262225
