       N       E                     dE             d eps       ncg     rms          rms(c)
DAV:   1     0.908670937431E+04    0.90867E+04   -0.40475E+05 69000   0.199E+03
DAV:   2     0.711600041514E+03   -0.83751E+04   -0.78268E+04 69000   0.419E+02
DAV:   3    -0.571615791103E+03   -0.12832E+04   -0.10323E+04 69000   0.186E+02
DAV:   4    -0.667905149363E+03   -0.96289E+02   -0.92271E+02 72546   0.610E+01
DAV:   5    -0.669457818756E+03   -0.15527E+01   -0.15505E+01 80373   0.738E+00
RMM:   6    -0.669532077550E+03   -0.74259E-01   -0.74260E-01 75845   0.134E+00
RMM:   7    -0.669555465516E+03   -0.23388E-01   -0.23345E-01105638   0.463E-01
RMM:   8    -0.669555488157E+03   -0.22641E-04   -0.14695E-03 91715   0.580E-02
RMM:   9    -0.669555512987E+03   -0.24831E-04   -0.24908E-04 94707   0.155E-02
RMM:  10    -0.669555513971E+03   -0.98343E-06   -0.10541E-05 68861   0.400E-03
RMM:  11    -0.669555514071E+03   -0.10045E-06   -0.10234E-06 51298   0.147E-03
   1 F= -.66955551E+03 E0= -.66955551E+03  d E =0.000000E+00  mag=   124.5011
