 vasp.5.4.4.18Apr17-6-g9f103f2a35 (build Sep 06 2021 19:49:22) complex          
  
 executed on             LinuxIFC date 2021.12.28  09:53:30
 running on   96 total cores
 distrk:  each k-point on   96 cores,    1 groups
 distr:  one band on NCORES_PER_BAND=  32 cores,    3 groups


--------------------------------------------------------------------------------------------------------


 INCAR:
 POTCAR:    PAW_PBE Ni 02Aug2007                  
 POTCAR:    PAW_PBE Fe 06Sep2000                  

 ----------------------------------------------------------------------------- 
|                                                                             |
|           W    W    AA    RRRRR   N    N  II  N    N   GGGG   !!!           |
|           W    W   A  A   R    R  NN   N  II  NN   N  G    G  !!!           |
|           W    W  A    A  R    R  N N  N  II  N N  N  G       !!!           |
|           W WW W  AAAAAA  RRRRR   N  N N  II  N  N N  G  GGG   !            |
|           WW  WW  A    A  R   R   N   NN  II  N   NN  G    G                |
|           W    W  A    A  R    R  N    N  II  N    N   GGGG   !!!           |
|                                                                             |
|      For optimal performance we recommend to set                            |
|        NCORE= 4 - approx SQRT( number of cores)                             |
|      NCORE specifies how many cores store one orbital (NPAR=cpu/NCORE).     |
|      This setting can  greatly improve the performance of VASP for DFT.     |
|      The default,   NCORE=1            might be grossly inefficient         |
|      on modern multi-core architectures or massively parallel machines.     |
|      Do your own testing !!!!                                               |
|      Unfortunately you need to use the default for GW and RPA calculations. |
|      (for HF NCORE is supported but not extensively tested yet)             |
|                                                                             |
 ----------------------------------------------------------------------------- 

 POTCAR:    PAW_PBE Ni 02Aug2007                  
   VRHFIN =Ni:                                                                  
   LEXCH  = PE                                                                  
   EATOM  =  1077.6739 eV,   79.2068 Ry                                         
                                                                                
   TITEL  = PAW_PBE Ni 02Aug2007                                                
   LULTRA =        F    use ultrasoft PP ?                                      
   IUNSCR =        1    unscreen: 0-lin 1-nonlin 2-no                           
   RPACOR =    2.000    partial core radius                                     
   POMASS =   58.690; ZVAL   =   10.000    mass and valenz                      
   RCORE  =    2.300    outmost cutoff radius                                   
   RWIGS  =    2.430; RWIGS  =    1.286    wigner-seitz radius (au A)           
   ENMAX  =  269.532; ENMIN  =  202.149 eV                                      
   RCLOC  =    1.201    cutoff for local pot                                    
   LCOR   =        T    correct aug charges                                     
   LPAW   =        T    paw PP                                                  
   EAUG   =  544.565                                                            
   DEXC   =    0.000                                                            
   RMAX   =    2.357    core radius for proj-oper                               
   RAUG   =    1.300    factor for augmentation sphere                          
   RDEP   =    2.390    radius for radial grids                                 
   RDEPT  =    1.838    core radius for aug-charge                              
                                                                                
   Atomic configuration                                                         
    9 entries                                                                   
     n  l   j            E        occ.                                          
     1  0  0.50     -8206.4253   2.0000                                         
     2  0  0.50      -976.1748   2.0000                                         
     2  1  1.50      -839.0571   6.0000                                         
     3  0  0.50      -105.9991   2.0000                                         
     3  1  1.50       -66.4603   6.0000                                         
     3  2  2.50        -4.6458   9.0000                                         
     4  0  0.50        -4.4926   1.0000                                         
     4  1  1.50        -4.0817   0.0000                                         
     4  3  2.50        -1.3606   0.0000                                         
   Description                                                                  
     l       E           TYP  RCUT    TYP  RCUT                                 
     2     -4.6457903     23  2.300                                             
     2     -6.0063729     23  2.300                                             
     0     -4.4925590     23  2.300                                             
     0      5.0102601     23  2.300                                             
     1     -2.7211652     23  2.300                                             
     1     16.5183231     23  2.300                                             
  local pseudopotential read in
  partial core-charges read in
  partial kinetic energy density read in
  atomic valenz-charges read in
  non local Contribution for L=           2  read in
    real space projection operators read in
  non local Contribution for L=           2  read in
    real space projection operators read in
  non local Contribution for L=           0  read in
    real space projection operators read in
  non local Contribution for L=           0  read in
    real space projection operators read in
  non local Contribution for L=           1  read in
    real space projection operators read in
  non local Contribution for L=           1  read in
    real space projection operators read in
    PAW grid and wavefunctions read in
 
   number of l-projection  operators is LMAX  =           6
   number of lm-projection operators is LMMAX =          18
 
 POTCAR:    PAW_PBE Fe 06Sep2000                  
   VRHFIN =Fe:  d7 s1                                                           
   LEXCH  = PE                                                                  
   EATOM  =   594.3153 eV,   43.6809 Ry                                         
                                                                                
   TITEL  = PAW_PBE Fe 06Sep2000                                                
   LULTRA =        F    use ultrasoft PP ?                                      
   IUNSCR =        1    unscreen: 0-lin 1-nonlin 2-no                           
   RPACOR =    2.000    partial core radius                                     
   POMASS =   55.847; ZVAL   =    8.000    mass and valenz                      
   RCORE  =    2.300    outmost cutoff radius                                   
   RWIGS  =    2.460; RWIGS  =    1.302    wigner-seitz radius (au A)           
   ENMAX  =  267.882; ENMIN  =  200.911 eV                                      
   RCLOC  =    1.701    cutoff for local pot                                    
   LCOR   =        T    correct aug charges                                     
   LPAW   =        T    paw PP                                                  
   EAUG   =  511.368                                                            
   DEXC   =    0.000                                                            
   RMAX   =    2.356    core radius for proj-oper                               
   RAUG   =    1.300    factor for augmentation sphere                          
   RDEP   =    2.442    radius for radial grids                                 
   RDEPT  =    1.890    core radius for aug-charge                              
                                                                                
   Atomic configuration                                                         
    9 entries                                                                   
     n  l   j            E        occ.                                          
     1  0  0.50     -6993.8440   2.0000                                         
     2  0  0.50      -814.6047   2.0000                                         
     2  1  1.50      -693.3689   6.0000                                         
     3  0  0.50       -89.4732   2.0000                                         
     3  1  1.50       -55.6373   6.0000                                         
     3  2  2.50        -3.8151   7.0000                                         
     4  0  0.50        -4.2551   1.0000                                         
     4  1  1.50        -3.4015   0.0000                                         
     4  3  2.50        -1.3606   0.0000                                         
   Description                                                                  
     l       E           TYP  RCUT    TYP  RCUT                                 
     2     -3.8151135     23  2.300                                             
     2     -5.1756961     23  2.300                                             
     0     -4.2550963     23  2.300                                             
     0      7.2035603     23  2.300                                             
     1     -2.7211652     23  2.300                                             
     1     18.4316424     23  2.300                                             
  local pseudopotential read in
  partial core-charges read in
  partial kinetic energy density read in
  atomic valenz-charges read in
  non local Contribution for L=           2  read in
    real space projection operators read in
  non local Contribution for L=           2  read in
    real space projection operators read in
  non local Contribution for L=           0  read in
    real space projection operators read in
  non local Contribution for L=           0  read in
    real space projection operators read in
  non local Contribution for L=           1  read in
    real space projection operators read in
  non local Contribution for L=           1  read in
    real space projection operators read in
    PAW grid and wavefunctions read in
 
   number of l-projection  operators is LMAX  =           6
   number of lm-projection operators is LMMAX =          18
 
 Optimization of the real space projectors (new method)

 maximal supplied QI-value         = 16.25
 optimisation between [QCUT,QGAM] = [ 11.54, 23.24] = [ 37.28,151.24] Ry 
 Optimized for a Real-space Cutoff    1.45 Angstroem

   l    n(q)    QCUT    max X(q) W(low)/X(q) W(high)/X(q)  e(spline) 
   2      9    11.539    60.317    0.19E-03    0.47E-04    0.16E-06
   2      9    11.539    55.921    0.19E-03    0.48E-04    0.16E-06
   0     10    11.539    51.690    0.80E-04    0.50E-04    0.24E-06
   0     10    11.539    30.015    0.73E-04    0.45E-04    0.22E-06
   1     10    11.539    18.849    0.87E-04    0.16E-03    0.71E-07
   1     10    11.539    14.624    0.73E-04    0.13E-03    0.64E-07
 Optimization of the real space projectors (new method)

 maximal supplied QI-value         = 16.25
 optimisation between [QCUT,QGAM] = [ 11.54, 23.24] = [ 37.28,151.24] Ry 
 Optimized for a Real-space Cutoff    1.53 Angstroem

   l    n(q)    QCUT    max X(q) W(low)/X(q) W(high)/X(q)  e(spline) 
   2     10    11.539    80.901    0.11E-03    0.14E-03    0.21E-06
   2     10    11.539    75.754    0.11E-03    0.14E-03    0.22E-06
   0     11    11.539    58.752    0.52E-04    0.18E-04    0.33E-06
   0     11    11.539    30.679    0.44E-04    0.16E-04    0.30E-06
   1     10    11.539    17.977    0.53E-04    0.29E-04    0.13E-06
   1     10    11.539    13.559    0.44E-04    0.25E-04    0.11E-06
  PAW_PBE Ni 02Aug2007                  :
 energy of atom  1       EATOM=-1077.6739
 kinetic energy error for atom=    0.0030 (will be added to EATOM!!)
  PAW_PBE Fe 06Sep2000                  :
 energy of atom  2       EATOM= -594.3153
 kinetic energy error for atom=    0.0026 (will be added to EATOM!!)
 
 
 POSCAR: POSCAR                                  
  positions in direct lattice
  velocities in cartesian coordinates
 exchange correlation table for  LEXCH =        8
   RHO(1)=    0.500       N(1)  =     2000
   RHO(2)=  100.500       N(2)  =     4000
 


--------------------------------------------------------------------------------------------------------


 ion  position               nearest neighbor table
   1  0.778  0.964  0.157-  83 2.48  33 2.50  52 2.50   2 2.51  55 2.51   6 2.51  70 2.51  34 2.51
                             3 2.51   5 2.52  53 2.52   7 2.52
   2  0.557  0.928  0.063-  34 2.47  82 2.47  79 2.49   3 2.49  54 2.50  18 2.50  53 2.50   1 2.51
                            36 2.51   8 2.52   7 2.53  35 2.54
   3  0.887  0.816  0.037-  83 2.45  84 2.46  99 2.47   2 2.49  18 2.50  36 2.51   1 2.51   7 2.51
                            55 2.52   9 2.53  56 2.53  15 2.53
   4  0.778  0.963  0.408-  12 2.48  85 2.49  51 2.50  13 2.50  69 2.51   6 2.52  52 2.52  68 2.52
                           107 2.52   5 2.52  86 2.53  70 2.54
   5  0.554  0.926  0.315- 104 2.48  87 2.49   7 2.50  82 2.50  13 2.51  69 2.51  52 2.51   6 2.51
                             1 2.52  53 2.52  11 2.52   4 2.52
   6  0.889  0.815  0.287-  96 2.49  12 2.50  83 2.50   7 2.51   1 2.51  88 2.51   5 2.51  15 2.52
                             4 2.52  14 2.52  13 2.52  70 2.52
   7  0.666  0.778  0.195-  82 2.47  88 2.49   5 2.50  84 2.50   6 2.51  89 2.51   3 2.51   8 2.52
                             1 2.52  15 2.52   2 2.53  87 2.53
   8  0.446  0.742  0.100-  36 2.48  35 2.49  82 2.49  90 2.49  57 2.50   9 2.51  14 2.51  84 2.51
                             7 2.52   2 2.52  89 2.53  83 2.55
   9  0.223  0.703  0.008-  90 2.47  37 2.49  83 2.49  35 2.49  58 2.50  99 2.50  56 2.51   8 2.51
                            16 2.51  57 2.51  15 2.51   3 2.53
  10  0.777  0.961  0.658- 107 2.48  86 2.49  19 2.49  21 2.49  68 2.50  20 2.50  85 2.51  22 2.51
                            77 2.51  76 2.52  67 2.52  81 2.53
  11  0.330  0.889  0.473-  87 2.48 104 2.49  20 2.50  78 2.50  95 2.51  85 2.51 107 2.51  12 2.51
                             5 2.52  13 2.52  69 2.54  94 2.54
  12  0.108  0.854  0.379-   4 2.48  70 2.49   6 2.50  87 2.50 104 2.50  96 2.51  11 2.51  14 2.52
                           107 2.54  95 2.55  82 2.56  86 2.57
  13  0.667  0.778  0.445-  86 2.48  24 2.49  94 2.50   4 2.50  87 2.51  23 2.51   5 2.51   6 2.52
                            11 2.52  96 2.53  85 2.54  88 2.55
  14  0.225  0.705  0.258-  96 2.48  90 2.49  89 2.49  87 2.50  82 2.50   8 2.51  12 2.52   6 2.52
                            15 2.53  83 2.53  25 2.53  26 2.54
  15  0.001  0.666  0.166-  90 2.46  88 2.47  84 2.48  83 2.48  16 2.51  17 2.51   9 2.51   6 2.52
                            26 2.52   7 2.52  14 2.53   3 2.53
  16  0.111  0.518  0.046-  92 2.49  71 2.49  84 2.50  29 2.50  17 2.51  90 2.51  56 2.51  15 2.51
                            58 2.51   9 2.51  60 2.51  28 2.51
  17  0.890  0.480  0.204-  91 2.47  88 2.48  27 2.50  30 2.50  16 2.51  15 2.51  47 2.51  28 2.51
                            26 2.52  29 2.52  89 2.53  84 2.55
  18  0.780  0.964  0.906-  99 2.46  21 2.48  81 2.49  34 2.49  55 2.50  76 2.50   3 2.50  75 2.50
                             2 2.50  19 2.51  36 2.51  79 2.53
  19  0.556  0.926  0.815-  36 2.48  10 2.49  80 2.49  93 2.49  77 2.50  21 2.50  22 2.50  79 2.50
                            76 2.50  18 2.51  37 2.51  35 2.51
  20  0.110  0.851  0.630-  95 2.46  38 2.49 107 2.49  11 2.50  21 2.50  39 2.50  10 2.50  81 2.51
                            78 2.53  86 2.53  93 2.53  94 2.55
  21  0.889  0.816  0.788-  18 2.48  99 2.49  36 2.49  10 2.49  19 2.50  56 2.50  81 2.50  20 2.50
                            40 2.51  39 2.52  38 2.52  22 2.53
  22  0.664  0.777  0.696-  86 2.47  94 2.48  41 2.49  37 2.49  40 2.50  19 2.50  93 2.50  10 2.51
                            39 2.52  23 2.53  21 2.53  85 2.58
  23  0.781  0.628  0.573-  86 2.46  94 2.49  43 2.50  97 2.50  13 2.51  39 2.51 100 2.51  44 2.51
                            24 2.52  22 2.53  41 2.54  96 2.54
  24  0.554  0.594  0.481-  94 2.47  25 2.49  87 2.49  13 2.49  97 2.51  45 2.52  23 2.52  42 2.52
                            44 2.53  95 2.54  88 2.54  27 2.54
  25  0.334  0.555  0.390-  45 2.49  96 2.49  24 2.49  26 2.51  89 2.51  98 2.52  27 2.52  87 2.52
                            46 2.52 100 2.52  14 2.53  95 2.54
  26  0.114  0.517  0.296-  96 2.48  98 2.48  28 2.50  90 2.50  25 2.51  46 2.51  47 2.51  15 2.52
                            17 2.52  88 2.52  97 2.53  14 2.54
  27  0.669  0.442  0.360-  30 2.48  47 2.49  17 2.50  97 2.50  49 2.50  98 2.50  45 2.51  48 2.51
                            89 2.52  25 2.52  88 2.52  24 2.54
  28  0.225  0.370  0.175-  92 2.48  98 2.49  31 2.49  50 2.50  26 2.50  16 2.51  17 2.51 101 2.51
                            29 2.51  32 2.52  90 2.53  47 2.53
  29  0.004  0.332  0.082- 101 2.47 108 2.47  91 2.47  71 2.48  33 2.50  16 2.50  28 2.51  32 2.51
                            17 2.52  72 2.52  60 2.52  30 2.53
  30  0.779  0.296  0.241-  91 2.48  27 2.48  31 2.49  33 2.49  17 2.50 101 2.50  47 2.50  52 2.51
                            49 2.51  98 2.51  51 2.52  29 2.53
  31  0.557  0.261  0.149-  98 2.48  91 2.48  28 2.49  33 2.49  30 2.49  72 2.51  32 2.51  52 2.51
                            50 2.51  92 2.52  53 2.53  34 2.55
  32  0.339  0.221  0.055-  34 2.48  53 2.49 106 2.49  92 2.49 108 2.49  79 2.50 101 2.50  31 2.51
                            29 2.51  28 2.52  71 2.52  54 2.53
  33  0.887  0.149  0.121- 101 2.48  31 2.49  30 2.49   1 2.50  72 2.50  29 2.50  55 2.50 108 2.50
                            52 2.50  70 2.51  34 2.52  54 2.53
  34  0.668  0.111  0.026-   2 2.47  32 2.48  55 2.48 106 2.49  18 2.49  72 2.49  79 2.51  75 2.51
                             1 2.51  33 2.52  53 2.53  31 2.55
  35  0.332  0.888  0.971-  37 2.48  99 2.48   8 2.49  80 2.49   9 2.49  36 2.50  83 2.51  54 2.51
                            19 2.51  79 2.52  55 2.52   2 2.54
  36  0.665  0.779  0.943-  19 2.48   8 2.48  40 2.49  21 2.49  84 2.49  35 2.50  37 2.51   3 2.51
                             2 2.51  18 2.51  56 2.52  57 2.53
  37  0.442  0.741  0.852-  35 2.48  38 2.48   9 2.49  22 2.49  41 2.50  36 2.51  58 2.51  93 2.51
                            19 2.51  99 2.52  40 2.53  57 2.53
  38  0.224  0.705  0.758-  37 2.48  20 2.49  94 2.49  41 2.51  93 2.51  58 2.51  42 2.51  39 2.51
                            21 2.52  56 2.52  99 2.53  59 2.54
  39  1.000  0.666  0.668-  95 2.47  43 2.49  86 2.50  40 2.50  20 2.50  42 2.50  59 2.50  23 2.51
                            38 2.51  21 2.52  22 2.52 100 2.52
  40  0.778  0.630  0.825-  56 2.48  60 2.49  36 2.49  39 2.50  22 2.50  57 2.51  41 2.51  59 2.51
                            21 2.51  43 2.51  37 2.53  61 2.53
  41  0.556  0.592  0.733-  58 2.49  22 2.49  94 2.49  43 2.50  61 2.50  37 2.50  38 2.51  40 2.51
                            62 2.51  44 2.51  42 2.52  23 2.54
  42  0.333  0.555  0.639- 100 2.48  94 2.49  44 2.50  95 2.50  39 2.50  59 2.51  38 2.51  63 2.52
                            62 2.52  45 2.52  24 2.52  41 2.52
  43  0.888  0.482  0.704- 105 2.47 100 2.49 102 2.49  39 2.49  41 2.50  23 2.50  64 2.51  59 2.51
                            40 2.51  44 2.51  63 2.53  61 2.53
  44  0.665  0.444  0.612-  65 2.48 102 2.49  42 2.50  97 2.51  45 2.51  62 2.51  41 2.51  23 2.51
                            43 2.51  64 2.51  48 2.52  24 2.53
  45  0.446  0.407  0.517- 100 2.49  25 2.49  65 2.50  44 2.51  27 2.51  49 2.51  46 2.51 103 2.51
                            48 2.51  63 2.52  24 2.52  42 2.52
  46  0.220  0.370  0.428-  66 2.49 100 2.50  98 2.50  97 2.50  47 2.50  26 2.51  45 2.51 103 2.51
                            25 2.52  49 2.53  50 2.53 102 2.55
  47  0.001  0.332  0.334-  50 2.49  66 2.49  27 2.49  48 2.49  46 2.50  97 2.50  30 2.50  17 2.51
                            51 2.51  26 2.51 101 2.53  28 2.53
  48  0.780  0.296  0.491-  97 2.48  66 2.49 102 2.49  47 2.49  67 2.50  65 2.51  51 2.51  27 2.51
                            68 2.51  45 2.51  49 2.52  44 2.52
  49  0.556  0.258  0.398-  98 2.47  69 2.48  52 2.49 103 2.50  27 2.50  30 2.51  45 2.51  51 2.51
                            48 2.52  68 2.52  50 2.53  46 2.53
  50  0.332  0.221  0.305-  98 2.48 104 2.48  53 2.49  47 2.49  69 2.50  28 2.50  66 2.51  52 2.51
                            31 2.51 101 2.51  49 2.53  46 2.53
  51  0.890  0.147  0.371-   4 2.50  66 2.50  70 2.50  52 2.51  49 2.51  48 2.51  47 2.51 107 2.51
                           104 2.52  30 2.52  68 2.52 101 2.54
  52  0.666  0.111  0.278-  69 2.49  49 2.49   1 2.50  33 2.50  30 2.51  51 2.51  31 2.51  50 2.51
                             5 2.51   4 2.52  53 2.52  70 2.53
  53  0.443  0.075  0.185-  82 2.48  32 2.49  50 2.49 101 2.49 104 2.50   2 2.50  54 2.50   5 2.52
                             1 2.52  52 2.52  31 2.53  34 2.53
  54  0.223  0.036  0.092-  82 2.47 108 2.48  70 2.49 101 2.50  79 2.50   2 2.50  55 2.50  53 2.50
                            35 2.51  83 2.53  32 2.53  33 2.53
  55  0.998  0.002  1.000-  34 2.48 108 2.49  99 2.49  83 2.49  75 2.49  18 2.50  54 2.50  33 2.50
                             1 2.51  80 2.51   3 2.52  35 2.52
  56  0.000  0.666  0.916-  84 2.47  40 2.48  59 2.49  58 2.49  21 2.50  60 2.51  16 2.51   9 2.51
                            99 2.51  38 2.52  36 2.52   3 2.53
  57  0.556  0.592  0.982-  60 2.48  61 2.49  90 2.50   8 2.50  92 2.50  40 2.51   9 2.51  84 2.53
                            58 2.53  36 2.53  37 2.53  91 2.53
  58  0.332  0.556  0.888-  59 2.48  41 2.49  62 2.49  56 2.49   9 2.50  61 2.50  37 2.51  38 2.51
                            16 2.51  71 2.51  92 2.51  57 2.53
  59  0.112  0.518  0.797-  58 2.48  71 2.49  56 2.49  62 2.50 105 2.50  39 2.50  42 2.51  60 2.51
                            40 2.51  43 2.51  63 2.53  38 2.54
  60  0.886  0.482  0.954-  91 2.47  57 2.48  61 2.49  40 2.49  56 2.51  59 2.51  16 2.51  72 2.51
                            71 2.51  84 2.52  29 2.52 105 2.53
  61  0.664  0.444  0.863-  92 2.48  57 2.49  60 2.49  72 2.49  64 2.49  62 2.50 105 2.50  41 2.50
                            58 2.50 106 2.52  40 2.53  43 2.53
  62  0.444  0.407  0.770-  58 2.49  71 2.49  64 2.49 106 2.50  61 2.50  59 2.50  73 2.50  41 2.51
                            65 2.51  44 2.51  63 2.52  42 2.52
  63  0.224  0.369  0.676- 100 2.47  65 2.48 105 2.49  73 2.50 103 2.50  74 2.51 102 2.51  42 2.52
                            45 2.52  62 2.52  59 2.53  43 2.53
  64  0.776  0.297  0.743- 105 2.46 102 2.46 106 2.47  75 2.49  62 2.49  61 2.49  76 2.51  43 2.51
                            44 2.51  74 2.52  67 2.52  65 2.52
  65  0.555  0.261  0.648-  63 2.48  44 2.48 103 2.49  67 2.49  45 2.50  68 2.50  77 2.51  48 2.51
                            62 2.51  76 2.52  64 2.52  73 2.53
  66  0.110  0.185  0.463-  48 2.49 104 2.49  46 2.49  47 2.49  51 2.50  78 2.50 107 2.50  50 2.51
                            69 2.51  67 2.53 103 2.53 102 2.53
  67  0.885  0.149  0.622- 102 2.47  68 2.48  76 2.48 107 2.48  65 2.49  74 2.50  48 2.50  81 2.51
                            64 2.52  10 2.52  78 2.53  66 2.53
  68  0.667  0.111  0.530-  85 2.45 103 2.48  67 2.48 107 2.48  77 2.50  65 2.50  10 2.50  48 2.51
                             4 2.52  69 2.52  49 2.52  51 2.52
  69  0.445  0.076  0.434-  85 2.47  49 2.48 104 2.48  52 2.49 103 2.49  50 2.50   4 2.51  66 2.51
                             5 2.51  68 2.52  78 2.52  11 2.54
  70  0.003  0.001  0.249-  12 2.49  54 2.49 101 2.49  51 2.50  33 2.51   1 2.51  82 2.52   6 2.52
                            52 2.53 104 2.53  83 2.54   4 2.54
  71  0.221  0.371  0.926-  29 2.48  59 2.49  73 2.49  62 2.49  16 2.49  92 2.50 108 2.50  58 2.51
                            60 2.51  32 2.52 105 2.53 106 2.53
  72  0.778  0.295  0.990-  61 2.49  91 2.49  34 2.49  33 2.50  75 2.50  31 2.51  60 2.51 106 2.51
                            29 2.52  92 2.53 108 2.53 105 2.53
  73  0.331  0.223  0.807- 106 2.49  71 2.49  63 2.50 108 2.50  77 2.50  79 2.50  80 2.50  62 2.50
                           105 2.51  76 2.52  74 2.52  65 2.53
  74  0.110  0.184  0.713- 102 2.46  75 2.48  81 2.48  78 2.49  67 2.50 105 2.50  63 2.51  77 2.51
                            64 2.52  73 2.52  80 2.52 103 2.52
  75  0.891  0.148  0.869-  74 2.48  64 2.49  55 2.49  81 2.50 105 2.50  72 2.50  18 2.50 106 2.50
                            34 2.51  80 2.51  76 2.52 108 2.54
  76  0.666  0.111  0.778- 106 2.47  77 2.48  67 2.48  18 2.50  19 2.50  79 2.51  64 2.51  75 2.52
                            73 2.52  65 2.52  10 2.52  81 2.52
  77  0.445  0.075  0.687-  76 2.48  80 2.49  85 2.49  68 2.50 103 2.50  93 2.50  73 2.50  19 2.50
                            65 2.51  10 2.51  74 2.51  78 2.53
  78  0.222  0.038  0.593-  85 2.47  74 2.49 107 2.49  81 2.50 103 2.50  66 2.50  11 2.50  93 2.50
                            69 2.52  20 2.53  67 2.53  77 2.53
  79  0.443  0.074  0.935-  80 2.48 108 2.48   2 2.49 106 2.49  32 2.50  54 2.50  73 2.50  19 2.50
                            76 2.51  34 2.51  35 2.52  18 2.53
  80  0.225  0.036  0.843-  79 2.48  93 2.48  35 2.49  77 2.49  19 2.49  73 2.50  55 2.51  75 2.51
                            99 2.51  81 2.51 108 2.52  74 2.52
  81  0.002  0.000  0.750-  74 2.48  18 2.49  93 2.49  75 2.50  78 2.50  21 2.50  99 2.51  67 2.51
                            20 2.51  80 2.51  76 2.52  10 2.53
  82  0.338  0.890  0.218-   7 2.47  54 2.47   2 2.47  53 2.48   8 2.49  14 2.50   5 2.50  70 2.52
                            87 2.53 104 2.55  12 2.56  83 2.57
  83  0.105  0.851  0.127-   3 2.45   1 2.48  15 2.48   9 2.49  55 2.49   6 2.50  35 2.51  54 2.53
                            14 2.53  70 2.54   8 2.55  82 2.57
  84  0.782  0.634  0.072-   3 2.46  56 2.47  15 2.48  36 2.49  16 2.50   7 2.50   8 2.51  60 2.52
                            57 2.53  17 2.55  89 2.55  91 2.57
  85  0.552  0.932  0.564-  68 2.45  69 2.47  78 2.47   4 2.49  77 2.49  10 2.51  11 2.51  93 2.52
                            86 2.52  13 2.54  94 2.58  22 2.58
  86  0.882  0.813  0.540-  23 2.46  22 2.47  13 2.48  10 2.49  39 2.50  95 2.50  85 2.52   4 2.53
                            20 2.53 107 2.55  96 2.56  12 2.57
  87  0.441  0.743  0.354-  11 2.48   5 2.49  24 2.49  14 2.50  12 2.50  13 2.51  25 2.52   7 2.53
                            95 2.53  82 2.53  89 2.54  88 2.55
  88  0.780  0.629  0.321-  15 2.47  17 2.48   7 2.49  89 2.49   6 2.51  96 2.52  26 2.52  27 2.52
                            24 2.54  97 2.54  13 2.55  87 2.55
  89  0.555  0.593  0.231-  14 2.49  88 2.49   7 2.51  25 2.51  90 2.52  27 2.52   8 2.53  17 2.53
                            87 2.54  91 2.54  84 2.55  98 2.56
  90  0.330  0.559  0.138-  15 2.46   9 2.47  14 2.49   8 2.49  57 2.50  26 2.50  16 2.51  89 2.52
                            28 2.53  92 2.53  98 2.59  91 2.61
  91  0.675  0.441  0.111-  60 2.47  29 2.47  17 2.47  30 2.48  31 2.48  72 2.49  57 2.53  89 2.54
                            92 2.56  84 2.57  98 2.58  90 2.61
  92  0.442  0.408  0.018-  61 2.48  28 2.48  32 2.49  16 2.49  71 2.50  57 2.50  58 2.51  31 2.52
                            72 2.53  90 2.53 106 2.54  91 2.56
  93  0.334  0.891  0.723-  80 2.48  81 2.49  19 2.49  77 2.50  78 2.50  22 2.50  38 2.51  37 2.51
                            85 2.52  20 2.53  99 2.54  94 2.56
  94  0.449  0.737  0.602-  24 2.47  22 2.48  23 2.49  42 2.49  41 2.49  38 2.49  13 2.50  95 2.53
                            11 2.54  20 2.55  93 2.56  85 2.58
  95  0.216  0.705  0.512-  20 2.46  39 2.47  86 2.50  42 2.50  11 2.51  96 2.52 100 2.52  94 2.53
                            87 2.53  24 2.54  25 2.54  12 2.55
  96  0.004  0.667  0.413-  14 2.48  26 2.48   6 2.49  25 2.49  12 2.51  88 2.52  95 2.52  13 2.53
                            23 2.54  97 2.55  86 2.56 100 2.59
  97  0.887  0.480  0.454-  48 2.48  46 2.50  23 2.50  27 2.50  47 2.50  44 2.51  24 2.51  26 2.53
                           102 2.54  88 2.54  96 2.55 100 2.55
  98  0.442  0.404  0.271-  49 2.47  50 2.48  31 2.48  26 2.48  28 2.49  46 2.50  27 2.50  30 2.51
                            25 2.52  89 2.56  91 2.58  90 2.59
  99  0.107  0.853  0.882-  18 2.46   3 2.47  35 2.48  21 2.49  55 2.49   9 2.50  81 2.51  56 2.51
                            80 2.51  37 2.52  38 2.53  93 2.54
 100  0.114  0.515  0.549-  63 2.47  42 2.48  43 2.49  45 2.49  46 2.50  23 2.51  39 2.52  95 2.52
                            25 2.52 102 2.53  97 2.55  96 2.59
 101  0.111  0.186  0.210-  29 2.47  33 2.48  70 2.49  53 2.49  54 2.50  30 2.50  32 2.50  28 2.51
                            50 2.51  47 2.53  51 2.54 104 2.56
 102  0.994  0.331  0.588-  64 2.46  74 2.46  67 2.47  44 2.49  48 2.49  43 2.49  63 2.51 100 2.53
                            66 2.53  97 2.54  46 2.55 103 2.57
 103  0.338  0.221  0.555-  68 2.48  65 2.49  69 2.49  49 2.50  77 2.50  63 2.50  78 2.50  45 2.51
                            46 2.51  74 2.52  66 2.53 102 2.57
 104  0.226  0.037  0.344-   5 2.48  69 2.48  50 2.48  11 2.49  66 2.49  53 2.50  12 2.50  51 2.52
                            70 2.53 107 2.55  82 2.55 101 2.56
 105  0.998  0.334  0.830-  64 2.46  43 2.47  63 2.49  75 2.50  59 2.50  74 2.50  61 2.50  73 2.51
                            72 2.53  60 2.53  71 2.53 108 2.58
 106  0.557  0.257  0.897-  76 2.47  64 2.47  34 2.49  73 2.49  32 2.49  79 2.49  62 2.50  75 2.50
                            72 2.51  61 2.52  71 2.53  92 2.54
 107  0.997  0.001  0.503-  10 2.48  67 2.48  68 2.48  78 2.49  20 2.49  66 2.50  11 2.51  51 2.51
                             4 2.52  12 2.54 104 2.55  86 2.55
 108  0.114  0.184  0.965-  29 2.47  54 2.48  79 2.48  55 2.49  32 2.49  73 2.50  33 2.50  71 2.50
                            80 2.52  72 2.53  75 2.54 105 2.58
 

IMPORTANT INFORMATION: All symmetrisations will be switched off!
NOSYMM: (Re-)initialisation of all symmetry stuff for point group C_1.

 
 

Automatic generation of k-mesh.
 generate k-points for:    5    3    3
Space group operators:
 irot       det(A)        alpha          n_x          n_y          n_z        tau_x        tau_y        tau_z
    1     1.000000     0.000000     1.000000     0.000000     0.000000     0.000000     0.000000     0.000000
 
 Subroutine IBZKPT returns following result:
 ===========================================
 
 Found     23 irreducible k-points:
 
 Following reciprocal coordinates:
            Coordinates               Weight
  0.000000  0.000000  0.000000      1.000000
  0.200000  0.000000  0.000000      2.000000
  0.400000  0.000000  0.000000      2.000000
  0.000000  0.333333  0.000000      2.000000
  0.200000  0.333333  0.000000      2.000000
  0.400000  0.333333  0.000000      2.000000
 -0.400000  0.333333  0.000000      2.000000
 -0.200000  0.333333  0.000000      2.000000
  0.000000  0.000000  0.333333      2.000000
  0.200000  0.000000  0.333333      2.000000
  0.400000  0.000000  0.333333      2.000000
 -0.400000  0.000000  0.333333      2.000000
 -0.200000  0.000000  0.333333      2.000000
  0.000000  0.333333  0.333333      2.000000
  0.200000  0.333333  0.333333      2.000000
  0.400000  0.333333  0.333333      2.000000
 -0.400000  0.333333  0.333333      2.000000
 -0.200000  0.333333  0.333333      2.000000
  0.000000 -0.333333  0.333333      2.000000
  0.200000 -0.333333  0.333333      2.000000
  0.400000 -0.333333  0.333333      2.000000
 -0.400000 -0.333333  0.333333      2.000000
 -0.200000 -0.333333  0.333333      2.000000
 
 Following cartesian coordinates:
            Coordinates               Weight
 -0.000000 -0.000000 -0.000000      1.000000
  0.044444 -0.088889 -0.000000      2.000000
  0.088889 -0.177778 -0.000000      2.000000
 -0.098765 -0.024691 -0.000000      2.000000
 -0.054321 -0.113580 -0.000000      2.000000
 -0.009877 -0.202469 -0.000000      2.000000
 -0.187654  0.153086 -0.000000      2.000000
 -0.143210  0.064198 -0.000000      2.000000
  0.003086  0.021605 -0.083333      2.000000
  0.047531 -0.067284 -0.083333      2.000000
  0.091975 -0.156173 -0.083333      2.000000
 -0.085802  0.199383 -0.083333      2.000000
 -0.041358  0.110494 -0.083333      2.000000
 -0.095679 -0.003086 -0.083333      2.000000
 -0.051235 -0.091975 -0.083333      2.000000
 -0.006790 -0.180864 -0.083333      2.000000
 -0.184568  0.174691 -0.083333      2.000000
 -0.140123  0.085802 -0.083333      2.000000
  0.101852  0.046296 -0.083333      2.000000
  0.146296 -0.042593 -0.083333      2.000000
  0.190741 -0.131481 -0.083333      2.000000
  0.012963  0.224074 -0.083333      2.000000
  0.057407  0.135185 -0.083333      2.000000
 
 TETIRR: Found    132 inequivalent tetrahedra from      270


--------------------------------------------------------------------------------------------------------




 Dimension of arrays:
   k-points           NKPTS =     23   k-points in BZ     NKDIM =     23   number of bands    NBANDS=    750
   number of dos      NEDOS =    301   number of ions     NIONS =    108
   non local maximal  LDIM  =      6   non local SUM 2l+1 LMDIM =     18
   total plane-waves  NPLWV = 544320
   max r-space proj   IRMAX =   6889   max aug-charges    IRDMAX=  16317
   dimension x,y,z NGX =    56 NGY =   90 NGZ =  108
   dimension x,y,z NGXF=   112 NGYF=  180 NGZF=  216
   support grid    NGXF=   112 NGYF=  180 NGZF=  216
   ions per type =              81  27
   NGX,Y,Z   is equivalent  to a cutoff of  12.38, 12.45, 12.66 a.u.
   NGXF,Y,Z  is equivalent  to a cutoff of  24.76, 24.89, 25.32 a.u.

 SYSTEM =  SQS-NiFe                                
 POSCAR =  POSCAR                                  

 Startparameter for this run:
   NWRITE =      2    write-flag & timer
   PREC   = accura    normal or accurate (medium, high low for compatibility)
   ISTART =      0    job   : 0-new  1-cont  2-samecut
   ICHARG =     11    charge: 1-file 2-atom 10-const
   ISPIN  =      2    spin polarized calculation?
   LNONCOLLINEAR =      F non collinear calculations
   LSORBIT =      F    spin-orbit coupling
   INIWAV =      1    electr: 0-lowe 1-rand  2-diag
   LASPH  =      F    aspherical Exc in radial PAW
   METAGGA=      F    non-selfconsistent MetaGGA calc.

 Electronic Relaxation 1
   ENCUT  =  520.0 eV  38.22 Ry    6.18 a.u.  13.98 22.35 26.37*2*pi/ulx,y,z
   ENINI  =  520.0     initial cutoff
   ENAUG  =  544.6 eV  augmentation charge cutoff
   NELM   =    200;   NELMIN=  2; NELMDL= -5     # of ELM steps 
   EDIFF  = 0.1E-05   stopping-criterion for ELM
   LREAL  =      T    real-space projection
   NLSPLINE    = F    spline interpolate recip. space projectors
   LCOMPAT=      F    compatible to vasp.4.4
   GGA_COMPAT  = T    GGA compatible to vasp.4.4-vasp.4.6
   LMAXPAW     = -100 max onsite density
   LMAXMIX     =    2 max onsite mixed and CHGCAR
   VOSKOWN=      0    Vosko Wilk Nusair interpolation
   ROPT   =   -0.00025  -0.00025
 Ionic relaxation
   EDIFFG = -.2E-01   stopping-criterion for IOM
   NSW    =      0    number of steps for IOM
   NBLOCK =      1;   KBLOCK =      1    inner block; outer block 
   IBRION =     -1    ionic relax: 0-MD 1-quasi-New 2-CG
   NFREE  =      0    steps in history (QN), initial steepest desc. (CG)
   ISIF   =      2    stress and relaxation
   IWAVPR =     10    prediction:  0-non 1-charg 2-wave 3-comb
   ISYM   =      0    0-nonsym 1-usesym 2-fastsym
   LCORR  =      T    Harris-Foulkes like correction to forces

   POTIM  = 0.5000    time-step for ionic-motion
   TEIN   =    0.0    initial temperature
   TEBEG  =    0.0;   TEEND  =   0.0 temperature during run
   SMASS  =  -3.00    Nose mass-parameter (am)
   estimated Nose-frequenzy (Omega)   =  0.10E-29 period in steps =****** mass=  -0.129E-26a.u.
   SCALEE = 1.0000    scale energy and forces
   NPACO  =    256;   APACO  = 16.0  distance and # of slots for P.C.
   PSTRESS=    0.0 pullay stress

  Mass of Ions in am
   POMASS =  58.69 55.85
  Ionic Valenz
   ZVAL   =  10.00  8.00
  Atomic Wigner-Seitz radii
   RWIGS  =  -1.00 -1.00
  virtual crystal weights 
   VCA    =   1.00  1.00
   NELECT =    1026.0000    total number of electrons
   NUPDOWN=      -1.0000    fix difference up-down

 DOS related values:
   EMIN   =  10.00;   EMAX   =-10.00  energy-range for DOS
   EFERMI =   0.00
   ISMEAR =    -5;   SIGMA  =   0.20  broadening in eV -4-tet -1-fermi 0-gaus

 Electronic relaxation 2 (details)
   IALGO  =     68    algorithm
   LDIAG  =      T    sub-space diagonalisation (order eigenvalues)
   LSUBROT=      F    optimize rotation matrix (better conditioning)
   TURBO    =      0    0=normal 1=particle mesh
   IRESTART =      0    0=no restart 2=restart with 2 vectors
   NREBOOT  =      0    no. of reboots
   NMIN     =      0    reboot dimension
   EREF     =   0.00    reference energy to select bands
   IMIX   =      4    mixing-type and parameters
     AMIX     =   0.40;   BMIX     =  1.00
     AMIX_MAG =   1.60;   BMIX_MAG =  1.00
     AMIN     =   0.10
     WC   =   100.;   INIMIX=   1;  MIXPRE=   1;  MAXMIX= -45

 Intra band minimization:
   WEIMIN = 0.0000     energy-eigenvalue tresh-hold
   EBREAK =  0.33E-09  absolut break condition
   DEPER  =   0.30     relativ break condition  

   TIME   =   0.40     timestep for ELM

  volume/ion in A,a.u.               =      11.14        75.16
  Fermi-wavevector in a.u.,A,eV,Ry     =   1.552577  2.933945 32.796776  2.410495
  Thomas-Fermi vector in A             =   2.656932
 
 Write flags
   LWAVE        =      F    write WAVECAR
   LDOWNSAMPLE  =      F    k-point downsampling of WAVECAR
   LCHARG       =      F    write CHGCAR
   LVTOT        =      F    write LOCPOT, total local potential
   LVHAR        =      F    write LOCPOT, Hartree potential only
   LELF         =      F    write electronic localiz. function (ELF)
   LORBIT       =     11    0 simple, 1 ext, 2 COOP (PROOUT), +10 PAW based schemes


 Dipole corrections
   LMONO  =      F    monopole corrections only (constant potential shift)
   LDIPOL =      F    correct potential (dipole corrections)
   IDIPOL =      0    1-x, 2-y, 3-z, 4-all directions 
   EPSILON=  1.0000000 bulk dielectric constant

 Exchange correlation treatment:
   GGA     =    --    GGA type
   LEXCH   =     8    internal setting for exchange type
   VOSKOWN=      0    Vosko Wilk Nusair interpolation
   LHFCALC =     F    Hartree Fock is set to
   LHFONE  =     F    Hartree Fock one center treatment
   AEXX    =    0.0000 exact exchange contribution

 Linear response parameters
   LEPSILON=     F    determine dielectric tensor
   LRPA    =     F    only Hartree local field effects (RPA)
   LNABLA  =     F    use nabla operator in PAW spheres
   LVEL    =     F    velocity operator in full k-point grid
   LINTERFAST=   F  fast interpolation
   KINTER  =     0    interpolate to denser k-point grid
   CSHIFT  =0.1000    complex shift for real part using Kramers Kronig
   OMEGAMAX=  -1.0    maximum frequency
   DEG_THRESHOLD= 0.2000000E-02 threshold for treating states as degnerate
   RTIME   =   -0.100 relaxation time in fs
  (WPLASMAI=    0.000 imaginary part of plasma frequency in eV, 0.658/RTIME)
   DFIELD  = 0.0000000 0.0000000 0.0000000 field for delta impulse in time
 
 Orbital magnetization related:
   ORBITALMAG=     F  switch on orbital magnetization
   LCHIMAG   =     F  perturbation theory with respect to B field
   DQ        =  0.001000  dq finite difference perturbation B field
   LLRAUG    =     F  two centre corrections for induced B field



--------------------------------------------------------------------------------------------------------


 Static calculation
 charge density and potential remain constant during run
 spin polarized calculation
 RMM-DIIS sequential band-by-band and
  variant of blocked Davidson during initial phase
 perform sub-space diagonalisation
    before iterative eigenvector-optimisation
 no mixing
 using additional bands          237
 real space projection scheme for non local part
 use partial core corrections
 calculate Harris-corrections to forces 
   (improved forces if not selfconsistent)
 use gradient corrections 
 WARNING: stress and forces are not correct
  (second derivative of E(xc) not defined)
 use of overlap-Matrix (Vanderbilt PP)
 Fermi weights with tetrahedron method with Bloechl corrections


--------------------------------------------------------------------------------------------------------


  energy-cutoff  :      520.00
  volume of cell :     1202.85
      direct lattice vectors                 reciprocal lattice vectors
     1.772500000 -7.090000000 -1.772500000     0.062686099 -0.125372199  0.000000000
   -10.635000000 -5.317500000 -1.772500000    -0.083581466 -0.020895366  0.000000000
     0.000000000  0.000000000-14.180000000     0.002611921  0.018283446 -0.070521862

  length of vectors
     7.520080618 12.021679895 14.180000000     0.140170379  0.086153803  0.072900202


 
 k-points in units of 2pi/SCALE and weight: read from INCAR                         
  -0.00000000 -0.00000000 -0.00000000       0.022
   0.04444444 -0.08888889 -0.00000000       0.044
   0.08888889 -0.17777778 -0.00000000       0.044
  -0.09876543 -0.02469136 -0.00000000       0.044
  -0.05432099 -0.11358025 -0.00000000       0.044
  -0.00987654 -0.20246914 -0.00000000       0.044
  -0.18765432  0.15308642 -0.00000000       0.044
  -0.14320988  0.06419753 -0.00000000       0.044
   0.00308642  0.02160494 -0.08333333       0.044
   0.04753086 -0.06728395 -0.08333333       0.044
   0.09197531 -0.15617284 -0.08333333       0.044
  -0.08580247  0.19938272 -0.08333333       0.044
  -0.04135802  0.11049383 -0.08333333       0.044
  -0.09567901 -0.00308642 -0.08333333       0.044
  -0.05123457 -0.09197531 -0.08333333       0.044
  -0.00679012 -0.18086420 -0.08333333       0.044
  -0.18456790  0.17469136 -0.08333333       0.044
  -0.14012346  0.08580247 -0.08333333       0.044
   0.10185185  0.04629630 -0.08333333       0.044
   0.14629630 -0.04259259 -0.08333333       0.044
   0.19074074 -0.13148148 -0.08333333       0.044
   0.01296296  0.22407407 -0.08333333       0.044
   0.05740741  0.13518519 -0.08333333       0.044
 
 k-points in reciprocal lattice and weights: read from INCAR                         
   0.00000000  0.00000000  0.00000000       0.022
   0.20000000  0.00000000  0.00000000       0.044
   0.40000000  0.00000000  0.00000000       0.044
   0.00000000  0.33333333  0.00000000       0.044
   0.20000000  0.33333333  0.00000000       0.044
   0.40000000  0.33333333  0.00000000       0.044
  -0.40000000  0.33333333  0.00000000       0.044
  -0.20000000  0.33333333  0.00000000       0.044
   0.00000000  0.00000000  0.33333333       0.044
   0.20000000  0.00000000  0.33333333       0.044
   0.40000000  0.00000000  0.33333333       0.044
  -0.40000000  0.00000000  0.33333333       0.044
  -0.20000000  0.00000000  0.33333333       0.044
   0.00000000  0.33333333  0.33333333       0.044
   0.20000000  0.33333333  0.33333333       0.044
   0.40000000  0.33333333  0.33333333       0.044
  -0.40000000  0.33333333  0.33333333       0.044
  -0.20000000  0.33333333  0.33333333       0.044
   0.00000000 -0.33333333  0.33333333       0.044
   0.20000000 -0.33333333  0.33333333       0.044
   0.40000000 -0.33333333  0.33333333       0.044
  -0.40000000 -0.33333333  0.33333333       0.044
  -0.20000000 -0.33333333  0.33333333       0.044
 
 position of ions in fractional coordinates (direct lattice) 
   0.77784158  0.96431124  0.15749036
   0.55745681  0.92814386  0.06346727
   0.88736790  0.81606631  0.03650147
   0.77770993  0.96273066  0.40823661
   0.55429221  0.92578068  0.31486218
   0.88923032  0.81514815  0.28650549
   0.66562488  0.77843470  0.19475069
   0.44588696  0.74184311  0.09954696
   0.22264923  0.70307180  0.00831749
   0.77710881  0.96111817  0.65790906
   0.33049218  0.88900136  0.47321716
   0.10833607  0.85421871  0.37886776
   0.66651778  0.77789652  0.44484436
   0.22517421  0.70535019  0.25809600
   0.00065708  0.66574071  0.16638158
   0.11071963  0.51792492  0.04566606
   0.89030190  0.48025251  0.20351549
   0.78014741  0.96366632  0.90615276
   0.55639873  0.92576648  0.81467140
   0.11047570  0.85111471  0.63009985
   0.88939045  0.81586684  0.78784820
   0.66446840  0.77650460  0.69566477
   0.78087692  0.62847968  0.57321852
   0.55449858  0.59422555  0.48071703
   0.33403457  0.55512700  0.38964221
   0.11427874  0.51721824  0.29607746
   0.66873997  0.44249809  0.35986307
   0.22527934  0.37034267  0.17515480
   0.00397363  0.33177895  0.08207454
   0.77881923  0.29600644  0.24080135
   0.55683278  0.26073184  0.14862315
   0.33881918  0.22134027  0.05462563
   0.88718662  0.14906767  0.12072639
   0.66756586  0.11076010  0.02600191
   0.33189211  0.88783598  0.97136522
   0.66545086  0.77917809  0.94338241
   0.44204923  0.74134479  0.85207506
   0.22446268  0.70538177  0.75846317
   0.99979122  0.66617426  0.66798432
   0.77845635  0.63018254  0.82510237
   0.55612422  0.59193636  0.73327229
   0.33300774  0.55534884  0.63933098
   0.88844465  0.48227745  0.70396200
   0.66496439  0.44441686  0.61194895
   0.44585053  0.40732346  0.51747084
   0.21957740  0.36967052  0.42761251
   0.00068863  0.33229024  0.33367580
   0.78010170  0.29565390  0.49062741
   0.55646059  0.25807485  0.39792468
   0.33166552  0.22146191  0.30476019
   0.88994483  0.14662396  0.37075126
   0.66602423  0.11147093  0.27821000
   0.44261465  0.07467250  0.18497435
   0.22288468  0.03584009  0.09193252
   0.99829709  0.00207136  0.99967935
   0.00016171  0.66596632  0.91582189
   0.55620352  0.59163669  0.98200681
   0.33211348  0.55578661  0.88807914
   0.11181371  0.51784910  0.79709743
   0.88626610  0.48178774  0.95368552
   0.66436859  0.44386743  0.86313284
   0.44400477  0.40695929  0.77011915
   0.22412576  0.36855819  0.67564245
   0.77580167  0.29718450  0.74293797
   0.55506545  0.26099993  0.64768333
   0.11047710  0.18499280  0.46289268
   0.88504859  0.14864933  0.62176209
   0.66666050  0.11083153  0.52967333
   0.44530310  0.07569381  0.43436395
   0.00276152  0.00074441  0.24896397
   0.22066782  0.37063753  0.92578222
   0.77774574  0.29519388  0.99026590
   0.33087375  0.22278730  0.80682989
   0.10971328  0.18436758  0.71259645
   0.89136272  0.14848725  0.86915118
   0.66571822  0.11136475  0.77782342
   0.44518675  0.07534623  0.68668342
   0.22179455  0.03785714  0.59260150
   0.44317114  0.07373836  0.93484997
   0.22503384  0.03635645  0.84293171
   0.00165217  0.00012826  0.74998575
   0.33816266  0.88958670  0.21837985
   0.10531215  0.85107017  0.12718273
   0.78169565  0.63352253  0.07194037
   0.55173043  0.93176141  0.56372305
   0.88238799  0.81258618  0.54001041
   0.44058013  0.74310147  0.35362566
   0.77961595  0.62912141  0.32089722
   0.55466309  0.59323291  0.23136736
   0.32976689  0.55946626  0.13791722
   0.67520028  0.44142340  0.11067313
   0.44228666  0.40770439  0.01825541
   0.33359586  0.89111749  0.72262741
   0.44946361  0.73741092  0.60211941
   0.21619960  0.70480131  0.51232214
   0.00399922  0.66667843  0.41285025
   0.88706938  0.47973590  0.45422373
   0.44244631  0.40396380  0.27080699
   0.10697250  0.85296433  0.88161628
   0.11382429  0.51547144  0.54890254
   0.11123644  0.18562443  0.20981664
   0.99379044  0.33108228  0.58779137
   0.33773578  0.22089080  0.55546658
   0.22568923  0.03697787  0.34380488
   0.99768707  0.33443951  0.83045775
   0.55678786  0.25671358  0.89688013
   0.99698831  0.00084796  0.50343649
   0.11410972  0.18417102  0.96489638
 
 position of ions in cartesian coordinates  (Angst):
  -8.87672580-10.64262181 -5.32117925
  -8.88271773 -8.88777372 -3.53319308
  -7.10600557-10.63087104 -3.53692800
  -8.86014970-10.63328372 -8.87372601
  -8.86319454 -8.85277050 -7.08817486
  -7.09293982-10.63919323 -7.08365874
  -7.09883291 -8.85860689 -5.32116035
  -7.09916679 -7.10608928 -3.51682742
  -7.08252285 -5.31716738 -1.75878253
  -8.84406635-10.62044729-12.41015778
  -8.86873203 -7.07045425 -8.87177158
  -8.89259034 -5.31041075 -7.07847320
  -7.09152670 -8.86207581 -8.86811741
  -7.10227800 -5.34718483 -5.30915582
  -7.07898776 -3.54473495 -3.54048085
  -5.31188101 -3.53906797 -1.76181714
  -3.52942535 -8.86598320 -5.31515738
  -8.86578003-10.65554083-15.94015595
  -8.85930975 -8.86763022-14.17917835
  -8.85578676 -5.30907520-10.63923481
  -7.10029932-10.64415021-14.19425609
  -7.08035616 -8.84014418-12.41865107
  -5.29977704 -8.87835804-10.62632320
  -5.33673995 -7.09118925 -8.85268092
  -5.31169934 -5.32019295 -7.10116536
  -5.29805695 -3.56054431 -5.31770672
  -3.52062553 -7.09434997 -7.07252776
  -3.53928670 -3.56652769 -3.53943507
  -3.52142585 -1.79240763 -1.75893847
  -1.76757135 -7.09584258 -5.31969166
  -1.78589699 -5.33438595 -3.55660948
  -1.75339679 -3.57920491 -1.76747409
  -0.01279642 -7.08282051 -3.54866097
   0.00532686 -5.32200874 -1.74828987
  -8.85385685 -7.07418289-15.93592684
  -7.10704729 -8.86132608-15.93776736
  -7.10066957 -7.07622993-14.17999027
  -7.10387501 -5.34230793-12.40315704
  -5.31263331-10.63090134-12.42494147
  -5.32217739 -8.87025116-14.19676399
  -5.30951301 -7.09054229-12.43273840
  -5.31587872 -5.31409238-10.64032530
  -3.55425250 -8.86358291-12.41178604
  -3.54772393 -7.07778418-10.64381431
  -3.54161490 -5.32702273 -8.84998740
  -3.54224505 -3.52252680 -7.10798728
  -3.53268613 -1.77183574 -5.32172793
  -1.76154897 -7.10306066 -8.86387352
  -1.75829962 -5.31761860 -7.08633606
  -1.76737027 -3.52913222 -5.30191780
   0.01808136 -7.08938176 -7.09457103
  -0.00496541 -5.31485851 -5.32312804
  -0.00960762 -3.53520891 -3.53982776
   0.01390373 -1.77083209 -1.76219273
   1.74745264 -7.08894085-15.94860627
  -7.08226524 -3.54242243-14.16706636
  -5.30618550 -7.08951104-15.95940337
  -5.32211943 -5.31007987-14.16676510
  -5.30913542 -3.54642180-12.41891888
  -3.55290594 -8.84553291-15.94813611
  -3.54293685 -7.07063836-14.20357199
  -3.54101363 -5.31199983-12.42862328
  -3.52235349 -3.54885985-10.63114229
  -1.78544870 -7.08071241-12.43672837
  -1.79188072 -5.32328118-10.63062546
  -1.77157773 -1.76698185 -7.08753858
  -0.01213704 -7.06543732-10.64881600
   0.00296246 -5.31596962 -8.88887241
  -0.01570397 -3.55970087 -7.08274788
  -0.00302198 -0.02353760 -3.53652335
  -3.55059639 -3.53539992-14.17568060
  -1.76083255 -7.08391076-15.94375598
  -1.78286926 -3.53056637-12.42221211
  -1.76628240 -1.75824175-10.62587595
   0.00077851 -7.10934267-14.16769784
  -0.00437858 -5.31212422-12.40691567
  -0.01221364 -3.55702766-10.65981555
  -0.00947984 -1.77382870 -8.86332190
   0.00131333 -3.53418712-14.17239464
   0.01222168 -1.78881534-12.41608597
   0.00156444 -0.01239591-10.63795378
  -8.86136122 -7.12795055 -5.27281200
  -8.86446545 -5.27222878 -3.49863879
  -5.35195658 -8.91097822 -3.52858868
  -8.93134043 -8.86641008-10.62308209
  -7.07782126-10.57705783-10.66168927
  -7.12195586 -7.07515522 -7.11248750
  -5.30883690 -8.87283018 -7.04730955
  -5.32589165 -7.08707728 -5.31543478
  -5.36541185 -5.31300912 -3.53183198
  -3.49774541 -7.13443894 -3.54856041
  -3.55198307 -5.30378048 -1.76547077
  -8.88573590 -7.10371192-12.41766109
  -7.04569091 -7.10787954-10.64178827
  -7.11234816 -5.28063611 -8.89720206
  -7.08303647 -3.57341705 -7.04299274
  -3.52966083 -8.84031758 -8.86355481
  -3.51191889 -5.28502183 -5.34030509
  -8.88166688 -5.29407287-14.20280694
  -5.28028522 -3.54803359 -8.89886471
  -1.77694924 -1.77572426 -3.50138584
  -1.75956651 -8.80650428-10.68321851
  -1.75053695 -3.56913345 -8.86668172
   0.00677449 -1.79676644 -5.34073057
  -1.78836384 -8.85198344-14.13708527
  -1.74324243 -5.31270037-14.15969151
   1.75814375 -7.07315615 -8.90739422
  -1.75639936 -1.78836734-14.21093330
 


--------------------------------------------------------------------------------------------------------


 k-point  1 :   0.0000 0.0000 0.0000  plane waves:   32371
 k-point  2 :   0.2000 0.0000 0.0000  plane waves:   32380
 k-point  3 :   0.4000 0.0000 0.0000  plane waves:   32401
 k-point  4 :   0.0000 0.3333 0.0000  plane waves:   32385
 k-point  5 :   0.2000 0.3333 0.0000  plane waves:   32378
 k-point  6 :   0.4000 0.3333 0.0000  plane waves:   32420
 k-point  7 :  -0.4000 0.3333 0.0000  plane waves:   32409
 k-point  8 :  -0.2000 0.3333 0.0000  plane waves:   32382
 k-point  9 :   0.0000 0.0000 0.3333  plane waves:   32358
 k-point 10 :   0.2000 0.0000 0.3333  plane waves:   32390
 k-point 11 :   0.4000 0.0000 0.3333  plane waves:   32418
 k-point 12 :  -0.4000 0.0000 0.3333  plane waves:   32412
 k-point 13 :  -0.2000 0.0000 0.3333  plane waves:   32383
 k-point 14 :   0.0000 0.3333 0.3333  plane waves:   32335
 k-point 15 :   0.2000 0.3333 0.3333  plane waves:   32384
 k-point 16 :   0.4000 0.3333 0.3333  plane waves:   32401
 k-point 17 :  -0.4000 0.3333 0.3333  plane waves:   32414
 k-point 18 :  -0.2000 0.3333 0.3333  plane waves:   32377
 k-point 19 :   0.0000-0.3333 0.3333  plane waves:   32345
 k-point 20 :   0.2000-0.3333 0.3333  plane waves:   32366
 k-point 21 :   0.4000-0.3333 0.3333  plane waves:   32374
 k-point 22 :  -0.4000-0.3333 0.3333  plane waves:   32404
 k-point 23 :  -0.2000-0.3333 0.3333  plane waves:   32379

 maximum and minimum number of plane-waves per node :      1034      978

 maximum number of plane-waves:     32420
 maximum index in each direction: 
   IXMAX=   14   IYMAX=   22   IZMAX=   26
   IXMIN=  -14   IYMIN=  -22   IZMIN=  -26


 real space projection operators:
  total allocation   :      88523.72 KBytes
  max/ min on nodes  :       3254.06       1544.62


 parallel 3D FFT for wavefunctions:
    minimum data exchange during FFTs selected (reduces bandwidth)
 parallel 3D FFT for charge:
    minimum data exchange during FFTs selected (reduces bandwidth)


 total amount of memory used by VASP MPI-rank0   261048. kBytes
=======================================================================

   base      :      30000. kBytes
   nonlr-proj:      16459. kBytes
   fftplans  :       2950. kBytes
   grid      :       7827. kBytes
   one-center:        124. kBytes
   wavefun   :     203688. kBytes
 
     INWAV:  cpu time    0.0000: real time    0.0001
 initial charge density was supplied:
 number of electron    1026.0000183 magnetization     124.5011210
 keeping initial charge density in first step


--------------------------------------------------------------------------------------------------------


 Maximum index for non-local projection operator          420
 Maximum index for augmentation-charges          975 (set IRDMAX)


--------------------------------------------------------------------------------------------------------


 First call to EWALD:  gamma=   0.167
 Maximum number of real-space cells 4x 3x 2
 Maximum number of reciprocal cells 2x 3x 3

    FEWALD:  cpu time    0.0060: real time    0.0055


--------------------------------------- Iteration      1(   1)  ---------------------------------------


    POTLOK:  cpu time    0.1070: real time    0.1109
    SETDIJ:  cpu time    0.0270: real time    0.0264
     EDDAV:  cpu time  156.3452: real time  156.8148
 BZINTS: Fermi energy: 24.885621;********** electrons
         Band energy:***********;  BLOECHL correction: -0.029271
       DOS:  cpu time    0.4269: real time    0.4270
    --------------------------------------------
      LOOP:  cpu time  156.9061: real time  157.3791

 eigenvalue-minimisations  : 69000
 total energy-change (2. order) : 0.9086709E+04  (-0.4047476E+05)
 number of electron    1026.0000183 magnetization     124.5011210
 augmentation part     1026.0000183 magnetization     124.5011210

 Free energy of the ion-electron system (eV)
  ---------------------------------------------------
  alpha Z        PSCENC =      5513.22116028
  Ewald energy   TEWEN  =    -90771.25078163
  -Hartree energ DENC   =    -21749.58312091
  -exchange      EXHF   =         0.00000000
  -V(xc)+E(xc)   XCENC  =      2614.67131344
  PAW double counting   =    111711.91869370  -117516.04028421
  entropy T*S    EENTRO =         0.00000000
  eigenvalues    EBANDS =     15945.98554305
  atomic energy  EATOM  =    103337.78685059
  Solvation  Ediel_sol  =         0.00000000
  ---------------------------------------------------
  free energy    TOTEN  =      9086.70937431 eV

  energy without entropy =     9086.70937431  energy(sigma->0) =     9086.70937431


--------------------------------------------------------------------------------------------------------




--------------------------------------- Iteration      1(   2)  ---------------------------------------


     EDDAV:  cpu time  157.4991: real time  158.4496
 BZINTS: Fermi energy: 11.013601;********** electrons
         Band energy:7570.876210;  BLOECHL correction: -0.010260
       DOS:  cpu time    0.4879: real time    0.4881
    --------------------------------------------
      LOOP:  cpu time  157.9870: real time  158.9376

 eigenvalue-minimisations  : 69000
 total energy-change (2. order) :-0.8375109E+04  (-0.7826783E+04)
 number of electron    1026.0000183 magnetization     124.5011210
 augmentation part     1026.0000183 magnetization     124.5011210

 Free energy of the ion-electron system (eV)
  ---------------------------------------------------
  alpha Z        PSCENC =      5513.22116028
  Ewald energy   TEWEN  =    -90771.25078163
  -Hartree energ DENC   =    -21749.58312091
  -exchange      EXHF   =         0.00000000
  -V(xc)+E(xc)   XCENC  =      2614.67131344
  PAW double counting   =    111711.91869370  -117516.04028421
  entropy T*S    EENTRO =         0.00000000
  eigenvalues    EBANDS =      7570.87621025
  atomic energy  EATOM  =    103337.78685059
  Solvation  Ediel_sol  =         0.00000000
  ---------------------------------------------------
  free energy    TOTEN  =       711.60004151 eV

  energy without entropy =      711.60004151  energy(sigma->0) =      711.60004151


--------------------------------------------------------------------------------------------------------




--------------------------------------- Iteration      1(   3)  ---------------------------------------


     EDDAV:  cpu time  156.2402: real time  156.5472
 BZINTS: Fermi energy:  8.513363;********** electrons
         Band energy:6287.660378;  BLOECHL correction: -0.043830
       DOS:  cpu time    0.4649: real time    0.4646
    --------------------------------------------
      LOOP:  cpu time  156.7052: real time  157.0118

 eigenvalue-minimisations  : 69000
 total energy-change (2. order) :-0.1283216E+04  (-0.1032261E+04)
 number of electron    1026.0000183 magnetization     124.5011210
 augmentation part     1026.0000183 magnetization     124.5011210

 Free energy of the ion-electron system (eV)
  ---------------------------------------------------
  alpha Z        PSCENC =      5513.22116028
  Ewald energy   TEWEN  =    -90771.25078163
  -Hartree energ DENC   =    -21749.58312091
  -exchange      EXHF   =         0.00000000
  -V(xc)+E(xc)   XCENC  =      2614.67131344
  PAW double counting   =    111711.91869370  -117516.04028421
  entropy T*S    EENTRO =         0.00000000
  eigenvalues    EBANDS =      6287.66037764
  atomic energy  EATOM  =    103337.78685059
  Solvation  Ediel_sol  =         0.00000000
  ---------------------------------------------------
  free energy    TOTEN  =      -571.61579110 eV

  energy without entropy =     -571.61579110  energy(sigma->0) =     -571.61579110


--------------------------------------------------------------------------------------------------------




--------------------------------------- Iteration      1(   4)  ---------------------------------------


     EDDAV:  cpu time  161.4935: real time  161.7536
 BZINTS: Fermi energy:  8.420421;********** electrons
         Band energy:6191.371019;  BLOECHL correction: -0.046548
       DOS:  cpu time    0.4379: real time    0.4364
    --------------------------------------------
      LOOP:  cpu time  161.9314: real time  162.1900

 eigenvalue-minimisations  : 72546
 total energy-change (2. order) :-0.9628936E+02  (-0.9227080E+02)
 number of electron    1026.0000183 magnetization     124.5011210
 augmentation part     1026.0000183 magnetization     124.5011210

 Free energy of the ion-electron system (eV)
  ---------------------------------------------------
  alpha Z        PSCENC =      5513.22116028
  Ewald energy   TEWEN  =    -90771.25078163
  -Hartree energ DENC   =    -21749.58312091
  -exchange      EXHF   =         0.00000000
  -V(xc)+E(xc)   XCENC  =      2614.67131344
  PAW double counting   =    111711.91869370  -117516.04028421
  entropy T*S    EENTRO =         0.00000000
  eigenvalues    EBANDS =      6191.37101938
  atomic energy  EATOM  =    103337.78685059
  Solvation  Ediel_sol  =         0.00000000
  ---------------------------------------------------
  free energy    TOTEN  =      -667.90514936 eV

  energy without entropy =     -667.90514936  energy(sigma->0) =     -667.90514936


--------------------------------------------------------------------------------------------------------




--------------------------------------- Iteration      1(   5)  ---------------------------------------


     EDDAV:  cpu time  172.6418: real time  172.8888
 BZINTS: Fermi energy:  8.419091;********** electrons
         Band energy:6189.818350;  BLOECHL correction: -0.046522
       DOS:  cpu time    0.4369: real time    0.4364
    --------------------------------------------
      LOOP:  cpu time  173.0787: real time  173.3252

 eigenvalue-minimisations  : 80373
 total energy-change (2. order) :-0.1552669E+01  (-0.1550483E+01)
 number of electron    1026.0000183 magnetization     124.5011210
 augmentation part     1026.0000183 magnetization     124.5011210

 Free energy of the ion-electron system (eV)
  ---------------------------------------------------
  alpha Z        PSCENC =      5513.22116028
  Ewald energy   TEWEN  =    -90771.25078163
  -Hartree energ DENC   =    -21749.58312091
  -exchange      EXHF   =         0.00000000
  -V(xc)+E(xc)   XCENC  =      2614.67131344
  PAW double counting   =    111711.91869370  -117516.04028421
  entropy T*S    EENTRO =         0.00000000
  eigenvalues    EBANDS =      6189.81834998
  atomic energy  EATOM  =    103337.78685059
  Solvation  Ediel_sol  =         0.00000000
  ---------------------------------------------------
  free energy    TOTEN  =      -669.45781876 eV

  energy without entropy =     -669.45781876  energy(sigma->0) =     -669.45781876


--------------------------------------------------------------------------------------------------------




--------------------------------------- Iteration      1(   6)  ---------------------------------------


    EDDIAG:  cpu time   26.6769: real time   26.6897
  RMM-DIIS:  cpu time   72.4340: real time   72.6155
    ORTHCH:  cpu time    9.8645: real time    9.8694
 BZINTS: Fermi energy:  8.419030;********** electrons
         Band energy:6189.744091;  BLOECHL correction: -0.046522
       DOS:  cpu time    0.4659: real time    0.4653
    --------------------------------------------
      LOOP:  cpu time  109.4414: real time  109.6399

 eigenvalue-minimisations  : 75845
 total energy-change (2. order) :-0.7425879E-01  (-0.7426000E-01)
 number of electron    1026.0000183 magnetization     124.5011210
 augmentation part     1026.0000183 magnetization     124.5011210

 Free energy of the ion-electron system (eV)
  ---------------------------------------------------
  alpha Z        PSCENC =      5513.22116028
  Ewald energy   TEWEN  =    -90771.25078163
  -Hartree energ DENC   =    -21749.58312091
  -exchange      EXHF   =         0.00000000
  -V(xc)+E(xc)   XCENC  =      2614.67131344
  PAW double counting   =    111711.91869370  -117516.04028421
  entropy T*S    EENTRO =         0.00000000
  eigenvalues    EBANDS =      6189.74409119
  atomic energy  EATOM  =    103337.78685059
  Solvation  Ediel_sol  =         0.00000000
  ---------------------------------------------------
  free energy    TOTEN  =      -669.53207755 eV

  energy without entropy =     -669.53207755  energy(sigma->0) =     -669.53207755


--------------------------------------------------------------------------------------------------------




--------------------------------------- Iteration      1(   7)  ---------------------------------------


    EDDIAG:  cpu time   26.6869: real time   26.6988
  RMM-DIIS:  cpu time   99.4839: real time   99.6398
    ORTHCH:  cpu time    9.8365: real time    9.8412
 BZINTS: Fermi energy:  8.419011;********** electrons
         Band energy:6189.720703;  BLOECHL correction: -0.046522
       DOS:  cpu time    0.4179: real time    0.4179
    --------------------------------------------
      LOOP:  cpu time  136.4253: real time  136.5978

 eigenvalue-minimisations  :105638
 total energy-change (2. order) :-0.2338797E-01  (-0.2334506E-01)
 number of electron    1026.0000183 magnetization     124.5011210
 augmentation part     1026.0000183 magnetization     124.5011210

 Free energy of the ion-electron system (eV)
  ---------------------------------------------------
  alpha Z        PSCENC =      5513.22116028
  Ewald energy   TEWEN  =    -90771.25078163
  -Hartree energ DENC   =    -21749.58312091
  -exchange      EXHF   =         0.00000000
  -V(xc)+E(xc)   XCENC  =      2614.67131344
  PAW double counting   =    111711.91869370  -117516.04028421
  entropy T*S    EENTRO =         0.00000000
  eigenvalues    EBANDS =      6189.72070322
  atomic energy  EATOM  =    103337.78685059
  Solvation  Ediel_sol  =         0.00000000
  ---------------------------------------------------
  free energy    TOTEN  =      -669.55546552 eV

  energy without entropy =     -669.55546552  energy(sigma->0) =     -669.55546552


--------------------------------------------------------------------------------------------------------




--------------------------------------- Iteration      1(   8)  ---------------------------------------


    EDDIAG:  cpu time   26.8399: real time   26.8528
  RMM-DIIS:  cpu time   89.1135: real time   89.3802
    ORTHCH:  cpu time    9.9305: real time    9.9386
 BZINTS: Fermi energy:  8.419011;********** electrons
         Band energy:6189.720681;  BLOECHL correction: -0.046522
       DOS:  cpu time    0.4559: real time    0.4553
    --------------------------------------------
      LOOP:  cpu time  126.3398: real time  126.6268

 eigenvalue-minimisations  : 91715
 total energy-change (2. order) :-0.2264119E-04  (-0.1469524E-03)
 number of electron    1026.0000183 magnetization     124.5011210
 augmentation part     1026.0000183 magnetization     124.5011210

 Free energy of the ion-electron system (eV)
  ---------------------------------------------------
  alpha Z        PSCENC =      5513.22116028
  Ewald energy   TEWEN  =    -90771.25078163
  -Hartree energ DENC   =    -21749.58312091
  -exchange      EXHF   =         0.00000000
  -V(xc)+E(xc)   XCENC  =      2614.67131344
  PAW double counting   =    111711.91869370  -117516.04028421
  entropy T*S    EENTRO =         0.00000000
  eigenvalues    EBANDS =      6189.72068058
  atomic energy  EATOM  =    103337.78685059
  Solvation  Ediel_sol  =         0.00000000
  ---------------------------------------------------
  free energy    TOTEN  =      -669.55548816 eV

  energy without entropy =     -669.55548816  energy(sigma->0) =     -669.55548816


--------------------------------------------------------------------------------------------------------




--------------------------------------- Iteration      1(   9)  ---------------------------------------


    EDDIAG:  cpu time   26.7399: real time   26.7525
  RMM-DIIS:  cpu time   88.8615: real time   88.9898
    ORTHCH:  cpu time    9.8645: real time    9.8709
 BZINTS: Fermi energy:  8.419011;********** electrons
         Band energy:6189.720656;  BLOECHL correction: -0.046522
       DOS:  cpu time    0.4549: real time    0.4545
    --------------------------------------------
      LOOP:  cpu time  125.9209: real time  126.0677

 eigenvalue-minimisations  : 94707
 total energy-change (2. order) :-0.2483062E-04  (-0.2490850E-04)
 number of electron    1026.0000183 magnetization     124.5011210
 augmentation part     1026.0000183 magnetization     124.5011210

 Free energy of the ion-electron system (eV)
  ---------------------------------------------------
  alpha Z        PSCENC =      5513.22116028
  Ewald energy   TEWEN  =    -90771.25078163
  -Hartree energ DENC   =    -21749.58312091
  -exchange      EXHF   =         0.00000000
  -V(xc)+E(xc)   XCENC  =      2614.67131344
  PAW double counting   =    111711.91869370  -117516.04028421
  entropy T*S    EENTRO =         0.00000000
  eigenvalues    EBANDS =      6189.72065575
  atomic energy  EATOM  =    103337.78685059
  Solvation  Ediel_sol  =         0.00000000
  ---------------------------------------------------
  free energy    TOTEN  =      -669.55551299 eV

  energy without entropy =     -669.55551299  energy(sigma->0) =     -669.55551299


--------------------------------------------------------------------------------------------------------




--------------------------------------- Iteration      1(  10)  ---------------------------------------


    EDDIAG:  cpu time   26.9749: real time   26.9973
  RMM-DIIS:  cpu time   66.2809: real time   66.8182
    ORTHCH:  cpu time    9.9235: real time    9.9288
 BZINTS: Fermi energy:  8.419011;********** electrons
         Band energy:6189.720655;  BLOECHL correction: -0.046522
       DOS:  cpu time    0.4479: real time    0.4473
    --------------------------------------------
      LOOP:  cpu time  103.6272: real time  104.1917

 eigenvalue-minimisations  : 68861
 total energy-change (2. order) :-0.9834330E-06  (-0.1054108E-05)
 number of electron    1026.0000183 magnetization     124.5011210
 augmentation part     1026.0000183 magnetization     124.5011210

 Free energy of the ion-electron system (eV)
  ---------------------------------------------------
  alpha Z        PSCENC =      5513.22116028
  Ewald energy   TEWEN  =    -90771.25078163
  -Hartree energ DENC   =    -21749.58312091
  -exchange      EXHF   =         0.00000000
  -V(xc)+E(xc)   XCENC  =      2614.67131344
  PAW double counting   =    111711.91869370  -117516.04028421
  entropy T*S    EENTRO =         0.00000000
  eigenvalues    EBANDS =      6189.72065477
  atomic energy  EATOM  =    103337.78685059
  Solvation  Ediel_sol  =         0.00000000
  ---------------------------------------------------
  free energy    TOTEN  =      -669.55551397 eV

  energy without entropy =     -669.55551397  energy(sigma->0) =     -669.55551397


--------------------------------------------------------------------------------------------------------




--------------------------------------- Iteration      1(  11)  ---------------------------------------


    EDDIAG:  cpu time   27.4238: real time   27.4426
  RMM-DIIS:  cpu time   50.8963: real time   51.0258
    ORTHCH:  cpu time   10.0015: real time   10.0069
 BZINTS: Fermi energy:  8.419011;********** electrons
         Band energy:6189.720655;  BLOECHL correction: -0.046522
       DOS:  cpu time    0.4549: real time    0.4547
    --------------------------------------------
      LOOP:  cpu time   88.7765: real time   88.9299

 eigenvalue-minimisations  : 51298
 total energy-change (2. order) :-0.1004519E-06  (-0.1023431E-06)
 number of electron    1026.0000183 magnetization     124.5011210
 augmentation part     1026.0000183 magnetization     124.5011210

 Free energy of the ion-electron system (eV)
  ---------------------------------------------------
  alpha Z        PSCENC =      5513.22116028
  Ewald energy   TEWEN  =    -90771.25078163
  -Hartree energ DENC   =    -21749.58312091
  -exchange      EXHF   =         0.00000000
  -V(xc)+E(xc)   XCENC  =      2614.67131344
  PAW double counting   =    111711.91869370  -117516.04028421
  entropy T*S    EENTRO =         0.00000000
  eigenvalues    EBANDS =      6189.72065467
  atomic energy  EATOM  =    103337.78685059
  Solvation  Ediel_sol  =         0.00000000
  ---------------------------------------------------
  free energy    TOTEN  =      -669.55551407 eV

  energy without entropy =     -669.55551407  energy(sigma->0) =     -669.55551407


--------------------------------------------------------------------------------------------------------




 average (electrostatic) potential at core
  the test charge radii are     0.9791  1.0103
  (the norm of the test charge is              1.0000)
       1 -82.8803       2 -82.9011       3 -82.9789       4 -82.9880       5 -82.9616
       6 -82.9245       7 -82.9748       8 -83.0092       9 -82.9862      10 -82.9573
      11 -83.0198      12 -83.0281      13 -82.9996      14 -82.9557      15 -82.9167
      16 -82.9996      17 -82.9800      18 -82.9119      19 -82.8716      20 -82.9777
      21 -82.9401      22 -82.9713      23 -82.9953      24 -82.9988      25 -83.0050
      26 -82.9793      27 -82.9760      28 -82.9429      29 -82.9257      30 -82.9904
      31 -82.9682      32 -82.9452      33 -82.9525      34 -82.9432      35 -82.9106
      36 -82.9361      37 -82.9551      38 -82.9018      39 -82.9633      40 -82.8578
      41 -82.9212      42 -82.9040      43 -82.9662      44 -82.9292      45 -82.9646
      46 -82.9426      47 -82.9790      48 -82.9365      49 -82.8541      50 -82.9827
      51 -82.9271      52 -82.8867      53 -82.9792      54 -83.0023      55 -82.9319
      56 -82.9719      57 -82.9471      58 -82.8841      59 -82.9065      60 -82.9541
      61 -82.9509      62 -82.9285      63 -82.9378      64 -82.9754      65 -82.9328
      66 -83.0226      67 -82.9042      68 -82.9267      69 -82.9540      70 -82.9791
      71 -83.0156      72 -82.9737      73 -82.9012      74 -82.9634      75 -82.9262
      76 -82.8788      77 -82.9426      78 -82.9067      79 -82.9773      80 -82.9482
      81 -82.9562      82 -41.1587      83 -41.2455      84 -41.2211      85 -41.1265
      86 -41.0654      87 -41.0757      88 -41.0135      89 -40.9235      90 -41.1195
      91 -41.0515      92 -41.1299      93 -41.1452      94 -41.1337      95 -40.9833
      96 -40.9837      97 -41.0574      98 -41.1735      99 -41.2749     100 -41.0717
     101 -41.2841     102 -41.1686     103 -41.2464     104 -41.1932     105 -41.2523
     106 -41.2597     107 -41.1754     108 -41.2817
 
 
 
 E-fermi :   8.4190     XC(G=0): -13.1417     alpha+bet :-15.5409


 spin component 1

 k-point     1 :       0.0000    0.0000    0.0000
  band No.  band energies     occupation 
      1      -0.4976      1.00000
      2       0.3427      1.00000
      3       0.3521      1.00000
      4       0.6591      1.00000
      5       0.6784      1.00000
      6       1.2667      1.00000
      7       1.2725      1.00000
      8       1.5708      1.00000
      9       1.5980      1.00000
     10       2.3224      1.00000
     11       2.3355      1.00000
     12       2.3683      1.00000
     13       2.3756      1.00000
     14       2.4779      1.00000
     15       2.4912      1.00000
     16       2.5199      1.00000
     17       2.5419      1.00000
     18       2.5659      1.00000
     19       2.5699      1.00000
     20       3.0419      1.00000
     21       3.0553      1.00000
     22       3.1687      1.00000
     23       3.1839      1.00000
     24       3.2118      1.00000
     25       3.2273      1.00000
     26       3.2800      1.00000
     27       3.2929      1.00000
     28       3.3076      1.00000
     29       3.3358      1.00000
     30       3.4061      1.00000
     31       3.4287      1.00000
     32       3.4517      1.00000
     33       3.4607      1.00000
     34       3.4821      1.00000
     35       3.4857      1.00000
     36       3.5072      1.00000
     37       3.5139      1.00000
     38       3.5395      1.00000
     39       3.5528      1.00000
     40       3.5632      1.00000
     41       3.5819      1.00000
     42       3.5924      1.00000
     43       3.6091      1.00000
     44       3.6151      1.00000
     45       3.6214      1.00000
     46       3.6289      1.00000
     47       3.6498      1.00000
     48       3.6654      1.00000
     49       3.6842      1.00000
     50       3.7230      1.00000
     51       3.7344      1.00000
     52       3.7652      1.00000
     53       3.8001      1.00000
     54       3.8257      1.00000
     55       3.8339      1.00000
     56       3.8604      1.00000
     57       3.8741      1.00000
     58       3.8803      1.00000
     59       3.9175      1.00000
     60       3.9203      1.00000
     61       3.9354      1.00000
     62       3.9581      1.00000
     63       3.9715      1.00000
     64       3.9772      1.00000
     65       3.9922      1.00000
     66       4.0093      1.00000
     67       4.0191      1.00000
     68       4.0251      1.00000
     69       4.0378      1.00000
     70       4.0434      1.00000
     71       4.0549      1.00000
     72       4.0745      1.00000
     73       4.0875      1.00000
     74       4.0930      1.00000
     75       4.1006      1.00000
     76       4.1196      1.00000
     77       4.1274      1.00000
     78       4.1437      1.00000
     79       4.1472      1.00000
     80       4.1570      1.00000
     81       4.1827      1.00000
     82       4.1932      1.00000
     83       4.2052      1.00000
     84       4.2158      1.00000
     85       4.2324      1.00000
     86       4.2428      1.00000
     87       4.2448      1.00000
     88       4.2715      1.00000
     89       4.2768      1.00000
     90       4.2843      1.00000
     91       4.2911      1.00000
     92       4.3040      1.00000
     93       4.3331      1.00000
     94       4.3393      1.00000
     95       4.3448      1.00000
     96       4.3556      1.00000
     97       4.3620      1.00000
     98       4.3814      1.00000
     99       4.3932      1.00000
    100       4.3988      1.00000
    101       4.4175      1.00000
    102       4.4223      1.00000
    103       4.4367      1.00000
    104       4.4472      1.00000
    105       4.4524      1.00000
    106       4.4543      1.00000
    107       4.4643      1.00000
    108       4.4709      1.00000
    109       4.4758      1.00000
    110       4.4981      1.00000
    111       4.5069      1.00000
    112       4.5225      1.00000
    113       4.5263      1.00000
    114       4.5413      1.00000
    115       4.5567      1.00000
    116       4.5616      1.00000
    117       4.5680      1.00000
    118       4.5707      1.00000
    119       4.5796      1.00000
    120       4.5891      1.00000
    121       4.6130      1.00000
    122       4.6230      1.00000
    123       4.6380      1.00000
    124       4.6482      1.00000
    125       4.6644      1.00000
    126       4.6722      1.00000
    127       4.6785      1.00000
    128       4.6992      1.00000
    129       4.7015      1.00000
    130       4.7105      1.00000
    131       4.7195      1.00000
    132       4.7471      1.00000
    133       4.7614      1.00000
    134       4.7670      1.00000
    135       4.7798      1.00000
    136       4.7853      1.00000
    137       4.8037      1.00000
    138       4.8105      1.00000
    139       4.8170      1.00000
    140       4.8223      1.00000
    141       4.8244      1.00000
[...]
     -8.89259     -5.31041     -7.07847        -0.006314     -0.004206      0.001137
     -7.09153     -8.86208     -8.86812         0.002338      0.003397      0.000748
     -7.10228     -5.34718     -5.30916         0.005485      0.005479     -0.006800
     -7.07899     -3.54473     -3.54048         0.003853      0.002219     -0.001555
     -5.31188     -3.53907     -1.76182        -0.006462     -0.011402      0.002476
     -3.52943     -8.86598     -5.31516         0.002603      0.013948      0.004202
     -8.86578    -10.65554    -15.94016         0.010514      0.001173     -0.004474
     -8.85931     -8.86763    -14.17918         0.000591      0.008406     -0.004648
     -8.85579     -5.30908    -10.63923         0.002844     -0.009672     -0.003994
     -7.10030    -10.64415    -14.19426         0.006329     -0.006569     -0.003287
     -7.08036     -8.84014    -12.41865         0.005157      0.002924     -0.004245
     -5.29978     -8.87836    -10.62632        -0.003546      0.006691      0.010504
     -5.33674     -7.09119     -8.85268        -0.005924     -0.013726      0.001815
     -5.31170     -5.32019     -7.10117         0.000611      0.003339     -0.005193
     -5.29806     -3.56054     -5.31771        -0.000901     -0.005977      0.005228
     -3.52063     -7.09435     -7.07253         0.006317     -0.012973      0.002347
     -3.53929     -3.56653     -3.53944         0.002950     -0.009052     -0.011055
     -3.52143     -1.79241     -1.75894        -0.002647      0.006492      0.005877
     -1.76757     -7.09584     -5.31969         0.013657     -0.005724      0.006377
     -1.78590     -5.33439     -3.55661         0.005759      0.001946     -0.004567
     -1.75340     -3.57920     -1.76747        -0.007751     -0.006373      0.002959
     -0.01280     -7.08282     -3.54866        -0.007290     -0.006400      0.002404
      0.00533     -5.32201     -1.74829        -0.008436      0.000562      0.004785
     -8.85386     -7.07418    -15.93593         0.011769     -0.001376      0.001980
     -7.10705     -8.86133    -15.93777        -0.000704      0.017437     -0.006033
     -7.10067     -7.07623    -14.17999        -0.011573      0.003347      0.009531
     -7.10388     -5.34231    -12.40316        -0.007259      0.011430     -0.004710
     -5.31263    -10.63090    -12.42494         0.003878      0.002719      0.004014
     -5.32218     -8.87025    -14.19676        -0.004949     -0.009196     -0.013839
     -5.30951     -7.09054    -12.43274         0.002538      0.003913     -0.001703
     -5.31588     -5.31409    -10.64033         0.007670     -0.000597      0.001753
     -3.55425     -8.86358    -12.41179         0.004785     -0.008099      0.012317
     -3.54772     -7.07778    -10.64381         0.003636     -0.001969     -0.005026
     -3.54161     -5.32702     -8.84999        -0.001717      0.001843      0.005362
     -3.54225     -3.52253     -7.10799         0.002480      0.000767      0.001963
     -3.53269     -1.77184     -5.32173         0.015978     -0.007718      0.001921
     -1.76155     -7.10306     -8.86387        -0.008778      0.003146      0.004867
     -1.75830     -5.31762     -7.08634         0.000195     -0.007057     -0.011376
     -1.76737     -3.52913     -5.30192         0.012681     -0.000645      0.000438
      0.01808     -7.08938     -7.09457        -0.001242      0.002714     -0.000019
     -0.00497     -5.31486     -5.32313         0.008082     -0.003021      0.004071
     -0.00961     -3.53521     -3.53983         0.003900     -0.002688     -0.005091
      0.01390     -1.77083     -1.76219         0.000238      0.014824     -0.001208
      1.74745     -7.08894    -15.94861         0.013208      0.002349      0.009765
     -7.08227     -3.54242    -14.16707        -0.004551     -0.001510      0.003112
     -5.30619     -7.08951    -15.95940        -0.006073      0.013245      0.006938
     -5.32212     -5.31008    -14.16677        -0.005320      0.006089     -0.004535
     -5.30914     -3.54642    -12.41892        -0.000648     -0.014159     -0.012987
     -3.55291     -8.84553    -15.94814        -0.017772      0.002054     -0.011613
     -3.54294     -7.07064    -14.20357         0.001224      0.003405     -0.000525
     -3.54101     -5.31200    -12.42862         0.001290     -0.004503      0.010785
     -3.52235     -3.54886    -10.63114         0.000544     -0.007736     -0.007138
     -1.78545     -7.08071    -12.43673        -0.011412     -0.005788     -0.007024
     -1.79188     -5.32328    -10.63063        -0.007379     -0.000820     -0.001294
     -1.77158     -1.76698     -7.08754        -0.000545     -0.005603     -0.006502
     -0.01214     -7.06544    -10.64882        -0.006064      0.004174     -0.011227
      0.00296     -5.31597     -8.88887         0.010823      0.001977     -0.005277
     -0.01570     -3.55970     -7.08275        -0.007454      0.013350     -0.019042
     -0.00302     -0.02354     -3.53652         0.010876     -0.008860      0.003366
     -3.55060     -3.53540    -14.17568         0.002643     -0.002569     -0.000913
     -1.76083     -7.08391    -15.94376         0.005631      0.020770     -0.000318
     -1.78287     -3.53057    -12.42221        -0.004996     -0.002599     -0.000168
     -1.76628     -1.75824    -10.62588        -0.019737      0.002271     -0.010071
      0.00078     -7.10934    -14.16770        -0.010769     -0.000269     -0.003014
     -0.00438     -5.31212    -12.40692         0.007185      0.004685     -0.014295
     -0.01221     -3.55703    -10.65982        -0.006876      0.011338     -0.001609
     -0.00948     -1.77383     -8.86332         0.010565      0.003302     -0.008944
      0.00131     -3.53419    -14.17239        -0.000380     -0.003811      0.019553
      0.01222     -1.78882    -12.41609        -0.004848      0.008397      0.012198
      0.00156     -0.01240    -10.63795         0.008117      0.001685     -0.004898
     -8.86136     -7.12795     -5.27281        -0.011345     -0.000436      0.004070
     -8.86447     -5.27223     -3.49864        -0.011745     -0.002277      0.002411
     -5.35196     -8.91098     -3.52859        -0.003779      0.009273      0.001028
     -8.93134     -8.86641    -10.62308        -0.001778     -0.002565     -0.000635
     -7.07782    -10.57706    -10.66169         0.000830      0.005493     -0.004488
     -7.12196     -7.07516     -7.11249        -0.005739     -0.002486     -0.001694
     -5.30884     -8.87283     -7.04731        -0.010090      0.001418     -0.001871
     -5.32589     -7.08708     -5.31543         0.006255     -0.001517      0.014694
     -5.36541     -5.31301     -3.53183         0.006299     -0.012227     -0.002884
     -3.49775     -7.13444     -3.54856        -0.008804      0.002288     -0.017530
     -3.55198     -5.30378     -1.76547        -0.005735     -0.010148     -0.000574
     -8.88574     -7.10371    -12.41766         0.010580      0.000179      0.007995
     -7.04569     -7.10788    -10.64179        -0.002695      0.001468      0.008460
     -7.11235     -5.28064     -8.89720        -0.005237      0.007766      0.001034
     -7.08304     -3.57342     -7.04299         0.008927      0.002049      0.003106
     -3.52966     -8.84032     -8.86355         0.009491     -0.013625     -0.005411
     -3.51192     -5.28502     -5.34031         0.005213     -0.019273      0.024817
     -8.88167     -5.29407    -14.20281         0.009519     -0.005450      0.012663
     -5.28029     -3.54803     -8.89886         0.004580      0.000313      0.014107
     -1.77695     -1.77572     -3.50139         0.008789      0.009694     -0.010712
     -1.75957     -8.80650    -10.68322        -0.001001     -0.023265      0.005374
     -1.75054     -3.56913     -8.86668        -0.011468      0.005262      0.000414
      0.00677     -1.79677     -5.34073         0.008268     -0.001238     -0.003703
     -1.78836     -8.85198    -14.13709         0.005192      0.008041     -0.008032
     -1.74324     -5.31270    -14.15969         0.000871     -0.002696     -0.003693
      1.75814     -7.07316     -8.90739         0.001095      0.001223     -0.005500
     -1.75640     -1.78837    -14.21093        -0.006367      0.005001      0.015696
 -----------------------------------------------------------------------------------
    total drift:                               -0.004158      0.008900     -0.007807


--------------------------------------------------------------------------------------------------------



  FREE ENERGIE OF THE ION-ELECTRON SYSTEM (eV)
  ---------------------------------------------------
  free  energy   TOTEN  =      -669.55551407 eV

  energy  without entropy=     -669.55551407  energy(sigma->0) =     -669.55551407
 


--------------------------------------------------------------------------------------------------------


    POTLOK:  cpu time    0.1310: real time    0.1362


--------------------------------------------------------------------------------------------------------


     LOOP+:  cpu time 1623.4522: real time 1627.4337
    4ORBIT:  cpu time    0.0000: real time    0.0000
 


 total charge     
 
# of ion       s       p       d       tot
------------------------------------------
    1        0.493   0.483   8.320   9.295
    2        0.494   0.487   8.321   9.301
    3        0.505   0.505   8.324   9.334
    4        0.499   0.497   8.310   9.305
    5        0.500   0.497   8.322   9.320
    6        0.499   0.496   8.318   9.313
    7        0.508   0.510   8.321   9.339
    8        0.508   0.511   8.318   9.338
    9        0.502   0.503   8.321   9.327
   10        0.503   0.500   8.319   9.322
   11        0.509   0.518   8.319   9.346
   12        0.511   0.517   8.313   9.341
   13        0.508   0.511   8.320   9.339
   14        0.510   0.515   8.329   9.354
   15        0.505   0.507   8.332   9.344
   16        0.502   0.503   8.313   9.318
   17        0.502   0.503   8.315   9.320
   18        0.496   0.491   8.322   9.309
   19        0.495   0.488   8.323   9.306
   20        0.508   0.511   8.322   9.341
   21        0.493   0.489   8.316   9.298
   22        0.505   0.503   8.316   9.323
   23        0.506   0.509   8.320   9.335
   24        0.503   0.506   8.315   9.324
   25        0.507   0.512   8.314   9.333
   26        0.506   0.509   8.320   9.335
   27        0.504   0.503   8.316   9.322
   28        0.503   0.504   8.327   9.334
   29        0.503   0.503   8.331   9.336
   30        0.504   0.503   8.321   9.328
   31        0.501   0.499   8.322   9.322
   32        0.506   0.508   8.329   9.344
   33        0.498   0.497   8.319   9.313
   34        0.495   0.490   8.316   9.301
   35        0.496   0.494   8.323   9.313
   36        0.494   0.489   8.312   9.295
   37        0.497   0.494   8.312   9.303
   38        0.498   0.492   8.329   9.320
   39        0.502   0.501   8.318   9.321
   40        0.488   0.477   8.314   9.280
   41        0.493   0.487   8.312   9.292
   42        0.500   0.494   8.322   9.316
   43        0.502   0.502   8.316   9.320
   44        0.495   0.490   8.314   9.299
   45        0.494   0.493   8.315   9.302
   46        0.504   0.506   8.321   9.330
   47        0.494   0.493   8.315   9.302
   48        0.497   0.493   8.320   9.310
   49        0.497   0.491   8.323   9.311
   50        0.503   0.502   8.322   9.327
   51        0.497   0.492   8.320   9.309
   52        0.487   0.477   8.319   9.283
   53        0.502   0.500   8.317   9.318
   54        0.506   0.510   8.321   9.337
   55        0.503   0.503   8.328   9.334
   56        0.498   0.496   8.316   9.311
   57        0.502   0.501   8.317   9.320
   58        0.494   0.487   8.322   9.303
   59        0.493   0.485   8.310   9.288
   60        0.501   0.499   8.318   9.318
   61        0.502   0.501   8.323   9.326
   62        0.494   0.488   8.314   9.296
   63        0.505   0.506   8.324   9.334
   64        0.508   0.507   8.329   9.344
   65        0.494   0.488   8.316   9.299
   66        0.502   0.507   8.314   9.323
   67        0.499   0.496   8.323   9.318
   68        0.505   0.502   8.326   9.334
   69        0.504   0.506   8.328   9.338
   70        0.501   0.500   8.313   9.315
   71        0.505   0.509   8.314   9.327
   72        0.505   0.510   8.319   9.334
   73        0.500   0.497   8.325   9.322
   74        0.502   0.504   8.320   9.326
   75        0.501   0.500   8.328   9.329
   76        0.494   0.486   8.321   9.301
   77        0.503   0.504   8.322   9.328
   78        0.503   0.506   8.333   9.341
   79        0.501   0.501   8.314   9.316
   80        0.502   0.501   8.325   9.329
   81        0.498   0.495   8.313   9.306
   82        0.475   0.508   6.173   7.156
   83        0.470   0.501   6.148   7.119
   84        0.473   0.503   6.155   7.131
   85        0.475   0.510   6.174   7.158
   86        0.478   0.507   6.186   7.171
   87        0.475   0.507   6.177   7.160
   88        0.476   0.505   6.190   7.171
   89        0.476   0.508   6.204   7.188
   90        0.477   0.508   6.171   7.156
   91        0.476   0.509   6.182   7.167
   92        0.475   0.504   6.172   7.152
   93        0.476   0.506   6.177   7.159
   94        0.472   0.504   6.169   7.145
   95        0.479   0.510   6.201   7.190
   96        0.475   0.507   6.192   7.173
   97        0.476   0.502   6.181   7.158
   98        0.477   0.505   6.163   7.145
   99        0.474   0.507   6.154   7.135
  100        0.477   0.507   6.180   7.164
  101        0.472   0.502   6.144   7.117
  102        0.477   0.510   6.168   7.155
  103        0.470   0.502   6.148   7.121
  104        0.477   0.507   6.166   7.150
  105        0.471   0.502   6.149   7.122
  106        0.475   0.508   6.152   7.135
  107        0.472   0.504   6.162   7.137
  108        0.473   0.503   6.143   7.119
--------------------------------------------------
tot         53.372  54.105 840.487 947.964
 


 magnetization (x)
 
# of ion       s       p       d       tot
------------------------------------------
    1       -0.011  -0.028   0.635   0.597
    2       -0.009  -0.028   0.643   0.605
    3       -0.015  -0.035   0.682   0.632
    4       -0.015  -0.037   0.707   0.655
    5       -0.015  -0.036   0.677   0.626
    6       -0.015  -0.037   0.665   0.613
    7       -0.020  -0.042   0.686   0.623
    8       -0.019  -0.043   0.704   0.642
    9       -0.013  -0.034   0.685   0.638
   10       -0.015  -0.034   0.676   0.627
   11       -0.020  -0.050   0.708   0.639
   12       -0.025  -0.052   0.724   0.648
   13       -0.021  -0.046   0.707   0.640
   14       -0.022  -0.048   0.673   0.604
   15       -0.017  -0.039   0.647   0.591
   16       -0.014  -0.038   0.703   0.652
   17       -0.016  -0.038   0.691   0.637
   18       -0.010  -0.026   0.643   0.607
   19       -0.010  -0.026   0.619   0.583
   20       -0.019  -0.043   0.684   0.622
   21       -0.009  -0.029   0.670   0.632
   22       -0.018  -0.038   0.693   0.638
   23       -0.018  -0.041   0.699   0.640
   24       -0.018  -0.043   0.712   0.651
   25       -0.021  -0.047   0.715   0.647
   26       -0.019  -0.044   0.693   0.631
   27       -0.016  -0.038   0.690   0.636
   28       -0.017  -0.040   0.664   0.608
   29       -0.014  -0.034   0.642   0.594
   30       -0.013  -0.033   0.687   0.641
   31       -0.014  -0.034   0.677   0.630
   32       -0.017  -0.039   0.659   0.602
   33       -0.011  -0.033   0.669   0.625
   34       -0.009  -0.029   0.669   0.630
   35       -0.011  -0.031   0.645   0.603
   36       -0.009  -0.029   0.671   0.633
   37       -0.011  -0.031   0.680   0.638
   38       -0.015  -0.032   0.645   0.597
   39       -0.014  -0.035   0.682   0.633
   40       -0.008  -0.024   0.627   0.595
   41       -0.010  -0.030   0.668   0.628
   42       -0.016  -0.033   0.651   0.602
   43       -0.014  -0.037   0.688   0.637
   44       -0.011  -0.033   0.674   0.630
   45       -0.010  -0.033   0.686   0.643
   46       -0.020  -0.044   0.679   0.616
   47       -0.010  -0.032   0.692   0.650
   48       -0.011  -0.030   0.661   0.620
   49       -0.014  -0.031   0.616   0.572
   50       -0.014  -0.034   0.682   0.634
   51       -0.016  -0.036   0.668   0.617
   52       -0.007  -0.025   0.640   0.608
   53       -0.015  -0.036   0.692   0.640
   54       -0.016  -0.040   0.695   0.639
   55       -0.015  -0.036   0.652   0.602
   56       -0.012  -0.033   0.686   0.642
   57       -0.017  -0.038   0.680   0.625
   58       -0.009  -0.027   0.631   0.594
   59       -0.010  -0.028   0.662   0.624
   60       -0.014  -0.033   0.675   0.628
   61       -0.014  -0.034   0.667   0.619
   62       -0.009  -0.028   0.663   0.625
   63       -0.017  -0.039   0.665   0.608
   64       -0.015  -0.032   0.670   0.623
   65       -0.009  -0.029   0.668   0.630
   66       -0.015  -0.040   0.712   0.656
   67       -0.012  -0.032   0.641   0.597
   68       -0.015  -0.031   0.648   0.601
   69       -0.014  -0.037   0.663   0.612
   70       -0.017  -0.041   0.698   0.640
   71       -0.016  -0.041   0.710   0.653
   72       -0.018  -0.044   0.690   0.627
   73       -0.015  -0.035   0.641   0.592
   74       -0.014  -0.037   0.675   0.624
   75       -0.015  -0.035   0.649   0.600
   76       -0.011  -0.028   0.633   0.594
   77       -0.015  -0.037   0.667   0.616
   78       -0.015  -0.040   0.638   0.582
   79       -0.012  -0.033   0.687   0.643
   80       -0.014  -0.034   0.662   0.614
   81       -0.012  -0.033   0.683   0.637
   82        0.004  -0.016   2.738   2.725
   83        0.009  -0.012   2.793   2.790
   84        0.006  -0.012   2.781   2.775
   85        0.004  -0.019   2.722   2.706
   86        0.000  -0.017   2.689   2.673
   87        0.001  -0.020   2.706   2.687
   88       -0.000  -0.021   2.661   2.640
   89       -0.006  -0.030   2.617   2.581
   90        0.001  -0.021   2.726   2.706
   91       -0.002  -0.026   2.692   2.664
   92        0.002  -0.015   2.727   2.715
   93        0.002  -0.015   2.730   2.717
   94        0.004  -0.017   2.738   2.725
   95       -0.003  -0.022   2.638   2.613
   96       -0.002  -0.027   2.657   2.628
   97       -0.002  -0.019   2.694   2.674
   98        0.001  -0.015   2.754   2.740
   99        0.009  -0.009   2.793   2.793
  100        0.001  -0.019   2.696   2.677
  101        0.009  -0.008   2.806   2.806
  102        0.003  -0.015   2.742   2.730
  103        0.008  -0.012   2.792   2.789
  104        0.003  -0.015   2.759   2.746
  105        0.009  -0.011   2.793   2.791
  106        0.009  -0.009   2.787   2.787
  107        0.006  -0.014   2.757   2.749
  108        0.008  -0.010   2.807   2.806
--------------------------------------------------
tot         -1.069  -3.319 128.253 123.865
 
 BZINTS: Fermi energy:  8.419011;********** electrons
         Band energy:6189.720655;  BLOECHL correction: -0.046522

 total amount of memory used by VASP MPI-rank0   261048. kBytes
=======================================================================

   base      :      30000. kBytes
   nonlr-proj:      16459. kBytes
   fftplans  :       2950. kBytes
   grid      :       7827. kBytes
   one-center:        124. kBytes
   wavefun   :     203688. kBytes
 
  
  
 General timing and accounting informations for this job:
 ========================================================
  
                  Total CPU time used (sec):     1845.749
                            User time (sec):     1792.486
                          System time (sec):       53.263
                         Elapsed time (sec):     1864.065
  
                   Maximum memory used (kb):      577536.
                   Average memory used (kb):           0.
  
                          Minor page faults:      1230340
                          Major page faults:            0
                 Voluntary context switches:        10315
