ESCALE ; pCOHP file generated by LOBSTER. Energy is shifted such that the Fermi level lies at 0 eV.
         2          2        521  -1.98179e+01   6.23218e+00   2.20615e-01 
Average
No.1:Ni38->O69(1.8075200370588183)
-20.03854   0.00000   0.00000   0.00000   0.00000   0.00000   0.00000   0.00000   0.00000
-19.98844   0.00000   0.00000   0.00000   0.00000   0.00000   0.00000   0.00000   0.00000
-19.93834   0.00000   0.00000   0.00000   0.00000   0.00000   0.00000   0.00000   0.00000
-19.88825   0.00000   0.00000   0.00000   0.00000   0.00000   0.00000   0.00000   0.00000
-19.83815   0.00000   0.00000   0.00000   0.00000   0.00000   0.00000   0.00000   0.00000
-19.78805   0.00000   0.00000   0.00000   0.00000   0.00000   0.00000   0.00000   0.00000
-19.73796   0.00000   0.00000   0.00000   0.00000   0.00000   0.00000   0.00000   0.00000
-19.68786   0.00000   0.00000   0.00000   0.00000   0.00000   0.00000   0.00000   0.00000
-19.63776   0.00000   0.00000   0.00000   0.00000   0.00000   0.00000   0.00000   0.00000
-19.58767   0.00000   0.00000   0.00000   0.00000   0.00000   0.00000   0.00000   0.00000
-19.53757   0.00000   0.00000   0.00000   0.00000   0.00000   0.00000   0.00000   0.00000
-19.48748   0.00000   0.00000   0.00000   0.00000   0.00000   0.00000   0.00000   0.00000
-19.43738   0.00000   0.00000   0.00000   0.00000   0.00000   0.00000   0.00000   0.00000
-19.38728   0.00000   0.00000   0.00000   0.00000   0.00000   0.00000   0.00000   0.00000
-19.33719   0.00000   0.00000   0.00000   0.00000   0.00000   0.00000   0.00000   0.00000
-19.28709   0.00000   0.00000   0.00000   0.00000   0.00000   0.00000   0.00000   0.00000
-19.23699   0.00000   0.00000   0.00000   0.00000   0.00000   0.00000   0.00000   0.00000
-19.18690   0.00000   0.00000   0.00000   0.00000   0.00000   0.00000   0.00000   0.00000
-19.13680   0.00000   0.00000   0.00000   0.00000   0.00000   0.00000   0.00000   0.00000
-19.08671  -3.31569  -0.16610  -3.31569  -0.16610   0.00000   0.00000   0.00000   0.00000
-19.03661   0.00000  -0.16610   0.00000  -0.16610   0.00000   0.00000   0.00000   0.00000
-18.98651  -0.04089  -0.16815  -0.04089  -0.16815   0.00000   0.00000   0.00000   0.00000
-18.93642  -0.23153  -0.17975  -0.23153  -0.17975   0.00000   0.00000   0.00000   0.00000
-18.88632   0.00000  -0.17975   0.00000  -0.17975  -2.03051  -0.10172  -2.03051  -0.10172
-18.83622   0.00000  -0.17975   0.00000  -0.17975  -0.01767  -0.10261  -0.01767  -0.10261
-18.78613   0.00000  -0.17975   0.00000  -0.17975  -0.08978  -0.10710  -0.08978  -0.10710
-18.73603  -7.56013  -0.55849  -7.56013  -0.55849  -0.07806  -0.11101  -0.07806  -0.11101
-18.68593   0.00000  -0.55849   0.00000  -0.55849   0.00000  -0.11101   0.00000  -0.11101
-18.63584   0.00000  -0.55849   0.00000  -0.55849   0.00000  -0.11101   0.00000  -0.11101
-18.58574   0.00000  -0.55849   0.00000  -0.55849   0.00000  -0.11101   0.00000  -0.11101
-18.53565   0.00000  -0.55849   0.00000  -0.55849   0.00000  -0.11101   0.00000  -0.11101
-18.48555   0.00000  -0.55849   0.00000  -0.55849   0.00000  -0.11101   0.00000  -0.11101
-18.43545   0.00000  -0.55849   0.00000  -0.55849  -8.91739  -0.55774  -8.91739  -0.55774
-18.38536   0.00000  -0.55849   0.00000  -0.55849   0.00000  -0.55774   0.00000  -0.55774
-18.33526   0.00000  -0.55849   0.00000  -0.55849   0.00000  -0.55774   0.00000  -0.55774
-18.28516   0.00000  -0.55849   0.00000  -0.55849   0.00000  -0.55774   0.00000  -0.55774
-18.23507   0.00000  -0.55849   0.00000  -0.55849   0.00000  -0.55774   0.00000  -0.55774
-18.18497   0.00000  -0.55849   0.00000  -0.55849   0.00000  -0.55774   0.00000  -0.55774
-18.13487   0.00000  -0.55849   0.00000  -0.55849   0.00000  -0.55774   0.00000  -0.55774
-18.08478   0.00000  -0.55849   0.00000  -0.55849   0.00000  -0.55774   0.00000  -0.55774
-18.03468   0.00000  -0.55849   0.00000  -0.55849   0.00000  -0.55774   0.00000  -0.55774
-17.98459   0.00000  -0.55849   0.00000  -0.55849   0.00000  -0.55774   0.00000  -0.55774
-17.93449   0.00000  -0.55849   0.00000  -0.55849   0.00000  -0.55774   0.00000  -0.55774
-17.88439   0.00000  -0.55849   0.00000  -0.55849   0.00000  -0.55774   0.00000  -0.55774
-17.83430   0.00000  -0.55849   0.00000  -0.55849   0.00000  -0.55774   0.00000  -0.55774
-17.78420   0.00000  -0.55849   0.00000  -0.55849   0.00000  -0.55774   0.00000  -0.55774
-17.73410   0.00000  -0.55849   0.00000  -0.55849   0.00000  -0.55774   0.00000  -0.55774
-17.68401   0.00000  -0.55849   0.00000  -0.55849   0.00000  -0.55774   0.00000  -0.55774
-17.63391   0.00000  -0.55849   0.00000  -0.55849   0.00000  -0.55774   0.00000  -0.55774
-17.58382   0.00000  -0.55849   0.00000  -0.55849   0.00000  -0.55774   0.00000  -0.55774
-17.53372   0.00000  -0.55849   0.00000  -0.55849   0.00000  -0.55774   0.00000  -0.55774
-17.48362   0.00000  -0.55849   0.00000  -0.55849   0.00000  -0.55774   0.00000  -0.55774
-17.43353   0.00000  -0.55849   0.00000  -0.55849   0.00000  -0.55774   0.00000  -0.55774
-17.38343   0.00000  -0.55849   0.00000  -0.55849   0.00000  -0.55774   0.00000  -0.55774
-17.33333   0.00000  -0.55849   0.00000  -0.55849   0.00000  -0.55774   0.00000  -0.55774
-17.28324   0.00000  -0.55849   0.00000  -0.55849   0.00000  -0.55774   0.00000  -0.55774
-17.23314   0.00000  -0.55849   0.00000  -0.55849   0.00000  -0.55774   0.00000  -0.55774
-17.18304   0.00000  -0.55849   0.00000  -0.55849   0.00000  -0.55774   0.00000  -0.55774
-17.13295   0.00000  -0.55849   0.00000  -0.55849   0.00000  -0.55774   0.00000  -0.55774
-17.08285   0.00000  -0.55849   0.00000  -0.55849   0.00000  -0.55774   0.00000  -0.55774
-17.03276   0.00000  -0.55849   0.00000  -0.55849   0.00000  -0.55774   0.00000  -0.55774
-16.98266   0.00000  -0.55849   0.00000  -0.55849   0.00000  -0.55774   0.00000  -0.55774
-16.93256   0.00000  -0.55849   0.00000  -0.55849   0.00000  -0.55774   0.00000  -0.55774
-16.88247   0.00000  -0.55849   0.00000  -0.55849   0.00000  -0.55774   0.00000  -0.55774
-16.83237   0.00000  -0.55849   0.00000  -0.55849   0.00000  -0.55774   0.00000  -0.55774
-16.78227   0.00000  -0.55849   0.00000  -0.55849   0.00000  -0.55774   0.00000  -0.55774
-16.73218   0.00000  -0.55849   0.00000  -0.55849   0.00000  -0.55774   0.00000  -0.55774
-16.68208   0.00000  -0.55849   0.00000  -0.55849   0.00000  -0.55774   0.00000  -0.55774
-16.63198   0.00000  -0.55849   0.00000  -0.55849   0.00000  -0.55774   0.00000  -0.55774
-16.58189   0.00000  -0.55849   0.00000  -0.55849   0.00000  -0.55774   0.00000  -0.55774
-16.53179   0.00000  -0.55849   0.00000  -0.55849   0.00000  -0.55774   0.00000  -0.55774
-16.48170   0.00000  -0.55849   0.00000  -0.55849   0.00000  -0.55774   0.00000  -0.55774
-16.43160   0.00000  -0.55849   0.00000  -0.55849   0.00000  -0.55774   0.00000  -0.55774
-16.38150   0.00000  -0.55849   0.00000  -0.55849   0.00000  -0.55774   0.00000  -0.55774
-16.33141   0.00000  -0.55849   0.00000  -0.55849   0.00000  -0.55774   0.00000  -0.55774
-16.28131   0.00000  -0.55849   0.00000  -0.55849   0.00000  -0.55774   0.00000  -0.55774
-16.23121   0.00000  -0.55849   0.00000  -0.55849   0.00000  -0.55774   0.00000  -0.55774
-16.18112   0.00000  -0.55849   0.00000  -0.55849   0.00000  -0.55774   0.00000  -0.55774
-16.13102   0.00000  -0.55849   0.00000  -0.55849   0.00000  -0.55774   0.00000  -0.55774
-16.08092   0.00000  -0.55849   0.00000  -0.55849   0.00000  -0.55774   0.00000  -0.55774
-16.03083   0.00000  -0.55849   0.00000  -0.55849   0.00000  -0.55774   0.00000  -0.55774
-15.98073   0.00000  -0.55849   0.00000  -0.55849   0.00000  -0.55774   0.00000  -0.55774
-15.93064   0.00000  -0.55849   0.00000  -0.55849   0.00000  -0.55774   0.00000  -0.55774
-15.88054   0.00000  -0.55849   0.00000  -0.55849   0.00000  -0.55774   0.00000  -0.55774
-15.83044   0.00000  -0.55849   0.00000  -0.55849   0.00000  -0.55774   0.00000  -0.55774
-15.78035   0.00000  -0.55849   0.00000  -0.55849   0.00000  -0.55774   0.00000  -0.55774
-15.73025   0.00000  -0.55849   0.00000  -0.55849   0.00000  -0.55774   0.00000  -0.55774
-15.68015   0.00000  -0.55849   0.00000  -0.55849   0.00000  -0.55774   0.00000  -0.55774
-15.63006   0.00000  -0.55849   0.00000  -0.55849   0.00000  -0.55774   0.00000  -0.55774
-15.57996   0.00000  -0.55849   0.00000  -0.55849   0.00000  -0.55774   0.00000  -0.55774
-15.52987   0.00000  -0.55849   0.00000  -0.55849   0.00000  -0.55774   0.00000  -0.55774
-15.47977   0.00000  -0.55849   0.00000  -0.55849   0.00000  -0.55774   0.00000  -0.55774
-15.42967   0.00000  -0.55849   0.00000  -0.55849   0.00000  -0.55774   0.00000  -0.55774
-15.37958   0.00000  -0.55849   0.00000  -0.55849   0.00000  -0.55774   0.00000  -0.55774
-15.32948   0.00000  -0.55849   0.00000  -0.55849   0.00000  -0.55774   0.00000  -0.55774
-15.27938   0.00000  -0.55849   0.00000  -0.55849   0.00000  -0.55774   0.00000  -0.55774
-15.22929   0.00000  -0.55849   0.00000  -0.55849   0.00000  -0.55774   0.00000  -0.55774
-15.17919   0.00000  -0.55849   0.00000  -0.55849   0.00000  -0.55774   0.00000  -0.55774
-15.12909   0.00000  -0.55849   0.00000  -0.55849   0.00000  -0.55774   0.00000  -0.55774
-15.07900   0.00000  -0.55849   0.00000  -0.55849   0.00000  -0.55774   0.00000  -0.55774
-15.02890   0.00000  -0.55849   0.00000  -0.55849   0.00000  -0.55774   0.00000  -0.55774
-14.97881   0.00000  -0.55849   0.00000  -0.55849   0.00000  -0.55774   0.00000  -0.55774
-14.92871   0.00000  -0.55849   0.00000  -0.55849   0.00000  -0.55774   0.00000  -0.55774
-14.87861   0.00000  -0.55849   0.00000  -0.55849   0.00000  -0.55774   0.00000  -0.55774
-14.82852   0.00000  -0.55849   0.00000  -0.55849   0.00000  -0.55774   0.00000  -0.55774
-14.77842   0.00000  -0.55849   0.00000  -0.55849   0.00000  -0.55774   0.00000  -0.55774
-14.72832   0.00000  -0.55849   0.00000  -0.55849   0.00000  -0.55774   0.00000  -0.55774
-14.67823   0.00000  -0.55849   0.00000  -0.55849   0.00000  -0.55774   0.00000  -0.55774
-14.62813   0.00000  -0.55849   0.00000  -0.55849   0.00000  -0.55774   0.00000  -0.55774
-14.57803   0.00000  -0.55849   0.00000  -0.55849   0.00000  -0.55774   0.00000  -0.55774
-14.52794   0.00000  -0.55849   0.00000  -0.55849   0.00000  -0.55774   0.00000  -0.55774
-14.47784   0.00000  -0.55849   0.00000  -0.55849   0.00000  -0.55774   0.00000  -0.55774
-14.42775   0.00000  -0.55849   0.00000  -0.55849   0.00000  -0.55774   0.00000  -0.55774
-14.37765   0.00000  -0.55849   0.00000  -0.55849   0.00000  -0.55774   0.00000  -0.55774
-14.32755   0.00000  -0.55849   0.00000  -0.55849   0.00000  -0.55774   0.00000  -0.55774
-14.27746   0.00000  -0.55849   0.00000  -0.55849   0.00000  -0.55774   0.00000  -0.55774
-14.22736   0.00000  -0.55849   0.00000  -0.55849   0.00000  -0.55774   0.00000  -0.55774
-14.17726   0.00000  -0.55849   0.00000  -0.55849   0.00000  -0.55774   0.00000  -0.55774
-14.12717   0.00000  -0.55849   0.00000  -0.55849   0.00000  -0.55774   0.00000  -0.55774
-14.07707   0.00000  -0.55849   0.00000  -0.55849   0.00000  -0.55774   0.00000  -0.55774
-14.02697   0.00000  -0.55849   0.00000  -0.55849   0.00000  -0.55774   0.00000  -0.55774
-13.97688   0.00000  -0.55849   0.00000  -0.55849   0.00000  -0.55774   0.00000  -0.55774
-13.92678   0.00000  -0.55849   0.00000  -0.55849   0.00000  -0.55774   0.00000  -0.55774
-13.87669   0.00000  -0.55849   0.00000  -0.55849   0.00000  -0.55774   0.00000  -0.55774
-13.82659   0.00000  -0.55849   0.00000  -0.55849   0.00000  -0.55774   0.00000  -0.55774
-13.77649   0.00000  -0.55849   0.00000  -0.55849   0.00000  -0.55774   0.00000  -0.55774
-13.72640   0.00000  -0.55849   0.00000  -0.55849   0.00000  -0.55774   0.00000  -0.55774
-13.67630   0.00000  -0.55849   0.00000  -0.55849   0.00000  -0.55774   0.00000  -0.55774
-13.62620   0.00000  -0.55849   0.00000  -0.55849   0.00000  -0.55774   0.00000  -0.55774
-13.57611   0.00000  -0.55849   0.00000  -0.55849   0.00000  -0.55774   0.00000  -0.55774
-13.52601   0.00000  -0.55849   0.00000  -0.55849   0.00000  -0.55774   0.00000  -0.55774
-13.47592   0.00000  -0.55849   0.00000  -0.55849   0.00000  -0.55774   0.00000  -0.55774
-13.42582   0.00000  -0.55849   0.00000  -0.55849   0.00000  -0.55774   0.00000  -0.55774
-13.37572   0.00000  -0.55849   0.00000  -0.55849   0.00000  -0.55774   0.00000  -0.55774
-13.32563   0.00000  -0.55849   0.00000  -0.55849   0.00000  -0.55774   0.00000  -0.55774
-13.27553   0.00000  -0.55849   0.00000  -0.55849   0.00000  -0.55774   0.00000  -0.55774
-13.22543   0.00000  -0.55849   0.00000  -0.55849   0.00000  -0.55774   0.00000  -0.55774
-13.17534   0.00000  -0.55849   0.00000  -0.55849   0.00000  -0.55774   0.00000  -0.55774
-13.12524   0.00000  -0.55849   0.00000  -0.55849   0.00000  -0.55774   0.00000  -0.55774
-13.07514   0.00000  -0.55849   0.00000  -0.55849   0.00000  -0.55774   0.00000  -0.55774
-13.02505   0.00000  -0.55849   0.00000  -0.55849   0.00000  -0.55774   0.00000  -0.55774
-12.97495   0.00000  -0.55849   0.00000  -0.55849   0.00000  -0.55774   0.00000  -0.55774
-12.92486   0.00000  -0.55849   0.00000  -0.55849   0.00000  -0.55774   0.00000  -0.55774
-12.87476   0.00000  -0.55849   0.00000  -0.55849   0.00000  -0.55774   0.00000  -0.55774
-12.82466   0.00000  -0.55849   0.00000  -0.55849   0.00000  -0.55774   0.00000  -0.55774
-12.77457   0.00000  -0.55849   0.00000  -0.55849   0.00000  -0.55774   0.00000  -0.55774
-12.72447   0.00000  -0.55849   0.00000  -0.55849   0.00000  -0.55774   0.00000  -0.55774
-12.67437   0.00000  -0.55849   0.00000  -0.55849   0.00000  -0.55774   0.00000  -0.55774
-12.62428   0.00000  -0.55849   0.00000  -0.55849   0.00000  -0.55774   0.00000  -0.55774
-12.57418   0.00000  -0.55849   0.00000  -0.55849   0.00000  -0.55774   0.00000  -0.55774
-12.52408   0.00000  -0.55849   0.00000  -0.55849   0.00000  -0.55774   0.00000  -0.55774
-12.47399   0.00000  -0.55849   0.00000  -0.55849   0.00000  -0.55774   0.00000  -0.55774
-12.42389   0.00000  -0.55849   0.00000  -0.55849   0.00000  -0.55774   0.00000  -0.55774
-12.37380   0.00000  -0.55849   0.00000  -0.55849   0.00000  -0.55774   0.00000  -0.55774
-12.32370   0.00000  -0.55849   0.00000  -0.55849   0.00000  -0.55774   0.00000  -0.55774
-12.27360   0.00000  -0.55849   0.00000  -0.55849   0.00000  -0.55774   0.00000  -0.55774
-12.22351   0.00000  -0.55849   0.00000  -0.55849   0.00000  -0.55774   0.00000  -0.55774
-12.17341   0.00000  -0.55849   0.00000  -0.55849   0.00000  -0.55774   0.00000  -0.55774
-12.12331   0.00000  -0.55849   0.00000  -0.55849   0.00000  -0.55774   0.00000  -0.55774
-12.07322   0.00000  -0.55849   0.00000  -0.55849   0.00000  -0.55774   0.00000  -0.55774
-12.02312   0.00000  -0.55849   0.00000  -0.55849   0.00000  -0.55774   0.00000  -0.55774
-11.97303   0.00000  -0.55849   0.00000  -0.55849   0.00000  -0.55774   0.00000  -0.55774
-11.92293   0.00000  -0.55849   0.00000  -0.55849   0.00000  -0.55774   0.00000  -0.55774
-11.87283   0.00000  -0.55849   0.00000  -0.55849   0.00000  -0.55774   0.00000  -0.55774
-11.82274   0.00000  -0.55849   0.00000  -0.55849   0.00000  -0.55774   0.00000  -0.55774
-11.77264   0.00000  -0.55849   0.00000  -0.55849   0.00000  -0.55774   0.00000  -0.55774
-11.72254   0.00000  -0.55849   0.00000  -0.55849   0.00000  -0.55774   0.00000  -0.55774
-11.67245   0.00000  -0.55849   0.00000  -0.55849   0.00000  -0.55774   0.00000  -0.55774
-11.62235   0.00000  -0.55849   0.00000  -0.55849   0.00000  -0.55774   0.00000  -0.55774
-11.57225   0.00000  -0.55849   0.00000  -0.55849   0.00000  -0.55774   0.00000  -0.55774
-11.52216   0.00000  -0.55849   0.00000  -0.55849   0.00000  -0.55774   0.00000  -0.55774
-11.47206   0.00000  -0.55849   0.00000  -0.55849   0.00000  -0.55774   0.00000  -0.55774
-11.42197   0.00000  -0.55849   0.00000  -0.55849   0.00000  -0.55774   0.00000  -0.55774
-11.37187   0.00000  -0.55849   0.00000  -0.55849   0.00000  -0.55774   0.00000  -0.55774
-11.32177   0.00000  -0.55849   0.00000  -0.55849   0.00000  -0.55774   0.00000  -0.55774
-11.27168   0.00000  -0.55849   0.00000  -0.55849   0.00000  -0.55774   0.00000  -0.55774
-11.22158   0.00000  -0.55849   0.00000  -0.55849   0.00000  -0.55774   0.00000  -0.55774
-11.17148   0.00000  -0.55849   0.00000  -0.55849   0.00000  -0.55774   0.00000  -0.55774
-11.12139   0.00000  -0.55849   0.00000  -0.55849   0.00000  -0.55774   0.00000  -0.55774
-11.07129   0.00000  -0.55849   0.00000  -0.55849   0.00000  -0.55774   0.00000  -0.55774
-11.02119   0.00000  -0.55849   0.00000  -0.55849   0.00000  -0.55774   0.00000  -0.55774
-10.97110   0.00000  -0.55849   0.00000  -0.55849   0.00000  -0.55774   0.00000  -0.55774
-10.92100   0.00000  -0.55849   0.00000  -0.55849   0.00000  -0.55774   0.00000  -0.55774
-10.87091   0.00000  -0.55849   0.00000  -0.55849   0.00000  -0.55774   0.00000  -0.55774
-10.82081   0.00000  -0.55849   0.00000  -0.55849   0.00000  -0.55774   0.00000  -0.55774
-10.77071   0.00000  -0.55849   0.00000  -0.55849   0.00000  -0.55774   0.00000  -0.55774
-10.72062   0.00000  -0.55849   0.00000  -0.55849   0.00000  -0.55774   0.00000  -0.55774
-10.67052   0.00000  -0.55849   0.00000  -0.55849   0.00000  -0.55774   0.00000  -0.55774
-10.62042   0.00000  -0.55849   0.00000  -0.55849   0.00000  -0.55774   0.00000  -0.55774
-10.57033   0.00000  -0.55849   0.00000  -0.55849   0.00000  -0.55774   0.00000  -0.55774
-10.52023   0.00000  -0.55849   0.00000  -0.55849   0.00000  -0.55774   0.00000  -0.55774
-10.47013   0.00000  -0.55849   0.00000  -0.55849   0.00000  -0.55774   0.00000  -0.55774
-10.42004   0.00000  -0.55849   0.00000  -0.55849   0.00000  -0.55774   0.00000  -0.55774
-10.36994   0.00000  -0.55849   0.00000  -0.55849   0.00000  -0.55774   0.00000  -0.55774
-10.31985   0.00000  -0.55849   0.00000  -0.55849   0.00000  -0.55774   0.00000  -0.55774
-10.26975   0.00000  -0.55849   0.00000  -0.55849   0.00000  -0.55774   0.00000  -0.55774
-10.21965   0.00000  -0.55849   0.00000  -0.55849   0.00000  -0.55774   0.00000  -0.55774
-10.16956   0.00000  -0.55849   0.00000  -0.55849   0.00000  -0.55774   0.00000  -0.55774
-10.11946   0.00000  -0.55849   0.00000  -0.55849   0.00000  -0.55774   0.00000  -0.55774
-10.06936   0.00000  -0.55849   0.00000  -0.55849   0.00000  -0.55774   0.00000  -0.55774
-10.01927   0.00000  -0.55849   0.00000  -0.55849   0.00000  -0.55774   0.00000  -0.55774
 -9.96917   0.00000  -0.55849   0.00000  -0.55849   0.00000  -0.55774   0.00000  -0.55774
 -9.91908   0.00000  -0.55849   0.00000  -0.55849   0.00000  -0.55774   0.00000  -0.55774
 -9.86898   0.00000  -0.55849   0.00000  -0.55849   0.00000  -0.55774   0.00000  -0.55774
 -9.81888   0.00000  -0.55849   0.00000  -0.55849   0.00000  -0.55774   0.00000  -0.55774
 -9.76879   0.00000  -0.55849   0.00000  -0.55849   0.00000  -0.55774   0.00000  -0.55774
 -9.71869   0.00000  -0.55849   0.00000  -0.55849   0.00000  -0.55774   0.00000  -0.55774
 -9.66859   0.00000  -0.55849   0.00000  -0.55849   0.00000  -0.55774   0.00000  -0.55774
 -9.61850   0.00000  -0.55849   0.00000  -0.55849   0.00000  -0.55774   0.00000  -0.55774
 -9.56840   0.00000  -0.55849   0.00000  -0.55849   0.00000  -0.55774   0.00000  -0.55774
 -9.51830   0.00000  -0.55849   0.00000  -0.55849   0.00000  -0.55774   0.00000  -0.55774
 -9.46821   0.00000  -0.55849   0.00000  -0.55849   0.00000  -0.55774   0.00000  -0.55774
 -9.41811   0.00000  -0.55849   0.00000  -0.55849   0.00000  -0.55774   0.00000  -0.55774
 -9.36802   0.00000  -0.55849   0.00000  -0.55849   0.00000  -0.55774   0.00000  -0.55774
 -9.31792   0.00000  -0.55849   0.00000  -0.55849   0.00000  -0.55774   0.00000  -0.55774
 -9.26782   0.00000  -0.55849   0.00000  -0.55849   0.00000  -0.55774   0.00000  -0.55774
 -9.21773   0.00000  -0.55849   0.00000  -0.55849   0.00000  -0.55774   0.00000  -0.55774
 -9.16763   0.00000  -0.55849   0.00000  -0.55849   0.00000  -0.55774   0.00000  -0.55774
 -9.11753   0.00000  -0.55849   0.00000  -0.55849   0.00000  -0.55774   0.00000  -0.55774
 -9.06744   0.00000  -0.55849   0.00000  -0.55849   0.00000  -0.55774   0.00000  -0.55774
 -9.01734   0.00000  -0.55849   0.00000  -0.55849   0.00000  -0.55774   0.00000  -0.55774
 -8.96724   0.00000  -0.55849   0.00000  -0.55849   0.00000  -0.55774   0.00000  -0.55774
 -8.91715   0.00000  -0.55849   0.00000  -0.55849   0.00000  -0.55774   0.00000  -0.55774
 -8.86705   0.00000  -0.55849   0.00000  -0.55849   0.00000  -0.55774   0.00000  -0.55774
 -8.81696   0.00000  -0.55849   0.00000  -0.55849   0.00000  -0.55774   0.00000  -0.55774
 -8.76686   0.00000  -0.55849   0.00000  -0.55849   0.00000  -0.55774   0.00000  -0.55774
 -8.71676   0.00000  -0.55849   0.00000  -0.55849   0.00000  -0.55774   0.00000  -0.55774
 -8.66667   0.00000  -0.55849   0.00000  -0.55849   0.00000  -0.55774   0.00000  -0.55774
 -8.61657   0.00000  -0.55849   0.00000  -0.55849   0.00000  -0.55774   0.00000  -0.55774
 -8.56647   0.00000  -0.55849   0.00000  -0.55849   0.00000  -0.55774   0.00000  -0.55774
 -8.51638   0.00000  -0.55849   0.00000  -0.55849   0.00000  -0.55774   0.00000  -0.55774
 -8.46628  -0.00003  -0.55849  -0.00003  -0.55849   0.00000  -0.55774   0.00000  -0.55774
 -8.41618  -0.00106  -0.55854  -0.00106  -0.55854  -0.00002  -0.55774  -0.00002  -0.55774
 -8.36609  -0.00254  -0.55867  -0.00254  -0.55867  -0.00089  -0.55779  -0.00089  -0.55779
 -8.31599  -0.00399  -0.55887  -0.00399  -0.55887  -0.00219  -0.55790  -0.00219  -0.55790
 -8.26590  -0.00539  -0.55914  -0.00539  -0.55914  -0.00344  -0.55807  -0.00344  -0.55807
 -8.21580  -0.00722  -0.55950  -0.00722  -0.55950  -0.00466  -0.55830  -0.00466  -0.55830
 -8.16570  -0.00708  -0.55985  -0.00708  -0.55985  -0.00663  -0.55864  -0.00663  -0.55864
 -8.11561  -0.00625  -0.56017  -0.00625  -0.56017  -0.00672  -0.55897  -0.00672  -0.55897
 -8.06551  -0.00538  -0.56044  -0.00538  -0.56044  -0.00590  -0.55927  -0.00590  -0.55927
 -8.01541  -0.00448  -0.56066  -0.00448  -0.56066  -0.00503  -0.55952  -0.00503  -0.55952
 -7.96532  -0.00353  -0.56084  -0.00353  -0.56084  -0.00411  -0.55973  -0.00411  -0.55973
 -7.91522  -0.00255  -0.56097  -0.00255  -0.56097  -0.00315  -0.55988  -0.00315  -0.55988
 -7.86513  -0.00152  -0.56104  -0.00152  -0.56104  -0.00213  -0.55999  -0.00213  -0.55999
 -7.81503  -0.00046  -0.56107  -0.00046  -0.56107  -0.00107  -0.56005  -0.00107  -0.56005
 -7.76493  -0.00232  -0.56118  -0.00232  -0.56118  -0.00012  -0.56005  -0.00012  -0.56005
 -7.71484  -0.00988  -0.56168  -0.00988  -0.56168  -0.00180  -0.56014  -0.00180  -0.56014
 -7.66474  -0.01837  -0.56260  -0.01837  -0.56260  -0.00632  -0.56046  -0.00632  -0.56046
 -7.61464  -0.02732  -0.56397  -0.02732  -0.56397  -0.01254  -0.56109  -0.01254  -0.56109
 -7.56455  -0.03059  -0.56550  -0.03059  -0.56550  -0.01919  -0.56205  -0.01919  -0.56205
 -7.51445  -0.03057  -0.56703  -0.03057  -0.56703  -0.02231  -0.56316  -0.02231  -0.56316
 -7.46435  -0.03329  -0.56870  -0.03329  -0.56870  -0.02033  -0.56418  -0.02033  -0.56418
 -7.41426  -0.03595  -0.57050  -0.03595  -0.57050  -0.02217  -0.56529  -0.02217  -0.56529
 -7.36416  -0.03856  -0.57243  -0.03856  -0.57243  -0.02398  -0.56650  -0.02398  -0.56650
 -7.31407  -0.04112  -0.57449  -0.04112  -0.57449  -0.02576  -0.56779  -0.02576  -0.56779
 -7.26397  -0.04362  -0.57668  -0.04362  -0.57668  -0.02751  -0.56916  -0.02751  -0.56916
 -7.21387  -0.04607  -0.57898  -0.04607  -0.57898  -0.02924  -0.57063  -0.02924  -0.57063
 -7.16378  -0.04847  -0.58141  -0.04847  -0.58141  -0.03093  -0.57218  -0.03093  -0.57218
 -7.11368  -0.05084  -0.58396  -0.05084  -0.58396  -0.03260  -0.57381  -0.03260  -0.57381
 -7.06358  -0.05488  -0.58671  -0.05488  -0.58671  -0.03424  -0.57553  -0.03424  -0.57553
 -7.01349  -0.07061  -0.59024  -0.07061  -0.59024  -0.03654  -0.57736  -0.03654  -0.57736
 -6.96339  -0.34907  -0.60773  -0.34907  -0.60773  -0.04014  -0.57937  -0.04014  -0.57937
 -6.91329  -0.65550  -0.64057  -0.65550  -0.64057  -0.08600  -0.58368  -0.08600  -0.58368
 -6.86320  -0.64585  -0.67292  -0.64585  -0.67292  -0.35338  -0.60138  -0.35338  -0.60138
 -6.81310  -0.47461  -0.69670  -0.47461  -0.69670  -0.46742  -0.62480  -0.46742  -0.62480
 -6.76301  -0.26398  -0.70993  -0.26398  -0.70993  -0.42381  -0.64603  -0.42381  -0.64603
 -6.71291  -0.07349  -0.71361  -0.07349  -0.71361  -0.32606  -0.66236  -0.32606  -0.66236
 -6.66281  -0.02606  -0.71491  -0.02606  -0.71491  -0.20960  -0.67286  -0.20960  -0.67286
 -6.61272  -0.03831  -0.71683  -0.03831  -0.71683  -0.08967  -0.67735  -0.08967  -0.67735
 -6.56262  -4.46235  -0.94038  -4.46235  -0.94038  -0.02097  -0.67840  -0.02097  -0.67840
 -6.51252  -0.13792  -0.94729  -0.13792  -0.94729  -0.00862  -0.67884  -0.00862  -0.67884
 -6.46243  -0.04127  -0.94936  -0.04127  -0.94936  -0.61911  -0.70985  -0.61911  -0.70985
 -6.41233  -0.25248  -0.96200  -0.25248  -0.96200  -3.68430  -0.89442  -3.68430  -0.89442
 -6.36224  -0.71331  -0.99774  -0.71331  -0.99774  -0.05491  -0.89717  -0.05491  -0.89717
 -6.31214  -0.06894  -1.00119  -0.06894  -1.00119  -0.08646  -0.90150  -0.08646  -0.90150
 -6.26204  -0.09072  -1.00574  -0.09072  -1.00574  -0.82168  -0.94267  -0.82168  -0.94267
 -6.21195  -0.18127  -1.01482  -0.18127  -1.01482  -0.67553  -0.97651  -0.67553  -0.97651
 -6.16185  -0.36069  -1.03289  -0.36069  -1.03289  -0.06490  -0.97976  -0.06490  -0.97976
 -6.11175  -0.13572  -1.03969  -0.13572  -1.03969  -0.08624  -0.98408  -0.08624  -0.98408
 -6.06166  -0.09707  -1.04455  -0.09707  -1.04455  -0.10374  -0.98928  -0.10374  -0.98928
 -6.01156   0.00086  -1.04451   0.00086  -1.04451  -0.16974  -0.99778  -0.16974  -0.99778
 -5.96146   0.01265  -1.04387   0.01265  -1.04387  -0.25188  -1.01040  -0.25188  -1.01040
 -5.91137   0.04598  -1.04157   0.04598  -1.04157  -0.18684  -1.01976  -0.18684  -1.01976
 -5.86127   0.03024  -1.04005   0.03024  -1.04005  -0.01881  -1.02070  -0.01881  -1.02070
 -5.81118   0.01299  -1.03940   0.01299  -1.03940   0.00883  -1.02026   0.00883  -1.02026
 -5.76108   0.00154  -1.03933   0.00154  -1.03933   0.02220  -1.01915   0.02220  -1.01915
 -5.71098  -0.08180  -1.04342  -0.08180  -1.04342   0.04446  -1.01692   0.04446  -1.01692
 -5.66089  -0.04410  -1.04563  -0.04410  -1.04563   0.01305  -1.01626   0.01305  -1.01626
 -5.61079  -0.10963  -1.05113  -0.10963  -1.05113   0.00321  -1.01610   0.00321  -1.01610
 -5.56069  -0.18294  -1.06029  -0.18294  -1.06029   0.00169  -1.01602   0.00169  -1.01602
 -5.51060  -0.47487  -1.08408  -0.47487  -1.08408  -0.02094  -1.01707  -0.02094  -1.01707
 -5.46050  -0.21944  -1.09507  -0.21944  -1.09507  -0.03096  -1.01862  -0.03096  -1.01862
 -5.41040  -0.35829  -1.11302  -0.35829  -1.11302  -0.06520  -1.02188  -0.06520  -1.02188
 -5.36031  -0.44818  -1.13547  -0.44818  -1.13547  -0.07178  -1.02548  -0.07178  -1.02548
 -5.31021  -0.03795  -1.13737  -0.03795  -1.13737  -0.19270  -1.03513  -0.19270  -1.03513
 -5.26012  -0.12716  -1.14375  -0.12716  -1.14375  -0.13354  -1.04182  -0.13354  -1.04182
 -5.21002   0.00000  -1.14375   0.00000  -1.14375  -0.20296  -1.05199  -0.20296  -1.05199
 -5.15992  -0.02409  -1.14495  -0.02409  -1.14495  -0.18699  -1.06136  -0.18699  -1.06136
 -5.10983  -0.13668  -1.15180  -0.13668  -1.15180  -0.20598  -1.07168  -0.20598  -1.07168
 -5.05973  -0.08441  -1.15603  -0.08441  -1.15603  -0.22607  -1.08300  -0.22607  -1.08300
 -5.00963  -0.01558  -1.15681  -0.01558  -1.15681  -0.34126  -1.10010  -0.34126  -1.10010
 -4.95954  -0.01736  -1.15768  -0.01736  -1.15768  -0.11692  -1.10596  -0.11692  -1.10596
 -4.90944  -0.06550  -1.16096  -0.06550  -1.16096  -0.05214  -1.10857  -0.05214  -1.10857
 -4.85934   0.01465  -1.16022   0.01465  -1.16022  -0.03162  -1.11015  -0.03162  -1.11015
 -4.80925  -0.03072  -1.16176  -0.03072  -1.16176  -0.06996  -1.11366  -0.06996  -1.11366
 -4.75915   0.03100  -1.16021   0.03100  -1.16021  -0.04067  -1.11569  -0.04067  -1.11569
 -4.70906  -0.03553  -1.16199  -0.03553  -1.16199  -0.02164  -1.11678  -0.02164  -1.11678
 -4.65896  -0.01122  -1.16255  -0.01122  -1.16255  -0.02056  -1.11781  -0.02056  -1.11781
 -4.60886   0.00975  -1.16206   0.00975  -1.16206   0.00223  -1.11770   0.00223  -1.11770
 -4.55877  -0.00492  -1.16231  -0.00492  -1.16231   0.00053  -1.11767   0.00053  -1.11767
 -4.50867   0.00499  -1.16206   0.00499  -1.16206  -0.00211  -1.11778  -0.00211  -1.11778
 -4.45857   0.00909  -1.16161   0.00909  -1.16161  -0.01246  -1.11840  -0.01246  -1.11840
 -4.40848  -0.02121  -1.16267  -0.02121  -1.16267  -0.00087  -1.11844  -0.00087  -1.11844
 -4.35838  -0.00426  -1.16288  -0.00426  -1.16288  -0.00261  -1.11857  -0.00261  -1.11857
 -4.30829  -0.01257  -1.16351  -0.01257  -1.16351   0.00910  -1.11812   0.00910  -1.11812
 -4.25819  -0.01139  -1.16408  -0.01139  -1.16408   0.00790  -1.11772   0.00790  -1.11772
 -4.20809  -0.03266  -1.16572  -0.03266  -1.16572  -0.00031  -1.11774  -0.00031  -1.11774
 -4.15800  -0.04395  -1.16792  -0.04395  -1.16792  -0.00080  -1.11778  -0.00080  -1.11778
 -4.10790  -0.09793  -1.17283  -0.09793  -1.17283  -0.00338  -1.11795  -0.00338  -1.11795
 -4.05780  -0.16717  -1.18120  -0.16717  -1.18120   0.00104  -1.11790   0.00104  -1.11790
 -4.00771  -0.19762  -1.19110  -0.19762  -1.19110   0.00244  -1.11777   0.00244  -1.11777
 -3.95761  -0.46760  -1.21453  -0.46760  -1.21453  -0.11461  -1.12352  -0.11461  -1.12352
 -3.90751  -0.52374  -1.24076  -0.52374  -1.24076  -0.00056  -1.12354  -0.00056  -1.12354
 -3.85742  -0.68615  -1.27514  -0.68615  -1.27514  -0.02889  -1.12499  -0.02889  -1.12499
 -3.80732  -0.50707  -1.30054  -0.50707  -1.30054  -0.04445  -1.12722  -0.04445  -1.12722
 -3.75723  -0.68293  -1.33475  -0.68293  -1.33475  -0.01494  -1.12797  -0.01494  -1.12797
 -3.70713  -0.85825  -1.37775  -0.85825  -1.37775  -0.00809  -1.12837  -0.00809  -1.12837
 -3.65703  -0.91923  -1.42380  -0.91923  -1.42380  -0.01072  -1.12891  -0.01072  -1.12891
 -3.60694  -0.93174  -1.47047  -0.93174  -1.47047  -0.01205  -1.12951  -0.01205  -1.12951
 -3.55684  -1.13574  -1.52737  -1.13574  -1.52737  -0.11324  -1.13518  -0.11324  -1.13518