ESCALE ; pCOOP file generated by LOBSTER. Energy is shifted such that the Fermi level lies at 0 eV.
         2          2        521  -1.98179e+01   6.23218e+00   2.20615e-01 
Average
No.1:Ni38->O69(1.8075200370588183)
-20.03854   0.00000   0.00000   0.00000   0.00000   0.00000   0.00000   0.00000   0.00000
-19.98844   0.00000   0.00000   0.00000   0.00000   0.00000   0.00000   0.00000   0.00000
-19.93834   0.00000   0.00000   0.00000   0.00000   0.00000   0.00000   0.00000   0.00000
-19.88825   0.00000   0.00000   0.00000   0.00000   0.00000   0.00000   0.00000   0.00000
-19.83815   0.00000   0.00000   0.00000   0.00000   0.00000   0.00000   0.00000   0.00000
-19.78805   0.00000   0.00000   0.00000   0.00000   0.00000   0.00000   0.00000   0.00000
-19.73796   0.00000   0.00000   0.00000   0.00000   0.00000   0.00000   0.00000   0.00000
-19.68786   0.00000   0.00000   0.00000   0.00000   0.00000   0.00000   0.00000   0.00000
-19.63776   0.00000   0.00000   0.00000   0.00000   0.00000   0.00000   0.00000   0.00000
-19.58767   0.00000   0.00000   0.00000   0.00000   0.00000   0.00000   0.00000   0.00000
-19.53757   0.00000   0.00000   0.00000   0.00000   0.00000   0.00000   0.00000   0.00000
-19.48748   0.00000   0.00000   0.00000   0.00000   0.00000   0.00000   0.00000   0.00000
-19.43738   0.00000   0.00000   0.00000   0.00000   0.00000   0.00000   0.00000   0.00000
-19.38728   0.00000   0.00000   0.00000   0.00000   0.00000   0.00000   0.00000   0.00000
-19.33719   0.00000   0.00000   0.00000   0.00000   0.00000   0.00000   0.00000   0.00000
-19.28709   0.00000   0.00000   0.00000   0.00000   0.00000   0.00000   0.00000   0.00000
-19.23699   0.00000   0.00000   0.00000   0.00000   0.00000   0.00000   0.00000   0.00000
-19.18690   0.00000   0.00000   0.00000   0.00000   0.00000   0.00000   0.00000   0.00000
-19.13680   0.00000   0.00000   0.00000   0.00000   0.00000   0.00000   0.00000   0.00000
-19.08671   0.03946   0.00198   0.03946   0.00198   0.00000   0.00000   0.00000   0.00000
-19.03661   0.00000   0.00198   0.00000   0.00198   0.00000   0.00000   0.00000   0.00000
-18.98651  -0.00157   0.00190  -0.00157   0.00190   0.00000   0.00000   0.00000   0.00000
-18.93642  -0.00175   0.00181  -0.00175   0.00181   0.00000   0.00000   0.00000   0.00000
-18.88632   0.00000   0.00181   0.00000   0.00181   0.01785   0.00089   0.01785   0.00089
-18.83622   0.00000   0.00181   0.00000   0.00181  -0.00135   0.00083  -0.00135   0.00083
-18.78613   0.00000   0.00181   0.00000   0.00181  -0.00156   0.00075  -0.00156   0.00075
-18.73603   0.25330   0.01450   0.25330   0.01450  -0.00186   0.00066  -0.00186   0.00066
-18.68593   0.00000   0.01450   0.00000   0.01450   0.00000   0.00066   0.00000   0.00066
-18.63584   0.00000   0.01450   0.00000   0.01450   0.00000   0.00066   0.00000   0.00066
-18.58574   0.00000   0.01450   0.00000   0.01450   0.00000   0.00066   0.00000   0.00066
-18.53565   0.00000   0.01450   0.00000   0.01450   0.00000   0.00066   0.00000   0.00066
-18.48555   0.00000   0.01450   0.00000   0.01450   0.00000   0.00066   0.00000   0.00066
-18.43545   0.00000   0.01450   0.00000   0.01450   0.28327   0.01485   0.28327   0.01485
-18.38536   0.00000   0.01450   0.00000   0.01450   0.00000   0.01485   0.00000   0.01485
-18.33526   0.00000   0.01450   0.00000   0.01450   0.00000   0.01485   0.00000   0.01485
-18.28516   0.00000   0.01450   0.00000   0.01450   0.00000   0.01485   0.00000   0.01485
-18.23507   0.00000   0.01450   0.00000   0.01450   0.00000   0.01485   0.00000   0.01485
-18.18497   0.00000   0.01450   0.00000   0.01450   0.00000   0.01485   0.00000   0.01485
-18.13487   0.00000   0.01450   0.00000   0.01450   0.00000   0.01485   0.00000   0.01485
-18.08478   0.00000   0.01450   0.00000   0.01450   0.00000   0.01485   0.00000   0.01485
-18.03468   0.00000   0.01450   0.00000   0.01450   0.00000   0.01485   0.00000   0.01485
-17.98459   0.00000   0.01450   0.00000   0.01450   0.00000   0.01485   0.00000   0.01485
-17.93449   0.00000   0.01450   0.00000   0.01450   0.00000   0.01485   0.00000   0.01485
-17.88439   0.00000   0.01450   0.00000   0.01450   0.00000   0.01485   0.00000   0.01485
-17.83430   0.00000   0.01450   0.00000   0.01450   0.00000   0.01485   0.00000   0.01485
-17.78420   0.00000   0.01450   0.00000   0.01450   0.00000   0.01485   0.00000   0.01485
-17.73410   0.00000   0.01450   0.00000   0.01450   0.00000   0.01485   0.00000   0.01485
-17.68401   0.00000   0.01450   0.00000   0.01450   0.00000   0.01485   0.00000   0.01485
-17.63391   0.00000   0.01450   0.00000   0.01450   0.00000   0.01485   0.00000   0.01485
-17.58382   0.00000   0.01450   0.00000   0.01450   0.00000   0.01485   0.00000   0.01485
-17.53372   0.00000   0.01450   0.00000   0.01450   0.00000   0.01485   0.00000   0.01485
-17.48362   0.00000   0.01450   0.00000   0.01450   0.00000   0.01485   0.00000   0.01485
-17.43353   0.00000   0.01450   0.00000   0.01450   0.00000   0.01485   0.00000   0.01485
-17.38343   0.00000   0.01450   0.00000   0.01450   0.00000   0.01485   0.00000   0.01485
-17.33333   0.00000   0.01450   0.00000   0.01450   0.00000   0.01485   0.00000   0.01485
-17.28324   0.00000   0.01450   0.00000   0.01450   0.00000   0.01485   0.00000   0.01485
-17.23314   0.00000   0.01450   0.00000   0.01450   0.00000   0.01485   0.00000   0.01485
-17.18304   0.00000   0.01450   0.00000   0.01450   0.00000   0.01485   0.00000   0.01485
-17.13295   0.00000   0.01450   0.00000   0.01450   0.00000   0.01485   0.00000   0.01485
-17.08285   0.00000   0.01450   0.00000   0.01450   0.00000   0.01485   0.00000   0.01485
-17.03276   0.00000   0.01450   0.00000   0.01450   0.00000   0.01485   0.00000   0.01485
-16.98266   0.00000   0.01450   0.00000   0.01450   0.00000   0.01485   0.00000   0.01485
-16.93256   0.00000   0.01450   0.00000   0.01450   0.00000   0.01485   0.00000   0.01485
-16.88247   0.00000   0.01450   0.00000   0.01450   0.00000   0.01485   0.00000   0.01485
-16.83237   0.00000   0.01450   0.00000   0.01450   0.00000   0.01485   0.00000   0.01485
-16.78227   0.00000   0.01450   0.00000   0.01450   0.00000   0.01485   0.00000   0.01485
-16.73218   0.00000   0.01450   0.00000   0.01450   0.00000   0.01485   0.00000   0.01485
-16.68208   0.00000   0.01450   0.00000   0.01450   0.00000   0.01485   0.00000   0.01485
-16.63198   0.00000   0.01450   0.00000   0.01450   0.00000   0.01485   0.00000   0.01485
-16.58189   0.00000   0.01450   0.00000   0.01450   0.00000   0.01485   0.00000   0.01485
-16.53179   0.00000   0.01450   0.00000   0.01450   0.00000   0.01485   0.00000   0.01485
-16.48170   0.00000   0.01450   0.00000   0.01450   0.00000   0.01485   0.00000   0.01485
-16.43160   0.00000   0.01450   0.00000   0.01450   0.00000   0.01485   0.00000   0.01485
-16.38150   0.00000   0.01450   0.00000   0.01450   0.00000   0.01485   0.00000   0.01485
-16.33141   0.00000   0.01450   0.00000   0.01450   0.00000   0.01485   0.00000   0.01485
-16.28131   0.00000   0.01450   0.00000   0.01450   0.00000   0.01485   0.00000   0.01485
-16.23121   0.00000   0.01450   0.00000   0.01450   0.00000   0.01485   0.00000   0.01485
-16.18112   0.00000   0.01450   0.00000   0.01450   0.00000   0.01485   0.00000   0.01485
-16.13102   0.00000   0.01450   0.00000   0.01450   0.00000   0.01485   0.00000   0.01485
-16.08092   0.00000   0.01450   0.00000   0.01450   0.00000   0.01485   0.00000   0.01485
-16.03083   0.00000   0.01450   0.00000   0.01450   0.00000   0.01485   0.00000   0.01485
-15.98073   0.00000   0.01450   0.00000   0.01450   0.00000   0.01485   0.00000   0.01485
-15.93064   0.00000   0.01450   0.00000   0.01450   0.00000   0.01485   0.00000   0.01485
-15.88054   0.00000   0.01450   0.00000   0.01450   0.00000   0.01485   0.00000   0.01485
-15.83044   0.00000   0.01450   0.00000   0.01450   0.00000   0.01485   0.00000   0.01485
-15.78035   0.00000   0.01450   0.00000   0.01450   0.00000   0.01485   0.00000   0.01485
-15.73025   0.00000   0.01450   0.00000   0.01450   0.00000   0.01485   0.00000   0.01485
-15.68015   0.00000   0.01450   0.00000   0.01450   0.00000   0.01485   0.00000   0.01485
-15.63006   0.00000   0.01450   0.00000   0.01450   0.00000   0.01485   0.00000   0.01485
-15.57996   0.00000   0.01450   0.00000   0.01450   0.00000   0.01485   0.00000   0.01485
-15.52987   0.00000   0.01450   0.00000   0.01450   0.00000   0.01485   0.00000   0.01485
-15.47977   0.00000   0.01450   0.00000   0.01450   0.00000   0.01485   0.00000   0.01485
-15.42967   0.00000   0.01450   0.00000   0.01450   0.00000   0.01485   0.00000   0.01485
-15.37958   0.00000   0.01450   0.00000   0.01450   0.00000   0.01485   0.00000   0.01485
-15.32948   0.00000   0.01450   0.00000   0.01450   0.00000   0.01485   0.00000   0.01485
-15.27938   0.00000   0.01450   0.00000   0.01450   0.00000   0.01485   0.00000   0.01485
-15.22929   0.00000   0.01450   0.00000   0.01450   0.00000   0.01485   0.00000   0.01485
-15.17919   0.00000   0.01450   0.00000   0.01450   0.00000   0.01485   0.00000   0.01485
-15.12909   0.00000   0.01450   0.00000   0.01450   0.00000   0.01485   0.00000   0.01485
-15.07900   0.00000   0.01450   0.00000   0.01450   0.00000   0.01485   0.00000   0.01485
-15.02890   0.00000   0.01450   0.00000   0.01450   0.00000   0.01485   0.00000   0.01485
-14.97881   0.00000   0.01450   0.00000   0.01450   0.00000   0.01485   0.00000   0.01485
-14.92871   0.00000   0.01450   0.00000   0.01450   0.00000   0.01485   0.00000   0.01485
-14.87861   0.00000   0.01450   0.00000   0.01450   0.00000   0.01485   0.00000   0.01485
-14.82852   0.00000   0.01450   0.00000   0.01450   0.00000   0.01485   0.00000   0.01485
-14.77842   0.00000   0.01450   0.00000   0.01450   0.00000   0.01485   0.00000   0.01485
-14.72832   0.00000   0.01450   0.00000   0.01450   0.00000   0.01485   0.00000   0.01485
-14.67823   0.00000   0.01450   0.00000   0.01450   0.00000   0.01485   0.00000   0.01485
-14.62813   0.00000   0.01450   0.00000   0.01450   0.00000   0.01485   0.00000   0.01485
-14.57803   0.00000   0.01450   0.00000   0.01450   0.00000   0.01485   0.00000   0.01485
-14.52794   0.00000   0.01450   0.00000   0.01450   0.00000   0.01485   0.00000   0.01485
-14.47784   0.00000   0.01450   0.00000   0.01450   0.00000   0.01485   0.00000   0.01485
-14.42775   0.00000   0.01450   0.00000   0.01450   0.00000   0.01485   0.00000   0.01485
-14.37765   0.00000   0.01450   0.00000   0.01450   0.00000   0.01485   0.00000   0.01485
-14.32755   0.00000   0.01450   0.00000   0.01450   0.00000   0.01485   0.00000   0.01485
-14.27746   0.00000   0.01450   0.00000   0.01450   0.00000   0.01485   0.00000   0.01485
-14.22736   0.00000   0.01450   0.00000   0.01450   0.00000   0.01485   0.00000   0.01485
-14.17726   0.00000   0.01450   0.00000   0.01450   0.00000   0.01485   0.00000   0.01485
-14.12717   0.00000   0.01450   0.00000   0.01450   0.00000   0.01485   0.00000   0.01485
-14.07707   0.00000   0.01450   0.00000   0.01450   0.00000   0.01485   0.00000   0.01485
-14.02697   0.00000   0.01450   0.00000   0.01450   0.00000   0.01485   0.00000   0.01485
-13.97688   0.00000   0.01450   0.00000   0.01450   0.00000   0.01485   0.00000   0.01485
-13.92678   0.00000   0.01450   0.00000   0.01450   0.00000   0.01485   0.00000   0.01485
-13.87669   0.00000   0.01450   0.00000   0.01450   0.00000   0.01485   0.00000   0.01485
-13.82659   0.00000   0.01450   0.00000   0.01450   0.00000   0.01485   0.00000   0.01485
-13.77649   0.00000   0.01450   0.00000   0.01450   0.00000   0.01485   0.00000   0.01485
-13.72640   0.00000   0.01450   0.00000   0.01450   0.00000   0.01485   0.00000   0.01485
-13.67630   0.00000   0.01450   0.00000   0.01450   0.00000   0.01485   0.00000   0.01485
-13.62620   0.00000   0.01450   0.00000   0.01450   0.00000   0.01485   0.00000   0.01485
-13.57611   0.00000   0.01450   0.00000   0.01450   0.00000   0.01485   0.00000   0.01485
-13.52601   0.00000   0.01450   0.00000   0.01450   0.00000   0.01485   0.00000   0.01485
-13.47592   0.00000   0.01450   0.00000   0.01450   0.00000   0.01485   0.00000   0.01485
-13.42582   0.00000   0.01450   0.00000   0.01450   0.00000   0.01485   0.00000   0.01485
-13.37572   0.00000   0.01450   0.00000   0.01450   0.00000   0.01485   0.00000   0.01485
-13.32563   0.00000   0.01450   0.00000   0.01450   0.00000   0.01485   0.00000   0.01485
-13.27553   0.00000   0.01450   0.00000   0.01450   0.00000   0.01485   0.00000   0.01485
-13.22543   0.00000   0.01450   0.00000   0.01450   0.00000   0.01485   0.00000   0.01485
-13.17534   0.00000   0.01450   0.00000   0.01450   0.00000   0.01485   0.00000   0.01485
-13.12524   0.00000   0.01450   0.00000   0.01450   0.00000   0.01485   0.00000   0.01485
-13.07514   0.00000   0.01450   0.00000   0.01450   0.00000   0.01485   0.00000   0.01485
-13.02505   0.00000   0.01450   0.00000   0.01450   0.00000   0.01485   0.00000   0.01485
-12.97495   0.00000   0.01450   0.00000   0.01450   0.00000   0.01485   0.00000   0.01485
-12.92486   0.00000   0.01450   0.00000   0.01450   0.00000   0.01485   0.00000   0.01485
-12.87476   0.00000   0.01450   0.00000   0.01450   0.00000   0.01485   0.00000   0.01485
-12.82466   0.00000   0.01450   0.00000   0.01450   0.00000   0.01485   0.00000   0.01485
-12.77457   0.00000   0.01450   0.00000   0.01450   0.00000   0.01485   0.00000   0.01485
-12.72447   0.00000   0.01450   0.00000   0.01450   0.00000   0.01485   0.00000   0.01485
-12.67437   0.00000   0.01450   0.00000   0.01450   0.00000   0.01485   0.00000   0.01485
-12.62428   0.00000   0.01450   0.00000   0.01450   0.00000   0.01485   0.00000   0.01485
-12.57418   0.00000   0.01450   0.00000   0.01450   0.00000   0.01485   0.00000   0.01485
-12.52408   0.00000   0.01450   0.00000   0.01450   0.00000   0.01485   0.00000   0.01485
-12.47399   0.00000   0.01450   0.00000   0.01450   0.00000   0.01485   0.00000   0.01485
-12.42389   0.00000   0.01450   0.00000   0.01450   0.00000   0.01485   0.00000   0.01485
-12.37380   0.00000   0.01450   0.00000   0.01450   0.00000   0.01485   0.00000   0.01485
-12.32370   0.00000   0.01450   0.00000   0.01450   0.00000   0.01485   0.00000   0.01485
-12.27360   0.00000   0.01450   0.00000   0.01450   0.00000   0.01485   0.00000   0.01485
-12.22351   0.00000   0.01450   0.00000   0.01450   0.00000   0.01485   0.00000   0.01485
-12.17341   0.00000   0.01450   0.00000   0.01450   0.00000   0.01485   0.00000   0.01485
-12.12331   0.00000   0.01450   0.00000   0.01450   0.00000   0.01485   0.00000   0.01485
-12.07322   0.00000   0.01450   0.00000   0.01450   0.00000   0.01485   0.00000   0.01485
-12.02312   0.00000   0.01450   0.00000   0.01450   0.00000   0.01485   0.00000   0.01485
-11.97303   0.00000   0.01450   0.00000   0.01450   0.00000   0.01485   0.00000   0.01485
-11.92293   0.00000   0.01450   0.00000   0.01450   0.00000   0.01485   0.00000   0.01485
-11.87283   0.00000   0.01450   0.00000   0.01450   0.00000   0.01485   0.00000   0.01485
-11.82274   0.00000   0.01450   0.00000   0.01450   0.00000   0.01485   0.00000   0.01485
-11.77264   0.00000   0.01450   0.00000   0.01450   0.00000   0.01485   0.00000   0.01485
-11.72254   0.00000   0.01450   0.00000   0.01450   0.00000   0.01485   0.00000   0.01485
-11.67245   0.00000   0.01450   0.00000   0.01450   0.00000   0.01485   0.00000   0.01485
-11.62235   0.00000   0.01450   0.00000   0.01450   0.00000   0.01485   0.00000   0.01485
-11.57225   0.00000   0.01450   0.00000   0.01450   0.00000   0.01485   0.00000   0.01485
-11.52216   0.00000   0.01450   0.00000   0.01450   0.00000   0.01485   0.00000   0.01485
-11.47206   0.00000   0.01450   0.00000   0.01450   0.00000   0.01485   0.00000   0.01485
-11.42197   0.00000   0.01450   0.00000   0.01450   0.00000   0.01485   0.00000   0.01485
-11.37187   0.00000   0.01450   0.00000   0.01450   0.00000   0.01485   0.00000   0.01485
-11.32177   0.00000   0.01450   0.00000   0.01450   0.00000   0.01485   0.00000   0.01485
-11.27168   0.00000   0.01450   0.00000   0.01450   0.00000   0.01485   0.00000   0.01485
-11.22158   0.00000   0.01450   0.00000   0.01450   0.00000   0.01485   0.00000   0.01485
-11.17148   0.00000   0.01450   0.00000   0.01450   0.00000   0.01485   0.00000   0.01485
-11.12139   0.00000   0.01450   0.00000   0.01450   0.00000   0.01485   0.00000   0.01485
-11.07129   0.00000   0.01450   0.00000   0.01450   0.00000   0.01485   0.00000   0.01485
-11.02119   0.00000   0.01450   0.00000   0.01450   0.00000   0.01485   0.00000   0.01485
-10.97110   0.00000   0.01450   0.00000   0.01450   0.00000   0.01485   0.00000   0.01485
-10.92100   0.00000   0.01450   0.00000   0.01450   0.00000   0.01485   0.00000   0.01485
-10.87091   0.00000   0.01450   0.00000   0.01450   0.00000   0.01485   0.00000   0.01485
-10.82081   0.00000   0.01450   0.00000   0.01450   0.00000   0.01485   0.00000   0.01485
-10.77071   0.00000   0.01450   0.00000   0.01450   0.00000   0.01485   0.00000   0.01485
-10.72062   0.00000   0.01450   0.00000   0.01450   0.00000   0.01485   0.00000   0.01485
-10.67052   0.00000   0.01450   0.00000   0.01450   0.00000   0.01485   0.00000   0.01485
-10.62042   0.00000   0.01450   0.00000   0.01450   0.00000   0.01485   0.00000   0.01485
-10.57033   0.00000   0.01450   0.00000   0.01450   0.00000   0.01485   0.00000   0.01485
-10.52023   0.00000   0.01450   0.00000   0.01450   0.00000   0.01485   0.00000   0.01485
-10.47013   0.00000   0.01450   0.00000   0.01450   0.00000   0.01485   0.00000   0.01485
-10.42004   0.00000   0.01450   0.00000   0.01450   0.00000   0.01485   0.00000   0.01485
-10.36994   0.00000   0.01450   0.00000   0.01450   0.00000   0.01485   0.00000   0.01485
-10.31985   0.00000   0.01450   0.00000   0.01450   0.00000   0.01485   0.00000   0.01485
-10.26975   0.00000   0.01450   0.00000   0.01450   0.00000   0.01485   0.00000   0.01485
-10.21965   0.00000   0.01450   0.00000   0.01450   0.00000   0.01485   0.00000   0.01485
-10.16956   0.00000   0.01450   0.00000   0.01450   0.00000   0.01485   0.00000   0.01485
-10.11946   0.00000   0.01450   0.00000   0.01450   0.00000   0.01485   0.00000   0.01485
-10.06936   0.00000   0.01450   0.00000   0.01450   0.00000   0.01485   0.00000   0.01485
-10.01927   0.00000   0.01450   0.00000   0.01450   0.00000   0.01485   0.00000   0.01485
 -9.96917   0.00000   0.01450   0.00000   0.01450   0.00000   0.01485   0.00000   0.01485
 -9.91908   0.00000   0.01450   0.00000   0.01450   0.00000   0.01485   0.00000   0.01485
 -9.86898   0.00000   0.01450   0.00000   0.01450   0.00000   0.01485   0.00000   0.01485
 -9.81888   0.00000   0.01450   0.00000   0.01450   0.00000   0.01485   0.00000   0.01485
 -9.76879   0.00000   0.01450   0.00000   0.01450   0.00000   0.01485   0.00000   0.01485
 -9.71869   0.00000   0.01450   0.00000   0.01450   0.00000   0.01485   0.00000   0.01485
 -9.66859   0.00000   0.01450   0.00000   0.01450   0.00000   0.01485   0.00000   0.01485
 -9.61850   0.00000   0.01450   0.00000   0.01450   0.00000   0.01485   0.00000   0.01485
 -9.56840   0.00000   0.01450   0.00000   0.01450   0.00000   0.01485   0.00000   0.01485
 -9.51830   0.00000   0.01450   0.00000   0.01450   0.00000   0.01485   0.00000   0.01485
 -9.46821   0.00000   0.01450   0.00000   0.01450   0.00000   0.01485   0.00000   0.01485
 -9.41811   0.00000   0.01450   0.00000   0.01450   0.00000   0.01485   0.00000   0.01485
 -9.36802   0.00000   0.01450   0.00000   0.01450   0.00000   0.01485   0.00000   0.01485
 -9.31792   0.00000   0.01450   0.00000   0.01450   0.00000   0.01485   0.00000   0.01485
 -9.26782   0.00000   0.01450   0.00000   0.01450   0.00000   0.01485   0.00000   0.01485
 -9.21773   0.00000   0.01450   0.00000   0.01450   0.00000   0.01485   0.00000   0.01485
 -9.16763   0.00000   0.01450   0.00000   0.01450   0.00000   0.01485   0.00000   0.01485
 -9.11753   0.00000   0.01450   0.00000   0.01450   0.00000   0.01485   0.00000   0.01485
 -9.06744   0.00000   0.01450   0.00000   0.01450   0.00000   0.01485   0.00000   0.01485
 -9.01734   0.00000   0.01450   0.00000   0.01450   0.00000   0.01485   0.00000   0.01485
 -8.96724   0.00000   0.01450   0.00000   0.01450   0.00000   0.01485   0.00000   0.01485
 -8.91715   0.00000   0.01450   0.00000   0.01450   0.00000   0.01485   0.00000   0.01485
 -8.86705   0.00000   0.01450   0.00000   0.01450   0.00000   0.01485   0.00000   0.01485
 -8.81696   0.00000   0.01450   0.00000   0.01450   0.00000   0.01485   0.00000   0.01485
 -8.76686   0.00000   0.01450   0.00000   0.01450   0.00000   0.01485   0.00000   0.01485
 -8.71676   0.00000   0.01450   0.00000   0.01450   0.00000   0.01485   0.00000   0.01485
 -8.66667   0.00000   0.01450   0.00000   0.01450   0.00000   0.01485   0.00000   0.01485
 -8.61657   0.00000   0.01450   0.00000   0.01450   0.00000   0.01485   0.00000   0.01485
 -8.56647   0.00000   0.01450   0.00000   0.01450   0.00000   0.01485   0.00000   0.01485
 -8.51638   0.00000   0.01450   0.00000   0.01450   0.00000   0.01485   0.00000   0.01485
 -8.46628   0.00000   0.01450   0.00000   0.01450   0.00000   0.01485   0.00000   0.01485
 -8.41618   0.00006   0.01450   0.00006   0.01450   0.00000   0.01485   0.00000   0.01485
 -8.36609   0.00015   0.01451   0.00015   0.01451   0.00004   0.01485   0.00004   0.01485
 -8.31599   0.00023   0.01452   0.00023   0.01452   0.00011   0.01485   0.00011   0.01485
 -8.26590   0.00030   0.01454   0.00030   0.01454   0.00017   0.01486   0.00017   0.01486
 -8.21580   0.00042   0.01456   0.00042   0.01456   0.00023   0.01487   0.00023   0.01487
 -8.16570   0.00042   0.01458   0.00042   0.01458   0.00040   0.01489   0.00040   0.01489
 -8.11561   0.00038   0.01460   0.00038   0.01460   0.00044   0.01492   0.00044   0.01492
 -8.06551   0.00033   0.01461   0.00033   0.01461   0.00040   0.01494   0.00040   0.01494
 -8.01541   0.00027   0.01463   0.00027   0.01463   0.00035   0.01495   0.00035   0.01495
 -7.96532   0.00022   0.01464   0.00022   0.01464   0.00029   0.01497   0.00029   0.01497
 -7.91522   0.00016   0.01465   0.00016   0.01465   0.00023   0.01498   0.00023   0.01498
 -7.86513   0.00009   0.01465   0.00009   0.01465   0.00016   0.01499   0.00016   0.01499
 -7.81503   0.00003   0.01465   0.00003   0.01465   0.00008   0.01499   0.00008   0.01499
 -7.76493   0.00016   0.01466   0.00016   0.01466   0.00001   0.01499   0.00001   0.01499
 -7.71484   0.00069   0.01469   0.00069   0.01469   0.00011   0.01500   0.00011   0.01500
 -7.66474   0.00126   0.01476   0.00126   0.01476   0.00040   0.01502   0.00040   0.01502
 -7.61464   0.00186   0.01485   0.00186   0.01485   0.00081   0.01506   0.00081   0.01506
 -7.56455   0.00208   0.01496   0.00208   0.01496   0.00125   0.01512   0.00125   0.01512
 -7.51445   0.00211   0.01506   0.00211   0.01506   0.00149   0.01519   0.00149   0.01519
 -7.46435   0.00232   0.01518   0.00232   0.01518   0.00140   0.01526   0.00140   0.01526
 -7.41426   0.00253   0.01530   0.00253   0.01530   0.00153   0.01534   0.00153   0.01534
 -7.36416   0.00273   0.01544   0.00273   0.01544   0.00167   0.01543   0.00167   0.01543
 -7.31407   0.00293   0.01559   0.00293   0.01559   0.00180   0.01552   0.00180   0.01552
 -7.26397   0.00313   0.01574   0.00313   0.01574   0.00194   0.01561   0.00194   0.01561
 -7.21387   0.00332   0.01591   0.00332   0.01591   0.00207   0.01572   0.00207   0.01572
 -7.16378   0.00352   0.01609   0.00352   0.01609   0.00220   0.01583   0.00220   0.01583
 -7.11368   0.00371   0.01627   0.00371   0.01627   0.00233   0.01594   0.00233   0.01594
 -7.06358   0.00401   0.01647   0.00401   0.01647   0.00246   0.01607   0.00246   0.01607
 -7.01349   0.00524   0.01674   0.00524   0.01674   0.00263   0.01620   0.00263   0.01620
 -6.96339   0.02704   0.01809   0.02704   0.01809   0.00289   0.01634   0.00289   0.01634
 -6.91329   0.05036   0.02061   0.05036   0.02061   0.00657   0.01667   0.00657   0.01667
 -6.86320   0.04897   0.02307   0.04897   0.02307   0.02707   0.01803   0.02707   0.01803
 -6.81310   0.03597   0.02487   0.03597   0.02487   0.03549   0.01981   0.03549   0.01981
 -6.76301   0.01985   0.02586   0.01985   0.02586   0.03211   0.02141   0.03211   0.02141
 -6.71291   0.00528   0.02613   0.00528   0.02613   0.02470   0.02265   0.02470   0.02265
 -6.66281   0.00181   0.02622   0.00181   0.02622   0.01583   0.02345   0.01583   0.02345
 -6.61272   0.00291   0.02636   0.00291   0.02636   0.00671   0.02378   0.00671   0.02378
 -6.56262   0.36561   0.04468   0.36561   0.04468   0.00154   0.02386   0.00154   0.02386
 -6.51252   0.01158   0.04526   0.01158   0.04526   0.00064   0.02389   0.00064   0.02389
 -6.46243   0.00375   0.04545   0.00375   0.04545   0.05215   0.02650   0.05215   0.02650
 -6.41233   0.02295   0.04660   0.02295   0.04660   0.31123   0.04209   0.31123   0.04209
 -6.36224   0.06500   0.04985   0.06500   0.04985   0.00501   0.04235   0.00501   0.04235
 -6.31214   0.00606   0.05016   0.00606   0.05016   0.00795   0.04274   0.00795   0.04274
 -6.26204   0.00793   0.05055   0.00793   0.05055   0.07998   0.04675   0.07998   0.04675
 -6.21195   0.01572   0.05134   0.01572   0.05134   0.06471   0.04999   0.06471   0.04999
 -6.16185   0.03112   0.05290   0.03112   0.05290   0.00558   0.05027   0.00558   0.05027
 -6.11175   0.01107   0.05346   0.01107   0.05346   0.00741   0.05064   0.00741   0.05064
 -6.06166   0.00642   0.05378   0.00642   0.05378   0.00890   0.05109   0.00890   0.05109
 -6.01156  -0.00006   0.05377  -0.00006   0.05377   0.01451   0.05182   0.01451   0.05182
 -5.96146  -0.00098   0.05373  -0.00098   0.05373   0.02103   0.05287   0.02103   0.05287
 -5.91137  -0.00386   0.05353  -0.00386   0.05353   0.01497   0.05362   0.01497   0.05362
 -5.86127  -0.00250   0.05341  -0.00250   0.05341   0.00103   0.05367   0.00103   0.05367
 -5.81118  -0.00134   0.05334  -0.00134   0.05334  -0.00078   0.05363  -0.00078   0.05363
 -5.76108  -0.00170   0.05325  -0.00170   0.05325  -0.00217   0.05352  -0.00217   0.05352
 -5.71098   0.00559   0.05353   0.00559   0.05353  -0.00416   0.05331  -0.00416   0.05331
 -5.66089   0.00287   0.05368   0.00287   0.05368  -0.00020   0.05330  -0.00020   0.05330
 -5.61079   0.00656   0.05401   0.00656   0.05401   0.00056   0.05333   0.00056   0.05333
 -5.56069   0.00982   0.05450   0.00982   0.05450   0.00047   0.05336   0.00047   0.05336
 -5.51060   0.03940   0.05647   0.03940   0.05647   0.00315   0.05351   0.00315   0.05351
 -5.46050   0.01598   0.05727   0.01598   0.05727   0.00380   0.05370   0.00380   0.05370
 -5.41040   0.03204   0.05888   0.03204   0.05888   0.00344   0.05388   0.00344   0.05388
 -5.36031   0.04051   0.06091   0.04051   0.06091   0.00258   0.05401   0.00258   0.05401
 -5.31021   0.00152   0.06098   0.00152   0.06098   0.01707   0.05486   0.01707   0.05486
 -5.26012   0.00461   0.06121   0.00461   0.06121   0.00869   0.05530   0.00869   0.05530
 -5.21002   0.00000   0.06121   0.00000   0.06121   0.01924   0.05626   0.01924   0.05626
 -5.15992   0.00328   0.06138   0.00328   0.06138   0.01524   0.05702   0.01524   0.05702
 -5.10983   0.01194   0.06198   0.01194   0.06198   0.01131   0.05759   0.01131   0.05759
 -5.05973   0.00622   0.06229   0.00622   0.06229   0.01623   0.05840   0.01623   0.05840
 -5.00963  -0.00020   0.06228  -0.00020   0.06228   0.02195   0.05950   0.02195   0.05950
 -4.95954  -0.00430   0.06206  -0.00430   0.06206   0.00722   0.05986   0.00722   0.05986
 -4.90944   0.00355   0.06224   0.00355   0.06224   0.00275   0.06000   0.00275   0.06000
 -4.85934  -0.00501   0.06199  -0.00501   0.06199   0.00250   0.06013   0.00250   0.06013
 -4.80925  -0.00426   0.06178  -0.00426   0.06178   0.00745   0.06050   0.00745   0.06050
 -4.75915  -0.01577   0.06099  -0.01577   0.06099   0.00373   0.06069   0.00373   0.06069
 -4.70906  -0.00793   0.06059  -0.00793   0.06059   0.00191   0.06078   0.00191   0.06078
 -4.65896  -0.00319   0.06043  -0.00319   0.06043   0.00082   0.06082   0.00082   0.06082
 -4.60886  -0.00815   0.06002  -0.00815   0.06002  -0.01542   0.06005  -0.01542   0.06005
 -4.55877  -0.00533   0.05975  -0.00533   0.05975  -0.00658   0.05972  -0.00658   0.05972
 -4.50867  -0.00943   0.05928  -0.00943   0.05928   0.00004   0.05972   0.00004   0.05972
 -4.45857  -0.01579   0.05849  -0.01579   0.05849   0.00016   0.05973   0.00016   0.05973
 -4.40848  -0.02478   0.05725  -0.02478   0.05725  -0.00508   0.05948  -0.00508   0.05948
 -4.35838  -0.02020   0.05624  -0.02020   0.05624  -0.00791   0.05908  -0.00791   0.05908
 -4.30829  -0.02999   0.05473  -0.02999   0.05473  -0.01144   0.05851  -0.01144   0.05851
 -4.25819  -0.03086   0.05319  -0.03086   0.05319  -0.00725   0.05814  -0.00725   0.05814
 -4.20809  -0.00731   0.05282  -0.00731   0.05282  -0.00616   0.05784  -0.00616   0.05784
 -4.15800  -0.01470   0.05209  -0.01470   0.05209  -0.00840   0.05742  -0.00840   0.05742
 -4.10790  -0.01589   0.05129  -0.01589   0.05129  -0.01025   0.05690  -0.01025   0.05690
 -4.05780  -0.00337   0.05112  -0.00337   0.05112  -0.00890   0.05646  -0.00890   0.05646
 -4.00771  -0.01032   0.05060  -0.01032   0.05060  -0.00742   0.05608  -0.00742   0.05608
 -3.95761   0.00287   0.05075   0.00287   0.05075  -0.01118   0.05552  -0.01118   0.05552
 -3.90751   0.01201   0.05135   0.01201   0.05135  -0.05612   0.05271  -0.05612   0.05271
 -3.85742   0.02370   0.05254   0.02370   0.05254  -0.01345   0.05204  -0.01345   0.05204
 -3.80732   0.01597   0.05334   0.01597   0.05334  -0.00400   0.05184  -0.00400   0.05184
 -3.75723   0.02116   0.05440   0.02116   0.05440  -0.04025   0.04982  -0.04025   0.04982
 -3.70713   0.03263   0.05603   0.03263   0.05603  -0.01854   0.04889  -0.01854   0.04889
 -3.65703   0.03057   0.05756   0.03057   0.05756  -0.01300   0.04824  -0.01300   0.04824
 -3.60694   0.03772   0.05945   0.03772   0.05945  -0.01827   0.04733  -0.01827   0.04733
 -3.55684   0.05356   0.06214   0.05356   0.06214   0.00251   0.04745   0.00251   0.04745