  70  70   1   0
  0.2682493E+02  0.1010031E-08  0.1010031E-08  0.2125380E-08  0.5000000E-15
  1.000000000000000E-004
  CAR 
 SQS-NiFe                                
      7.35377456    -21.43831601  301     -0.01086032      1.00000000
    -21.438  0.0000E+00  0.0000E+00  0.0000E+00  0.0000E+00
    -21.342  0.0000E+00  0.0000E+00  0.0000E+00  0.0000E+00
    -21.246  0.0000E+00  0.0000E+00  0.0000E+00  0.0000E+00
    -21.150  0.0000E+00  0.0000E+00  0.0000E+00  0.0000E+00
    -21.054 -0.1032E-28  0.0000E+00 -0.9909E-30  0.0000E+00
    -20.958 -0.1801E-25  0.0000E+00 -0.1730E-26  0.0000E+00
    -20.862 -0.1975E-22  0.0000E+00 -0.1898E-23  0.0000E+00
    -20.767 -0.1360E-19 -0.5012E-29 -0.1308E-20 -0.4811E-30
    -20.671 -0.5878E-17 -0.9134E-26 -0.5655E-18 -0.8771E-27
    -20.575 -0.1545E-14 -0.1046E-22 -0.1489E-15 -0.1005E-23
    -20.479 -0.2601E-12 -0.7526E-20 -0.2511E-13 -0.7233E-21
    -20.383 -0.2732E-10 -0.3397E-17 -0.2648E-11 -0.3268E-18
    -20.287 -0.1784E-08 -0.9320E-15 -0.1738E-09 -0.8978E-16
    -20.191 -0.7193E-07 -0.1642E-12 -0.7077E-08 -0.1585E-13
    -20.095 -0.1776E-05 -0.1803E-10 -0.1776E-06 -0.1746E-11
    -19.999 -0.2645E-04 -0.1231E-08 -0.2716E-05 -0.1199E-09
    -19.903 -0.2303E-03 -0.5195E-07 -0.2482E-04 -0.5105E-08
    -19.807 -0.1090E-02 -0.1344E-05 -0.1295E-03 -0.1341E-06
    -19.711 -0.2133E-02 -0.2100E-04 -0.3342E-03 -0.2150E-05
    -19.615  0.2484E-02 -0.1929E-03 -0.9578E-04 -0.2066E-04
    -19.519  0.1982E-01 -0.9760E-03  0.1807E-02 -0.1143E-03
    -19.423  0.3627E-01 -0.2199E-02  0.5288E-02 -0.3253E-03
    -19.327  0.2858E-01  0.9446E-03  0.8031E-02 -0.2347E-03
    -19.231  0.1977E-01  0.1502E-01  0.9928E-02  0.1207E-02
    -19.135  0.6147E-01  0.3072E-01  0.1583E-01  0.4155E-02
    -19.039  0.1340E+00  0.4082E-01  0.2868E-01  0.8072E-02
    -18.943  0.1463E+00  0.8008E-01  0.4273E-01  0.1576E-01
    -18.847  0.7958E-01  0.1463E+00  0.5037E-01  0.2980E-01
    -18.751  0.1381E-01  0.1492E+00  0.5169E-01  0.4412E-01
    -18.655 -0.6754E-02  0.7225E-01  0.5104E-01  0.5105E-01
    -18.559 -0.4369E-02  0.7206E-02  0.5062E-01  0.5174E-01
    -18.463 -0.1078E-02 -0.8100E-02  0.5052E-01  0.5097E-01
    -18.367 -0.1447E-03 -0.3894E-02  0.5051E-01  0.5059E-01
    -18.271 -0.1147E-04 -0.8059E-03  0.5051E-01  0.5051E-01
    -18.175 -0.5538E-06 -0.9194E-04  0.5051E-01  0.5051E-01
    -18.079 -0.1654E-07 -0.6188E-05  0.5051E-01  0.5051E-01
    -17.983 -0.3077E-09 -0.2529E-06  0.5051E-01  0.5051E-01
    -17.887 -0.3584E-11 -0.6363E-08  0.5051E-01  0.5051E-01
    -17.791 -0.2619E-13 -0.9943E-10  0.5051E-01  0.5051E-01
    -17.695 -0.1168E-15 -0.9695E-12  0.5051E-01  0.5051E-01
    -17.599  0.0000E+00 -0.5923E-14  0.5051E-01  0.5051E-01
    -17.503  0.0000E+00 -0.2337E-16  0.5051E-01  0.5051E-01
    -17.407  0.0000E+00  0.0000E+00  0.5051E-01  0.5051E-01
    -17.311  0.0000E+00  0.0000E+00  0.5051E-01  0.5051E-01
    -17.215  0.0000E+00  0.0000E+00  0.5051E-01  0.5051E-01
    -17.120  0.0000E+00  0.0000E+00  0.5051E-01  0.5051E-01
    -17.024  0.0000E+00  0.0000E+00  0.5051E-01  0.5051E-01
    -16.928  0.0000E+00  0.0000E+00  0.5051E-01  0.5051E-01
    -16.832  0.0000E+00  0.0000E+00  0.5051E-01  0.5051E-01
    -16.736  0.0000E+00  0.0000E+00  0.5051E-01  0.5051E-01
    -16.640  0.0000E+00  0.0000E+00  0.5051E-01  0.5051E-01
    -16.544  0.0000E+00  0.0000E+00  0.5051E-01  0.5051E-01
    -16.448  0.0000E+00  0.0000E+00  0.5051E-01  0.5051E-01
    -16.352  0.0000E+00  0.0000E+00  0.5051E-01  0.5051E-01
    -16.256  0.0000E+00  0.0000E+00  0.5051E-01  0.5051E-01
    -16.160  0.0000E+00  0.0000E+00  0.5051E-01  0.5051E-01
    -16.064  0.0000E+00  0.0000E+00  0.5051E-01  0.5051E-01
    -15.968  0.0000E+00  0.0000E+00  0.5051E-01  0.5051E-01
    -15.872  0.0000E+00  0.0000E+00  0.5051E-01  0.5051E-01
    -15.776  0.0000E+00  0.0000E+00  0.5051E-01  0.5051E-01
    -15.680  0.0000E+00  0.0000E+00  0.5051E-01  0.5051E-01
    -15.584  0.0000E+00  0.0000E+00  0.5051E-01  0.5051E-01
    -15.488  0.0000E+00  0.0000E+00  0.5051E-01  0.5051E-01
    -15.392  0.0000E+00  0.0000E+00  0.5051E-01  0.5051E-01
    -15.296  0.0000E+00  0.0000E+00  0.5051E-01  0.5051E-01
    -15.200  0.0000E+00  0.0000E+00  0.5051E-01  0.5051E-01
    -15.104  0.0000E+00  0.0000E+00  0.5051E-01  0.5051E-01
    -15.008  0.0000E+00  0.0000E+00  0.5051E-01  0.5051E-01
    -14.912  0.0000E+00  0.0000E+00  0.5051E-01  0.5051E-01
    -14.816  0.0000E+00  0.0000E+00  0.5051E-01  0.5051E-01
    -14.720  0.0000E+00  0.0000E+00  0.5051E-01  0.5051E-01
    -14.624  0.0000E+00  0.0000E+00  0.5051E-01  0.5051E-01
    -14.528  0.0000E+00  0.0000E+00  0.5051E-01  0.5051E-01
    -14.432  0.0000E+00  0.0000E+00  0.5051E-01  0.5051E-01
    -14.336  0.0000E+00  0.0000E+00  0.5051E-01  0.5051E-01
    -14.240  0.0000E+00  0.0000E+00  0.5051E-01  0.5051E-01
    -14.144  0.0000E+00  0.0000E+00  0.5051E-01  0.5051E-01
    -14.048  0.0000E+00  0.0000E+00  0.5051E-01  0.5051E-01
    -13.952  0.0000E+00  0.0000E+00  0.5051E-01  0.5051E-01
    -13.856  0.0000E+00  0.0000E+00  0.5051E-01  0.5051E-01
    -13.760  0.0000E+00  0.0000E+00  0.5051E-01  0.5051E-01
    -13.664  0.0000E+00  0.0000E+00  0.5051E-01  0.5051E-01
    -13.568  0.0000E+00  0.0000E+00  0.5051E-01  0.5051E-01
    -13.473  0.0000E+00  0.0000E+00  0.5051E-01  0.5051E-01
    -13.377  0.0000E+00  0.0000E+00  0.5051E-01  0.5051E-01
    -13.281  0.0000E+00  0.0000E+00  0.5051E-01  0.5051E-01
    -13.185  0.0000E+00  0.0000E+00  0.5051E-01  0.5051E-01
    -13.089  0.0000E+00  0.0000E+00  0.5051E-01  0.5051E-01
    -12.993  0.0000E+00  0.0000E+00  0.5051E-01  0.5051E-01
    -12.897  0.0000E+00  0.0000E+00  0.5051E-01  0.5051E-01
    -12.801  0.0000E+00  0.0000E+00  0.5051E-01  0.5051E-01
    -12.705  0.0000E+00  0.0000E+00  0.5051E-01  0.5051E-01
    -12.609  0.0000E+00  0.0000E+00  0.5051E-01  0.5051E-01
    -12.513  0.0000E+00  0.0000E+00  0.5051E-01  0.5051E-01
    -12.417  0.0000E+00  0.0000E+00  0.5051E-01  0.5051E-01
    -12.321  0.0000E+00  0.0000E+00  0.5051E-01  0.5051E-01
    -12.225  0.0000E+00  0.0000E+00  0.5051E-01  0.5051E-01
    -12.129  0.0000E+00  0.0000E+00  0.5051E-01  0.5051E-01
    -12.033  0.0000E+00  0.0000E+00  0.5051E-01  0.5051E-01
    -11.937  0.0000E+00  0.0000E+00  0.5051E-01  0.5051E-01
    -11.841  0.0000E+00  0.0000E+00  0.5051E-01  0.5051E-01
    -11.745  0.0000E+00  0.0000E+00  0.5051E-01  0.5051E-01
    -11.649  0.0000E+00  0.0000E+00  0.5051E-01  0.5051E-01
    -11.553  0.0000E+00  0.0000E+00  0.5051E-01  0.5051E-01
    -11.457  0.0000E+00  0.0000E+00  0.5051E-01  0.5051E-01
    -11.361  0.0000E+00  0.0000E+00  0.5051E-01  0.5051E-01
    -11.265  0.0000E+00  0.0000E+00  0.5051E-01  0.5051E-01
    -11.169  0.0000E+00  0.0000E+00  0.5051E-01  0.5051E-01
    -11.073  0.0000E+00  0.0000E+00  0.5051E-01  0.5051E-01
    -10.977  0.0000E+00  0.0000E+00  0.5051E-01  0.5051E-01
    -10.881  0.0000E+00  0.0000E+00  0.5051E-01  0.5051E-01
    -10.785  0.0000E+00  0.0000E+00  0.5051E-01  0.5051E-01
    -10.689  0.0000E+00  0.0000E+00  0.5051E-01  0.5051E-01
    -10.593  0.0000E+00  0.0000E+00  0.5051E-01  0.5051E-01
    -10.497  0.0000E+00  0.0000E+00  0.5051E-01  0.5051E-01
    -10.401  0.0000E+00  0.0000E+00  0.5051E-01  0.5051E-01
    -10.305  0.0000E+00  0.0000E+00  0.5051E-01  0.5051E-01
    -10.209  0.0000E+00  0.0000E+00  0.5051E-01  0.5051E-01
    -10.113  0.0000E+00  0.0000E+00  0.5051E-01  0.5051E-01
    -10.017 -0.5021E-30 -0.2265E-32  0.5051E-01  0.5051E-01
     -9.921 -0.9207E-27 -0.5704E-29  0.5051E-01  0.5051E-01
     -9.826 -0.1061E-23 -0.9032E-26  0.5051E-01  0.5051E-01
     -9.730 -0.7681E-21 -0.8985E-23  0.5051E-01  0.5051E-01
     -9.634 -0.3489E-18 -0.5612E-20  0.5051E-01  0.5051E-01
     -9.538 -0.9610E-16 -0.2199E-17  0.5051E-01  0.5051E-01
     -9.442 -0.1708E-13 -0.5229E-15  0.5051E-01  0.5051E-01
     -9.346 -0.1888E-11 -0.7979E-13  0.5051E-01  0.5051E-01
     -9.250 -0.1297E-09 -0.7590E-11  0.5051E-01  0.5051E-01
     -9.154 -0.5510E-08 -0.4481E-09  0.5051E-01  0.5051E-01
     -9.058 -0.1436E-06 -0.1633E-07  0.5051E-01  0.5051E-01
     -8.962 -0.2267E-05 -0.3636E-06  0.5050E-01  0.5051E-01
     -8.866 -0.2117E-04 -0.4875E-05  0.5050E-01  0.5050E-01
     -8.770 -0.1119E-03 -0.3824E-04  0.5049E-01  0.5050E-01
     -8.674 -0.3000E-03 -0.1655E-03  0.5046E-01  0.5048E-01
     -8.578 -0.2367E-03 -0.3356E-03  0.5044E-01  0.5045E-01
     -8.482  0.7796E-03 -0.3489E-04  0.5052E-01  0.5045E-01
     -8.386  0.3720E-02  0.1417E-02  0.5087E-01  0.5059E-01
     -8.290  0.1158E-01  0.5402E-02  0.5198E-01  0.5110E-01
     -8.194  0.2362E-01  0.1513E-01  0.5425E-01  0.5256E-01
     -8.098  0.2635E-01  0.2614E-01  0.5678E-01  0.5506E-01
     -8.002  0.1415E-01  0.2382E-01  0.5814E-01  0.5735E-01
     -7.906  0.5014E-02  0.1009E-01  0.5862E-01  0.5832E-01
     -7.810  0.1172E-01  0.5101E-02  0.5974E-01  0.5881E-01
     -7.714  0.2499E-01  0.1462E-01  0.6214E-01  0.6021E-01
     -7.618  0.3300E-01  0.2669E-01  0.6531E-01  0.6277E-01
     -7.522  0.3366E-01  0.3382E-01  0.6854E-01  0.6602E-01
     -7.426  0.3113E-01  0.3338E-01  0.7153E-01  0.6922E-01
     -7.330  0.3440E-01  0.2074E-01  0.7483E-01  0.7121E-01
     -7.234  0.3727E-01  0.5085E-02  0.7841E-01  0.7170E-01
     -7.138  0.2793E-01  0.5318E-02  0.8109E-01  0.7221E-01
     -7.042  0.2864E-01  0.2500E-01  0.8383E-01  0.7461E-01
     -6.946  0.5633E-01  0.5161E-01  0.8924E-01  0.7956E-01
     -6.850  0.7616E-01  0.7445E-01  0.9655E-01  0.8671E-01
     -6.754  0.6039E-01  0.8245E-01  0.1023E+00  0.9462E-01
     -6.658  0.3859E-01  0.6533E-01  0.1060E+00  0.1009E+00
     -6.562  0.4210E-01  0.4001E-01  0.1101E+00  0.1047E+00
     -6.466  0.5604E-01  0.3447E-01  0.1155E+00  0.1080E+00
     -6.370  0.5606E-01  0.4644E-01  0.1208E+00  0.1125E+00
     -6.274  0.5109E-01  0.5209E-01  0.1258E+00  0.1175E+00
     -6.179  0.5751E-01  0.4133E-01  0.1313E+00  0.1215E+00
     -6.083  0.6776E-01  0.3188E-01  0.1378E+00  0.1245E+00
     -5.987  0.8480E-01  0.4642E-01  0.1459E+00  0.1290E+00
     -5.891  0.1261E+00  0.7264E-01  0.1580E+00  0.1359E+00
     -5.795  0.1788E+00  0.8252E-01  0.1752E+00  0.1439E+00
     -5.699  0.2171E+00  0.7756E-01  0.1960E+00  0.1513E+00
     -5.603  0.2324E+00  0.7123E-01  0.2183E+00  0.1581E+00
     -5.507  0.2178E+00  0.8258E-01  0.2392E+00  0.1661E+00
     -5.411  0.1742E+00  0.1386E+00  0.2559E+00  0.1794E+00
     -5.315  0.1255E+00  0.2232E+00  0.2680E+00  0.2008E+00
     -5.219  0.1015E+00  0.2679E+00  0.2777E+00  0.2265E+00
     -5.123  0.1118E+00  0.2307E+00  0.2885E+00  0.2486E+00
     -5.027  0.1491E+00  0.1500E+00  0.3028E+00  0.2630E+00
     -4.931  0.2088E+00  0.9212E-01  0.3228E+00  0.2719E+00
     -4.835  0.2745E+00  0.8078E-01  0.3491E+00  0.2796E+00
     -4.739  0.3160E+00  0.1032E+00  0.3795E+00  0.2895E+00
     -4.643  0.3163E+00  0.1419E+00  0.4098E+00  0.3032E+00
     -4.547  0.2997E+00  0.1708E+00  0.4386E+00  0.3196E+00
     -4.451  0.3137E+00  0.1780E+00  0.4687E+00  0.3366E+00
     -4.355  0.3615E+00  0.1795E+00  0.5034E+00  0.3539E+00
     -4.259  0.4284E+00  0.1885E+00  0.5445E+00  0.3720E+00
     -4.163  0.5187E+00  0.2093E+00  0.5943E+00  0.3920E+00
     -4.067  0.5993E+00  0.2218E+00  0.6518E+00  0.4133E+00
     -3.971  0.6179E+00  0.2134E+00  0.7111E+00  0.4338E+00
     -3.875  0.5814E+00  0.2261E+00  0.7669E+00  0.4555E+00
     -3.779  0.5525E+00  0.2739E+00  0.8199E+00  0.4818E+00
     -3.683  0.5536E+00  0.2977E+00  0.8731E+00  0.5104E+00
     -3.587  0.5513E+00  0.2807E+00  0.9260E+00  0.5373E+00
     -3.491  0.5408E+00  0.2847E+00  0.9779E+00  0.5646E+00
     -3.395  0.5439E+00  0.3377E+00  0.1030E+01  0.5971E+00
     -3.299  0.5655E+00  0.4076E+00  0.1084E+01  0.6362E+00
     -3.203  0.5922E+00  0.4634E+00  0.1141E+01  0.6806E+00
     -3.107  0.6032E+00  0.4889E+00  0.1199E+01  0.7276E+00
     -3.011  0.6022E+00  0.4847E+00  0.1257E+01  0.7741E+00
     -2.915  0.6211E+00  0.4679E+00  0.1316E+01  0.8190E+00
     -2.819  0.6726E+00  0.4565E+00  0.1381E+01  0.8628E+00
     -2.723  0.7456E+00  0.4617E+00  0.1453E+01  0.9071E+00
     -2.627  0.8299E+00  0.4748E+00  0.1532E+01  0.9527E+00
     -2.532  0.9089E+00  0.4878E+00  0.1619E+01  0.9995E+00
     -2.436  0.9614E+00  0.5178E+00  0.1712E+01  0.1049E+01
     -2.340  0.9772E+00  0.5585E+00  0.1806E+01  0.1103E+01
     -2.244  0.9619E+00  0.5774E+00  0.1898E+01  0.1158E+01
     -2.148  0.9264E+00  0.5711E+00  0.1987E+01  0.1213E+01
     -2.052  0.8757E+00  0.5607E+00  0.2071E+01  0.1267E+01
     -1.956  0.8179E+00  0.5590E+00  0.2149E+01  0.1320E+01
     -1.860  0.7746E+00  0.5724E+00  0.2224E+01  0.1375E+01
     -1.764  0.7692E+00  0.6140E+00  0.2297E+01  0.1434E+01
     -1.668  0.7971E+00  0.6814E+00  0.2374E+01  0.1500E+01
     -1.572  0.8307E+00  0.7423E+00  0.2454E+01  0.1571E+01
     -1.476  0.8561E+00  0.7769E+00  0.2536E+01  0.1646E+01
     -1.380  0.8817E+00  0.8009E+00  0.2620E+01  0.1722E+01
     -1.284  0.9102E+00  0.8307E+00  0.2708E+01  0.1802E+01
     -1.188  0.9284E+00  0.8487E+00  0.2797E+01  0.1884E+01
     -1.092  0.9315E+00  0.8274E+00  0.2886E+01  0.1963E+01
     -0.996  0.9332E+00  0.7731E+00  0.2976E+01  0.2037E+01
     -0.900  0.9413E+00  0.7215E+00  0.3066E+01  0.2106E+01
     -0.804  0.9337E+00  0.6907E+00  0.3156E+01  0.2173E+01
     -0.708  0.8615E+00  0.6682E+00  0.3239E+01  0.2237E+01
     -0.612  0.7033E+00  0.6419E+00  0.3306E+01  0.2298E+01
     -0.516  0.5193E+00  0.6119E+00  0.3356E+01  0.2357E+01
     -0.420  0.3970E+00  0.5870E+00  0.3394E+01  0.2414E+01
     -0.324  0.3446E+00  0.5785E+00  0.3427E+01  0.2469E+01
     -0.228  0.3038E+00  0.5845E+00  0.3456E+01  0.2525E+01
     -0.132  0.2410E+00  0.5881E+00  0.3479E+01  0.2582E+01
     -0.036  0.1793E+00  0.5750E+00  0.3497E+01  0.2637E+01
      0.060  0.1604E+00  0.5580E+00  0.3512E+01  0.2690E+01
      0.156  0.1859E+00  0.5574E+00  0.3530E+01  0.2744E+01
      0.252  0.2096E+00  0.5617E+00  0.3550E+01  0.2798E+01
      0.348  0.1988E+00  0.5478E+00  0.3569E+01  0.2850E+01
      0.444  0.1777E+00  0.5225E+00  0.3586E+01  0.2900E+01
      0.540  0.1908E+00  0.5142E+00  0.3604E+01  0.2950E+01
      0.636  0.2261E+00  0.5333E+00  0.3626E+01  0.3001E+01
      0.732  0.2271E+00  0.5624E+00  0.3648E+01  0.3055E+01
      0.828  0.1890E+00  0.5847E+00  0.3666E+01  0.3111E+01
      0.924  0.1580E+00  0.6078E+00  0.3681E+01  0.3169E+01
      1.020  0.1500E+00  0.6397E+00  0.3696E+01  0.3231E+01
      1.115  0.1481E+00  0.6647E+00  0.3710E+01  0.3295E+01
      1.211  0.1453E+00  0.6710E+00  0.3724E+01  0.3359E+01
      1.307  0.1390E+00  0.6588E+00  0.3737E+01  0.3422E+01
      1.403  0.1248E+00  0.6205E+00  0.3749E+01  0.3482E+01
      1.499  0.1035E+00  0.5554E+00  0.3759E+01  0.3535E+01
      1.595  0.8584E-01  0.4806E+00  0.3767E+01  0.3581E+01
      1.691  0.8167E-01  0.4058E+00  0.3775E+01  0.3620E+01
      1.787  0.9042E-01  0.3274E+00  0.3784E+01  0.3652E+01
      1.883  0.1066E+00  0.2492E+00  0.3794E+01  0.3675E+01
      1.979  0.1189E+00  0.1861E+00  0.3805E+01  0.3693E+01
      2.075  0.1196E+00  0.1541E+00  0.3817E+01  0.3708E+01
      2.171  0.1178E+00  0.1488E+00  0.3828E+01  0.3722E+01
      2.267  0.1223E+00  0.1425E+00  0.3840E+01  0.3736E+01
      2.363  0.1190E+00  0.1250E+00  0.3851E+01  0.3748E+01
      2.459  0.9724E-01  0.1147E+00  0.3861E+01  0.3759E+01
      2.555  0.7576E-01  0.1225E+00  0.3868E+01  0.3771E+01
      2.651  0.7420E-01  0.1411E+00  0.3875E+01  0.3784E+01
      2.747  0.9089E-01  0.1566E+00  0.3884E+01  0.3799E+01
      2.843  0.1069E+00  0.1563E+00  0.3894E+01  0.3814E+01
      2.939  0.1070E+00  0.1425E+00  0.3904E+01  0.3828E+01
      3.035  0.9548E-01  0.1354E+00  0.3913E+01  0.3841E+01
      3.131  0.8783E-01  0.1380E+00  0.3922E+01  0.3854E+01
      3.227  0.9225E-01  0.1281E+00  0.3931E+01  0.3867E+01
      3.323  0.1016E+00  0.1067E+00  0.3940E+01  0.3877E+01
      3.419  0.1008E+00  0.8920E-01  0.3950E+01  0.3885E+01
      3.515  0.8741E-01  0.6899E-01  0.3959E+01  0.3892E+01
      3.611  0.7963E-01  0.5606E-01  0.3966E+01  0.3897E+01
      3.707  0.8942E-01  0.7411E-01  0.3975E+01  0.3905E+01
      3.803  0.1064E+00  0.1076E+00  0.3985E+01  0.3915E+01
      3.899  0.1102E+00  0.1316E+00  0.3996E+01  0.3927E+01
      3.995  0.9403E-01  0.1413E+00  0.4005E+01  0.3941E+01
      4.091  0.7312E-01  0.1284E+00  0.4012E+01  0.3953E+01
      4.187  0.6784E-01  0.1007E+00  0.4018E+01  0.3963E+01
      4.283  0.7395E-01  0.8890E-01  0.4025E+01  0.3972E+01
      4.379  0.7257E-01  0.9837E-01  0.4032E+01  0.3981E+01
      4.475  0.6361E-01  0.1059E+00  0.4038E+01  0.3991E+01
      4.571  0.5640E-01  0.1024E+00  0.4044E+01  0.4001E+01
      4.667  0.5315E-01  0.9471E-01  0.4049E+01  0.4010E+01
      4.762  0.5253E-01  0.9316E-01  0.4054E+01  0.4019E+01
      4.858  0.4503E-01  0.9785E-01  0.4058E+01  0.4028E+01
      4.954  0.2460E-01  0.9878E-01  0.4060E+01  0.4038E+01
      5.050  0.5192E-02  0.8980E-01  0.4061E+01  0.4047E+01
      5.146 -0.1822E-02  0.6850E-01  0.4061E+01  0.4053E+01
      5.242 -0.1476E-02  0.4246E-01  0.4061E+01  0.4057E+01
      5.338 -0.4185E-03  0.2311E-01  0.4061E+01  0.4059E+01
      5.434 -0.6474E-04  0.1115E-01  0.4061E+01  0.4060E+01
      5.530 -0.5979E-05  0.3196E-02  0.4061E+01  0.4061E+01
      5.626 -0.3401E-06 -0.5005E-03  0.4061E+01  0.4061E+01
      5.722 -0.1206E-07 -0.8198E-03  0.4061E+01  0.4061E+01
      5.818 -0.2680E-09 -0.3057E-03  0.4061E+01  0.4061E+01
      5.914 -0.3738E-11 -0.5816E-04  0.4061E+01  0.4061E+01
      6.010 -0.3274E-13 -0.6355E-05  0.4061E+01  0.4061E+01
      6.106 -0.1818E-15 -0.4155E-06  0.4061E+01  0.4061E+01
      6.202  0.0000E+00 -0.1657E-07  0.4061E+01  0.4061E+01
      6.298  0.0000E+00 -0.4073E-09  0.4061E+01  0.4061E+01
      6.394  0.0000E+00 -0.6209E-11  0.4061E+01  0.4061E+01
      6.490  0.0000E+00 -0.5894E-13  0.4061E+01  0.4061E+01
      6.586  0.0000E+00 -0.3479E-15  0.4061E+01  0.4061E+01
      6.682  0.0000E+00  0.0000E+00  0.4061E+01  0.4061E+01
      6.778  0.0000E+00  0.0000E+00  0.4061E+01  0.4061E+01
      6.874  0.0000E+00  0.0000E+00  0.4061E+01  0.4061E+01
      6.970  0.0000E+00  0.0000E+00  0.4061E+01  0.4061E+01
      7.066  0.0000E+00  0.0000E+00  0.4061E+01  0.4061E+01
      7.162  0.0000E+00  0.0000E+00  0.4061E+01  0.4061E+01
      7.258  0.0000E+00  0.0000E+00  0.4061E+01  0.4061E+01
      7.354  0.0000E+00  0.0000E+00  0.4061E+01  0.4061E+01
      7.35377456    -21.43831601  301     -0.01086032      1.00000000
    -21.438  0.0000E+00  0.0000E+00  0.0000E+00  0.0000E+00  0.0000E+00  0.0000E+00
    -21.342  0.0000E+00  0.0000E+00  0.0000E+00  0.0000E+00  0.0000E+00  0.0000E+00
    -21.246  0.0000E+00  0.0000E+00  0.0000E+00  0.0000E+00  0.0000E+00  0.0000E+00
    -21.150  0.0000E+00  0.0000E+00  0.0000E+00  0.0000E+00  0.0000E+00  0.0000E+00
    -21.054 -0.8140E-35  0.0000E+00 -0.5968E-35  0.0000E+00 -0.1439E-35  0.0000E+00
    -20.958 -0.1420E-31  0.0000E+00 -0.1041E-31  0.0000E+00 -0.2510E-32  0.0000E+00
    -20.862 -0.1558E-28  0.0000E+00 -0.1142E-28  0.0000E+00 -0.2753E-29  0.0000E+00
    -20.767 -0.1073E-25 -0.6944E-35 -0.7864E-26 -0.4837E-35 -0.1896E-26 -0.1099E-35
    -20.671 -0.4635E-23 -0.1265E-31 -0.3398E-23 -0.8814E-32 -0.8192E-24 -0.2003E-32
    -20.575 -0.1218E-20 -0.1449E-28 -0.8933E-21 -0.1010E-28 -0.2154E-21 -0.2295E-29
    -20.479 -0.2050E-18 -0.1043E-25 -0.1503E-18 -0.7262E-26 -0.3624E-19 -0.1651E-26
    -20.383 -0.2154E-16 -0.4706E-23 -0.1579E-16 -0.3278E-23 -0.3808E-17 -0.7450E-24
    -20.287 -0.1406E-14 -0.1291E-20 -0.1031E-14 -0.8993E-21 -0.2486E-15 -0.2044E-21
    -20.191 -0.5671E-13 -0.2274E-18 -0.4158E-13 -0.1584E-18 -0.1002E-13 -0.3601E-19
    -20.095 -0.1400E-11 -0.2498E-16 -0.1027E-11 -0.1740E-16 -0.2475E-12 -0.3955E-17
    -19.999 -0.2085E-10 -0.1705E-14 -0.1529E-10 -0.1188E-14 -0.3686E-11 -0.2699E-15
    -19.903 -0.1816E-09 -0.7194E-13 -0.1331E-09 -0.5012E-13 -0.3210E-10 -0.1139E-13
    -19.807 -0.8600E-09 -0.1861E-11 -0.6305E-09 -0.1297E-11 -0.1520E-09 -0.2947E-12
    -19.711 -0.1688E-08 -0.2909E-10 -0.1237E-08 -0.2026E-10 -0.2981E-09 -0.4606E-11
    -19.615  0.1885E-08 -0.2670E-09  0.1394E-08 -0.1860E-09  0.3375E-09 -0.4229E-10
    -19.519  0.1520E-07 -0.1349E-08  0.1123E-07 -0.9400E-09  0.2717E-08 -0.2137E-09
    -19.423  0.2766E-07 -0.3006E-08  0.2059E-07 -0.2092E-08  0.4995E-08 -0.4764E-09
    -19.327  0.2454E-07  0.1711E-08  0.1828E-07  0.1211E-08  0.4434E-08  0.2690E-09
    -19.231  0.2880E-07  0.2317E-07  0.1960E-07  0.1624E-07  0.4569E-08  0.3664E-08
    -19.135  0.6513E-07  0.4924E-07  0.4218E-07  0.3451E-07  0.9619E-08  0.7801E-08
    -19.039  0.9004E-07  0.5750E-07  0.5806E-07  0.3992E-07  0.1325E-07  0.9162E-08
    -18.943  0.6088E-07  0.6590E-07  0.3917E-07  0.4415E-07  0.8960E-08  0.1054E-07
    -18.847  0.1558E-07  0.8360E-07  0.9927E-08  0.5436E-07  0.2284E-08  0.1325E-07
    -18.751 -0.3364E-08  0.7069E-07 -0.2220E-08  0.4527E-07 -0.5025E-09  0.1102E-07
    -18.655 -0.3306E-08  0.2820E-07 -0.2132E-08  0.1772E-07 -0.4879E-09  0.4276E-08
    -18.559 -0.9431E-09  0.2826E-09 -0.6024E-09 -0.4256E-11 -0.1385E-09 -0.1902E-10
    -18.463 -0.1441E-09 -0.4033E-08 -0.9113E-10 -0.2600E-08 -0.2102E-10 -0.6318E-09
    -18.367 -0.1331E-10 -0.1579E-08 -0.8320E-11 -0.9967E-09 -0.1927E-11 -0.2398E-09
    -18.271 -0.7810E-12 -0.2936E-09 -0.4825E-12 -0.1828E-09 -0.1121E-12 -0.4366E-10
    -18.175 -0.2983E-13 -0.3101E-10 -0.1822E-13 -0.1908E-10 -0.4248E-14 -0.4525E-11
    -18.079 -0.7477E-15 -0.1968E-11 -0.4523E-15 -0.1198E-11 -0.1057E-15 -0.2820E-12
    -17.983 -0.1227E-16 -0.7686E-13 -0.7368E-17 -0.4630E-13 -0.1724E-17 -0.1082E-13
    -17.887 -0.1309E-18 -0.1870E-14 -0.7824E-19 -0.1116E-14 -0.1831E-19 -0.2591E-15
    -17.791 -0.8945E-21 -0.2850E-16 -0.5331E-21 -0.1687E-16 -0.1248E-21 -0.3892E-17
    -17.695 -0.3419E-23 -0.2733E-18 -0.2034E-23 -0.1606E-18 -0.4748E-24 -0.3682E-19
    -17.599  0.0000E+00 -0.1660E-20  0.0000E+00 -0.9705E-21  0.0000E+00 -0.2214E-21
    -17.503  0.0000E+00 -0.7596E-23  0.0000E+00 -0.4239E-23  0.0000E+00 -0.9082E-24
    -17.407  0.0000E+00  0.0000E+00  0.0000E+00  0.0000E+00  0.0000E+00  0.0000E+00
    -17.311  0.0000E+00  0.0000E+00  0.0000E+00  0.0000E+00  0.0000E+00  0.0000E+00
    -17.215  0.0000E+00  0.0000E+00  0.0000E+00  0.0000E+00  0.0000E+00  0.0000E+00
    -17.120  0.0000E+00  0.0000E+00  0.0000E+00  0.0000E+00  0.0000E+00  0.0000E+00
    -17.024  0.0000E+00  0.0000E+00  0.0000E+00  0.0000E+00  0.0000E+00  0.0000E+00
    -16.928  0.0000E+00  0.0000E+00  0.0000E+00  0.0000E+00  0.0000E+00  0.0000E+00
    -16.832  0.0000E+00  0.0000E+00  0.0000E+00  0.0000E+00  0.0000E+00  0.0000E+00
    -16.736  0.0000E+00  0.0000E+00  0.0000E+00  0.0000E+00  0.0000E+00  0.0000E+00
    -16.640  0.0000E+00  0.0000E+00  0.0000E+00  0.0000E+00  0.0000E+00  0.0000E+00
    -16.544  0.0000E+00  0.0000E+00  0.0000E+00  0.0000E+00  0.0000E+00  0.0000E+00
    -16.448  0.0000E+00  0.0000E+00  0.0000E+00  0.0000E+00  0.0000E+00  0.0000E+00
    -16.352  0.0000E+00  0.0000E+00  0.0000E+00  0.0000E+00  0.0000E+00  0.0000E+00
    -16.256  0.0000E+00  0.0000E+00  0.0000E+00  0.0000E+00  0.0000E+00  0.0000E+00
    -16.160  0.0000E+00  0.0000E+00  0.0000E+00  0.0000E+00  0.0000E+00  0.0000E+00
    -16.064  0.0000E+00  0.0000E+00  0.0000E+00  0.0000E+00  0.0000E+00  0.0000E+00
    -15.968  0.0000E+00  0.0000E+00  0.0000E+00  0.0000E+00  0.0000E+00  0.0000E+00
    -15.872  0.0000E+00  0.0000E+00  0.0000E+00  0.0000E+00  0.0000E+00  0.0000E+00
    -15.776  0.0000E+00  0.0000E+00  0.0000E+00  0.0000E+00  0.0000E+00  0.0000E+00
    -15.680  0.0000E+00  0.0000E+00  0.0000E+00  0.0000E+00  0.0000E+00  0.0000E+00
    -15.584  0.0000E+00  0.0000E+00  0.0000E+00  0.0000E+00  0.0000E+00  0.0000E+00
    -15.488  0.0000E+00  0.0000E+00  0.0000E+00  0.0000E+00  0.0000E+00  0.0000E+00
    -15.392  0.0000E+00  0.0000E+00  0.0000E+00  0.0000E+00  0.0000E+00  0.0000E+00
    -15.296  0.0000E+00  0.0000E+00  0.0000E+00  0.0000E+00  0.0000E+00  0.0000E+00
    -15.200  0.0000E+00  0.0000E+00  0.0000E+00  0.0000E+00  0.0000E+00  0.0000E+00
    -15.104  0.0000E+00  0.0000E+00  0.0000E+00  0.0000E+00  0.0000E+00  0.0000E+00
    -15.008  0.0000E+00  0.0000E+00  0.0000E+00  0.0000E+00  0.0000E+00  0.0000E+00
    -14.912  0.0000E+00  0.0000E+00  0.0000E+00  0.0000E+00  0.0000E+00  0.0000E+00
    -14.816  0.0000E+00  0.0000E+00  0.0000E+00  0.0000E+00  0.0000E+00  0.0000E+00
    -14.720  0.0000E+00  0.0000E+00  0.0000E+00  0.0000E+00  0.0000E+00  0.0000E+00
    -14.624  0.0000E+00  0.0000E+00  0.0000E+00  0.0000E+00  0.0000E+00  0.0000E+00
    -14.528  0.0000E+00  0.0000E+00  0.0000E+00  0.0000E+00  0.0000E+00  0.0000E+00
    -14.432  0.0000E+00  0.0000E+00  0.0000E+00  0.0000E+00  0.0000E+00  0.0000E+00
    -14.336  0.0000E+00  0.0000E+00  0.0000E+00  0.0000E+00  0.0000E+00  0.0000E+00
    -14.240  0.0000E+00  0.0000E+00  0.0000E+00  0.0000E+00  0.0000E+00  0.0000E+00
    -14.144  0.0000E+00  0.0000E+00  0.0000E+00  0.0000E+00  0.0000E+00  0.0000E+00
    -14.048  0.0000E+00  0.0000E+00  0.0000E+00  0.0000E+00  0.0000E+00  0.0000E+00
    -13.952  0.0000E+00  0.0000E+00  0.0000E+00  0.0000E+00  0.0000E+00  0.0000E+00
    -13.856  0.0000E+00  0.0000E+00  0.0000E+00  0.0000E+00  0.0000E+00  0.0000E+00
    -13.760  0.0000E+00  0.0000E+00  0.0000E+00  0.0000E+00  0.0000E+00  0.0000E+00
    -13.664  0.0000E+00  0.0000E+00  0.0000E+00  0.0000E+00  0.0000E+00  0.0000E+00
    -13.568  0.0000E+00  0.0000E+00  0.0000E+00  0.0000E+00  0.0000E+00  0.0000E+00
    -13.473  0.0000E+00  0.0000E+00  0.0000E+00  0.0000E+00  0.0000E+00  0.0000E+00
    -13.377  0.0000E+00  0.0000E+00  0.0000E+00  0.0000E+00  0.0000E+00  0.0000E+00
    -13.281  0.0000E+00  0.0000E+00  0.0000E+00  0.0000E+00  0.0000E+00  0.0000E+00
    -13.185  0.0000E+00  0.0000E+00  0.0000E+00  0.0000E+00  0.0000E+00  0.0000E+00
    -13.089  0.0000E+00  0.0000E+00  0.0000E+00  0.0000E+00  0.0000E+00  0.0000E+00
    -12.993  0.0000E+00  0.0000E+00  0.0000E+00  0.0000E+00  0.0000E+00  0.0000E+00
    -12.897  0.0000E+00  0.0000E+00  0.0000E+00  0.0000E+00  0.0000E+00  0.0000E+00
    -12.801  0.0000E+00  0.0000E+00  0.0000E+00  0.0000E+00  0.0000E+00  0.0000E+00
    -12.705  0.0000E+00  0.0000E+00  0.0000E+00  0.0000E+00  0.0000E+00  0.0000E+00
    -12.609  0.0000E+00  0.0000E+00  0.0000E+00  0.0000E+00  0.0000E+00  0.0000E+00
    -12.513  0.0000E+00  0.0000E+00  0.0000E+00  0.0000E+00  0.0000E+00  0.0000E+00
    -12.417  0.0000E+00  0.0000E+00  0.0000E+00  0.0000E+00  0.0000E+00  0.0000E+00
    -12.321  0.0000E+00  0.0000E+00  0.0000E+00  0.0000E+00  0.0000E+00  0.0000E+00
    -12.225  0.0000E+00  0.0000E+00  0.0000E+00  0.0000E+00  0.0000E+00  0.0000E+00
    -12.129  0.0000E+00  0.0000E+00  0.0000E+00  0.0000E+00  0.0000E+00  0.0000E+00
    -12.033  0.0000E+00  0.0000E+00  0.0000E+00  0.0000E+00  0.0000E+00  0.0000E+00
    -11.937  0.0000E+00  0.0000E+00  0.0000E+00  0.0000E+00  0.0000E+00  0.0000E+00
    -11.841  0.0000E+00  0.0000E+00  0.0000E+00  0.0000E+00  0.0000E+00  0.0000E+00
    -11.745  0.0000E+00  0.0000E+00  0.0000E+00  0.0000E+00  0.0000E+00  0.0000E+00
    -11.649  0.0000E+00  0.0000E+00  0.0000E+00  0.0000E+00  0.0000E+00  0.0000E+00
    -11.553  0.0000E+00  0.0000E+00  0.0000E+00  0.0000E+00  0.0000E+00  0.0000E+00
    -11.457  0.0000E+00  0.0000E+00  0.0000E+00  0.0000E+00  0.0000E+00  0.0000E+00
    -11.361  0.0000E+00  0.0000E+00  0.0000E+00  0.0000E+00  0.0000E+00  0.0000E+00
    -11.265  0.0000E+00  0.0000E+00  0.0000E+00  0.0000E+00  0.0000E+00  0.0000E+00
    -11.169  0.0000E+00  0.0000E+00  0.0000E+00  0.0000E+00  0.0000E+00  0.0000E+00
    -11.073  0.0000E+00  0.0000E+00  0.0000E+00  0.0000E+00  0.0000E+00  0.0000E+00
    -10.977  0.0000E+00  0.0000E+00  0.0000E+00  0.0000E+00  0.0000E+00  0.0000E+00
    -10.881  0.0000E+00  0.0000E+00  0.0000E+00  0.0000E+00  0.0000E+00  0.0000E+00
    -10.785  0.0000E+00  0.0000E+00  0.0000E+00  0.0000E+00  0.0000E+00  0.0000E+00
    -10.689  0.0000E+00  0.0000E+00  0.0000E+00  0.0000E+00  0.0000E+00  0.0000E+00
    -10.593  0.0000E+00  0.0000E+00  0.0000E+00  0.0000E+00  0.0000E+00  0.0000E+00
    -10.497  0.0000E+00  0.0000E+00  0.0000E+00  0.0000E+00  0.0000E+00  0.0000E+00
    -10.401  0.0000E+00  0.0000E+00  0.0000E+00  0.0000E+00  0.0000E+00  0.0000E+00
    -10.305  0.0000E+00  0.0000E+00  0.0000E+00  0.0000E+00  0.0000E+00  0.0000E+00
    -10.209  0.0000E+00  0.0000E+00  0.0000E+00  0.0000E+00  0.0000E+00  0.0000E+00
    -10.113  0.0000E+00  0.0000E+00  0.0000E+00  0.0000E+00  0.0000E+00  0.0000E+00
    -10.017 -0.8473E-30 -0.4033E-32 -0.6057E-32 -0.2704E-34 -0.2116E-32 -0.9161E-35
     -9.921 -0.1554E-26 -0.1016E-28 -0.1111E-28 -0.6809E-31 -0.3880E-29 -0.2307E-31
     -9.826 -0.1791E-23 -0.1608E-25 -0.1280E-25 -0.1078E-27 -0.4473E-26 -0.3653E-28
     -9.730 -0.1296E-20 -0.1600E-22 -0.9266E-23 -0.1072E-24 -0.3238E-23 -0.3634E-25
     -9.634 -0.5888E-18 -0.9991E-20 -0.4209E-20 -0.6698E-22 -0.1471E-20 -0.2269E-22
     -9.538 -0.1622E-15 -0.3914E-17 -0.1159E-17 -0.2624E-19 -0.4050E-18 -0.8891E-20
     -9.442 -0.2882E-13 -0.9310E-15 -0.2060E-15 -0.6242E-17 -0.7197E-16 -0.2115E-17
     -9.346 -0.3185E-11 -0.1421E-12 -0.2277E-13 -0.9525E-15 -0.7955E-14 -0.3227E-15
     -9.250 -0.2189E-09 -0.1351E-10 -0.1565E-11 -0.9061E-13 -0.5466E-12 -0.3069E-13
     -9.154 -0.9299E-08 -0.7978E-09 -0.6656E-10 -0.5352E-11 -0.2322E-10 -0.1812E-11
     -9.058 -0.2424E-06 -0.2907E-07 -0.1740E-08 -0.1953E-09 -0.6053E-09 -0.6602E-10
     -8.962 -0.3825E-05 -0.6474E-06 -0.2773E-07 -0.4367E-08 -0.9552E-08 -0.1470E-08
     -8.866 -0.3571E-04 -0.8678E-05 -0.2671E-06 -0.5933E-07 -0.8916E-07 -0.1971E-07
     -8.770 -0.1885E-03 -0.6804E-04 -0.1567E-05 -0.4866E-06 -0.4701E-06 -0.1545E-06
     -8.674 -0.5021E-03 -0.2941E-03 -0.6012E-05 -0.2457E-05 -0.1247E-05 -0.6664E-06
     -8.578 -0.3732E-03 -0.5913E-03 -0.1782E-04 -0.8520E-05 -0.8891E-06 -0.1328E-05
     -8.482  0.1396E-02 -0.3015E-04 -0.3657E-04 -0.2377E-04  0.3619E-05  0.8849E-08
     -8.386  0.6314E-02  0.2596E-02  0.2419E-04 -0.3654E-04  0.1581E-04  0.6074E-05
     -8.290  0.1907E-01  0.9577E-02  0.4152E-03  0.9564E-04  0.4664E-04  0.2163E-04