 vasp.5.4.4.18Apr17-6-g9f103f2a35 (build Dec 15 2018 21:27:11) complex          
  
 executed on             LinuxIFC date 2022.03.01  22:29:13
 running on   72 total cores
 distrk:  each k-point on   72 cores,    1 groups
 distr:  one band on NCORES_PER_BAND=  24 cores,    3 groups


--------------------------------------------------------------------------------------------------------


 INCAR:
 POTCAR:    PAW_PBE Ni 02Aug2007                  
 POTCAR:    PAW_PBE Fe 06Sep2000                  
 POTCAR:    PAW_PBE O 08Apr2002                   
 POTCAR:    PAW_PBE H 15Jun2001                   

 ----------------------------------------------------------------------------- 
|                                                                             |
|           W    W    AA    RRRRR   N    N  II  N    N   GGGG   !!!           |
|           W    W   A  A   R    R  NN   N  II  NN   N  G    G  !!!           |
|           W    W  A    A  R    R  N N  N  II  N N  N  G       !!!           |
|           W WW W  AAAAAA  RRRRR   N  N N  II  N  N N  G  GGG   !            |
|           WW  WW  A    A  R   R   N   NN  II  N   NN  G    G                |
|           W    W  A    A  R    R  N    N  II  N    N   GGGG   !!!           |
|                                                                             |
|      For optimal performance we recommend to set                            |
|        NCORE= 4 - approx SQRT( number of cores)                             |
|      NCORE specifies how many cores store one orbital (NPAR=cpu/NCORE).     |
|      This setting can  greatly improve the performance of VASP for DFT.     |
|      The default,   NCORE=1            might be grossly inefficient         |
|      on modern multi-core architectures or massively parallel machines.     |
|      Do your own testing !!!!                                               |
|      Unfortunately you need to use the default for GW and RPA calculations. |
|      (for HF NCORE is supported but not extensively tested yet)             |
|                                                                             |
 ----------------------------------------------------------------------------- 

 POTCAR:    PAW_PBE Ni 02Aug2007                  
   VRHFIN =Ni:                                                                  
   LEXCH  = PE                                                                  
   EATOM  =  1077.6739 eV,   79.2068 Ry                                         
                                                                                
   TITEL  = PAW_PBE Ni 02Aug2007                                                
   LULTRA =        F    use ultrasoft PP ?                                      
   IUNSCR =        1    unscreen: 0-lin 1-nonlin 2-no                           
   RPACOR =    2.000    partial core radius                                     
   POMASS =   58.690; ZVAL   =   10.000    mass and valenz                      
   RCORE  =    2.300    outmost cutoff radius                                   
   RWIGS  =    2.430; RWIGS  =    1.286    wigner-seitz radius (au A)           
   ENMAX  =  269.532; ENMIN  =  202.149 eV                                      
   RCLOC  =    1.201    cutoff for local pot                                    
   LCOR   =        T    correct aug charges                                     
   LPAW   =        T    paw PP                                                  
   EAUG   =  544.565                                                            
   DEXC   =    0.000                                                            
   RMAX   =    2.357    core radius for proj-oper                               
   RAUG   =    1.300    factor for augmentation sphere                          
   RDEP   =    2.390    radius for radial grids                                 
   RDEPT  =    1.838    core radius for aug-charge                              
                                                                                
   Atomic configuration                                                         
    9 entries                                                                   
     n  l   j            E        occ.                                          
     1  0  0.50     -8206.4253   2.0000                                         
     2  0  0.50      -976.1748   2.0000                                         
     2  1  1.50      -839.0571   6.0000                                         
     3  0  0.50      -105.9991   2.0000                                         
     3  1  1.50       -66.4603   6.0000                                         
     3  2  2.50        -4.6458   9.0000                                         
     4  0  0.50        -4.4926   1.0000                                         
     4  1  1.50        -4.0817   0.0000                                         
     4  3  2.50        -1.3606   0.0000                                         
   Description                                                                  
     l       E           TYP  RCUT    TYP  RCUT                                 
     2     -4.6457903     23  2.300                                             
     2     -6.0063729     23  2.300                                             
     0     -4.4925590     23  2.300                                             
     0      5.0102601     23  2.300                                             
     1     -2.7211652     23  2.300                                             
     1     16.5183231     23  2.300                                             
  local pseudopotential read in
  partial core-charges read in
  partial kinetic energy density read in
  atomic valenz-charges read in
  non local Contribution for L=           2  read in
    real space projection operators read in
  non local Contribution for L=           2  read in
    real space projection operators read in
  non local Contribution for L=           0  read in
    real space projection operators read in
  non local Contribution for L=           0  read in
    real space projection operators read in
  non local Contribution for L=           1  read in
    real space projection operators read in
  non local Contribution for L=           1  read in
    real space projection operators read in
    PAW grid and wavefunctions read in
 
   number of l-projection  operators is LMAX  =           6
   number of lm-projection operators is LMMAX =          18
 
 POTCAR:    PAW_PBE Fe 06Sep2000                  
   VRHFIN =Fe:  d7 s1                                                           
   LEXCH  = PE                                                                  
   EATOM  =   594.3153 eV,   43.6809 Ry                                         
                                                                                
   TITEL  = PAW_PBE Fe 06Sep2000                                                
   LULTRA =        F    use ultrasoft PP ?                                      
   IUNSCR =        1    unscreen: 0-lin 1-nonlin 2-no                           
   RPACOR =    2.000    partial core radius                                     
   POMASS =   55.847; ZVAL   =    8.000    mass and valenz                      
   RCORE  =    2.300    outmost cutoff radius                                   
   RWIGS  =    2.460; RWIGS  =    1.302    wigner-seitz radius (au A)           
   ENMAX  =  267.882; ENMIN  =  200.911 eV                                      
   RCLOC  =    1.701    cutoff for local pot                                    
   LCOR   =        T    correct aug charges                                     
   LPAW   =        T    paw PP                                                  
   EAUG   =  511.368                                                            
   DEXC   =    0.000                                                            
   RMAX   =    2.356    core radius for proj-oper                               
   RAUG   =    1.300    factor for augmentation sphere                          
   RDEP   =    2.442    radius for radial grids                                 
   RDEPT  =    1.890    core radius for aug-charge                              
                                                                                
   Atomic configuration                                                         
    9 entries                                                                   
     n  l   j            E        occ.                                          
     1  0  0.50     -6993.8440   2.0000                                         
     2  0  0.50      -814.6047   2.0000                                         
     2  1  1.50      -693.3689   6.0000                                         
     3  0  0.50       -89.4732   2.0000                                         
     3  1  1.50       -55.6373   6.0000                                         
     3  2  2.50        -3.8151   7.0000                                         
     4  0  0.50        -4.2551   1.0000                                         
     4  1  1.50        -3.4015   0.0000                                         
     4  3  2.50        -1.3606   0.0000                                         
   Description                                                                  
     l       E           TYP  RCUT    TYP  RCUT                                 
     2     -3.8151135     23  2.300                                             
     2     -5.1756961     23  2.300                                             
     0     -4.2550963     23  2.300                                             
     0      7.2035603     23  2.300                                             
     1     -2.7211652     23  2.300                                             
     1     18.4316424     23  2.300                                             
  local pseudopotential read in
  partial core-charges read in
  partial kinetic energy density read in
  atomic valenz-charges read in
  non local Contribution for L=           2  read in
    real space projection operators read in
  non local Contribution for L=           2  read in
    real space projection operators read in
  non local Contribution for L=           0  read in
    real space projection operators read in
  non local Contribution for L=           0  read in
    real space projection operators read in
  non local Contribution for L=           1  read in
    real space projection operators read in
  non local Contribution for L=           1  read in
    real space projection operators read in
    PAW grid and wavefunctions read in
 
   number of l-projection  operators is LMAX  =           6
   number of lm-projection operators is LMMAX =          18
 
 POTCAR:    PAW_PBE O 08Apr2002                   
   VRHFIN =O: s2p4                                                              
   LEXCH  = PE                                                                  
   EATOM  =   432.3788 eV,   31.7789 Ry                                         
                                                                                
   TITEL  = PAW_PBE O 08Apr2002                                                 
   LULTRA =        F    use ultrasoft PP ?                                      
   IUNSCR =        1    unscreen: 0-lin 1-nonlin 2-no                           
   RPACOR =    1.200    partial core radius                                     
   POMASS =   16.000; ZVAL   =    6.000    mass and valenz                      
   RCORE  =    1.520    outmost cutoff radius                                   
   RWIGS  =    1.550; RWIGS  =    0.820    wigner-seitz radius (au A)           
   ENMAX  =  400.000; ENMIN  =  300.000 eV                                      
   ICORE  =        2    local potential                                         
   LCOR   =        T    correct aug charges                                     
   LPAW   =        T    paw PP                                                  
   EAUG   =  605.392                                                            
   DEXC   =    0.000                                                            
   RMAX   =    1.553    core radius for proj-oper                               
   RAUG   =    1.300    factor for augmentation sphere                          
   RDEP   =    1.550    radius for radial grids                                 
   RDEPT  =    1.329    core radius for aug-charge                              
                                                                                
   Atomic configuration                                                         
    4 entries                                                                   
     n  l   j            E        occ.                                          
     1  0  0.50      -514.6923   2.0000                                         
     2  0  0.50       -23.9615   2.0000                                         
     2  1  0.50        -9.0305   4.0000                                         
     3  2  1.50        -9.5241   0.0000                                         
   Description                                                                  
     l       E           TYP  RCUT    TYP  RCUT                                 
     0    -23.9615318     23  1.200                                             
     0     -9.5240782     23  1.200                                             
     1     -9.0304911     23  1.520                                             
     1      8.1634956     23  1.520                                             
     2     -9.5240782      7  1.500                                             
  local pseudopotential read in
  partial core-charges read in
  partial kinetic energy density read in
  kinetic energy density of atom read in
  atomic valenz-charges read in
  non local Contribution for L=           0  read in
    real space projection operators read in
  non local Contribution for L=           0  read in
    real space projection operators read in
  non local Contribution for L=           1  read in
    real space projection operators read in
  non local Contribution for L=           1  read in
    real space projection operators read in
    PAW grid and wavefunctions read in
 
   number of l-projection  operators is LMAX  =           4
   number of lm-projection operators is LMMAX =           8
 
 POTCAR:    PAW_PBE H 15Jun2001                   
   VRHFIN =H: ultrasoft test                                                    
   LEXCH  = PE                                                                  
   EATOM  =    12.4884 eV,    0.9179 Ry                                         
                                                                                
   TITEL  = PAW_PBE H 15Jun2001                                                 
   LULTRA =        F    use ultrasoft PP ?                                      
   IUNSCR =        0    unscreen: 0-lin 1-nonlin 2-no                           
   RPACOR =    0.000    partial core radius                                     
   POMASS =    1.000; ZVAL   =    1.000    mass and valenz                      
   RCORE  =    1.100    outmost cutoff radius                                   
   RWIGS  =    0.700; RWIGS  =    0.370    wigner-seitz radius (au A)           
   ENMAX  =  250.000; ENMIN  =  200.000 eV                                      
   RCLOC  =    0.701    cutoff for local pot                                    
   LCOR   =        T    correct aug charges                                     
   LPAW   =        T    paw PP                                                  
   EAUG   =  400.000                                                            
   RMAX   =    1.123    core radius for proj-oper                               
   RAUG   =    1.200    factor for augmentation sphere                          
   RDEP   =    1.112    radius for radial grids                                 
   RDEPT  =    0.926    core radius for aug-charge                              
                                                                                
   Atomic configuration                                                         
    2 entries                                                                   
     n  l   j            E        occ.                                          
     1  0  0.50        -6.4927   1.0000                                         
     2  1  0.50        -3.4015   0.0000                                         
   Description                                                                  
     l       E           TYP  RCUT    TYP  RCUT                                 
     0     -6.4927494     23  1.100                                             
     0      6.8029130     23  1.100                                             
     1     -4.0817478     23  1.100                                             
  local pseudopotential read in
  atomic valenz-charges read in
  non local Contribution for L=           0  read in
    real space projection operators read in
  non local Contribution for L=           0  read in
    real space projection operators read in
  non local Contribution for L=           1  read in
    real space projection operators read in
    PAW grid and wavefunctions read in
 
   number of l-projection  operators is LMAX  =           3
   number of lm-projection operators is LMMAX =           5
 
 Optimization of the real space projectors (new method)

 maximal supplied QI-value         = 16.25
 optimisation between [QCUT,QGAM] = [ 11.54, 23.24] = [ 37.28,151.24] Ry 
 Optimized for a Real-space Cutoff    1.45 Angstroem

   l    n(q)    QCUT    max X(q) W(low)/X(q) W(high)/X(q)  e(spline) 
   2      9    11.539    60.317    0.19E-03    0.47E-04    0.16E-06
   2      9    11.539    55.921    0.19E-03    0.48E-04    0.16E-06
   0     10    11.539    51.690    0.80E-04    0.50E-04    0.24E-06
   0     10    11.539    30.015    0.73E-04    0.45E-04    0.22E-06
   1     10    11.539    18.849    0.87E-04    0.16E-03    0.71E-07
   1     10    11.539    14.624    0.73E-04    0.13E-03    0.64E-07
 Optimization of the real space projectors (new method)

 maximal supplied QI-value         = 16.25
 optimisation between [QCUT,QGAM] = [ 11.54, 23.24] = [ 37.28,151.24] Ry 
 Optimized for a Real-space Cutoff    1.53 Angstroem

   l    n(q)    QCUT    max X(q) W(low)/X(q) W(high)/X(q)  e(spline) 
   2     10    11.539    80.901    0.11E-03    0.14E-03    0.21E-06
   2     10    11.539    75.754    0.11E-03    0.14E-03    0.22E-06
   0     11    11.539    58.752    0.52E-04    0.18E-04    0.33E-06
   0     11    11.539    30.679    0.44E-04    0.16E-04    0.30E-06
   1     10    11.539    17.977    0.53E-04    0.29E-04    0.13E-06
   1     10    11.539    13.559    0.44E-04    0.25E-04    0.11E-06
 Optimization of the real space projectors (new method)

 maximal supplied QI-value         = 24.76
 optimisation between [QCUT,QGAM] = [ 11.64, 23.27] = [ 37.91,151.63] Ry 
 Optimized for a Real-space Cutoff    1.14 Angstroem

   l    n(q)    QCUT    max X(q) W(low)/X(q) W(high)/X(q)  e(spline) 
   0      8    11.635    20.381    0.10E-03    0.33E-03    0.24E-06
   0      8    11.635    15.268    0.11E-03    0.35E-03    0.26E-06
   1      7    11.635     5.964    0.24E-03    0.31E-03    0.30E-06
   1      7    11.635     5.382    0.22E-03    0.25E-03    0.26E-06
 Optimization of the real space projectors (new method)

 maximal supplied QI-value         = 34.20
 optimisation between [QCUT,QGAM] = [ 11.63, 23.26] = [ 37.87,151.49] Ry 
 Optimized for a Real-space Cutoff    1.21 Angstroem

   l    n(q)    QCUT    max X(q) W(low)/X(q) W(high)/X(q)  e(spline) 
   0      8    11.629    19.460    0.17E-03    0.34E-03    0.21E-06
   0      8    11.629    12.209    0.16E-03    0.33E-03    0.21E-06
   1      8    11.629     4.655    0.18E-03    0.16E-03    0.26E-06
  PAW_PBE Ni 02Aug2007                  :
 energy of atom  1       EATOM=-1077.6739
 kinetic energy error for atom=    0.0030 (will be added to EATOM!!)
  PAW_PBE Fe 06Sep2000                  :
 energy of atom  2       EATOM= -594.3153
 kinetic energy error for atom=    0.0026 (will be added to EATOM!!)
  PAW_PBE O 08Apr2002                   :
 energy of atom  3       EATOM= -432.3788
 kinetic energy error for atom=    0.0208 (will be added to EATOM!!)
  PAW_PBE H 15Jun2001                   :
 energy of atom  4       EATOM=  -12.4884
 kinetic energy error for atom=    0.0014 (will be added to EATOM!!)
 
 
 POSCAR: POSCAR                                  
  positions in direct lattice
  velocities in cartesian coordinates
 exchange correlation table for  LEXCH =        8
   RHO(1)=    0.500       N(1)  =     2000
   RHO(2)=  100.500       N(2)  =     4000

 VTST: version 3.2, (02/03/18)

 CHAIN: initializing optimizer
 
 OPT: Using VASP Conjugate-Gradient optimizer
 CHAIN: Read ICHAIN            0
 
 POSCAR: POSCAR                                  
  positions in direct lattice
  velocities in cartesian coordinates
 


--------------------------------------------------------------------------------------------------------


 ion  position               nearest neighbor table
   1  0.999  0.001  0.191-  35 2.44  59 2.48  23 2.50  32 2.50   5 2.52  40 2.52  37 2.52   2 2.53
                             4 2.53  21 2.54  34 2.54  62 2.59
   2  0.248  0.999  0.192-  59 2.46  50 2.47  36 2.48   6 2.49  37 2.50   3 2.51  28 2.52   5 2.52
                            60 2.53  21 2.53   1 2.53   8 2.56
   3  0.499  0.002  0.192-  39 2.46  36 2.49  30 2.50  60 2.50  34 2.51   2 2.51   8 2.52  11 2.52
                             7 2.53  50 2.54  51 2.54  61 2.57
   4  0.998  0.251  0.192-  35 2.46  42 2.49  19 2.50  34 2.50  43 2.50  13 2.50   7 2.53   1 2.53
                            40 2.53  10 2.54   5 2.55  46 2.55
   5  0.249  0.249  0.191-  36 2.48  45 2.49  35 2.50  37 2.50  46 2.50   6 2.51   1 2.52  42 2.52
                             2 2.52  16 2.54   4 2.55  44 2.55
   6  0.331  0.165  0.287-  17 2.46  38 2.47   9 2.47  36 2.48   2 2.49   5 2.51  59 2.52  45 2.53
                            60 2.54  15 2.56  39 2.56  35 2.56
   7  0.749  0.253  0.193-  39 2.43  18 2.47  14 2.49  48 2.49  13 2.51  34 2.51  10 2.52   4 2.53
                             3 2.53  11 2.54  36 2.55  19 2.55
   8  0.418  0.084  0.094-  37 2.49  36 2.51  16 2.51   3 2.52  11 2.52  30 2.53  28 2.53  48 2.56
                             2 2.56
   9  0.416  0.086  0.383-  68 1.83  38 2.43  17 2.46   6 2.47  60 2.51  49 2.53  12 2.53  29 2.53
                            39 2.54  31 2.55
  10  0.831  0.166  0.290-  41 2.44  12 2.46  39 2.48  20 2.49  34 2.49  35 2.51  43 2.51   7 2.52
                            18 2.53  62 2.53   4 2.54  61 2.55
  11  0.668  0.085  0.096-  34 2.51  40 2.51  48 2.51   8 2.52   3 2.52  19 2.53  30 2.54  63 2.54
                             7 2.54
  12  0.667  0.087  0.383-  68 1.85  10 2.46  20 2.48  41 2.49  39 2.51  49 2.52   9 2.53  61 2.54
                            64 2.56  31 2.57
  13  0.999  0.499  0.193-  43 2.45  22 2.47  18 2.50  53 2.50   4 2.50  42 2.51   7 2.51  19 2.52
                            50 2.52  21 2.53  14 2.53  26 2.55
  14  0.748  0.499  0.192-  15 2.47  44 2.48   7 2.49  18 2.49  48 2.49  56 2.49  57 2.52  26 2.52
                            21 2.52  23 2.53  13 2.53  36 2.57
  15  0.583  0.419  0.287-  49 2.44  56 2.46  44 2.47  14 2.47  45 2.49  18 2.50  17 2.51  36 2.52
                             6 2.56  55 2.56  39 2.56  58 2.62
  16  0.420  0.333  0.094-  36 2.51   8 2.51  37 2.52  57 2.52  44 2.52  46 2.53  24 2.54  48 2.54
                             5 2.54
  17  0.414  0.329  0.381-  66 1.85  38 2.43   6 2.46   9 2.46  45 2.50  15 2.51  49 2.52  47 2.53
                            25 2.56  58 2.59
  18  0.830  0.416  0.288-  49 2.41   7 2.47  56 2.48  43 2.48  14 2.49  13 2.50  39 2.50  15 2.50
                            27 2.53  10 2.53  22 2.54  20 2.54
  19  0.919  0.335  0.096-  48 2.49   4 2.50  40 2.51  53 2.51  13 2.52  11 2.53  26 2.54  46 2.54
                             7 2.55
  20  0.913  0.331  0.385-  67 1.86  41 2.47  12 2.48  10 2.49  43 2.51  49 2.53  18 2.54  47 2.54
                            27 2.59  54 2.60
  21  0.998  0.749  0.193-  59 2.45  50 2.48  23 2.48  22 2.49  32 2.50  56 2.51  26 2.52  14 2.52
                             2 2.53  13 2.53   1 2.54  28 2.55
  22  0.083  0.666  0.287-  29 2.43  50 2.44  13 2.47  43 2.47  21 2.49  54 2.52  60 2.52  18 2.54
                            59 2.54  56 2.55  27 2.56  52 2.64
  23  0.753  0.752  0.192-  62 2.47  21 2.48  63 2.49   1 2.50  32 2.51  56 2.51  57 2.52  14 2.53
                            55 2.53  44 2.54  51 2.57  34 2.58
  24  0.417  0.584  0.096-  46 2.49  44 2.50  51 2.51  57 2.52  30 2.52  63 2.53  16 2.54  42 2.56
                            53 2.57
  25  0.411  0.581  0.383-  66 1.89  52 2.42  54 2.48  47 2.51  45 2.52  55 2.52  31 2.53  17 2.56
                            58 2.56  64 2.56
  26  0.916  0.585  0.095-  48 2.48  32 2.48  57 2.50  53 2.51  21 2.52  14 2.52  28 2.53  19 2.54
                            13 2.55
  27  0.910  0.586  0.384-  67 1.89  58 2.45  56 2.46  33 2.48  49 2.49  18 2.53  29 2.56  22 2.56
                            20 2.59  54 2.61
  28  0.167  0.835  0.095-  32 2.48  37 2.49  53 2.50   2 2.52  50 2.53   8 2.53  26 2.53  30 2.54
                            21 2.55
  29  0.164  0.836  0.377-  60 2.41  59 2.42  22 2.43  38 2.47  33 2.50  54 2.52   9 2.53  31 2.54
                            27 2.56
  30  0.417  0.833  0.097-  51 2.49   3 2.50  53 2.52  24 2.52   8 2.53  11 2.54  28 2.54  63 2.54
                            50 2.55
  31  0.413  0.832  0.385-  68 1.86  54 2.45  52 2.48  60 2.50  61 2.53  25 2.53  29 2.54  64 2.54
                             9 2.55  12 2.57
  32  0.920  0.833  0.095-  28 2.48  26 2.48   1 2.50  21 2.50  23 2.51  57 2.53  37 2.54  63 2.54
                            40 2.57
  33  0.916  0.834  0.381-  65 1.95  56 2.48  27 2.48  62 2.49  59 2.49  29 2.50  58 2.51  64 2.53
                            41 2.57  38 2.58
  34  0.749  0.005  0.193-  62 2.47  10 2.49   4 2.50  61 2.50  11 2.51   7 2.51   3 2.51  63 2.54
                             1 2.54  51 2.55  40 2.57  23 2.58
  35  0.076  0.161  0.285-   1 2.44   4 2.46  47 2.47  59 2.49   5 2.50  10 2.51  41 2.53   6 2.56
                            62 2.56  43 2.59  38 2.61  45 2.61
  36  0.493  0.245  0.192-   6 2.48   5 2.48   2 2.48   3 2.49  39 2.50  16 2.51   8 2.51  44 2.52
                            15 2.52   7 2.55  14 2.57  48 2.57
  37  0.171  0.083  0.095-  28 2.49   8 2.49   2 2.50   5 2.50  16 2.52   1 2.52  32 2.54  46 2.57
                            40 2.58
  38  0.175  0.085  0.384-  65 1.84   9 2.43  17 2.43   6 2.47  29 2.47  47 2.54  59 2.57  33 2.58
                            35 2.61  41 2.65
  39  0.586  0.166  0.286-   7 2.43   3 2.46  49 2.48  10 2.48  18 2.50  36 2.50  12 2.51   9 2.54
                            60 2.55   6 2.56  15 2.56  61 2.57
  40  0.917  0.086  0.094-  19 2.51  11 2.51   1 2.52  63 2.53   4 2.53  46 2.55  34 2.57  32 2.57
                            37 2.58
  41  0.913  0.087  0.383-  65 1.85  10 2.44  20 2.47  12 2.49  47 2.50  35 2.53  64 2.54  62 2.56
                            33 2.57  38 2.65
  42  0.246  0.497  0.194-  45 2.46  43 2.49   4 2.49  13 2.51  46 2.51   5 2.52  53 2.54  52 2.55
                            51 2.55  24 2.56  44 2.58  50 2.59
  43  0.076  0.417  0.288-  47 2.43  13 2.45  22 2.47  18 2.48  42 2.49   4 2.50  10 2.51  20 2.51
                            54 2.55  35 2.59  45 2.62  52 2.67
  44  0.503  0.500  0.191-  15 2.47  14 2.48  45 2.49  57 2.49  24 2.50  36 2.52  16 2.52  23 2.54
                             5 2.55  51 2.55  55 2.56  42 2.58
  45  0.336  0.417  0.286-  47 2.45  42 2.46  44 2.49   5 2.49  15 2.49  17 2.50  25 2.52   6 2.53
                            52 2.53  55 2.55  35 2.61  43 2.62
  46  0.171  0.337  0.096-  24 2.49   5 2.50  42 2.51  16 2.53  19 2.54   4 2.55  53 2.55  40 2.55
                            37 2.57
  47  0.164  0.331  0.377-  43 2.43  45 2.45  35 2.47  41 2.50  25 2.51  17 2.53  20 2.54  38 2.54
                            54 2.59
  48  0.673  0.336  0.096-  26 2.48  19 2.49  14 2.49   7 2.49  11 2.51  57 2.53  16 2.54   8 2.56
                            36 2.57
  49  0.666  0.336  0.379-  18 2.41  15 2.44  39 2.48  27 2.49  17 2.52  12 2.52  20 2.53   9 2.53
                            58 2.53
  50  0.245  0.753  0.193-  22 2.44  60 2.46   2 2.47  21 2.48  53 2.51  13 2.52  28 2.53   3 2.54
                            30 2.55  51 2.57  52 2.59  42 2.59
  51  0.498  0.750  0.193-  52 2.43  61 2.48  55 2.48  30 2.49  24 2.51  63 2.52   3 2.54  44 2.55
                            34 2.55  42 2.55  23 2.57  50 2.57
  52  0.348  0.673  0.289-  61 2.38  55 2.39  25 2.42  51 2.43  31 2.48  60 2.51  45 2.53  42 2.55
                            54 2.56  50 2.59  22 2.64  43 2.67
  53  0.165  0.586  0.097-  13 2.50  28 2.50  50 2.51  26 2.51  19 2.51  30 2.52  42 2.54  46 2.55
                            24 2.57
  54  0.170  0.590  0.385-  67 1.83  31 2.45  25 2.48  22 2.52  29 2.52  43 2.55  52 2.56  47 2.59
                            20 2.60  27 2.61
  55  0.584  0.672  0.288-  52 2.39  62 2.39  61 2.41  51 2.48  25 2.52  56 2.53  23 2.53  45 2.55
                            15 2.56  44 2.56  64 2.59  58 2.60
  56  0.828  0.661  0.288-  27 2.46  15 2.46  33 2.48  18 2.48  14 2.49  23 2.51  21 2.51  55 2.53
                            22 2.55  62 2.56  58 2.56  59 2.56
  57  0.668  0.584  0.095-  44 2.49  26 2.50  63 2.51  23 2.52  14 2.52  16 2.52  24 2.52  32 2.53
                            48 2.53
  58  0.668  0.587  0.389-  66 1.83  27 2.45  64 2.50  33 2.51  49 2.53  56 2.56  25 2.56  17 2.59
                            55 2.60  15 2.62
  59  0.081  0.916  0.285-  29 2.42  21 2.45   2 2.46   1 2.48  33 2.49  35 2.49   6 2.52  22 2.54
                            56 2.56  60 2.57  38 2.57  62 2.61
  60  0.334  0.914  0.288-  29 2.41  50 2.46  31 2.50   3 2.50   9 2.51  52 2.51  22 2.52   2 2.53
                            61 2.53   6 2.54  39 2.55  59 2.57
  61  0.583  0.910  0.289-  52 2.38  62 2.39  55 2.41  51 2.48  34 2.50  31 2.53  60 2.53  12 2.54
                            10 2.55  64 2.57   3 2.57  39 2.57
  62  0.819  0.910  0.288-  55 2.39  61 2.39  23 2.47  34 2.47  33 2.49  10 2.53  41 2.56  56 2.56
                            35 2.56  64 2.57   1 2.59  59 2.61
  63  0.668  0.834  0.097-  23 2.49  57 2.51  51 2.52  40 2.53  24 2.53  30 2.54  34 2.54  11 2.54
                            32 2.54
  64  0.665  0.833  0.390-  69 1.80  58 2.50  33 2.53  31 2.54  41 2.54  12 2.56  25 2.56  61 2.57
                            62 2.57  55 2.59
  65  0.006  0.012  0.436-  38 1.84  41 1.85  33 1.95
  66  0.494  0.492  0.437-  58 1.83  17 1.85  25 1.89
  67  0.003  0.504  0.436-  54 1.83  20 1.86  27 1.89
  68  0.499  0.004  0.436-   9 1.83  12 1.85  31 1.86
  69  0.681  0.829  0.474-  70 0.98  64 1.80
  70  0.783  0.887  0.493-  69 0.98
 

IMPORTANT INFORMATION: All symmetrisations will be switched off!
NOSYMM: (Re-)initialisation of all symmetry stuff for point group C_1.

 
 

Automatic generation of k-mesh.
 generate k-points for:    3    3    1
Space group operators:
 irot       det(A)        alpha          n_x          n_y          n_z        tau_x        tau_y        tau_z
    1     1.000000     0.000000     1.000000     0.000000     0.000000     0.000000     0.000000     0.000000
 
 Subroutine IBZKPT returns following result:
 ===========================================
 
 Found      5 irreducible k-points:
 
 Following reciprocal coordinates:
            Coordinates               Weight
  0.000000  0.000000  0.000000      1.000000
  0.333333  0.000000  0.000000      2.000000
  0.000000  0.333333  0.000000      2.000000
  0.333333  0.333333  0.000000      2.000000
 -0.333333  0.333333  0.000000      2.000000
 
 Following cartesian coordinates:
            Coordinates               Weight
  0.000000  0.000000  0.000000      1.000000
  0.033002  0.019054  0.000000      2.000000
  0.000000  0.038108  0.000000      2.000000
  0.033002  0.057162  0.000000      2.000000
 -0.033002  0.019054  0.000000      2.000000
 


--------------------------------------------------------------------------------------------------------




 Dimension of arrays:
   k-points           NKPTS =      5   k-points in BZ     NKDIM =      5   number of bands    NBANDS=    402
   number of dos      NEDOS =    301   number of ions     NIONS =     70
   non local maximal  LDIM  =      6   non local SUM 2l+1 LMDIM =     18
   total plane-waves  NPLWV = ******
   max r-space proj   IRMAX =   8292   max aug-charges    IRDMAX=  19623
   dimension x,y,z NGX =    80 NGY =   80 NGZ =  160
   dimension x,y,z NGXF=   160 NGYF=  160 NGZF=  320
   support grid    NGXF=   160 NGYF=  160 NGZF=  320
   ions per type =              33  31   5   1
   NGX,Y,Z   is equivalent  to a cutoff of  13.17, 13.17, 12.52 a.u.
   NGXF,Y,Z  is equivalent  to a cutoff of  26.34, 26.34, 25.03 a.u.

 SYSTEM =  SQS-NiFe                                
 POSCAR =  POSCAR                                  

 Startparameter for this run:
   NWRITE =      2    write-flag & timer
   PREC   = accura    normal or accurate (medium, high low for compatibility)
   ISTART =      1    job   : 0-new  1-cont  2-samecut
   ICHARG =      1    charge: 1-file 2-atom 10-const
   ISPIN  =      2    spin polarized calculation?
   LNONCOLLINEAR =      F non collinear calculations
   LSORBIT =      F    spin-orbit coupling
   INIWAV =      1    electr: 0-lowe 1-rand  2-diag
   LASPH  =      F    aspherical Exc in radial PAW
   METAGGA=      F    non-selfconsistent MetaGGA calc.

 Electronic Relaxation 1
   ENCUT  =  520.0 eV  38.22 Ry    6.18 a.u.  18.78 18.78 39.52*2*pi/ulx,y,z
   ENINI  =  520.0     initial cutoff
   ENAUG  =  605.4 eV  augmentation charge cutoff
   NELM   =    200;   NELMIN=  2; NELMDL=  0     # of ELM steps 
   EDIFF  = 0.1E-04   stopping-criterion for ELM
   LREAL  =      T    real-space projection
   NLSPLINE    = F    spline interpolate recip. space projectors
   LCOMPAT=      F    compatible to vasp.4.4
   GGA_COMPAT  = T    GGA compatible to vasp.4.4-vasp.4.6
   LMAXPAW     = -100 max onsite density
   LMAXMIX     =    2 max onsite mixed and CHGCAR
   VOSKOWN=      0    Vosko Wilk Nusair interpolation
   ROPT   =   -0.00025  -0.00025  -0.00025  -0.00025
 Ionic relaxation
   EDIFFG = -.5E-01   stopping-criterion for IOM
   NSW    =     99    number of steps for IOM
   NBLOCK =      1;   KBLOCK =     99    inner block; outer block 
   IBRION =      2    ionic relax: 0-MD 1-quasi-New 2-CG
   NFREE  =      1    steps in history (QN), initial steepest desc. (CG)
   ISIF   =      2    stress and relaxation
   IWAVPR =     11    prediction:  0-non 1-charg 2-wave 3-comb
   ISYM   =      0    0-nonsym 1-usesym 2-fastsym
   LCORR  =      T    Harris-Foulkes like correction to forces

   POTIM  = 0.5000    time-step for ionic-motion
   TEIN   =    0.0    initial temperature
   TEBEG  =    0.0;   TEEND  =   0.0 temperature during run
   SMASS  =  -3.00    Nose mass-parameter (am)
   estimated Nose-frequenzy (Omega)   =  0.10E-29 period in steps =****** mass=  -0.233E-26a.u.
   SCALEE = 1.0000    scale energy and forces
   NPACO  =    256;   APACO  = 16.0  distance and # of slots for P.C.
   PSTRESS=    0.0 pullay stress

  Mass of Ions in am
   POMASS =  58.69 55.85 16.00  1.00
  Ionic Valenz
   ZVAL   =  10.00  8.00  6.00  1.00
  Atomic Wigner-Seitz radii
   RWIGS  =  -1.00 -1.00 -1.00 -1.00
  virtual crystal weights 
   VCA    =   1.00  1.00  1.00  1.00
   NELECT =     609.0000    total number of electrons
   NUPDOWN=      -1.0000    fix difference up-down

 DOS related values:
   EMIN   =  10.00;   EMAX   =-10.00  energy-range for DOS
   EFERMI =   0.00
   ISMEAR =     1;   SIGMA  =   0.20  broadening in eV -4-tet -1-fermi 0-gaus

 Electronic relaxation 2 (details)
   IALGO  =     68    algorithm
   LDIAG  =      T    sub-space diagonalisation (order eigenvalues)
   LSUBROT=      F    optimize rotation matrix (better conditioning)
   TURBO    =      0    0=normal 1=particle mesh
   IRESTART =      0    0=no restart 2=restart with 2 vectors
   NREBOOT  =      0    no. of reboots
   NMIN     =      0    reboot dimension
   EREF     =   0.00    reference energy to select bands
   IMIX   =      4    mixing-type and parameters
     AMIX     =   0.40;   BMIX     =  1.00
     AMIX_MAG =   1.60;   BMIX_MAG =  1.00
     AMIN     =   0.10
     WC   =   100.;   INIMIX=   1;  MIXPRE=   1;  MAXMIX= -45

 Intra band minimization:
   WEIMIN = 0.0010     energy-eigenvalue tresh-hold
   EBREAK =  0.62E-08  absolut break condition
   DEPER  =   0.30     relativ break condition  

   TIME   =   0.40     timestep for ELM

  volume/ion in A,a.u.               =      26.82       181.02
  Fermi-wavevector in a.u.,A,eV,Ry     =   1.124782  2.125530 17.213203  1.265135
  Thomas-Fermi vector in A             =   2.261456
 
 Write flags
   LWAVE        =      T    write WAVECAR
   LDOWNSAMPLE  =      F    k-point downsampling of WAVECAR
   LCHARG       =      T    write CHGCAR
   LVTOT        =      F    write LOCPOT, total local potential
   LVHAR        =      F    write LOCPOT, Hartree potential only
   LELF         =      F    write electronic localiz. function (ELF)
   LORBIT       =     10    0 simple, 1 ext, 2 COOP (PROOUT), +10 PAW based schemes


 Dipole corrections
   LMONO  =      F    monopole corrections only (constant potential shift)
   LDIPOL =      T    correct potential (dipole corrections)
   IDIPOL =      3    1-x, 2-y, 3-z, 4-all directions 
   EPSILON=  1.0000000 bulk dielectric constant

 Exchange correlation treatment:
   GGA     =    --    GGA type
   LEXCH   =     8    internal setting for exchange type
   VOSKOWN=      0    Vosko Wilk Nusair interpolation
   LHFCALC =     F    Hartree Fock is set to
   LHFONE  =     F    Hartree Fock one center treatment
   AEXX    =    0.0000 exact exchange contribution

 Linear response parameters
   LEPSILON=     F    determine dielectric tensor
   LRPA    =     F    only Hartree local field effects (RPA)
   LNABLA  =     F    use nabla operator in PAW spheres
   LVEL    =     F    velocity operator in full k-point grid
   LINTERFAST=   F  fast interpolation
   KINTER  =     0    interpolate to denser k-point grid
   CSHIFT  =0.1000    complex shift for real part using Kramers Kronig
   OMEGAMAX=  -1.0    maximum frequency
   DEG_THRESHOLD= 0.2000000E-02 threshold for treating states as degnerate
   RTIME   =   -0.100 relaxation time in fs
  (WPLASMAI=    0.000 imaginary part of plasma frequency in eV, 0.658/RTIME)
   DFIELD  = 0.0000000 0.0000000 0.0000000 field for delta impulse in time
 
 Orbital magnetization related:
   ORBITALMAG=     F  switch on orbital magnetization
   LCHIMAG   =     F  perturbation theory with respect to B field
   DQ        =  0.001000  dq finite difference perturbation B field
   LLRAUG    =     F  two centre corrections for induced B field



--------------------------------------------------------------------------------------------------------


 conjugate gradient relaxation of ions
   using selective dynamics as specified on POSCAR
 charge density and potential will be updated during run
 spin polarized calculation
 RMM-DIIS sequential band-by-band and
  variant of blocked Davidson during initial phase
 perform sub-space diagonalisation
    before iterative eigenvector-optimisation
 modified Broyden-mixing scheme, WC =      100.0
 initial mixing is a Kerker type mixing with AMIX =  0.4000 and BMIX =      1.0000
 Hartree-type preconditioning will be used
 using additional bands           97
 real space projection scheme for non local part
 use partial core corrections
 calculate Harris-corrections to forces 
   (improved forces if not selfconsistent)
 use gradient corrections 
 use of overlap-Matrix (Vanderbilt PP)
 Methfessel and Paxton  Order N= 1 SIGMA  =   0.20


--------------------------------------------------------------------------------------------------------


  energy-cutoff  :      520.00
  volume of cell :     1877.75
      direct lattice vectors                 reciprocal lattice vectors
    10.100310000  0.000000000  0.000000000     0.099006862  0.057161638  0.000000000
    -5.050155000  8.747125050  0.000000000     0.000000000  0.114323277  0.000000000
     0.000000000  0.000000000 21.253800000     0.000000000  0.000000000  0.047050410

  length of vectors
    10.100310000 10.100310003 21.253800000     0.114323277  0.114323277  0.047050410


 
 old parameters found on file WAVECAR:
  energy-cutoff  :      520.00
  volume of cell :     1877.75
      direct lattice vectors                 reciprocal lattice vectors
    10.100310000  0.000000000  0.000000000     0.099006862  0.057161638  0.000000000
    -5.050155000  8.747125050  0.000000000     0.000000000  0.114323277  0.000000000
     0.000000000  0.000000000 21.253800000     0.000000000  0.000000000  0.047050410

  length of vectors

 
 k-points in units of 2pi/SCALE and weight: read from INCAR                         
   0.00000000  0.00000000  0.00000000       0.111
   0.03300229  0.01905388  0.00000000       0.222
   0.00000000  0.03810776  0.00000000       0.222
   0.03300229  0.05716164  0.00000000       0.222
  -0.03300229  0.01905388  0.00000000       0.222
 
 k-points in reciprocal lattice and weights: read from INCAR                         
   0.00000000  0.00000000  0.00000000       0.111
   0.33333333  0.00000000  0.00000000       0.222
   0.00000000  0.33333333  0.00000000       0.222
   0.33333333  0.33333333  0.00000000       0.222
  -0.33333333  0.33333333  0.00000000       0.222
 
 position of ions in fractional coordinates (direct lattice) 
   0.99904300  0.00064200  0.19052300
   0.24849100  0.99862800  0.19205500
   0.49902500  0.00192700  0.19180600
   0.99813900  0.25067400  0.19194200
   0.24921500  0.24886200  0.19118600
   0.33149554  0.16451604  0.28748832
   0.74893500  0.25278100  0.19317500
   0.41837500  0.08394000  0.09411800
   0.41585989  0.08611699  0.38259557
   0.83103337  0.16630436  0.28955811
   0.66797000  0.08472300  0.09569300
   0.66701019  0.08699186  0.38345745
   0.99908600  0.49910800  0.19304000
   0.74816900  0.49871100  0.19204600
   0.58335789  0.41890256  0.28651636
   0.41961000  0.33337100  0.09414000
   0.41354023  0.32875294  0.38145701
   0.83008733  0.41647570  0.28765935
   0.91855900  0.33501600  0.09568700
   0.91348423  0.33136669  0.38479365
   0.99765800  0.74896900  0.19256000
   0.08300775  0.66554876  0.28704759
   0.75346500  0.75172800  0.19162900
   0.41737300  0.58352400  0.09623400
   0.41097552  0.58051135  0.38294673
   0.91550800  0.58461900  0.09542900
   0.90961443  0.58589077  0.38406137
   0.16682900  0.83490800  0.09456700
   0.16443430  0.83619363  0.37714891
   0.41715300  0.83338800  0.09679300
   0.41293544  0.83178391  0.38499231
   0.91985100  0.83263700  0.09539800
   0.91565250  0.83430079  0.38053223
   0.74918200  0.00453800  0.19311300
   0.07599239  0.16052831  0.28462611
   0.49319000  0.24544000  0.19167800
   0.17139600  0.08339300  0.09535900
   0.17503203  0.08540134  0.38397276
   0.58584881  0.16627485  0.28578162
   0.91693100  0.08581500  0.09410100
   0.91343666  0.08726301  0.38320050
   0.24596400  0.49669300  0.19369900
   0.07640971  0.41734195  0.28762541
   0.50297300  0.49962100  0.19096300
   0.33586001  0.41680956  0.28564709
   0.17081400  0.33724200  0.09550500
   0.16428987  0.33121483  0.37692987
   0.67264700  0.33598100  0.09600300
   0.66615070  0.33605879  0.37899981
   0.24490500  0.75270000  0.19343600
   0.49840300  0.74988300  0.19260700
   0.34810365  0.67289934  0.28883412
   0.16470600  0.58627100  0.09733100
   0.17006163  0.58986419  0.38456630
   0.58407731  0.67239868  0.28806849
   0.82839497  0.66123744  0.28820204
   0.66762500  0.58426200  0.09519900
   0.66754453  0.58673513  0.38887321
   0.08106247  0.91620075  0.28500312
   0.33398359  0.91417405  0.28808864
   0.58288316  0.91019858  0.28887488
   0.81929051  0.90989419  0.28758648
   0.66841400  0.83351100  0.09659800
   0.66503064  0.83329286  0.39031805
   0.00631992  0.01228110  0.43578132
   0.49392650  0.49182530  0.43688518
   0.00253914  0.50391349  0.43606543
   0.49879914  0.00423268  0.43592285
   0.68138842  0.82899460  0.47429667
   0.78293314  0.88729487  0.49307758
 
 position of ions in cartesian coordinates  (Angst):
  10.08740180  0.00561565  4.04933774
  -2.53339006  8.73512399  4.08189856
   5.03057555  0.01685571  4.07660636
   8.81557077  2.19267682  4.07949688
   1.26035708  2.17682703  4.06342901
   2.51737625  1.43904240  6.11021921
   6.28789244  2.21110702  4.10570281
   3.80180719  0.73423368  2.00036515
   3.76540962  0.75327611  8.13160976
   7.55383182  1.45468505  6.15421006
   6.31883979  0.74108268  2.03383988
   6.29768736  0.76092864  8.14992790
   7.57050555  4.36576009  4.10283355
   5.03817098  4.36228748  4.08170727
   3.77657271  3.66419304  6.08956136
   2.55461586  2.91603783  2.00083273
   2.51663123  2.87564305  8.10741103
   6.28087250  3.64296507  6.11385438
   7.58584793  2.93042685  2.03371236
   7.55302073  2.89850589  8.17832722
   6.29424553  6.55132550  4.09263173
  -2.52272041  5.82163822  6.10085201
   3.81388716  6.57545882  4.07284444
   1.26871004  5.10415740  2.04533819
   1.21930781  5.07780541  8.13907319
   6.29449804  5.11373550  2.02822888
   6.22854853  5.12485980  8.16276349
  -2.53139019  7.30304468  2.00990810
  -2.56207009  7.31429026  8.01584745
   0.00463604  7.28974905  2.05721906
  -0.02986172  7.27571789  8.18254956
   5.08583435  7.28317996  2.02757001
   5.03502582  7.29773335  8.08775597
   7.54405284  0.03969445  4.10438508
  -0.04314614  1.40416118  6.04938636
   3.74186185  2.14689437  4.07388588
   1.31000516  0.72944900  2.02674111
   1.33658776  0.74701617  8.16088026
   5.07754089  1.45442688  6.07394548
   8.82790830  0.75063454  2.00000383
   8.78530168  0.76330045  8.14446673
  -0.02406399  4.34463578  4.11683981
  -1.33587973  3.65054219  6.11313291
   2.55701973  4.37024736  4.05868941
   1.28733737  3.64588533  6.07108618
   0.02214998  2.94989795  2.02984417
  -0.01330759  2.89717750  8.01119214
   5.09718709  2.93886782  2.04042856
   5.03117964  2.93954826  8.05518624
  -1.32763525  6.58396103  4.11125006
   1.24699942  6.55932037  4.09363066
   0.11770875  5.88593471  6.13882262
  -1.29717776  5.12818575  2.06865361
  -1.26123042  5.15961582  8.17349518
   2.50364439  5.88155532  6.12255017
   5.02769444  5.78392655  6.12538859
   3.79260580  5.11061278  2.02334051
   3.77930336  5.13224553  8.26503350
  -3.80819976  8.01412251  6.05739942
  -1.24338283  7.99639472  6.12297826
   1.29065672  7.96162080  6.13968898
   3.67998149  7.95895824  6.11230557
   2.54182886  7.29082495  2.05307457
   2.50875751  7.28891681  8.29574186
   0.00181167  0.10742432  9.26200901
   2.50501680  4.30205737  9.28547028
  -2.51919515  4.40779435  9.26804751
   5.01665023  0.03702381  9.26501706
   2.69568308  7.25131944 10.08060657
   3.42689078  7.76127922 10.47977224
 


--------------------------------------------------------------------------------------------------------


 k-point  1 :   0.0000 0.0000 0.0000  plane waves:   50641
 k-point  2 :   0.3333 0.0000 0.0000  plane waves:   50572
 k-point  3 :   0.0000 0.3333 0.0000  plane waves:   50572
 k-point  4 :   0.3333 0.3333 0.0000  plane waves:   50583
 k-point  5 :  -0.3333 0.3333 0.0000  plane waves:   50572

 maximum and minimum number of plane-waves per node :      2130     2087

 maximum number of plane-waves:     50641
 maximum index in each direction: 
   IXMAX=   19   IYMAX=   18   IZMAX=   39
   IXMIN=  -19   IYMIN=  -19   IZMIN=  -39


 real space projection operators:
  total allocation   :      67122.45 KBytes
  max/ min on nodes  :       3380.40       2420.03


 parallel 3D FFT for wavefunctions:
    minimum data exchange during FFTs selected (reduces bandwidth)
 parallel 3D FFT for charge:
    minimum data exchange during FFTs selected (reduces bandwidth)


 total amount of memory used by VASP MPI-rank0   116165. kBytes
=======================================================================

   base      :      30000. kBytes
   nonlr-proj:      13917. kBytes
   fftplans  :       6403. kBytes
   grid      :      18928. kBytes
   one-center:         93. kBytes
   wavefun   :      46824. kBytes
 
     INWAV:  cpu time   10.8895: real time   11.2740
 Broyden mixing: mesh for mixing (old mesh)
   NGX = 37   NGY = 37   NGZ = 79
  (NGX  =160   NGY  =160   NGZ  =320)
  gives a total of 108151 points

 initial charge density was supplied:
 number of electron     609.0000040 magnetization      83.6651421
 keeping initial charge density in first step


--------------------------------------------------------------------------------------------------------


 Maximum index for non-local projection operator          761
 Maximum index for augmentation-charges         1120 (set IRDMAX)


--------------------------------------------------------------------------------------------------------


 First call to EWALD:  gamma=   0.144
 Maximum number of real-space cells 4x 4x 2
 Maximum number of reciprocal cells 2x 2x 4

    FEWALD:  cpu time    0.0034: real time    0.0034


--------------------------------------- Iteration      1(   1)  ---------------------------------------


    POTLOK:  cpu time    0.4188: real time    0.4269
    SETDIJ:  cpu time    0.0256: real time    0.0256
     EDDAV:  cpu time   39.6044: real time   39.6172
       DOS:  cpu time    0.0087: real time    0.0087
    CHARGE:  cpu time    1.3405: real time    1.3406
    MIXING:  cpu time    0.0064: real time    0.0064
    --------------------------------------------
      LOOP:  cpu time   41.4045: real time   41.4255

 eigenvalue-minimisations  :  8442
 total energy-change (2. order) :-0.4417094E+03  (-0.1559934E+03)
 number of electron     609.0000040 magnetization      83.6737326
 augmentation part      337.1687799 magnetization      69.4759480

 DIPCOR: dipole corrections for dipol
 direction  3 min pos   245,
 dipolmoment           0.000000      0.000000      0.299416 electrons x Angstroem
 Tr[quadrupol]    -10434.267752

 energy correction for charged system         0.000000 eV
 dipol+quadrupol energy correction           -0.004320 eV
 added-field ion interaction          4.971643 eV  (added to PSCEN)


 Broyden mixing:
  rms(total) = 0.81415E+00    rms(broyden)= 0.81411E+00
  rms(prec ) = 0.82015E+00
  weight for this iteration     100.00

 Free energy of the ion-electron system (eV)
  ---------------------------------------------------
  alpha Z        PSCENC =      1457.73998773
  Ewald energy   TEWEN  =    196105.85928175
  -Hartree energ DENC   =   -251249.25019591
  -exchange      EXHF   =         0.00000000
  -V(xc)+E(xc)   XCENC  =      1289.18654839
  PAW double counting   =     61613.70526482   -64168.28714823
  entropy T*S    EENTRO =         0.05036477
  eigenvalues    EBANDS =     -1651.82388587
  atomic energy  EATOM  =     56161.11034558
  Solvation  Ediel_sol  =         0.00000000
  ---------------------------------------------------
  free energy    TOTEN  =      -441.70943699 eV

  energy without entropy =     -441.75980175  energy(sigma->0) =     -441.72622524


--------------------------------------------------------------------------------------------------------




--------------------------------------- Iteration      1(   2)  ---------------------------------------


    POTLOK:  cpu time    0.4204: real time    0.4331
    SETDIJ:  cpu time    0.0252: real time    0.0252
    EDDIAG:  cpu time    5.5664: real time    5.5680
  RMM-DIIS:  cpu time   19.9771: real time   19.9870
    ORTHCH:  cpu time    1.5542: real time    1.5545
       DOS:  cpu time    0.0089: real time    0.0089
    CHARGE:  cpu time    1.3359: real time    1.3360
    MIXING:  cpu time    0.0065: real time    0.0065
    --------------------------------------------
      LOOP:  cpu time   28.8945: real time   28.9193

 eigenvalue-minimisations  :  8164
 total energy-change (2. order) :-0.1304535E+02  (-0.1279178E+02)
 number of electron     609.0000040 magnetization      83.6768277
 augmentation part      333.1454275 magnetization      69.7279755

 DIPCOR: dipole corrections for dipol
 direction  3 min pos   252,
 dipolmoment           0.000000      0.000000      0.341594 electrons x Angstroem
 Tr[quadrupol]    -10434.958028

 energy correction for charged system         0.000000 eV
 dipol+quadrupol energy correction           -0.005623 eV
 added-field ion interaction         14.992940 eV  (added to PSCEN)


 Broyden mixing:
  rms(total) = 0.12076E+01    rms(broyden)= 0.12076E+01
  rms(prec ) = 0.13197E+01
  weight for this iteration     100.00

 eigenvalues of (default mixing * dielectric matrix)
  average eigenvalue GAMMA=   0.3617
  0.3617

 Free energy of the ion-electron system (eV)
  ---------------------------------------------------
  alpha Z        PSCENC =      1467.75998244
  Ewald energy   TEWEN  =    196105.85928175
  -Hartree energ DENC   =   -251287.61949538
  -exchange      EXHF   =         0.00000000
  -V(xc)+E(xc)   XCENC  =      1290.82141279
  PAW double counting   =     62027.75297249   -64606.95568238
  entropy T*S    EENTRO =         0.07620766
  eigenvalues    EBANDS =     -1613.55981651
  atomic energy  EATOM  =     56161.11034558
  Solvation  Ediel_sol  =         0.00000000
  ---------------------------------------------------
  free energy    TOTEN  =      -454.75479156 eV

  energy without entropy =     -454.83099922  energy(sigma->0) =     -454.78019411


--------------------------------------------------------------------------------------------------------




--------------------------------------- Iteration      1(   3)  ---------------------------------------


    POTLOK:  cpu time    0.4204: real time    0.4324
    SETDIJ:  cpu time    0.0252: real time    0.0253
    EDDIAG:  cpu time    5.5674: real time    5.5687
  RMM-DIIS:  cpu time   19.9303: real time   19.9417
    ORTHCH:  cpu time    1.5571: real time    1.5576
       DOS:  cpu time    0.0087: real time    0.0087
    CHARGE:  cpu time    1.3402: real time    1.3404
    MIXING:  cpu time    0.0064: real time    0.0064
    --------------------------------------------
      LOOP:  cpu time   28.8557: real time   28.8811

 eigenvalue-minimisations  :  8171
 total energy-change (2. order) :-0.2443951E+01  (-0.1026209E+01)
 number of electron     609.0000041 magnetization      83.7242656
 augmentation part      335.9092377 magnetization      67.7799183

 DIPCOR: dipole corrections for dipol
 direction  3 min pos   243,
 dipolmoment           0.000000      0.000000      0.053657 electrons x Angstroem
 Tr[quadrupol]    -10433.589230

 energy correction for charged system         0.000000 eV
 dipol+quadrupol energy correction           -0.000139 eV
 added-field ion interaction          0.472628 eV  (added to PSCEN)


 Broyden mixing:
  rms(total) = 0.21361E+01    rms(broyden)= 0.21360E+01
  rms(prec ) = 0.27976E+01
  weight for this iteration     100.00

 eigenvalues of (default mixing * dielectric matrix)
  average eigenvalue GAMMA=   0.2489
  0.3809  0.1169

 Free energy of the ion-electron system (eV)
  ---------------------------------------------------
  alpha Z        PSCENC =      1453.24515405
  Ewald energy   TEWEN  =    196105.85928175
  -Hartree energ DENC   =   -251221.60249508
  -exchange      EXHF   =         0.00000000
  -V(xc)+E(xc)   XCENC  =      1288.56112347
  PAW double counting   =     61957.87762260   -64523.96724612
  entropy T*S    EENTRO =         0.04781885
  eigenvalues    EBANDS =     -1678.33034785
  atomic energy  EATOM  =     56161.11034558
  Solvation  Ediel_sol  =         0.00000000
  ---------------------------------------------------
  free energy    TOTEN  =      -457.19874275 eV

  energy without entropy =     -457.24656160  energy(sigma->0) =     -457.21468237


--------------------------------------------------------------------------------------------------------




--------------------------------------- Iteration      1(   4)  ---------------------------------------


    POTLOK:  cpu time    0.4203: real time    0.4342
    SETDIJ:  cpu time    0.0253: real time    0.0252
    EDDIAG:  cpu time    5.5665: real time    5.5682
  RMM-DIIS:  cpu time   19.9489: real time   19.9591
    ORTHCH:  cpu time    1.5587: real time    1.5589
       DOS:  cpu time    0.0086: real time    0.0086
    CHARGE:  cpu time    1.3396: real time    1.3399
    MIXING:  cpu time    0.0066: real time    0.0066
    --------------------------------------------
      LOOP:  cpu time   28.8744: real time   28.9007

 eigenvalue-minimisations  :  8185
 total energy-change (2. order) : 0.1375637E+01  (-0.1482108E+00)
 number of electron     609.0000040 magnetization      83.7224693
 augmentation part      335.4913410 magnetization      69.4734722

 DIPCOR: dipole corrections for dipol
 direction  3 min pos   243,
 dipolmoment           0.000000      0.000000      0.505984 electrons x Angstroem
 Tr[quadrupol]    -10434.066345

 energy correction for charged system         0.000000 eV
 dipol+quadrupol energy correction           -0.012336 eV
 added-field ion interaction          4.456852 eV  (added to PSCEN)


 Broyden mixing:
  rms(total) = 0.14825E+01    rms(broyden)= 0.14823E+01
  rms(prec ) = 0.19785E+01
  weight for this iteration     100.00

 eigenvalues of (default mixing * dielectric matrix)
  average eigenvalue GAMMA=   0.1965
  0.3334  0.2005  0.0556

 Free energy of the ion-electron system (eV)
  ---------------------------------------------------
  alpha Z        PSCENC =      1457.21718012
  Ewald energy   TEWEN  =    196105.85928175
  -Hartree energ DENC   =   -251231.77718769
  -exchange      EXHF   =         0.00000000
  -V(xc)+E(xc)   XCENC  =      1288.71377907
  PAW double counting   =     61951.00112794   -64515.54651676
  entropy T*S    EENTRO =         0.07582599
  eigenvalues    EBANDS =     -1672.47694212
  atomic energy  EATOM  =     56161.11034558
  Solvation  Ediel_sol  =         0.00000000
  ---------------------------------------------------
  free energy    TOTEN  =      -455.82310613 eV

  energy without entropy =     -455.89893212  energy(sigma->0) =     -455.84838146


--------------------------------------------------------------------------------------------------------




--------------------------------------- Iteration      1(   5)  ---------------------------------------


    POTLOK:  cpu time    0.4210: real time    0.4344
    SETDIJ:  cpu time    0.0253: real time    0.0253
    EDDIAG:  cpu time    5.5570: real time    5.5582
  RMM-DIIS:  cpu time   19.8944: real time   19.9024
    ORTHCH:  cpu time    1.5617: real time    1.5619
       DOS:  cpu time    0.0089: real time    0.0089
    CHARGE:  cpu time    1.3347: real time    1.3348
    MIXING:  cpu time    0.0067: real time    0.0066
    --------------------------------------------
      LOOP:  cpu time   28.8104: real time   28.8325

 eigenvalue-minimisations  :  8152
 total energy-change (2. order) : 0.1112814E+01  (-0.5664050E-01)
 number of electron     609.0000040 magnetization      83.7323379
 augmentation part      335.2070637 magnetization      69.4763511

 DIPCOR: dipole corrections for dipol
 direction  3 min pos   242,
 dipolmoment           0.000000      0.000000      0.306346 electrons x Angstroem
 Tr[quadrupol]    -10434.027655

 energy correction for charged system         0.000000 eV
 dipol+quadrupol energy correction           -0.004522 eV
 added-field ion interaction          1.504218 eV  (added to PSCEN)


 Broyden mixing:
  rms(total) = 0.40283E+00    rms(broyden)= 0.40270E+00
  rms(prec ) = 0.44013E+00
  weight for this iteration     100.00

 eigenvalues of (default mixing * dielectric matrix)
  average eigenvalue GAMMA=   0.2809
  0.4629  0.4629  0.1376  0.0602

 Free energy of the ion-electron system (eV)
  ---------------------------------------------------
  alpha Z        PSCENC =      1454.27236090
  Ewald energy   TEWEN  =    196105.85928175
  -Hartree energ DENC   =   -251239.78608862
  -exchange      EXHF   =         0.00000000
  -V(xc)+E(xc)   XCENC  =      1289.13103146
  PAW double counting   =     61945.85352929   -64511.32746631
  entropy T*S    EENTRO =         0.06927079
  eigenvalues    EBANDS =     -1659.89255676
  atomic energy  EATOM  =     56161.11034558
  Solvation  Ediel_sol  =         0.00000000
  ---------------------------------------------------
  free energy    TOTEN  =      -454.71029192 eV

  energy without entropy =     -454.77956271  energy(sigma->0) =     -454.73338218


--------------------------------------------------------------------------------------------------------




--------------------------------------- Iteration      1(   6)  ---------------------------------------


    POTLOK:  cpu time    0.4203: real time    0.4337
    SETDIJ:  cpu time    0.0251: real time    0.0251
    EDDIAG:  cpu time    5.5704: real time    5.5717
  RMM-DIIS:  cpu time   19.8136: real time   19.8196
    ORTHCH:  cpu time    1.5642: real time    1.5644
       DOS:  cpu time    0.0089: real time    0.0089
    CHARGE:  cpu time    1.3397: real time    1.3398
    MIXING:  cpu time    0.0069: real time    0.0069
    --------------------------------------------
      LOOP:  cpu time   28.7484: real time   28.7701

 eigenvalue-minimisations  :  8119
 total energy-change (2. order) :-0.1267438E+00  (-0.2838277E-01)
 number of electron     609.0000040 magnetization      83.7466680
 augmentation part      335.0933132 magnetization      69.5266769

 DIPCOR: dipole corrections for dipol
 direction  3 min pos   248,
 dipolmoment           0.000000      0.000000      0.351916 electrons x Angstroem
 Tr[quadrupol]    -10434.172806

 energy correction for charged system         0.000000 eV
 dipol+quadrupol energy correction           -0.005968 eV
 added-field ion interaction          9.958773 eV  (added to PSCEN)


 Broyden mixing:
  rms(total) = 0.65701E+00    rms(broyden)= 0.65699E+00
  rms(prec ) = 0.75174E+00
  weight for this iteration     100.00

 eigenvalues of (default mixing * dielectric matrix)
  average eigenvalue GAMMA=   0.2915
  0.5709  0.5709  0.0583  0.1460  0.1116

 Free energy of the ion-electron system (eV)
  ---------------------------------------------------
  alpha Z        PSCENC =      1462.72547016
  Ewald energy   TEWEN  =    196105.85928175
  -Hartree energ DENC   =   -251239.50883053
  -exchange      EXHF   =         0.00000000
  -V(xc)+E(xc)   XCENC  =      1289.39438910
  PAW double counting   =     61911.29499004   -64476.07260990
  entropy T*S    EENTRO =         0.07044197
  eigenvalues    EBANDS =     -1669.71051393
  atomic energy  EATOM  =     56161.11034558
  Solvation  Ediel_sol  =         0.00000000
  ---------------------------------------------------
  free energy    TOTEN  =      -454.83703576 eV

  energy without entropy =     -454.90747773  energy(sigma->0) =     -454.86051642


--------------------------------------------------------------------------------------------------------




--------------------------------------- Iteration      1(   7)  ---------------------------------------


    POTLOK:  cpu time    0.4200: real time    0.4336
    SETDIJ:  cpu time    0.0252: real time    0.0252
    EDDIAG:  cpu time    5.5792: real time    5.5803
  RMM-DIIS:  cpu time   19.7525: real time   19.7595
    ORTHCH:  cpu time    1.5483: real time    1.5485
       DOS:  cpu time    0.0090: real time    0.0090
    CHARGE:  cpu time    1.3391: real time    1.3393
    MIXING:  cpu time    0.0070: real time    0.0070
    --------------------------------------------
      LOOP:  cpu time   28.6802: real time   28.7023

 eigenvalue-minimisations  :  8099
 total energy-change (2. order) : 0.1605244E+00  (-0.1028907E-01)
 number of electron     609.0000040 magnetization      83.7483364
 augmentation part      335.3374737 magnetization      69.5150907

 DIPCOR: dipole corrections for dipol
 direction  3 min pos   247,
 dipolmoment           0.000000      0.000000      0.313038 electrons x Angstroem
 Tr[quadrupol]    -10434.226547

 energy correction for charged system         0.000000 eV
 dipol+quadrupol energy correction           -0.004722 eV
 added-field ion interaction          7.638320 eV  (added to PSCEN)


 Broyden mixing:
  rms(total) = 0.28266E+00    rms(broyden)= 0.28263E+00
  rms(prec ) = 0.30303E+00
  weight for this iteration     100.00

 eigenvalues of (default mixing * dielectric matrix)
  average eigenvalue GAMMA=   0.2712
  0.5747  0.5747  0.1605  0.1605  0.0587  0.0983

 Free energy of the ion-electron system (eV)
  ---------------------------------------------------
  alpha Z        PSCENC =      1460.40626325
  Ewald energy   TEWEN  =    196105.85928175
  -Hartree energ DENC   =   -251241.34965182
  -exchange      EXHF   =         0.00000000
  -V(xc)+E(xc)   XCENC  =      1289.21640435
  PAW double counting   =     61870.11251110   -64432.79864014
  entropy T*S    EENTRO =         0.07546390
  eigenvalues    EBANDS =     -1667.30848930
  atomic energy  EATOM  =     56161.11034558
  Solvation  Ediel_sol  =         0.00000000
  ---------------------------------------------------
  free energy    TOTEN  =      -454.67651134 eV

  energy without entropy =     -454.75197524  energy(sigma->0) =     -454.70166597


--------------------------------------------------------------------------------------------------------




--------------------------------------- Iteration      1(   8)  ---------------------------------------


    POTLOK:  cpu time    0.4186: real time    0.4326
    SETDIJ:  cpu time    0.0252: real time    0.0252
    EDDIAG:  cpu time    5.5681: real time    5.5692
  RMM-DIIS:  cpu time   19.7750: real time   19.7836
    ORTHCH:  cpu time    1.5507: real time    1.5509
       DOS:  cpu time    0.0091: real time    0.0092
    CHARGE:  cpu time    1.3362: real time    1.3364
    MIXING:  cpu time    0.0075: real time    0.0075
    --------------------------------------------
      LOOP:  cpu time   28.6913: real time   28.7145

 eigenvalue-minimisations  :  8120
 total energy-change (2. order) : 0.1776945E-01  (-0.2302519E-02)
 number of electron     609.0000040 magnetization      83.7601582
 augmentation part      335.3594466 magnetization      69.4606817

 DIPCOR: dipole corrections for dipol
 direction  3 min pos   246,
 dipolmoment           0.000000      0.000000      0.316186 electrons x Angstroem
 Tr[quadrupol]    -10434.237997

 energy correction for charged system         0.000000 eV
 dipol+quadrupol energy correction           -0.004817 eV
 added-field ion interaction          6.482624 eV  (added to PSCEN)


 Broyden mixing:
  rms(total) = 0.18971E+00    rms(broyden)= 0.18970E+00
  rms(prec ) = 0.19572E+00
  weight for this iteration     100.00

 eigenvalues of (default mixing * dielectric matrix)
  average eigenvalue GAMMA=   0.3087
  0.6790  0.6790  0.3653  0.1660  0.0585  0.1182  0.0946

 Free energy of the ion-electron system (eV)
  ---------------------------------------------------
  alpha Z        PSCENC =      1459.25047215
  Ewald energy   TEWEN  =    196105.85928175
  -Hartree energ DENC   =   -251242.92744593
  -exchange      EXHF   =         0.00000000
  -V(xc)+E(xc)   XCENC  =      1289.18723776
  PAW double counting   =     61858.64485158   -64420.87817370
  entropy T*S    EENTRO =         0.07199411
  eigenvalues    EBANDS =     -1664.97730517
  atomic energy  EATOM  =     56161.11034558
  Solvation  Ediel_sol  =         0.00000000
  ---------------------------------------------------
  free energy    TOTEN  =      -454.65874188 eV

  energy without entropy =     -454.73073599  energy(sigma->0) =     -454.68273992


--------------------------------------------------------------------------------------------------------




--------------------------------------- Iteration      1(   9)  ---------------------------------------


    POTLOK:  cpu time    0.4213: real time    0.4352
    SETDIJ:  cpu time    0.0253: real time    0.0253
    EDDIAG:  cpu time    5.5836: real time    5.5849
  RMM-DIIS:  cpu time   19.9106: real time   19.9179
    ORTHCH:  cpu time    1.5471: real time    1.5472
       DOS:  cpu time    0.0089: real time    0.0089
    CHARGE:  cpu time    1.3336: real time    1.3338
    MIXING:  cpu time    0.0075: real time    0.0076
    --------------------------------------------
      LOOP:  cpu time   28.8372: real time   28.8607

 eigenvalue-minimisations  :  8181
 total energy-change (2. order) : 0.2193435E-02  (-0.6940312E-03)
 number of electron     609.0000040 magnetization      83.7762620
 augmentation part      335.3725806 magnetization      69.4877545

 DIPCOR: dipole corrections for dipol
 direction  3 min pos   246,
 dipolmoment           0.000000      0.000000      0.317566 electrons x Angstroem
 Tr[quadrupol]    -10434.254504

 energy correction for charged system         0.000000 eV
 dipol+quadrupol energy correction           -0.004859 eV
 added-field ion interaction          6.510920 eV  (added to PSCEN)


 Broyden mixing:
  rms(total) = 0.18460E+00    rms(broyden)= 0.18460E+00
  rms(prec ) = 0.19451E+00
  weight for this iteration     100.00

 eigenvalues of (default mixing * dielectric matrix)
  average eigenvalue GAMMA=   0.3338
  0.8335  0.8335  0.4221  0.1738  0.0586  0.1280  0.1280  0.0926

 Free energy of the ion-electron system (eV)
  ---------------------------------------------------
  alpha Z        PSCENC =      1459.27872561
  Ewald energy   TEWEN  =    196105.85928175
  -Hartree energ DENC   =   -251244.31561634
  -exchange      EXHF   =         0.00000000
  -V(xc)+E(xc)   XCENC  =      1289.23948702
  PAW double counting   =     61829.81690649   -64391.21197373
  entropy T*S    EENTRO =         0.07360808
  eigenvalues    EBANDS =     -1664.50731292
  atomic energy  EATOM  =     56161.11034558
  Solvation  Ediel_sol  =         0.00000000
  ---------------------------------------------------
  free energy    TOTEN  =      -454.65654845 eV

  energy without entropy =     -454.73015653  energy(sigma->0) =     -454.68108447


--------------------------------------------------------------------------------------------------------




--------------------------------------- Iteration      1(  10)  ---------------------------------------


    POTLOK:  cpu time    0.4193: real time    0.4326
    SETDIJ:  cpu time    0.0250: real time    0.0250
    EDDIAG:  cpu time    5.5780: real time    5.5793
  RMM-DIIS:  cpu time   19.7553: real time   19.7611
    ORTHCH:  cpu time    1.5491: real time    1.5494
       DOS:  cpu time    0.0086: real time    0.0086
    CHARGE:  cpu time    1.3343: real time    1.3344
    MIXING:  cpu time    0.0077: real time    0.0077
    --------------------------------------------
      LOOP:  cpu time   28.6782: real time   28.6982

 eigenvalue-minimisations  :  8096
 total energy-change (2. order) : 0.7763729E-02  (-0.3743719E-03)
 number of electron     609.0000040 magnetization      83.7936549
 augmentation part      335.3897413 magnetization      69.5116875

 DIPCOR: dipole corrections for dipol
 direction  3 min pos   247,
 dipolmoment           0.000000      0.000000      0.319050 electrons x Angstroem
 Tr[quadrupol]    -10434.343741

 energy correction for charged system         0.000000 eV
 dipol+quadrupol energy correction           -0.004905 eV
 added-field ion interaction          7.785012 eV  (added to PSCEN)


 Broyden mixing:
  rms(total) = 0.15070E+00    rms(broyden)= 0.15070E+00
  rms(prec ) = 0.16286E+00
  weight for this iteration     100.00

 eigenvalues of (default mixing * dielectric matrix)
  average eigenvalue GAMMA=   0.3808
  1.0102  1.0102  0.4203  0.4203  0.0586  0.1581  0.1432  0.1133  0.0930

 Free energy of the ion-electron system (eV)
  ---------------------------------------------------
  alpha Z        PSCENC =      1460.55277206
  Ewald energy   TEWEN  =    196105.85928175
  -Hartree energ DENC   =   -251246.87660645
  -exchange      EXHF   =         0.00000000
  -V(xc)+E(xc)   XCENC  =      1289.30311599
  PAW double counting   =     61792.28786538   -64352.59601993
  entropy T*S    EENTRO =         0.07346466
  eigenvalues    EBANDS =     -1664.36300375
  atomic energy  EATOM  =     56161.11034558
  Solvation  Ediel_sol  =         0.00000000
  ---------------------------------------------------
  free energy    TOTEN  =      -454.64878472 eV

  energy without entropy =     -454.72224938  energy(sigma->0) =     -454.67327294


--------------------------------------------------------------------------------------------------------




--------------------------------------- Iteration      1(  11)  ---------------------------------------


    POTLOK:  cpu time    0.4236: real time    0.4378
    SETDIJ:  cpu time    0.0251: real time    0.0251
    EDDIAG:  cpu time    5.5863: real time    5.5875
  RMM-DIIS:  cpu time   19.7790: real time   19.7865
    ORTHCH:  cpu time    1.5468: real time    1.5471
       DOS:  cpu time    0.0091: real time    0.0091
    CHARGE:  cpu time    1.3340: real time    1.3341
    MIXING:  cpu time    0.0078: real time    0.0078
    --------------------------------------------
      LOOP:  cpu time   28.7118: real time   28.7350

 eigenvalue-minimisations  :  8120
 total energy-change (2. order) : 0.5117718E-02  (-0.3816994E-03)
 number of electron     609.0000040 magnetization      83.8305382
 augmentation part      335.4118151 magnetization      69.5538153

 DIPCOR: dipole corrections for dipol
 direction  3 min pos   250,
 dipolmoment           0.000000      0.000000      0.318700 electrons x Angstroem
 Tr[quadrupol]    -10434.500562

 energy correction for charged system         0.000000 eV
 dipol+quadrupol energy correction           -0.004894 eV
 added-field ion interaction         11.503433 eV  (added to PSCEN)


 Broyden mixing:
  rms(total) = 0.13618E+00    rms(broyden)= 0.13617E+00
  rms(prec ) = 0.15118E+00
  weight for this iteration     100.00

 eigenvalues of (default mixing * dielectric matrix)
  average eigenvalue GAMMA=   0.4310
  1.2726  1.2726  0.5316  0.5316  0.0586  0.1585  0.1585  0.0927  0.1210  0.1129

 Free energy of the ion-electron system (eV)
  ---------------------------------------------------
  alpha Z        PSCENC =      1464.27120389
  Ewald energy   TEWEN  =    196105.85928175
  -Hartree energ DENC   =   -251248.70188516
  -exchange      EXHF   =         0.00000000
  -V(xc)+E(xc)   XCENC  =      1289.34263737
  PAW double counting   =     61757.73839018   -64316.96620898
  entropy T*S    EENTRO =         0.07360128
  eigenvalues    EBANDS =     -1667.37103291
  atomic energy  EATOM  =     56161.11034558
  Solvation  Ediel_sol  =         0.00000000
  ---------------------------------------------------
  free energy    TOTEN  =      -454.64366700 eV

  energy without entropy =     -454.71726828  energy(sigma->0) =     -454.66820076


--------------------------------------------------------------------------------------------------------




--------------------------------------- Iteration      1(  12)  ---------------------------------------


    POTLOK:  cpu time    0.4185: real time    0.4321
    SETDIJ:  cpu time    0.0251: real time    0.0251
    EDDIAG:  cpu time    5.5700: real time    5.5709
  RMM-DIIS:  cpu time   19.6889: real time   19.6963
    ORTHCH:  cpu time    1.5512: real time    1.5513
       DOS:  cpu time    0.0082: real time    0.0082
    CHARGE:  cpu time    1.3300: real time    1.3302
    MIXING:  cpu time    0.0080: real time    0.0080
    --------------------------------------------
      LOOP:  cpu time   28.5991: real time   28.6223

 eigenvalue-minimisations  :  8107
 total energy-change (2. order) : 0.1494031E-01  (-0.4646642E-03)
 number of electron     609.0000040 magnetization      83.8463849
 augmentation part      335.4863128 magnetization      69.5790941

 DIPCOR: dipole corrections for dipol
 direction  3 min pos   251,
 dipolmoment           0.000000      0.000000      0.316978 electrons x Angstroem
 Tr[quadrupol]    -10434.574049

 energy correction for charged system         0.000000 eV
 dipol+quadrupol energy correction           -0.004841 eV
 added-field ion interaction         12.676880 eV  (added to PSCEN)


 Broyden mixing:
  rms(total) = 0.79063E-01    rms(broyden)= 0.79061E-01
  rms(prec ) = 0.89876E-01
  weight for this iteration     100.00

 eigenvalues of (default mixing * dielectric matrix)
  average eigenvalue GAMMA=   0.4456
  1.3804  1.3804  0.5447  0.5447  0.3478  0.1731  0.0586  0.1385  0.1294  0.0927
  0.1109

 Free energy of the ion-electron system (eV)
  ---------------------------------------------------
  alpha Z        PSCENC =      1465.44470357
  Ewald energy   TEWEN  =    196105.85928175
  -Hartree energ DENC   =   -251250.96889855
  -exchange      EXHF   =         0.00000000
  -V(xc)+E(xc)   XCENC  =      1289.39421551
  PAW double counting   =     61691.78477793   -64248.85625980
  entropy T*S    EENTRO =         0.07307908
  eigenvalues    EBANDS =     -1668.46997177
  atomic energy  EATOM  =     56161.11034558
  Solvation  Ediel_sol  =         0.00000000
  ---------------------------------------------------
  free energy    TOTEN  =      -454.62872669 eV

  energy without entropy =     -454.70180577  energy(sigma->0) =     -454.65308638


--------------------------------------------------------------------------------------------------------




--------------------------------------- Iteration      1(  13)  ---------------------------------------


    POTLOK:  cpu time    0.4220: real time    0.4345
    SETDIJ:  cpu time    0.0251: real time    0.0251
    EDDIAG:  cpu time    5.5674: real time    5.5686
  RMM-DIIS:  cpu time   19.6670: real time   19.6727
    ORTHCH:  cpu time    1.5476: real time    1.5478
       DOS:  cpu time    0.0091: real time    0.0091
    CHARGE:  cpu time    1.3272: real time    1.3272
    MIXING:  cpu time    0.0082: real time    0.0082
    --------------------------------------------
      LOOP:  cpu time   28.5736: real time   28.5933

 eigenvalue-minimisations  :  8085
 total energy-change (2. order) : 0.3320464E-02  (-0.2102221E-03)
 number of electron     609.0000040 magnetization      83.8701155
 augmentation part      335.5157929 magnetization      69.5951099

 DIPCOR: dipole corrections for dipol
 direction  3 min pos   251,
 dipolmoment           0.000000      0.000000      0.314473 electrons x Angstroem
 Tr[quadrupol]    -10434.597807

 energy correction for charged system         0.000000 eV
 dipol+quadrupol energy correction           -0.004765 eV
 added-field ion interaction         12.576729 eV  (added to PSCEN)


 Broyden mixing:
  rms(total) = 0.65622E-01    rms(broyden)= 0.65620E-01
  rms(prec ) = 0.73388E-01
  weight for this iteration     100.00

 eigenvalues of (default mixing * dielectric matrix)
  average eigenvalue GAMMA=   0.4816
  1.5520  1.5520  0.6637  0.6637  0.5058  0.0586  0.1727  0.1441  0.1441  0.0927
  0.1186  0.1109

 Free energy of the ion-electron system (eV)
  ---------------------------------------------------
  alpha Z        PSCENC =      1465.34462852
  Ewald energy   TEWEN  =    196105.85928175
  -Hartree energ DENC   =   -251252.08891270
  -exchange      EXHF   =         0.00000000
  -V(xc)+E(xc)   XCENC  =      1289.38428482
  PAW double counting   =     61671.19037170   -64227.54187051
[...]
   0.228E+02 0.452E+02 -.556E+03   -.230E+02 -.449E+02 0.556E+03   0.148E+00 -.245E+00 0.631E+00   0.183E-02 0.119E-01 -.438E-01
   -.188E+02 0.117E+02 0.227E+04   0.190E+02 -.117E+02 -.227E+04   -.198E+00 -.994E-01 -.290E+01   0.658E-02 -.392E-02 -.157E-02
   0.987E+01 -.748E+02 -.193E+04   -.106E+02 0.759E+02 0.193E+04   0.673E+00 -.110E+01 0.201E+01   0.172E-01 -.716E-03 -.111E-01
   -.481E+02 -.519E+02 0.780E+03   0.482E+02 0.521E+02 -.780E+03   -.436E-01 0.816E-02 -.287E+00   0.182E-02 -.461E-01 -.639E-01
   -.134E+03 -.204E+02 -.610E+03   0.135E+03 0.204E+02 0.610E+03   -.625E+00 0.861E-01 0.425E+00   -.277E-01 -.357E-01 -.594E-01
   0.709E+02 -.412E+02 0.831E+03   -.713E+02 0.412E+02 -.831E+03   0.206E+00 0.152E+00 -.252E+00   0.345E-01 -.217E-01 -.180E-01
   0.696E+02 -.399E+02 -.530E+03   -.703E+02 0.397E+02 0.529E+03   0.589E+00 0.194E+00 0.927E+00   0.639E-01 -.607E-01 -.462E-01
   0.265E+01 -.554E+01 0.225E+04   -.258E+01 0.531E+01 -.224E+04   -.442E-01 0.103E+00 -.281E+01   0.342E-02 -.114E-01 -.540E-02
   0.433E+01 0.518E+01 -.194E+04   -.455E+01 -.506E+01 0.194E+04   0.209E+00 -.917E-01 0.432E+01   0.243E-01 -.149E-01 -.404E-01
   0.431E+02 -.623E+01 0.226E+04   -.433E+02 0.616E+01 -.226E+04   0.152E+00 -.179E+00 -.255E+01   -.317E-02 0.185E-02 0.732E-02
   0.224E+02 -.698E+01 -.204E+04   -.222E+02 0.733E+01 0.203E+04   -.102E+00 -.356E+00 0.412E+01   -.819E-02 0.266E-02 -.438E-01
   -.110E+03 0.481E+02 0.783E+03   0.111E+03 -.484E+02 -.784E+03   -.203E+00 0.165E+00 -.224E+00   -.497E-01 0.285E-01 -.623E-01
   -.354E+01 0.386E+02 0.794E+03   0.349E+01 -.389E+02 -.795E+03   0.548E-01 0.131E+00 0.495E-01   0.389E-01 0.210E-01 -.616E-01
   0.469E+01 0.498E+02 -.540E+03   -.458E+01 -.497E+02 0.540E+03   -.141E+00 -.241E-01 -.714E+00   0.179E-01 0.744E-02 -.391E-01
   -.743E+02 0.217E+02 0.221E+04   0.748E+02 -.217E+02 -.221E+04   -.359E+00 0.156E+00 -.282E+01   -.151E-01 0.137E-02 -.160E-01
   -.128E+03 -.330E+01 -.198E+04   0.128E+03 0.374E+01 0.198E+04   -.784E+00 -.441E+00 0.117E+01   -.402E-01 0.102E-02 0.340E-01
   0.186E+02 0.439E+01 -.562E+03   -.190E+02 -.362E+01 0.561E+03   0.288E+00 -.764E+00 0.362E+00   0.979E-01 -.391E-02 -.396E-01
   0.707E+02 -.546E+02 -.616E+03   -.705E+02 0.546E+02 0.616E+03   -.237E+00 0.156E-01 -.714E+00   -.714E-03 -.498E-04 -.309E-01
   0.544E+02 -.244E+01 0.226E+04   -.546E+02 0.235E+01 -.226E+04   0.224E+00 0.164E+00 -.283E+01   0.136E-01 -.189E-02 0.368E-02
   -.866E+02 -.359E+02 -.199E+04   0.875E+02 0.359E+02 0.199E+04   -.962E+00 0.631E-01 0.198E+01   0.282E-01 0.206E-02 -.314E-01
   0.496E+02 -.318E+02 -.577E+03   -.496E+02 0.321E+02 0.576E+03   0.405E-02 -.355E+00 0.352E+00   0.166E-02 0.112E-01 -.343E-01
   -.434E+02 0.271E+02 -.558E+03   0.434E+02 -.272E+02 0.557E+03   0.692E-01 -.600E-01 0.816E+00   -.303E-01 0.657E-01 -.466E-01
   -.111E+02 0.379E+02 -.557E+03   0.116E+02 -.385E+02 0.557E+03   -.578E+00 0.579E+00 0.285E+00   0.394E-01 0.602E-01 -.343E-01
   0.225E+00 -.189E+01 -.589E+03   -.785E+00 0.155E+01 0.588E+03   0.529E+00 0.353E+00 0.347E+00   0.412E-01 -.103E-01 -.356E-01
   0.203E+01 0.473E+01 0.221E+04   -.215E+01 -.465E+01 -.221E+04   -.169E+00 0.668E-01 -.279E+01   0.138E-01 0.367E-02 -.100E-01
   0.187E+01 0.563E+01 -.187E+04   -.106E+01 -.530E+01 0.188E+04   -.851E+00 -.314E+00 -.114E+01   0.513E-01 0.130E-02 -.120E-01
   -.396E+02 -.647E+02 -.195E+04   0.398E+02 0.626E+02 0.198E+04   -.199E+00 0.208E+01 -.252E+02   -.991E-02 -.147E-01 -.240E-02
   0.442E+01 0.411E+02 -.200E+04   -.711E+01 -.417E+02 0.203E+04   0.265E+01 0.540E+00 -.277E+02   0.254E-01 -.705E-02 0.252E-02
   -.418E+02 -.841E+01 -.202E+04   0.402E+02 0.836E+01 0.205E+04   0.167E+01 0.695E-01 -.267E+02   -.279E-01 -.312E-02 0.218E-01
   0.307E+02 -.184E+02 -.204E+04   -.301E+02 0.178E+02 0.207E+04   -.563E+00 0.496E+00 -.281E+02   -.152E-02 0.107E-01 0.719E-02
   0.269E+02 0.256E+02 -.192E+04   -.546E+02 -.456E+02 0.193E+04   0.277E+02 0.201E+02 -.533E+01   -.328E-01 -.224E-01 0.385E-01
   -.570E+02 -.393E+02 -.339E+03   0.631E+02 0.435E+02 0.342E+03   -.611E+01 -.418E+01 -.346E+01   -.593E-03 -.955E-03 0.281E-02
 -----------------------------------------------------------------------------------------------
   -.264E+02 -.211E+02 0.123E+03   0.853E-13 -.341E-12 -.153E-11   0.261E+02 0.210E+02 -.122E+03   0.291E+00 0.174E+00 -.159E+01
 
 
 POSITION                                       TOTAL-FORCE (eV/Angst)
 -----------------------------------------------------------------------------------
     10.08740      0.00562      4.04934        -0.027505      0.028103     -0.263712
     -2.53339      8.73512      4.08190        -0.019664      0.019851     -0.071693
      5.03058      0.01686      4.07661         0.048494     -0.121720     -0.113125
      8.81557      2.19268      4.07950        -0.077073     -0.068284     -0.178996
      1.26036      2.17683      4.06343        -0.199548     -0.052717     -0.072845
      2.52334      1.43996      6.10543         0.000836      0.001444      0.002278
      6.28789      2.21111      4.10570         0.140785     -0.034997     -0.332319
      3.80181      0.73423      2.00037         0.093492      0.011644      0.470763
      3.77296      0.74908      8.12225         0.002333      0.006840      0.004108
      7.55692      1.45470      6.15314         0.012449     -0.002374      0.016478
      6.31884      0.74108      2.03384         0.006782     -0.068203      0.430365
      6.29953      0.75885      8.15292         0.017373      0.006742     -0.008434
      7.57051      4.36576      4.10283         0.022058      0.104638     -0.421474
      5.03817      4.36229      4.08171        -0.026220     -0.013884     -0.191328
      3.77927      3.66238      6.08638         0.006645      0.008768     -0.000480
      2.55462      2.91604      2.00083         0.069272      0.104889      0.384725
      2.52014      2.88373      8.10114         0.004906     -0.009242     -0.002943
      6.28216      3.64071      6.10900         0.003698      0.009387      0.004476
      7.58585      2.93043      2.03371         0.131316      0.033031      0.446383
      7.55236      2.90389      8.17257         0.008091     -0.003584     -0.001698
      6.29425      6.55133      4.09263         0.040819     -0.034822     -0.203654
     -2.52626      5.82341      6.09880         0.008764     -0.003203      0.007801
      3.81389      6.57546      4.07284        -0.254974     -0.065235     -0.067174
      1.26871      5.10416      2.04534        -0.023447      0.088275      0.265525
      1.22348      5.08248      8.13882        -0.000456     -0.001493     -0.008301
      6.29450      5.11374      2.02823        -0.009290      0.080141      0.398530
      6.22814      5.12499      8.16362         0.005201     -0.002244      0.002017
     -2.53139      7.30304      2.00991         0.031721     -0.138350      0.327761
     -2.55941      7.31547      8.01641         0.007052      0.002625     -0.003278
      0.00464      7.28975      2.05722         0.050943      0.057967      0.293496
     -0.02781      7.27864      8.18349         0.008715      0.009779     -0.002882
      5.08583      7.28318      2.02757        -0.173166      0.058695      0.344361
      5.03956      7.29682      8.08914         0.010253      0.005418     -0.008804
      7.54405      0.03969      4.10439         0.146327     -0.081326     -0.288034
     -0.03879      1.40587      6.04549        -0.001561      0.000626      0.009261
      3.74186      2.14689      4.07389        -0.098864      0.059867     -0.432706
      1.31001      0.72945      2.02674        -0.014524     -0.018410      0.246040
      1.33917      0.75024      8.16105         0.015567      0.008565     -0.009489
      5.08007      1.45779      6.06839         0.013941     -0.013037      0.006824
      8.82791      0.75063      2.00000        -0.010873     -0.081146      0.107827
      8.78672      0.76680      8.14953        -0.022141      0.023834     -0.026077
     -0.02406      4.34464      4.11684         0.045668      0.202855     -0.311647
     -1.33556      3.65372      6.10571         0.003542      0.004325      0.007915
      2.55702      4.37025      4.05869        -0.104335      0.119914     -0.248735
      1.29026      3.64501      6.06572         0.003866      0.009596      0.005714
      0.02215      2.94990      2.02984         0.029731     -0.146316      0.041836
     -0.01496      2.89954      8.00639         0.006148      0.012365     -0.015167
      5.09719      2.93887      2.04043        -0.072594     -0.230117      0.036050
      5.03280      2.93653      8.05280         0.002956      0.002806     -0.007016
     -1.32764      6.58396      4.11125         0.067702     -0.097989     -0.354951
      1.24700      6.55932      4.09363         0.048547     -0.120114     -0.417270
      0.11814      5.88363      6.13593         0.005921      0.002138      0.008548
     -1.29718      5.12819      2.06865         0.105268      0.087731      0.194185
     -1.25892      5.16190      8.17715        -0.018355     -0.002480      0.010282
      2.50444      5.87926      6.11757         0.003056      0.009449      0.003989
      5.03092      5.78441      6.12496        -0.003777      0.003862     -0.000239
      3.79261      5.11061      2.02334         0.043398      0.069537     -0.004232
      3.77533      5.13403      8.26361         0.017940      0.002352      0.000061
     -3.80351      8.01499      6.05238        -0.001125      0.004535      0.010741
     -1.24473      7.99611      6.11745         0.015689     -0.006063      0.003854
      1.29420      7.96190      6.13264         0.004381     -0.003381      0.013359
      3.68429      7.96243      6.11035         0.003929     -0.001834      0.005169
      2.54183      7.29082      2.05307        -0.262936      0.148331      0.017165
      2.51401      7.28760      8.29261         0.012532      0.008904      0.027195
      0.00575      0.10821      9.26312         0.038024     -0.004662      0.017982
      2.50772      4.30274      9.29118        -0.000286     -0.000891     -0.011806
     -2.52029      4.40910      9.26961         0.010330      0.013285     -0.023514
      5.01623      0.03721      9.27025        -0.001870     -0.003099     -0.023615
      2.70284      7.25391     10.07862         0.030893      0.015648     -0.030116
      3.43806      7.75866     10.47882         0.017226     -0.017547     -0.015306
 -----------------------------------------------------------------------------------
    total drift:                                0.017508      0.008470     -0.008330


--------------------------------------------------------------------------------------------------------



  FREE ENERGIE OF THE ION-ELECTRON SYSTEM (eV)
  ---------------------------------------------------
  free  energy   TOTEN  =      -470.41569150 eV

  energy  without entropy=     -470.48737984  energy(sigma->0) =     -470.43958761
 
 d Force = 0.3340234E-03[ 0.303E-03, 0.365E-03]  d Energy = 0.3665939E-03-0.326E-04
 d Force =-0.1512176E+02[-0.151E+02,-0.151E+02]  d Ewald  =-0.1512176E+02-0.119E-05


--------------------------------------------------------------------------------------------------------


    POTLOK:  cpu time    0.4579: real time    0.4581


--------------------------------------------------------------------------------------------------------


 stress matrix after NEB project (eV)
    -32.94306     -1.27108      0.99078
     -1.27108    -36.13461      0.20048
      0.99078      0.20048     -9.17412
  FORCES: max atom, RMS     0.045894    0.014357
  FORCE total and by dimension    0.120123    0.038024
  Stress total and by dimension   49.803564   36.134613
 Conjugate gradient step on ions:
 trial-energy change:   -0.000367  1 .order   -0.000334   -0.000365   -0.000303
  (g-gl).g = 0.939E-03      g.g   = 0.871E-03  gl.gl    = 0.955E-03
 g(Force)  = 0.871E-03   g(Stress)= 0.000E+00 ortho     =-0.978E-04
 gamma     =   0.98292
 trial     =   0.47144
 opt step  =   1.88577  (harmonic =   2.76655) maximal distance =0.00742262
 next E    =  -470.416396   (d E  =  -0.00107)


--------------------------------------------------------------------------------------------------------


  
 reached required accuracy - stopping structural energy minimisation
 writing wavefunctions
     LOOP+:  cpu time  238.3279: real time  258.3493
    4ORBIT:  cpu time    0.0010: real time    0.0000
 


 total charge     
 
# of ion       s       p       d       tot
------------------------------------------
    1        0.506   0.505   8.326   9.337
    2        0.505   0.510   8.331   9.347
    3        0.508   0.510   8.323   9.341
    4        0.506   0.512   8.317   9.335
    5        0.510   0.519   8.323   9.352
    6        0.515   0.529   8.320   9.364
    7        0.502   0.503   8.322   9.328
    8        0.488   0.370   8.310   9.168
    9        0.511   0.527   8.334   9.371
   10        0.519   0.525   8.350   9.394
   11        0.495   0.377   8.309   9.181
   12        0.503   0.507   8.343   9.353
   13        0.504   0.504   8.319   9.327
   14        0.505   0.512   8.320   9.336
   15        0.517   0.527   8.328   9.372
   16        0.501   0.394   8.309   9.203
   17        0.508   0.526   8.340   9.374
   18        0.510   0.510   8.337   9.358
   19        0.493   0.381   8.319   9.193
   20        0.497   0.498   8.340   9.335
   21        0.496   0.496   8.317   9.309
   22        0.511   0.513   8.330   9.354
   23        0.511   0.518   8.328   9.356
   24        0.505   0.399   8.306   9.211
   25        0.503   0.507   8.334   9.344
   26        0.493   0.377   8.319   9.188
   27        0.491   0.489   8.330   9.309
   28        0.495   0.368   8.318   9.181
   29        0.494   0.392   8.362   9.248
   30        0.491   0.376   8.311   9.178
   31        0.502   0.505   8.333   9.339
   32        0.497   0.388   8.302   9.187
   33        0.489   0.481   8.348   9.319
   34        0.475   0.508   6.178   7.161
   35        0.475   0.512   6.205   7.192
   36        0.469   0.502   6.177   7.148
   37        0.465   0.387   6.113   6.965
   38        0.476   0.515   6.179   7.170
   39        0.476   0.511   6.195   7.182
   40        0.463   0.380   6.132   6.975
   41        0.472   0.511   6.219   7.202
   42        0.478   0.515   6.225   7.218
   43        0.477   0.509   6.202   7.188
   44        0.476   0.506   6.204   7.186
   45        0.485   0.514   6.208   7.207
   46        0.468   0.386   6.141   6.995
   47        0.467   0.401   6.207   7.075
   48        0.467   0.390   6.108   6.965
   49        0.457   0.393   6.158   7.009
   50        0.473   0.506   6.194   7.173
   51        0.483   0.522   6.206   7.212
   52        0.501   0.545   6.264   7.310
   53        0.465   0.387   6.130   6.983
   54        0.475   0.506   6.169   7.150
   55        0.500   0.553   6.238   7.290
   56        0.479   0.515   6.173   7.167
   57        0.470   0.390   6.140   7.000
   58        0.462   0.496   6.198   7.157
   59        0.477   0.511   6.191   7.179
   60        0.481   0.513   6.188   7.182
   61        0.500   0.550   6.237   7.287
   62        0.495   0.536   6.211   7.242
   63        0.470   0.389   6.139   6.998
   64        0.479   0.547   6.160   7.185
   65        1.579   3.372   0.000   4.951
   66        1.582   3.348   0.000   4.930
   67        1.580   3.352   0.000   4.932
   68        1.583   3.334   0.000   4.917
   69        1.571   3.482   0.000   5.053
   70        0.606   0.120   0.000   0.726
--------------------------------------------------
tot         39.839  47.468 466.447 553.754
 


 magnetization (x)
 
# of ion       s       p       d       tot
------------------------------------------
    1       -0.014  -0.040   0.653   0.599
    2       -0.019  -0.040   0.686   0.627
    3       -0.018  -0.035   0.657   0.604
    4       -0.022  -0.044   0.738   0.671
    5       -0.025  -0.052   0.711   0.634
    6       -0.018  -0.047   0.647   0.581
    7       -0.018  -0.037   0.704   0.649
    8       -0.018  -0.033   0.709   0.658
    9       -0.016  -0.024   0.559   0.519
   10       -0.010  -0.025   0.380   0.346
   11       -0.016  -0.031   0.699   0.652
   12       -0.013  -0.020   0.387   0.354
   13       -0.017  -0.037   0.747   0.693
   14       -0.021  -0.043   0.722   0.658
   15       -0.023  -0.052   0.689   0.614
   16       -0.028  -0.050   0.731   0.653
   17       -0.016  -0.026   0.520   0.479
   18       -0.015  -0.039   0.707   0.652
   19       -0.022  -0.034   0.672   0.616
   20       -0.014  -0.020   0.516   0.482
   21       -0.015  -0.030   0.718   0.673
   22       -0.018  -0.044   0.695   0.633
   23       -0.013  -0.036   0.457   0.408
   24       -0.027  -0.043   0.735   0.666
   25       -0.010  -0.014   0.336   0.312
   26       -0.020  -0.029   0.669   0.620
   27       -0.014  -0.027   0.533   0.492
   28       -0.016  -0.027   0.694   0.652
   29       -0.024  -0.019   0.755   0.712
   30       -0.018  -0.031   0.685   0.636
   31       -0.007  -0.008   0.363   0.348
   32       -0.019  -0.038   0.712   0.654
   33       -0.017  -0.030   0.330   0.282
   34        0.011  -0.010   2.540   2.541
   35       -0.003  -0.035   2.626   2.589
   36        0.004  -0.017   2.732   2.719
   37        0.011  -0.011   2.897   2.896
   38        0.009   0.003   2.684   2.696
   39        0.006  -0.016   2.653   2.644
   40        0.007  -0.014   2.836   2.829
   41        0.013   0.004   2.473   2.490
   42       -0.007  -0.035   2.451   2.410
   43        0.000  -0.027   2.642   2.616
   44        0.002  -0.015   2.595   2.582
   45        0.005  -0.017   2.560   2.548
   46        0.008  -0.019   2.832   2.821
   47       -0.008  -0.010   2.814   2.796
   48        0.014  -0.010   2.915   2.920
   49        0.007  -0.000   2.933   2.940
   50        0.003  -0.015   2.604   2.591
   51        0.008  -0.004   2.416   2.421
   52       -0.023  -0.040  -1.541  -1.605
   53        0.008  -0.009   2.844   2.842
   54        0.017   0.014   2.673   2.703
   55       -0.026  -0.040  -1.937  -2.003
   56        0.015  -0.002   2.589   2.602
   57        0.012  -0.008   2.825   2.828
   58        0.014   0.003   2.550   2.568
   59        0.004  -0.017   2.689   2.676
   60        0.011  -0.007   2.638   2.642
   61       -0.024  -0.030  -2.024  -2.078
   62       -0.029  -0.048  -2.125  -2.203
   63        0.009  -0.010   2.810   2.810
   64        0.014   0.031   2.600   2.645
   65        0.003   0.096   0.000   0.099
   66        0.003   0.085   0.000   0.088
   67        0.002   0.094   0.000   0.097
   68        0.002   0.081   0.000   0.083
   69        0.006   0.175   0.000   0.181
   70        0.007   0.003   0.000   0.010
--------------------------------------------------
tot         -0.463  -0.983  85.311  83.865
 

 total amount of memory used by VASP MPI-rank0   116165. kBytes
=======================================================================

   base      :      30000. kBytes
   nonlr-proj:      13917. kBytes
   fftplans  :       6403. kBytes
   grid      :      18928. kBytes
   one-center:         93. kBytes
   wavefun   :      46824. kBytes
 
  
  
 General timing and accounting informations for this job:
 ========================================================
  
                  Total CPU time used (sec):     3157.429
                            User time (sec):     3052.323
                          System time (sec):      105.106
                         Elapsed time (sec):     3183.394
  
                   Maximum memory used (kb):      356184.
                   Average memory used (kb):           0.
  
                          Minor page faults:     17216338
                          Major page faults:            0
                 Voluntary context switches:         4298
