SQS-NiFe                                
           1
    10.100310    0.000000    0.000000
    -5.050155    8.747125    0.000000
     0.000000    0.000000   21.253800
   Ni   Fe   O    H 
  33  31   5   1
Direct configuration=     1
   0.99904300  0.00064200  0.19052300
   0.24849100  0.99862800  0.19205500
   0.49902500  0.00192700  0.19180600
   0.99813900  0.25067400  0.19194200
   0.24921500  0.24886200  0.19118600
   0.33149554  0.16451604  0.28748832
   0.74893500  0.25278100  0.19317500
   0.41837500  0.08394000  0.09411800
   0.41585989  0.08611699  0.38259557
   0.83103337  0.16630436  0.28955811
   0.66797000  0.08472300  0.09569300
   0.66701019  0.08699186  0.38345745
   0.99908600  0.49910800  0.19304000
   0.74816900  0.49871100  0.19204600
   0.58335789  0.41890256  0.28651636
   0.41961000  0.33337100  0.09414000
   0.41354023  0.32875294  0.38145701
   0.83008733  0.41647570  0.28765935
   0.91855900  0.33501600  0.09568700
   0.91348423  0.33136669  0.38479365
   0.99765800  0.74896900  0.19256000
   0.08300775  0.66554876  0.28704759
   0.75346500  0.75172800  0.19162900
   0.41737300  0.58352400  0.09623400
   0.41097552  0.58051135  0.38294673
   0.91550800  0.58461900  0.09542900
   0.90961443  0.58589077  0.38406137
   0.16682900  0.83490800  0.09456700
   0.16443430  0.83619363  0.37714891
   0.41715300  0.83338800  0.09679300
   0.41293544  0.83178391  0.38499231
   0.91985100  0.83263700  0.09539800
   0.91565250  0.83430079  0.38053223
   0.74918200  0.00453800  0.19311300
   0.07599239  0.16052831  0.28462611
   0.49319000  0.24544000  0.19167800
   0.17139600  0.08339300  0.09535900
   0.17503203  0.08540134  0.38397276
   0.58584881  0.16627485  0.28578162
   0.91693100  0.08581500  0.09410100
   0.91343666  0.08726301  0.38320050
   0.24596400  0.49669300  0.19369900
   0.07640971  0.41734195  0.28762541
   0.50297300  0.49962100  0.19096300
   0.33586001  0.41680956  0.28564709
   0.17081400  0.33724200  0.09550500
   0.16428987  0.33121483  0.37692987
   0.67264700  0.33598100  0.09600300
   0.66615070  0.33605879  0.37899981
   0.24490500  0.75270000  0.19343600
   0.49840300  0.74988300  0.19260700
   0.34810365  0.67289934  0.28883412
   0.16470600  0.58627100  0.09733100
   0.17006163  0.58986419  0.38456630
   0.58407731  0.67239868  0.28806849
   0.82839497  0.66123744  0.28820204
   0.66762500  0.58426200  0.09519900
   0.66754453  0.58673513  0.38887321
   0.08106247  0.91620075  0.28500312
   0.33398359  0.91417405  0.28808864
   0.58288316  0.91019858  0.28887488
   0.81929051  0.90989419  0.28758648
   0.66841400  0.83351100  0.09659800
   0.66503064  0.83329286  0.39031805
   0.00631992  0.01228110  0.43578132
   0.49392650  0.49182530  0.43688518
   0.00253914  0.50391349  0.43606543
   0.49879914  0.00423268  0.43592285
   0.68138842  0.82899460  0.47429667
   0.78293314  0.88729487  0.49307758
Direct configuration=     2
   0.99904300  0.00064200  0.19052300
   0.24849100  0.99862800  0.19205500
   0.49902500  0.00192700  0.19180600
   0.99813900  0.25067400  0.19194200
   0.24921500  0.24886200  0.19118600
   0.33165389  0.16452872  0.28741186
   0.74893500  0.25278100  0.19317500
   0.41837500  0.08394000  0.09411800
   0.41597519  0.08596816  0.38251361
   0.83108652  0.16629995  0.28953352
   0.66797000  0.08472300  0.09569300
   0.66706863  0.08696586  0.38349186
   0.99908600  0.49910800  0.19304000
   0.74816900  0.49871100  0.19204600
   0.58334017  0.41880929  0.28647945
   0.41961000  0.33337100  0.09414000
   0.41373367  0.32898008  0.38139997
   0.83006312  0.41637574  0.28758857
   0.91855900  0.33501600  0.09568700
   0.91351430  0.33144617  0.38474278
   0.99765800  0.74896900  0.19256000
   0.08292944  0.66559729  0.28699193
   0.75346500  0.75172800  0.19162900
   0.41737300  0.58352400  0.09623400
   0.41111877  0.58068824  0.38293576
   0.91550800  0.58461900  0.09542900
   0.90965022  0.58589273  0.38408972
   0.16682900  0.83490800  0.09456700
   0.16449614  0.83621858  0.37718503
   0.41715300  0.83338800  0.09679300
   0.41302115  0.83191793  0.38505064
   0.91985100  0.83263700  0.09539800
   0.91567572  0.83420407  0.38055907
   0.74918200  0.00453800  0.19311300
   0.07606592  0.16055123  0.28455771
   0.49319000  0.24544000  0.19167800
   0.17139600  0.08339300  0.09535900
   0.17505258  0.08544233  0.38400475
   0.58592619  0.16642393  0.28570253
   0.91693100  0.08581500  0.09410100
   0.91338700  0.08742706  0.38320730
   0.24596400  0.49669300  0.19369900
   0.07642369  0.41739883  0.28752305
   0.50297300  0.49962100  0.19096300
   0.33591192  0.41678507  0.28556048
   0.17081400  0.33724200  0.09550500
   0.16420838  0.33121082  0.37691509
   0.67264700  0.33598100  0.09600300
   0.66612315  0.33596179  0.37899027
   0.24490500  0.75270000  0.19343600
   0.49840300  0.74988300  0.19260700
   0.34807611  0.67281493  0.28878063
   0.16470600  0.58627100  0.09733100
   0.17005948  0.58986319  0.38463295
   0.58402060  0.67230265  0.28800785
   0.82849048  0.66124998  0.28818788
   0.66762500  0.58426200  0.09519900
   0.66743855  0.58679753  0.38886143
   0.08118275  0.91620156  0.28490074
   0.33390003  0.91420419  0.28799923
   0.58299885  0.91021098  0.28875757
   0.81941807  0.91002548  0.28755135
   0.66841400  0.83351100  0.09659800
   0.66510711  0.83323074  0.39033783
   0.00645826  0.01226453  0.43584008
   0.49402463  0.49182855  0.43698782
   0.00257948  0.50399666  0.43606890
   0.49872671  0.00417016  0.43599466
   0.68145229  0.82900103  0.47423763
   0.78313963  0.88728959  0.49308688
Direct configuration=     3
   0.99904300  0.00064200  0.19052300
   0.24849100  0.99862800  0.19205500
   0.49902500  0.00192700  0.19180600
   0.99813900  0.25067400  0.19194200
   0.24921500  0.24886200  0.19118600
   0.33180023  0.16454044  0.28734121
   0.74893500  0.25278100  0.19317500
   0.41837500  0.08394000  0.09411800
   0.41608174  0.08583061  0.38243786
   0.83113565  0.16629587  0.28951080
   0.66797000  0.08472300  0.09569300
   0.66712263  0.08694183  0.38352365
   0.99908600  0.49910800  0.19304000
   0.74816900  0.49871100  0.19204600
   0.58332379  0.41872310  0.28644535
   0.41961000  0.33337100  0.09414000
   0.41391243  0.32918999  0.38134726
   0.83004075  0.41628336  0.28752316
   0.91855900  0.33501600  0.09568700
   0.91354209  0.33151963  0.38469578
   0.99765800  0.74896900  0.19256000
   0.08285707  0.66564215  0.28694050
   0.75346500  0.75172800  0.19162900
   0.41737300  0.58352400  0.09623400
   0.41125116  0.58085170  0.38292562
   0.91550800  0.58461900  0.09542900
   0.90968329  0.58589455  0.38411592
   0.16682900  0.83490800  0.09456700
   0.16455330  0.83624164  0.37721841
   0.41715300  0.83338800  0.09679300
   0.41310036  0.83204179  0.38510455
   0.91985100  0.83263700  0.09539800
   0.91569719  0.83411468  0.38058386
   0.74918200  0.00453800  0.19311300
   0.07613388  0.16057241  0.28449451
   0.49319000  0.24544000  0.19167800
   0.17139600  0.08339300  0.09535900
   0.17507157  0.08548022  0.38403432
   0.58599769  0.16656170  0.28562944
   0.91693100  0.08581500  0.09410100
   0.91334111  0.08757868  0.38321358
   0.24596400  0.49669300  0.19369900
   0.07643660  0.41745139  0.28742845
   0.50297300  0.49962100  0.19096300
   0.33595989  0.41676243  0.28548044
   0.17081400  0.33724200  0.09550500
   0.16413308  0.33120711  0.37690142
   0.67264700  0.33598100  0.09600300
   0.66609769  0.33587215  0.37898144
   0.24490500  0.75270000  0.19343600
   0.49840300  0.74988300  0.19260700
   0.34805067  0.67273692  0.28873119
   0.16470600  0.58627100  0.09733100
   0.17005749  0.58986227  0.38469455
   0.58396818  0.67221390  0.28795180
   0.82857875  0.66126157  0.28817479
   0.66762500  0.58426200  0.09519900
   0.66734061  0.58685519  0.38885054
   0.08129390  0.91620230  0.28480612
   0.33382280  0.91423205  0.28791662
   0.58310576  0.91022245  0.28864915
   0.81953595  0.91014682  0.28751888
   0.66841400  0.83351100  0.09659800
   0.66517778  0.83317333  0.39035610
   0.00658611  0.01224922  0.43589438
   0.49411532  0.49183155  0.43708267
   0.00261676  0.50407352  0.43607211
   0.49865977  0.00411238  0.43606102
   0.68151131  0.82900697  0.47418307
   0.78333046  0.88728470  0.49309548
Direct configuration=     4
   0.99904300  0.00064200  0.19052300
   0.24849100  0.99862800  0.19205500
   0.49902500  0.00192700  0.19180600
   0.99813900  0.25067400  0.19194200
   0.24921500  0.24886200  0.19118600
   0.33190853  0.16455543  0.28729887
   0.74893500  0.25278100  0.19317500
   0.41837500  0.08394000  0.09411800
   0.41616294  0.08574314  0.38236686
   0.83117821  0.16629736  0.28949625
   0.66797000  0.08472300  0.09569300
   0.66713291  0.08690505  0.38354875
   0.99908600  0.49910800  0.19304000
   0.74816900  0.49871100  0.19204600
   0.58333608  0.41867674  0.28642020
   0.41961000  0.33337100  0.09414000
   0.41404923  0.32935063  0.38130105
   0.83003251  0.41622917  0.28748126
   0.91855900  0.33501600  0.09568700
   0.91357410  0.33161111  0.38465301
   0.99765800  0.74896900  0.19256000
   0.08280980  0.66567774  0.28691716
   0.75346500  0.75172800  0.19162900
   0.41737300  0.58352400  0.09623400
   0.41136144  0.58095079  0.38292358
   0.91550800  0.58461900  0.09542900
   0.90968195  0.58589879  0.38412484
   0.16682900  0.83490800  0.09456700
   0.16460187  0.83626128  0.37722870
   0.41715300  0.83338800  0.09679300
   0.41315395  0.83209838  0.38511983
   0.91985100  0.83263700  0.09539800
   0.91574600  0.83408446  0.38059862
   0.74918200  0.00453800  0.19311300
   0.07621388  0.16060082  0.28445734
   0.49319000  0.24544000  0.19167800
   0.17139600  0.08339300  0.09535900
   0.17511773  0.08552773  0.38404408
   0.58606430  0.16664263  0.28558110
   0.91693100  0.08581500  0.09410100
   0.91338454  0.08764125  0.38325255
   0.24596400  0.49669300  0.19369900
   0.07646341  0.41750556  0.28736482
   0.50297300  0.49962100  0.19096300
   0.33599623  0.41674199  0.28543221
   0.17081400  0.33724200  0.09550500
   0.16411057  0.33123547  0.37687359
   0.67264700  0.33598100  0.09600300
   0.66608908  0.33581020  0.37896693
   0.24490500  0.75270000  0.19343600
   0.49840300  0.74988300  0.19260700
   0.34803217  0.67268802  0.28870310
   0.16470600  0.58627100  0.09733100
   0.17011884  0.58990094  0.38472360
   0.58394848  0.67216042  0.28791176
   0.82863940  0.66126866  0.28816996
   0.66762500  0.58426200  0.09519900
   0.66727663  0.58688977  0.38883952
   0.08137961  0.91621269  0.28475601
   0.33378438  0.91423590  0.28786742
   0.58317172  0.91022922  0.28858510
   0.81963409  0.91021907  0.28750069
   0.66841400  0.83351100  0.09659800
   0.66523661  0.83313996  0.39031060
   0.00664750  0.01226142  0.43590573
   0.49417266  0.49184197  0.43713689
   0.00260792  0.50409879  0.43608965
   0.49864524  0.00410717  0.43611102
   0.68189273  0.82919371  0.47424181
   0.78321788  0.88710273  0.49304360
Direct configuration=     5
   0.99904300  0.00064200  0.19052300
   0.24849100  0.99862800  0.19205500
   0.49902500  0.00192700  0.19180600
   0.99813900  0.25067400  0.19194200
   0.24921500  0.24886200  0.19118600
   0.33188683  0.16455243  0.28730735
   0.74893500  0.25278100  0.19317500
   0.41837500  0.08394000  0.09411800
   0.41614667  0.08576067  0.38238109
   0.83116969  0.16629706  0.28949917
   0.66797000  0.08472300  0.09569300
   0.66713085  0.08691242  0.38354372
   0.99908600  0.49910800  0.19304000
   0.74816900  0.49871100  0.19204600
   0.58333362  0.41868602  0.28642524
   0.41961000  0.33337100  0.09414000
   0.41402183  0.32931845  0.38131031
   0.83003416  0.41624003  0.28748965
   0.91855900  0.33501600  0.09568700
   0.91356769  0.33159278  0.38466158
   0.99765800  0.74896900  0.19256000
   0.08281927  0.66567061  0.28692183
   0.75346500  0.75172800  0.19162900
   0.41737300  0.58352400  0.09623400
   0.41133935  0.58093094  0.38292399
   0.91550800  0.58461900  0.09542900
   0.90968222  0.58589794  0.38412306
   0.16682900  0.83490800  0.09456700
   0.16459214  0.83625734  0.37722664
   0.41715300  0.83338800  0.09679300
   0.41314322  0.83208704  0.38511677
   0.91985100  0.83263700  0.09539800
   0.91573622  0.83409051  0.38059567
   0.74918200  0.00453800  0.19311300
   0.07619786  0.16059513  0.28446479
   0.49319000  0.24544000  0.19167800
   0.17139600  0.08339300  0.09535900
   0.17510848  0.08551821  0.38404212
   0.58605096  0.16662642  0.28559078
   0.91693100  0.08581500  0.09410100
   0.91337584  0.08762871  0.38324474
   0.24596400  0.49669300  0.19369900
   0.07645804  0.41749471  0.28737756
   0.50297300  0.49962100  0.19096300
   0.33598895  0.41674609  0.28544187
   0.17081400  0.33724200  0.09550500
   0.16411508  0.33122979  0.37687917
   0.67264700  0.33598100  0.09600300
   0.66609081  0.33582261  0.37896984
   0.24490500  0.75270000  0.19343600
   0.49840300  0.74988300  0.19260700
   0.34803588  0.67269782  0.28870873
   0.16470600  0.58627100  0.09733100
   0.17010655  0.58989319  0.38471778
   0.58395242  0.67217113  0.28791978
   0.82862725  0.66126724  0.28817092
   0.66762500  0.58426200  0.09519900
   0.66728945  0.58688284  0.38884173
   0.08136244  0.91621061  0.28476605
   0.33379208  0.91423513  0.28787728
   0.58315850  0.91022786  0.28859793
   0.81961443  0.91020460  0.28750433
   0.66841400  0.83351100  0.09659800
   0.66522482  0.83314665  0.39031971
   0.00663520  0.01225897  0.43590346
   0.49416117  0.49183988  0.43712603
   0.00260969  0.50409373  0.43608614
   0.49864815  0.00410822  0.43610101
   0.68181632  0.82915630  0.47423004
   0.78324044  0.88713918  0.49305399
Direct configuration=     6
   0.99904300  0.00064200  0.19052300
   0.24849100  0.99862800  0.19205500
   0.49902500  0.00192700  0.19180600
   0.99813900  0.25067400  0.19194200
   0.24921500  0.24886200  0.19118600
   0.33193586  0.16456488  0.28729759
   0.74893500  0.25278100  0.19317500
   0.41837500  0.08394000  0.09411800
   0.41618720  0.08573434  0.38233644
   0.83119827  0.16630023  0.28949702
   0.66797000  0.08472300  0.09569300
   0.66711256  0.08687970  0.38355593
   0.99908600  0.49910800  0.19304000
   0.74816900  0.49871100  0.19204600
   0.58336471  0.41868293  0.28641394
   0.41961000  0.33337100  0.09414000
   0.41408668  0.32939297  0.38128238
   0.83004035  0.41623088  0.28747697
   0.91855900  0.33501600  0.09568700
   0.91359534  0.33166820  0.38463494
   0.99765800  0.74896900  0.19256000
   0.08280511  0.66568799  0.28692541
   0.75346500  0.75172800  0.19162900
   0.41737300  0.58352400  0.09623400
   0.41140059  0.58095572  0.38292727
   0.91550800  0.58461900  0.09542900
   0.90966127  0.58590108  0.38411846
   0.16682900  0.83490800  0.09456700
   0.16462244  0.83626983  0.37721798
   0.41715300  0.83338800  0.09679300
   0.41316826  0.83208741  0.38510215
   0.91985100  0.83263700  0.09539800
   0.91579155  0.83410934  0.38059816
   0.74918200  0.00453800  0.19311300
   0.07626009  0.16061940  0.28445806
   0.49319000  0.24544000  0.19167800
   0.17139600  0.08339300  0.09535900
   0.17516512  0.08556067  0.38403393
   0.58609497  0.16663964  0.28557547
   0.91693100  0.08581500  0.09410100
   0.91345926  0.08762292  0.38328839
   0.24596400  0.49669300  0.19369900
   0.07648789  0.41753395  0.28735610
   0.50297300  0.49962100  0.19096300
   0.33600712  0.41673531  0.28543097
   0.17081400  0.33724200  0.09550500
   0.16413731  0.33127307  0.37684876
   0.67264700  0.33598100  0.09600300
   0.66609783  0.33579984  0.37895545
   0.24490500  0.75270000  0.19343600
   0.49840300  0.74988300  0.19260700
   0.34802858  0.67268436  0.28870483
   0.16470600  0.58627100  0.09733100
   0.17017949  0.58994131  0.38471883
   0.58396239  0.67216020  0.28790264
   0.82865071  0.66127069  0.28817292
   0.66762500  0.58426200  0.09519900
   0.66727391  0.58689230  0.38883498
   0.08140362  0.91622547  0.28476308
   0.33379474  0.91422000  0.28786640
   0.58317593  0.91022919  0.28858438
   0.81967162  0.91022306  0.28750136
   0.66841400  0.83351100  0.09659800
   0.66526608  0.83314191  0.39028207
   0.00664694  0.01228515  0.43588458
   0.49417695  0.49185239  0.43713395
   0.00258071  0.50408145  0.43610234
   0.49867320  0.00413736  0.43611939
   0.68188033  0.82917269  0.47423294
   0.78336772  0.88712188  0.49305349
Direct configuration=     7
   0.99904300  0.00064200  0.19052300
   0.24849100  0.99862800  0.19205500
   0.49902500  0.00192700  0.19180600
   0.99813900  0.25067400  0.19194200
   0.24921500  0.24886200  0.19118600
   0.33208050  0.16460160  0.28726880
   0.74893500  0.25278100  0.19317500
   0.41837500  0.08394000  0.09411800
   0.41630678  0.08565668  0.38220473
   0.83128260  0.16630959  0.28949068
   0.66797000  0.08472300  0.09569300
   0.66705862  0.08678320  0.38359194
   0.99908600  0.49910800  0.19304000
   0.74816900  0.49871100  0.19204600
   0.58345644  0.41867381  0.28638062
   0.41961000  0.33337100  0.09414000
   0.41427801  0.32961280  0.38119998
   0.83005862  0.41620389  0.28743957
   0.91855900  0.33501600  0.09568700
   0.91367692  0.33189070  0.38455637
   0.99765800  0.74896900  0.19256000
   0.08276336  0.66573925  0.28693598
   0.75346500  0.75172800  0.19162900
   0.41737300  0.58352400  0.09623400
   0.41158126  0.58102881  0.38293694
   0.91550800  0.58461900  0.09542900
   0.90959948  0.58591033  0.38410489
   0.16682900  0.83490800  0.09456700
   0.16471184  0.83630668  0.37719244
   0.41715300  0.83338800  0.09679300
   0.41324214  0.83208848  0.38505902
   0.91985100  0.83263700  0.09539800
   0.91595477  0.83416489  0.38060550
   0.74918200  0.00453800  0.19311300
   0.07644370  0.16069100  0.28443821
   0.49319000  0.24544000  0.19167800
   0.17139600  0.08339300  0.09535900
   0.17533222  0.08568591  0.38400976
   0.58622482  0.16667864  0.28553032
   0.91693100  0.08581500  0.09410100
   0.91370537  0.08760582  0.38341717
   0.24596400  0.49669300  0.19369900
   0.07657595  0.41764973  0.28729278
   0.50297300  0.49962100  0.19096300
   0.33606072  0.41670352  0.28539880
   0.17081400  0.33724200  0.09550500
   0.16420290  0.33140076  0.37675905
   0.67264700  0.33598100  0.09600300
   0.66611854  0.33573267  0.37891298
   0.24490500  0.75270000  0.19343600
   0.49840300  0.74988300  0.19260700
   0.34800706  0.67264465  0.28869332
   0.16470600  0.58627100  0.09733100
   0.17039465  0.59008328  0.38472194
   0.58399178  0.67212793  0.28785207
   0.82871992  0.66128086  0.28817882
   0.66762500  0.58426200  0.09519900
   0.66722807  0.58692021  0.38881508
   0.08152511  0.91626932  0.28475434
   0.33380258  0.91417540  0.28783429
   0.58322736  0.91023310  0.28854440
   0.81984032  0.91027754  0.28749259
   0.66841400  0.83351100  0.09659800
   0.66538778  0.83312792  0.39017103
   0.00668158  0.01236238  0.43582888
   0.49422350  0.49188931  0.43715731
   0.00249523  0.50404523  0.43615012
   0.49874708  0.00422332  0.43617363
   0.68206916  0.82922104  0.47424149
   0.78374323  0.88707082  0.49305200
Direct configuration=     8
   0.99904300  0.00064200  0.19052300
   0.24849100  0.99862800  0.19205500
   0.49902500  0.00192700  0.19180600
   0.99813900  0.25067400  0.19194200
   0.24921500  0.24886200  0.19118600
   0.33213842  0.16462077  0.28726279
   0.74893500  0.25278100  0.19317500
   0.41837500  0.08394000  0.09411800
   0.41636741  0.08563779  0.38215504
   0.83134024  0.16630610  0.28950766
   0.66797000  0.08472300  0.09569300
   0.66707419  0.08675463  0.38359805
   0.99908600  0.49910800  0.19304000
   0.74816900  0.49871100  0.19204600
   0.58352175  0.41869547  0.28636674
   0.41961000  0.33337100  0.09414000
   0.41434936  0.32967730  0.38116201
   0.83008619  0.41621812  0.28743072
   0.91855900  0.33501600  0.09568700
   0.91372671  0.33198226  0.38452284
   0.99765800  0.74896900  0.19256000
   0.08275856  0.66575174  0.28695096
   0.75346500  0.75172800  0.19162900
   0.41737300  0.58352400  0.09623400
   0.41165536  0.58104587  0.38293474
   0.91550800  0.58461900  0.09542900
   0.90958102  0.58590542  0.38410172
   0.16682900  0.83490800  0.09456700
   0.16476467  0.83632828  0.37717516
   0.41715300  0.83338800  0.09679300
   0.41330530  0.83211795  0.38503664
   0.91985100  0.83263700  0.09539800
   0.91604883  0.83419585  0.38059716
   0.74918200  0.00453800  0.19311300
   0.07652111  0.16072379  0.28444255
   0.49319000  0.24544000  0.19167800
   0.17139600  0.08339300  0.09535900
   0.17547189  0.08577017  0.38398097
   0.58629187  0.16665921  0.28552012
   0.91693100  0.08581500  0.09410100
   0.91377745  0.08766313  0.38343896
   0.24596400  0.49669300  0.19369900
   0.07662368  0.41770568  0.28727633
   0.50297300  0.49962100  0.19096300
   0.33609911  0.41670941  0.28539469
   0.17081400  0.33724200  0.09550500
   0.16426107  0.33148442  0.37670371
   0.67264700  0.33598100  0.09600300
   0.66613890  0.33571425  0.37888749
   0.24490500  0.75270000  0.19343600
   0.49840300  0.74988300  0.19260700
   0.34801431  0.67263583  0.28869782
   0.16470600  0.58627100  0.09733100
   0.17042142  0.59012574  0.38473815
   0.58402547  0.67213661  0.28783437
   0.82874235  0.66129286  0.28818176
   0.66762500  0.58426200  0.09519900
   0.66725317  0.58693901  0.38880608
   0.08157571  0.91629959  0.28476677
   0.33383458  0.91414193  0.28782858
   0.58324972  0.91023107  0.28854332
   0.81991508  0.91029115  0.28749467
   0.66841400  0.83351100  0.09659800
   0.66547531  0.83314186  0.39017090
   0.00675460  0.01237129  0.43583370
   0.49423242  0.49190279  0.43715366
   0.00250521  0.50406314  0.43613889
   0.49876807  0.00425390  0.43616921
   0.68224547  0.82929106  0.47420310
   0.78388931  0.88699553  0.49303272
