ESCALE ; pCOHP file generated by LOBSTER. Energy is shifted such that the Fermi level lies at 0 eV.
         2          2        521  -1.93996e+01   6.65052e+00   6.38963e-01 
Average
No.1:Ni6->O69(1.9783395846156431)
-20.03854   0.00000  -0.32336   0.00000  -0.32336   0.00000  -0.32452   0.00000  -0.32452
-19.98844   0.00000  -0.32336   0.00000  -0.32336   0.00000  -0.32452   0.00000  -0.32452
-19.93834   0.00000  -0.32336   0.00000  -0.32336   0.00000  -0.32452   0.00000  -0.32452
-19.88825   0.00000  -0.32336   0.00000  -0.32336   0.00000  -0.32452   0.00000  -0.32452
-19.83815   0.00000  -0.32336   0.00000  -0.32336   0.00000  -0.32452   0.00000  -0.32452
-19.78805   0.00000  -0.32336   0.00000  -0.32336   0.00000  -0.32452   0.00000  -0.32452
-19.73796   0.00000  -0.32336   0.00000  -0.32336   0.00000  -0.32452   0.00000  -0.32452
-19.68786   0.00000  -0.32336   0.00000  -0.32336   0.00000  -0.32452   0.00000  -0.32452
-19.63776   0.00000  -0.32336   0.00000  -0.32336   0.00000  -0.32452   0.00000  -0.32452
-19.58767   0.00000  -0.32336   0.00000  -0.32336   0.00000  -0.32452   0.00000  -0.32452
-19.53757   0.00000  -0.32336   0.00000  -0.32336   0.00000  -0.32452   0.00000  -0.32452
-19.48748   0.00000  -0.32336   0.00000  -0.32336   0.00000  -0.32452   0.00000  -0.32452
-19.43738   0.00000  -0.32336   0.00000  -0.32336   0.00000  -0.32452   0.00000  -0.32452
-19.38728   0.00000  -0.32336   0.00000  -0.32336   0.00000  -0.32452   0.00000  -0.32452
-19.33719   0.00000  -0.32336   0.00000  -0.32336   0.00000  -0.32452   0.00000  -0.32452
-19.28709   0.00000  -0.32336   0.00000  -0.32336   0.00000  -0.32452   0.00000  -0.32452
-19.23699   0.00000  -0.32336   0.00000  -0.32336   0.00000  -0.32452   0.00000  -0.32452
-19.18690   0.00000  -0.32336   0.00000  -0.32336   0.00000  -0.32452   0.00000  -0.32452
-19.13680   0.00000  -0.32336   0.00000  -0.32336   0.00000  -0.32452   0.00000  -0.32452
-19.08671   0.00000  -0.32336   0.00000  -0.32336   0.00000  -0.32452   0.00000  -0.32452
-19.03661   0.00000  -0.32336   0.00000  -0.32336   0.00000  -0.32452   0.00000  -0.32452
-18.98651   0.13834  -0.31643   0.13834  -0.31643   0.00000  -0.32452   0.00000  -0.32452
-18.93642   0.08008  -0.31242   0.08008  -0.31242   0.00000  -0.32452   0.00000  -0.32452
-18.88632   0.00000  -0.31242   0.00000  -0.31242   0.00000  -0.32452   0.00000  -0.32452
-18.83622   0.00000  -0.31242   0.00000  -0.31242   0.00000  -0.32452   0.00000  -0.32452
-18.78613   0.00000  -0.31242   0.00000  -0.31242   0.00000  -0.32452   0.00000  -0.32452
-18.73603   0.00000  -0.31242   0.00000  -0.31242   0.22680  -0.31316   0.22680  -0.31316
-18.68593   0.00000  -0.31242   0.00000  -0.31242   0.00000  -0.31316   0.00000  -0.31316
-18.63584   0.00000  -0.31242   0.00000  -0.31242   0.00000  -0.31316   0.00000  -0.31316
-18.58574   0.00000  -0.31242   0.00000  -0.31242   0.00000  -0.31316   0.00000  -0.31316
-18.53565   0.00000  -0.31242   0.00000  -0.31242   0.00000  -0.31316   0.00000  -0.31316
-18.48555   0.00000  -0.31242   0.00000  -0.31242   0.00000  -0.31316   0.00000  -0.31316
-18.43545   0.00000  -0.31242   0.00000  -0.31242   0.00000  -0.31316   0.00000  -0.31316
-18.38536   0.00000  -0.31242   0.00000  -0.31242   0.00000  -0.31316   0.00000  -0.31316
-18.33526   0.00000  -0.31242   0.00000  -0.31242   0.00000  -0.31316   0.00000  -0.31316
-18.28516   0.00000  -0.31242   0.00000  -0.31242   0.00000  -0.31316   0.00000  -0.31316
-18.23507   0.00000  -0.31242   0.00000  -0.31242   0.00000  -0.31316   0.00000  -0.31316
-18.18497   0.00000  -0.31242   0.00000  -0.31242   0.00000  -0.31316   0.00000  -0.31316
-18.13487   0.00000  -0.31242   0.00000  -0.31242   0.00000  -0.31316   0.00000  -0.31316
-18.08478   0.00000  -0.31242   0.00000  -0.31242   0.00000  -0.31316   0.00000  -0.31316
-18.03468   0.00000  -0.31242   0.00000  -0.31242   0.00000  -0.31316   0.00000  -0.31316
-17.98459   0.00000  -0.31242   0.00000  -0.31242   0.00000  -0.31316   0.00000  -0.31316
-17.93449   0.00000  -0.31242   0.00000  -0.31242   0.00000  -0.31316   0.00000  -0.31316
-17.88439   0.00000  -0.31242   0.00000  -0.31242   0.00000  -0.31316   0.00000  -0.31316
-17.83430   0.00000  -0.31242   0.00000  -0.31242   0.00000  -0.31316   0.00000  -0.31316
-17.78420   0.00000  -0.31242   0.00000  -0.31242   0.00000  -0.31316   0.00000  -0.31316
-17.73410   0.00000  -0.31242   0.00000  -0.31242   0.00000  -0.31316   0.00000  -0.31316
-17.68401   0.00000  -0.31242   0.00000  -0.31242   0.00000  -0.31316   0.00000  -0.31316
-17.63391   0.00000  -0.31242   0.00000  -0.31242   0.00000  -0.31316   0.00000  -0.31316
-17.58382   0.00000  -0.31242   0.00000  -0.31242   0.00000  -0.31316   0.00000  -0.31316
-17.53372   0.00000  -0.31242   0.00000  -0.31242   0.00000  -0.31316   0.00000  -0.31316
-17.48362   0.00000  -0.31242   0.00000  -0.31242   0.00000  -0.31316   0.00000  -0.31316
-17.43353   0.00000  -0.31242   0.00000  -0.31242   0.00000  -0.31316   0.00000  -0.31316
-17.38343   0.00000  -0.31242   0.00000  -0.31242   0.00000  -0.31316   0.00000  -0.31316
-17.33333   0.00000  -0.31242   0.00000  -0.31242   0.00000  -0.31316   0.00000  -0.31316
-17.28324   0.00000  -0.31242   0.00000  -0.31242   0.00000  -0.31316   0.00000  -0.31316
-17.23314   0.00000  -0.31242   0.00000  -0.31242   0.00000  -0.31316   0.00000  -0.31316
-17.18304   0.00000  -0.31242   0.00000  -0.31242   0.00000  -0.31316   0.00000  -0.31316
-17.13295   0.00000  -0.31242   0.00000  -0.31242   0.00000  -0.31316   0.00000  -0.31316
-17.08285   0.00000  -0.31242   0.00000  -0.31242   0.00000  -0.31316   0.00000  -0.31316
-17.03276   0.00000  -0.31242   0.00000  -0.31242   0.00000  -0.31316   0.00000  -0.31316
-16.98266   0.00000  -0.31242   0.00000  -0.31242   0.00000  -0.31316   0.00000  -0.31316
-16.93256   0.00000  -0.31242   0.00000  -0.31242   0.00000  -0.31316   0.00000  -0.31316
-16.88247   0.00000  -0.31242   0.00000  -0.31242   0.00000  -0.31316   0.00000  -0.31316
-16.83237   0.00000  -0.31242   0.00000  -0.31242   0.00000  -0.31316   0.00000  -0.31316
-16.78227   0.00000  -0.31242   0.00000  -0.31242   0.00000  -0.31316   0.00000  -0.31316
-16.73218   0.00000  -0.31242   0.00000  -0.31242   0.00000  -0.31316   0.00000  -0.31316
-16.68208   0.00000  -0.31242   0.00000  -0.31242   0.00000  -0.31316   0.00000  -0.31316
-16.63198   0.00000  -0.31242   0.00000  -0.31242   0.00000  -0.31316   0.00000  -0.31316
-16.58189   0.00000  -0.31242   0.00000  -0.31242   0.00000  -0.31316   0.00000  -0.31316
-16.53179   0.00000  -0.31242   0.00000  -0.31242   0.00000  -0.31316   0.00000  -0.31316
-16.48170   0.00000  -0.31242   0.00000  -0.31242   0.00000  -0.31316   0.00000  -0.31316
-16.43160   0.00000  -0.31242   0.00000  -0.31242   0.00000  -0.31316   0.00000  -0.31316
-16.38150   0.00000  -0.31242   0.00000  -0.31242   0.00000  -0.31316   0.00000  -0.31316
-16.33141   0.00000  -0.31242   0.00000  -0.31242   0.00000  -0.31316   0.00000  -0.31316
-16.28131   0.00000  -0.31242   0.00000  -0.31242   0.00000  -0.31316   0.00000  -0.31316
-16.23121   0.00000  -0.31242   0.00000  -0.31242   0.00000  -0.31316   0.00000  -0.31316
-16.18112   0.00000  -0.31242   0.00000  -0.31242   0.00000  -0.31316   0.00000  -0.31316
-16.13102   0.00000  -0.31242   0.00000  -0.31242   0.00000  -0.31316   0.00000  -0.31316
-16.08092   0.00000  -0.31242   0.00000  -0.31242   0.00000  -0.31316   0.00000  -0.31316
-16.03083   0.00000  -0.31242   0.00000  -0.31242   0.00000  -0.31316   0.00000  -0.31316
-15.98073   0.00000  -0.31242   0.00000  -0.31242   0.00000  -0.31316   0.00000  -0.31316
-15.93064   0.00000  -0.31242   0.00000  -0.31242   0.00000  -0.31316   0.00000  -0.31316
-15.88054   0.00000  -0.31242   0.00000  -0.31242   0.00000  -0.31316   0.00000  -0.31316
-15.83044   0.00000  -0.31242   0.00000  -0.31242   0.00000  -0.31316   0.00000  -0.31316
-15.78035   0.00000  -0.31242   0.00000  -0.31242   0.00000  -0.31316   0.00000  -0.31316
-15.73025   0.00000  -0.31242   0.00000  -0.31242   0.00000  -0.31316   0.00000  -0.31316
-15.68015   0.00000  -0.31242   0.00000  -0.31242   0.00000  -0.31316   0.00000  -0.31316
-15.63006   0.00000  -0.31242   0.00000  -0.31242   0.00000  -0.31316   0.00000  -0.31316
-15.57996   0.00000  -0.31242   0.00000  -0.31242   0.00000  -0.31316   0.00000  -0.31316
-15.52987   0.00000  -0.31242   0.00000  -0.31242   0.00000  -0.31316   0.00000  -0.31316
-15.47977   0.00000  -0.31242   0.00000  -0.31242   0.00000  -0.31316   0.00000  -0.31316
-15.42967   0.00000  -0.31242   0.00000  -0.31242   0.00000  -0.31316   0.00000  -0.31316
-15.37958   0.00000  -0.31242   0.00000  -0.31242   0.00000  -0.31316   0.00000  -0.31316
-15.32948   0.00000  -0.31242   0.00000  -0.31242   0.00000  -0.31316   0.00000  -0.31316
-15.27938   0.00000  -0.31242   0.00000  -0.31242   0.00000  -0.31316   0.00000  -0.31316
-15.22929   0.00000  -0.31242   0.00000  -0.31242   0.00000  -0.31316   0.00000  -0.31316
-15.17919   0.00000  -0.31242   0.00000  -0.31242   0.00000  -0.31316   0.00000  -0.31316
-15.12909   0.00000  -0.31242   0.00000  -0.31242   0.00000  -0.31316   0.00000  -0.31316
-15.07900   0.00000  -0.31242   0.00000  -0.31242   0.00000  -0.31316   0.00000  -0.31316
-15.02890   0.00000  -0.31242   0.00000  -0.31242   0.00000  -0.31316   0.00000  -0.31316
-14.97881   0.00000  -0.31242   0.00000  -0.31242   0.00000  -0.31316   0.00000  -0.31316
-14.92871   0.00000  -0.31242   0.00000  -0.31242   0.00000  -0.31316   0.00000  -0.31316
-14.87861   0.00000  -0.31242   0.00000  -0.31242   0.00000  -0.31316   0.00000  -0.31316
-14.82852   0.00000  -0.31242   0.00000  -0.31242   0.00000  -0.31316   0.00000  -0.31316
-14.77842   0.00000  -0.31242   0.00000  -0.31242   0.00000  -0.31316   0.00000  -0.31316
-14.72832   0.00000  -0.31242   0.00000  -0.31242   0.00000  -0.31316   0.00000  -0.31316
-14.67823   0.00000  -0.31242   0.00000  -0.31242   0.00000  -0.31316   0.00000  -0.31316
-14.62813   0.00000  -0.31242   0.00000  -0.31242   0.00000  -0.31316   0.00000  -0.31316
-14.57803   0.00000  -0.31242   0.00000  -0.31242   0.00000  -0.31316   0.00000  -0.31316
-14.52794   0.00000  -0.31242   0.00000  -0.31242   0.00000  -0.31316   0.00000  -0.31316
-14.47784   0.00000  -0.31242   0.00000  -0.31242   0.00000  -0.31316   0.00000  -0.31316
-14.42775   0.00000  -0.31242   0.00000  -0.31242   0.00000  -0.31316   0.00000  -0.31316
-14.37765   0.00000  -0.31242   0.00000  -0.31242   0.00000  -0.31316   0.00000  -0.31316
-14.32755   0.00000  -0.31242   0.00000  -0.31242   0.00000  -0.31316   0.00000  -0.31316
-14.27746   0.00000  -0.31242   0.00000  -0.31242   0.00000  -0.31316   0.00000  -0.31316
-14.22736   0.00000  -0.31242   0.00000  -0.31242   0.00000  -0.31316   0.00000  -0.31316
-14.17726   0.00000  -0.31242   0.00000  -0.31242   0.00000  -0.31316   0.00000  -0.31316
-14.12717   0.00000  -0.31242   0.00000  -0.31242   0.00000  -0.31316   0.00000  -0.31316
-14.07707   0.00000  -0.31242   0.00000  -0.31242   0.00000  -0.31316   0.00000  -0.31316
-14.02697   0.00000  -0.31242   0.00000  -0.31242   0.00000  -0.31316   0.00000  -0.31316
-13.97688   0.00000  -0.31242   0.00000  -0.31242   0.00000  -0.31316   0.00000  -0.31316
-13.92678   0.00000  -0.31242   0.00000  -0.31242   0.00000  -0.31316   0.00000  -0.31316
-13.87669   0.00000  -0.31242   0.00000  -0.31242   0.00000  -0.31316   0.00000  -0.31316
-13.82659   0.00000  -0.31242   0.00000  -0.31242   0.00000  -0.31316   0.00000  -0.31316
-13.77649   0.00000  -0.31242   0.00000  -0.31242   0.00000  -0.31316   0.00000  -0.31316
-13.72640   0.00000  -0.31242   0.00000  -0.31242   0.00000  -0.31316   0.00000  -0.31316
-13.67630   0.00000  -0.31242   0.00000  -0.31242   0.00000  -0.31316   0.00000  -0.31316
-13.62620   0.00000  -0.31242   0.00000  -0.31242   0.00000  -0.31316   0.00000  -0.31316
-13.57611   0.00000  -0.31242   0.00000  -0.31242   0.00000  -0.31316   0.00000  -0.31316
-13.52601   0.00000  -0.31242   0.00000  -0.31242   0.00000  -0.31316   0.00000  -0.31316
-13.47592   0.00000  -0.31242   0.00000  -0.31242   0.00000  -0.31316   0.00000  -0.31316
-13.42582   0.00000  -0.31242   0.00000  -0.31242   0.00000  -0.31316   0.00000  -0.31316
-13.37572   0.00000  -0.31242   0.00000  -0.31242   0.00000  -0.31316   0.00000  -0.31316
-13.32563   0.00000  -0.31242   0.00000  -0.31242   0.00000  -0.31316   0.00000  -0.31316
-13.27553   0.00000  -0.31242   0.00000  -0.31242   0.00000  -0.31316   0.00000  -0.31316
-13.22543   0.00000  -0.31242   0.00000  -0.31242   0.00000  -0.31316   0.00000  -0.31316
-13.17534   0.00000  -0.31242   0.00000  -0.31242   0.00000  -0.31316   0.00000  -0.31316
-13.12524   0.00000  -0.31242   0.00000  -0.31242   0.00000  -0.31316   0.00000  -0.31316
-13.07514   0.00000  -0.31242   0.00000  -0.31242   0.00000  -0.31316   0.00000  -0.31316
-13.02505   0.00000  -0.31242   0.00000  -0.31242   0.00000  -0.31316   0.00000  -0.31316
-12.97495   0.00000  -0.31242   0.00000  -0.31242   0.00000  -0.31316   0.00000  -0.31316
-12.92486   0.00000  -0.31242   0.00000  -0.31242   0.00000  -0.31316   0.00000  -0.31316
-12.87476   0.00000  -0.31242   0.00000  -0.31242   0.00000  -0.31316   0.00000  -0.31316
-12.82466   0.00000  -0.31242   0.00000  -0.31242   0.00000  -0.31316   0.00000  -0.31316
-12.77457   0.00000  -0.31242   0.00000  -0.31242   0.00000  -0.31316   0.00000  -0.31316
-12.72447   0.00000  -0.31242   0.00000  -0.31242   0.00000  -0.31316   0.00000  -0.31316
-12.67437   0.00000  -0.31242   0.00000  -0.31242   0.00000  -0.31316   0.00000  -0.31316
-12.62428   0.00000  -0.31242   0.00000  -0.31242   0.00000  -0.31316   0.00000  -0.31316
-12.57418   0.00000  -0.31242   0.00000  -0.31242   0.00000  -0.31316   0.00000  -0.31316
-12.52408   0.00000  -0.31242   0.00000  -0.31242   0.00000  -0.31316   0.00000  -0.31316
-12.47399   0.00000  -0.31242   0.00000  -0.31242   0.00000  -0.31316   0.00000  -0.31316
-12.42389   0.00000  -0.31242   0.00000  -0.31242   0.00000  -0.31316   0.00000  -0.31316
-12.37380   0.00000  -0.31242   0.00000  -0.31242   0.00000  -0.31316   0.00000  -0.31316
-12.32370   0.00000  -0.31242   0.00000  -0.31242   0.00000  -0.31316   0.00000  -0.31316
-12.27360   0.00000  -0.31242   0.00000  -0.31242   0.00000  -0.31316   0.00000  -0.31316
-12.22351   0.00000  -0.31242   0.00000  -0.31242   0.00000  -0.31316   0.00000  -0.31316
-12.17341   0.00000  -0.31242   0.00000  -0.31242   0.00000  -0.31316   0.00000  -0.31316
-12.12331   0.00000  -0.31242   0.00000  -0.31242   0.00000  -0.31316   0.00000  -0.31316
-12.07322   0.00000  -0.31242   0.00000  -0.31242   0.00000  -0.31316   0.00000  -0.31316
-12.02312   0.00000  -0.31242   0.00000  -0.31242   0.00000  -0.31316   0.00000  -0.31316
-11.97303   0.00000  -0.31242   0.00000  -0.31242   0.00000  -0.31316   0.00000  -0.31316
-11.92293   0.00000  -0.31242   0.00000  -0.31242   0.00000  -0.31316   0.00000  -0.31316
-11.87283   0.00000  -0.31242   0.00000  -0.31242   0.00000  -0.31316   0.00000  -0.31316
-11.82274   0.00000  -0.31242   0.00000  -0.31242   0.00000  -0.31316   0.00000  -0.31316
-11.77264   0.00000  -0.31242   0.00000  -0.31242   0.00000  -0.31316   0.00000  -0.31316
-11.72254   0.00000  -0.31242   0.00000  -0.31242   0.00000  -0.31316   0.00000  -0.31316
-11.67245   0.00000  -0.31242   0.00000  -0.31242   0.00000  -0.31316   0.00000  -0.31316
-11.62235   0.00000  -0.31242   0.00000  -0.31242   0.00000  -0.31316   0.00000  -0.31316
-11.57225   0.00000  -0.31242   0.00000  -0.31242   0.00000  -0.31316   0.00000  -0.31316
-11.52216   0.00000  -0.31242   0.00000  -0.31242   0.00000  -0.31316   0.00000  -0.31316
-11.47206   0.00000  -0.31242   0.00000  -0.31242   0.00000  -0.31316   0.00000  -0.31316
-11.42197   0.00000  -0.31242   0.00000  -0.31242   0.00000  -0.31316   0.00000  -0.31316
-11.37187   0.00000  -0.31242   0.00000  -0.31242   0.00000  -0.31316   0.00000  -0.31316
-11.32177   0.00000  -0.31242   0.00000  -0.31242   0.00000  -0.31316   0.00000  -0.31316
-11.27168   0.00000  -0.31242   0.00000  -0.31242   0.00000  -0.31316   0.00000  -0.31316
-11.22158   0.00000  -0.31242   0.00000  -0.31242   0.00000  -0.31316   0.00000  -0.31316
-11.17148   0.00000  -0.31242   0.00000  -0.31242   0.00000  -0.31316   0.00000  -0.31316
-11.12139   0.00000  -0.31242   0.00000  -0.31242   0.00000  -0.31316   0.00000  -0.31316
-11.07129   0.00000  -0.31242   0.00000  -0.31242   0.00000  -0.31316   0.00000  -0.31316
-11.02119   0.00000  -0.31242   0.00000  -0.31242   0.00000  -0.31316   0.00000  -0.31316
-10.97110   0.00000  -0.31242   0.00000  -0.31242   0.00000  -0.31316   0.00000  -0.31316
-10.92100   0.00000  -0.31242   0.00000  -0.31242   0.00000  -0.31316   0.00000  -0.31316
-10.87091   0.00000  -0.31242   0.00000  -0.31242   0.00000  -0.31316   0.00000  -0.31316
-10.82081   0.00000  -0.31242   0.00000  -0.31242   0.00000  -0.31316   0.00000  -0.31316
-10.77071   0.00000  -0.31242   0.00000  -0.31242   0.00000  -0.31316   0.00000  -0.31316
-10.72062   0.00000  -0.31242   0.00000  -0.31242   0.00000  -0.31316   0.00000  -0.31316
-10.67052   0.00000  -0.31242   0.00000  -0.31242   0.00000  -0.31316   0.00000  -0.31316
-10.62042   0.00000  -0.31242   0.00000  -0.31242   0.00000  -0.31316   0.00000  -0.31316
-10.57033   0.00000  -0.31242   0.00000  -0.31242   0.00000  -0.31316   0.00000  -0.31316
-10.52023   0.00000  -0.31242   0.00000  -0.31242   0.00000  -0.31316   0.00000  -0.31316
-10.47013   0.00000  -0.31242   0.00000  -0.31242   0.00000  -0.31316   0.00000  -0.31316
-10.42004   0.00000  -0.31242   0.00000  -0.31242   0.00000  -0.31316   0.00000  -0.31316
-10.36994   0.00000  -0.31242   0.00000  -0.31242   0.00000  -0.31316   0.00000  -0.31316
-10.31985   0.00000  -0.31242   0.00000  -0.31242   0.00000  -0.31316   0.00000  -0.31316
-10.26975   0.00000  -0.31242   0.00000  -0.31242   0.00000  -0.31316   0.00000  -0.31316
-10.21965   0.00000  -0.31242   0.00000  -0.31242   0.00000  -0.31316   0.00000  -0.31316
-10.16956   0.00000  -0.31242   0.00000  -0.31242   0.00000  -0.31316   0.00000  -0.31316
-10.11946   0.00000  -0.31242   0.00000  -0.31242   0.00000  -0.31316   0.00000  -0.31316
-10.06936   0.00000  -0.31242   0.00000  -0.31242   0.00000  -0.31316   0.00000  -0.31316
-10.01927   0.00000  -0.31242   0.00000  -0.31242   0.00000  -0.31316   0.00000  -0.31316
 -9.96917   0.00000  -0.31242   0.00000  -0.31242   0.00000  -0.31316   0.00000  -0.31316
 -9.91908   0.00000  -0.31242   0.00000  -0.31242   0.00000  -0.31316   0.00000  -0.31316
 -9.86898   0.00000  -0.31242   0.00000  -0.31242   0.00000  -0.31316   0.00000  -0.31316
 -9.81888   0.00000  -0.31242   0.00000  -0.31242   0.00000  -0.31316   0.00000  -0.31316
 -9.76879   0.00000  -0.31242   0.00000  -0.31242   0.00000  -0.31316   0.00000  -0.31316
 -9.71869   0.00000  -0.31242   0.00000  -0.31242   0.00000  -0.31316   0.00000  -0.31316
 -9.66859   0.00000  -0.31242   0.00000  -0.31242   0.00000  -0.31316   0.00000  -0.31316
 -9.61850   0.00000  -0.31242   0.00000  -0.31242   0.00000  -0.31316   0.00000  -0.31316
 -9.56840   0.00000  -0.31242   0.00000  -0.31242   0.00000  -0.31316   0.00000  -0.31316
 -9.51830   0.00000  -0.31242   0.00000  -0.31242   0.00000  -0.31316   0.00000  -0.31316
 -9.46821   0.00000  -0.31242   0.00000  -0.31242   0.00000  -0.31316   0.00000  -0.31316
 -9.41811   0.00000  -0.31242   0.00000  -0.31242   0.00000  -0.31316   0.00000  -0.31316
 -9.36802   0.00000  -0.31242   0.00000  -0.31242   0.00000  -0.31316   0.00000  -0.31316
 -9.31792   0.00000  -0.31242   0.00000  -0.31242   0.00000  -0.31316   0.00000  -0.31316
 -9.26782   0.00000  -0.31242   0.00000  -0.31242   0.00000  -0.31316   0.00000  -0.31316
 -9.21773   0.00000  -0.31242   0.00000  -0.31242   0.00000  -0.31316   0.00000  -0.31316
 -9.16763   0.00000  -0.31242   0.00000  -0.31242   0.00000  -0.31316   0.00000  -0.31316
 -9.11753   0.00000  -0.31242   0.00000  -0.31242   0.00000  -0.31316   0.00000  -0.31316
 -9.06744  -4.46494  -0.53610  -4.46494  -0.53610   0.00000  -0.31316   0.00000  -0.31316
 -9.01734  -1.76872  -0.62471  -1.76872  -0.62471   0.00000  -0.31316   0.00000  -0.31316
 -8.96724   0.00000  -0.62471   0.00000  -0.62471   0.00000  -0.31316   0.00000  -0.31316
 -8.91715   0.00000  -0.62471   0.00000  -0.62471  -6.20917  -0.62421  -6.20917  -0.62421
 -8.86705   0.00000  -0.62471   0.00000  -0.62471   0.00000  -0.62421   0.00000  -0.62421
 -8.81696   0.00000  -0.62471   0.00000  -0.62471   0.00000  -0.62421   0.00000  -0.62421
 -8.76686   0.00000  -0.62471   0.00000  -0.62471   0.00000  -0.62421   0.00000  -0.62421
 -8.71676   0.00000  -0.62471   0.00000  -0.62471   0.00000  -0.62421   0.00000  -0.62421
 -8.66667   0.00000  -0.62471   0.00000  -0.62471   0.00000  -0.62421   0.00000  -0.62421
 -8.61657   0.00000  -0.62471   0.00000  -0.62471   0.00000  -0.62421   0.00000  -0.62421
 -8.56647   0.00000  -0.62471   0.00000  -0.62471   0.00000  -0.62421   0.00000  -0.62421
 -8.51638   0.00000  -0.62471   0.00000  -0.62471   0.00000  -0.62421   0.00000  -0.62421
 -8.46628  -0.00077  -0.62474  -0.00077  -0.62474  -0.00475  -0.62445  -0.00475  -0.62445
 -8.41618  -0.00394  -0.62494  -0.00394  -0.62494  -0.01509  -0.62521  -0.01509  -0.62521
 -8.36609  -0.00677  -0.62528  -0.00677  -0.62528  -0.02370  -0.62639  -0.02370  -0.62639
 -8.31599  -0.00904  -0.62573  -0.00904  -0.62573  -0.03051  -0.62792  -0.03051  -0.62792
 -8.26590  -0.00865  -0.62617  -0.00865  -0.62617  -0.01972  -0.62891  -0.01972  -0.62891
 -8.21580  -0.00421  -0.62638  -0.00421  -0.62638  -0.01211  -0.62952  -0.01211  -0.62952
 -8.16570  -0.00353  -0.62656  -0.00353  -0.62656  -0.00995  -0.63002  -0.00995  -0.63002
 -8.11561  -0.00289  -0.62670  -0.00289  -0.62670  -0.00794  -0.63041  -0.00794  -0.63041
 -8.06551  -0.00228  -0.62681  -0.00228  -0.62681  -0.00605  -0.63072  -0.00605  -0.63072
 -8.01541  -0.00170  -0.62690  -0.00170  -0.62690  -0.00431  -0.63093  -0.00431  -0.63093
 -7.96532  -0.00116  -0.62696  -0.00116  -0.62696  -0.00271  -0.63107  -0.00271  -0.63107
 -7.91522  -0.00065  -0.62699  -0.00065  -0.62699  -0.00124  -0.63113  -0.00124  -0.63113
 -7.86513  -0.00017  -0.62700  -0.00017  -0.62700  -0.00002  -0.63113  -0.00002  -0.63113
 -7.81503   0.00047  -0.62697   0.00047  -0.62697   0.00079  -0.63109   0.00079  -0.63109
 -7.76493   0.00147  -0.62690   0.00147  -0.62690   0.00179  -0.63100   0.00179  -0.63100
 -7.71484   0.00284  -0.62676   0.00284  -0.62676   0.00305  -0.63085   0.00305  -0.63085
 -7.66474   0.00446  -0.62654   0.00446  -0.62654   0.00450  -0.63062   0.00450  -0.63062
 -7.61464   0.00514  -0.62628   0.00514  -0.62628   0.00400  -0.63042   0.00400  -0.63042
 -7.56455   0.00357  -0.62610   0.00357  -0.62610   0.00327  -0.63026   0.00327  -0.63026
 -7.51445   0.00340  -0.62593   0.00340  -0.62593   0.00308  -0.63011   0.00308  -0.63011
 -7.46435   0.00319  -0.62577   0.00319  -0.62577   0.00286  -0.62996   0.00286  -0.62996
 -7.41426   0.00292  -0.62562   0.00292  -0.62562   0.00259  -0.62983   0.00259  -0.62983
 -7.36416   0.00260  -0.62549   0.00260  -0.62549   0.00228  -0.62972   0.00228  -0.62972
 -7.31407   0.00223  -0.62538   0.00223  -0.62538   0.00193  -0.62962   0.00193  -0.62962
 -7.26397   0.00181  -0.62529   0.00181  -0.62529   0.00153  -0.62955   0.00153  -0.62955
 -7.21387   0.00133  -0.62522   0.00133  -0.62522   0.00109  -0.62949   0.00109  -0.62949
 -7.16378   0.00081  -0.62518   0.00081  -0.62518   0.00061  -0.62946   0.00061  -0.62946
 -7.11368   0.00023  -0.62517   0.00023  -0.62517   0.00009  -0.62946   0.00009  -0.62946
 -7.06358  -0.00038  -0.62519  -0.00038  -0.62519  -0.00046  -0.62948  -0.00046  -0.62948
 -7.01349  -0.00228  -0.62530  -0.00228  -0.62530  -0.00116  -0.62954  -0.00116  -0.62954
 -6.96339   0.00239  -0.62518   0.00239  -0.62518   0.00304  -0.62939   0.00304  -0.62939
 -6.91329   0.00196  -0.62509   0.00196  -0.62509   0.00236  -0.62927   0.00236  -0.62927
 -6.86320   0.00673  -0.62475   0.00673  -0.62475   0.00793  -0.62887   0.00793  -0.62887
 -6.81310   0.04917  -0.62229   0.04917  -0.62229   0.04929  -0.62640   0.04929  -0.62640
 -6.76301   0.03573  -0.62050   0.03573  -0.62050   0.03634  -0.62458   0.03634  -0.62458
 -6.71291   0.02360  -0.61931   0.02360  -0.61931   0.02470  -0.62334   0.02470  -0.62334
 -6.66281   0.01287  -0.61867   0.01287  -0.61867   0.01440  -0.62262   0.01440  -0.62262
 -6.61272   0.00507  -0.61842   0.00507  -0.61842   0.00639  -0.62230   0.00639  -0.62230
 -6.56262   0.00081  -0.61837   0.00081  -0.61837   0.00240  -0.62218   0.00240  -0.62218
 -6.51252   0.00012  -0.61837   0.00012  -0.61837   0.00120  -0.62212   0.00120  -0.62212
 -6.46243   0.00140  -0.61830   0.00140  -0.61830   0.00290  -0.62198   0.00290  -0.62198
 -6.41233   0.04352  -0.61612   0.04352  -0.61612   0.01352  -0.62130   0.01352  -0.62130
 -6.36224   0.06529  -0.61285   0.06529  -0.61285   0.09165  -0.61671   0.09165  -0.61671
 -6.31214   0.00095  -0.61280   0.00095  -0.61280   0.03363  -0.61502   0.03363  -0.61502
 -6.26204   0.00135  -0.61273   0.00135  -0.61273   0.00280  -0.61488   0.00280  -0.61488
 -6.21195   0.00179  -0.61264   0.00179  -0.61264   0.00335  -0.61471   0.00335  -0.61471
 -6.16185   0.04235  -0.61052   0.04235  -0.61052   0.00390  -0.61452   0.00390  -0.61452
 -6.11175   0.03121  -0.60896   0.03121  -0.60896   0.00598  -0.61422   0.00598  -0.61422
 -6.06166  -0.01832  -0.60988  -0.01832  -0.60988   0.05260  -0.61158   0.05260  -0.61158
 -6.01156  -0.09004  -0.61439  -0.09004  -0.61439   0.02133  -0.61051   0.02133  -0.61051
 -5.96146  -0.20228  -0.62452  -0.20228  -0.62452  -0.02053  -0.61154  -0.02053  -0.61154
 -5.91137  -0.43804  -0.64646  -0.43804  -0.64646  -0.08086  -0.61559  -0.08086  -0.61559
 -5.86127  -0.35997  -0.66450  -0.35997  -0.66450  -0.13948  -0.62258  -0.13948  -0.62258
 -5.81118  -0.40269  -0.68467  -0.40269  -0.68467  -0.06083  -0.62563  -0.06083  -0.62563
 -5.76108  -0.46305  -0.70787  -0.46305  -0.70787  -0.08145  -0.62971  -0.08145  -0.62971
 -5.71098  -0.17963  -0.71687  -0.17963  -0.71687  -0.07682  -0.63356  -0.07682  -0.63356
 -5.66089  -1.05875  -0.76991  -1.05875  -0.76991  -0.12272  -0.63971  -0.12272  -0.63971
 -5.61079  -0.24426  -0.78214  -0.24426  -0.78214  -0.31450  -0.65546  -0.31450  -0.65546
 -5.56069  -0.16947  -0.79063  -0.16947  -0.79063  -0.26285  -0.66863  -0.26285  -0.66863
 -5.51060   0.05319  -0.78797   0.05319  -0.78797  -0.27497  -0.68240  -0.27497  -0.68240
 -5.46050   0.03105  -0.78641   0.03105  -0.78641  -0.40002  -0.70244  -0.40002  -0.70244
 -5.41040  -0.04173  -0.78850  -0.04173  -0.78850  -1.02121  -0.75360  -1.02121  -0.75360
 -5.36031  -0.02287  -0.78965  -0.02287  -0.78965  -0.33825  -0.77055  -0.33825  -0.77055
 -5.31021  -0.04150  -0.79173  -0.04150  -0.79173   0.00471  -0.77031   0.00471  -0.77031
 -5.26012  -0.01019  -0.79224  -0.01019  -0.79224  -0.02324  -0.77147  -0.02324  -0.77147
 -5.21002  -0.19864  -0.80219  -0.19864  -0.80219  -0.04505  -0.77373  -0.04505  -0.77373
 -5.15992  -3.69900  -0.98750  -3.69900  -0.98750  -0.03229  -0.77535  -0.03229  -0.77535
 -5.10983  -0.27319  -1.00118  -0.27319  -1.00118   0.00000  -0.77535   0.00000  -0.77535
 -5.05973  -0.68734  -1.03562  -0.68734  -1.03562   0.08198  -0.77124   0.08198  -0.77124
 -5.00963  -0.32974  -1.05213  -0.32974  -1.05213   0.08126  -0.76717   0.08126  -0.76717
 -4.95954  -0.29090  -1.06671  -0.29090  -1.06671   0.01101  -0.76662   0.01101  -0.76662
 -4.90944  -0.12238  -1.07284  -0.12238  -1.07284  -0.52671  -0.79301  -0.52671  -0.79301
 -4.85934  -0.18040  -1.08188  -0.18040  -1.08188  -0.60197  -0.82316  -0.60197  -0.82316
 -4.80925  -0.03213  -1.08349  -0.03213  -1.08349  -0.62014  -0.85423  -0.62014  -0.85423
 -4.75915  -0.07476  -1.08723  -0.07476  -1.08723  -0.96484  -0.90256  -0.96484  -0.90256
 -4.70906  -0.00101  -1.08728  -0.00101  -1.08728  -0.50709  -0.92797  -0.50709  -0.92797
 -4.65896  -0.06338  -1.09046  -0.06338  -1.09046  -1.63445  -1.00985  -1.63445  -1.00985
 -4.60886  -0.11869  -1.09640  -0.11869  -1.09640  -0.45935  -1.03286  -0.45935  -1.03286
 -4.55877  -0.01088  -1.09695  -0.01088  -1.09695  -0.06548  -1.03614  -0.06548  -1.03614
 -4.50867  -0.02323  -1.09811  -0.02323  -1.09811  -0.16892  -1.04460  -0.16892  -1.04460
 -4.45857   0.00858  -1.09768   0.00858  -1.09768  -0.18474  -1.05386  -0.18474  -1.05386
 -4.40848  -0.00660  -1.09801  -0.00660  -1.09801  -0.15692  -1.06172  -0.15692  -1.06172
 -4.35838   0.01200  -1.09741   0.01200  -1.09741  -0.04110  -1.06378  -0.04110  -1.06378
 -4.30829   0.01203  -1.09681   0.01203  -1.09681  -0.05519  -1.06654  -0.05519  -1.06654
 -4.25819   0.03244  -1.09518   0.03244  -1.09518  -0.08972  -1.07104  -0.08972  -1.07104
 -4.20809  -0.01373  -1.09587  -0.01373  -1.09587  -0.11061  -1.07658  -0.11061  -1.07658
 -4.15800   0.00098  -1.09582   0.00098  -1.09582  -0.04870  -1.07902  -0.04870  -1.07902
 -4.10790   0.03532  -1.09405   0.03532  -1.09405  -0.03958  -1.08100  -0.03958  -1.08100
 -4.05780   0.01067  -1.09352   0.01067  -1.09352   0.00902  -1.08055   0.00902  -1.08055
 -4.00771   0.01253  -1.09289   0.01253  -1.09289   0.00156  -1.08047   0.00156  -1.08047
 -3.95761   0.01463  -1.09216   0.01463  -1.09216   0.01054  -1.07994   0.01054  -1.07994
 -3.90751   0.07347  -1.08848   0.07347  -1.08848   0.00747  -1.07957   0.00747  -1.07957
 -3.85742   0.07463  -1.08474   0.07463  -1.08474   0.02512  -1.07831   0.02512  -1.07831
 -3.80732   0.11842  -1.07881   0.11842  -1.07881   0.00588  -1.07801   0.00588  -1.07801
 -3.75723   0.16629  -1.07048   0.16629  -1.07048  -0.01223  -1.07863  -0.01223  -1.07863
 -3.70713   0.02570  -1.06919   0.02570  -1.06919   0.01323  -1.07796   0.01323  -1.07796
 -3.65703   0.08993  -1.06468   0.08993  -1.06468   0.04767  -1.07558   0.04767  -1.07558
 -3.60694   0.20243  -1.05454   0.20243  -1.05454   0.02815  -1.07417   0.02815  -1.07417
 -3.55684   0.08585  -1.05024   0.08585  -1.05024   0.04754  -1.07178   0.04754  -1.07178