ESCALE ; pCOOP file generated by LOBSTER. Energy is shifted such that the Fermi level lies at 0 eV.
         2          2        521  -1.93996e+01   6.65052e+00   6.38963e-01 
Average
No.1:Ni6->O69(1.9783395846156431)
-20.03854   0.00000   0.00759   0.00000   0.00759   0.00000   0.00788   0.00000   0.00788
-19.98844   0.00000   0.00759   0.00000   0.00759   0.00000   0.00788   0.00000   0.00788
-19.93834   0.00000   0.00759   0.00000   0.00759   0.00000   0.00788   0.00000   0.00788
-19.88825   0.00000   0.00759   0.00000   0.00759   0.00000   0.00788   0.00000   0.00788
-19.83815   0.00000   0.00759   0.00000   0.00759   0.00000   0.00788   0.00000   0.00788
-19.78805   0.00000   0.00759   0.00000   0.00759   0.00000   0.00788   0.00000   0.00788
-19.73796   0.00000   0.00759   0.00000   0.00759   0.00000   0.00788   0.00000   0.00788
-19.68786   0.00000   0.00759   0.00000   0.00759   0.00000   0.00788   0.00000   0.00788
-19.63776   0.00000   0.00759   0.00000   0.00759   0.00000   0.00788   0.00000   0.00788
-19.58767   0.00000   0.00759   0.00000   0.00759   0.00000   0.00788   0.00000   0.00788
-19.53757   0.00000   0.00759   0.00000   0.00759   0.00000   0.00788   0.00000   0.00788
-19.48748   0.00000   0.00759   0.00000   0.00759   0.00000   0.00788   0.00000   0.00788
-19.43738   0.00000   0.00759   0.00000   0.00759   0.00000   0.00788   0.00000   0.00788
-19.38728   0.00000   0.00759   0.00000   0.00759   0.00000   0.00788   0.00000   0.00788
-19.33719   0.00000   0.00759   0.00000   0.00759   0.00000   0.00788   0.00000   0.00788
-19.28709   0.00000   0.00759   0.00000   0.00759   0.00000   0.00788   0.00000   0.00788
-19.23699   0.00000   0.00759   0.00000   0.00759   0.00000   0.00788   0.00000   0.00788
-19.18690   0.00000   0.00759   0.00000   0.00759   0.00000   0.00788   0.00000   0.00788
-19.13680   0.00000   0.00759   0.00000   0.00759   0.00000   0.00788   0.00000   0.00788
-19.08671   0.00000   0.00759   0.00000   0.00759   0.00000   0.00788   0.00000   0.00788
-19.03661   0.00000   0.00759   0.00000   0.00759   0.00000   0.00788   0.00000   0.00788
-18.98651  -0.00390   0.00739  -0.00390   0.00739   0.00000   0.00788   0.00000   0.00788
-18.93642   0.00056   0.00742   0.00056   0.00742   0.00000   0.00788   0.00000   0.00788
-18.88632   0.00000   0.00742   0.00000   0.00742   0.00000   0.00788   0.00000   0.00788
-18.83622   0.00000   0.00742   0.00000   0.00742   0.00000   0.00788   0.00000   0.00788
-18.78613   0.00000   0.00742   0.00000   0.00742   0.00000   0.00788   0.00000   0.00788
-18.73603   0.00000   0.00742   0.00000   0.00742  -0.00385   0.00769  -0.00385   0.00769
-18.68593   0.00000   0.00742   0.00000   0.00742   0.00000   0.00769   0.00000   0.00769
-18.63584   0.00000   0.00742   0.00000   0.00742   0.00000   0.00769   0.00000   0.00769
-18.58574   0.00000   0.00742   0.00000   0.00742   0.00000   0.00769   0.00000   0.00769
-18.53565   0.00000   0.00742   0.00000   0.00742   0.00000   0.00769   0.00000   0.00769
-18.48555   0.00000   0.00742   0.00000   0.00742   0.00000   0.00769   0.00000   0.00769
-18.43545   0.00000   0.00742   0.00000   0.00742   0.00000   0.00769   0.00000   0.00769
-18.38536   0.00000   0.00742   0.00000   0.00742   0.00000   0.00769   0.00000   0.00769
-18.33526   0.00000   0.00742   0.00000   0.00742   0.00000   0.00769   0.00000   0.00769
-18.28516   0.00000   0.00742   0.00000   0.00742   0.00000   0.00769   0.00000   0.00769
-18.23507   0.00000   0.00742   0.00000   0.00742   0.00000   0.00769   0.00000   0.00769
-18.18497   0.00000   0.00742   0.00000   0.00742   0.00000   0.00769   0.00000   0.00769
-18.13487   0.00000   0.00742   0.00000   0.00742   0.00000   0.00769   0.00000   0.00769
-18.08478   0.00000   0.00742   0.00000   0.00742   0.00000   0.00769   0.00000   0.00769
-18.03468   0.00000   0.00742   0.00000   0.00742   0.00000   0.00769   0.00000   0.00769
-17.98459   0.00000   0.00742   0.00000   0.00742   0.00000   0.00769   0.00000   0.00769
-17.93449   0.00000   0.00742   0.00000   0.00742   0.00000   0.00769   0.00000   0.00769
-17.88439   0.00000   0.00742   0.00000   0.00742   0.00000   0.00769   0.00000   0.00769
-17.83430   0.00000   0.00742   0.00000   0.00742   0.00000   0.00769   0.00000   0.00769
-17.78420   0.00000   0.00742   0.00000   0.00742   0.00000   0.00769   0.00000   0.00769
-17.73410   0.00000   0.00742   0.00000   0.00742   0.00000   0.00769   0.00000   0.00769
-17.68401   0.00000   0.00742   0.00000   0.00742   0.00000   0.00769   0.00000   0.00769
-17.63391   0.00000   0.00742   0.00000   0.00742   0.00000   0.00769   0.00000   0.00769
-17.58382   0.00000   0.00742   0.00000   0.00742   0.00000   0.00769   0.00000   0.00769
-17.53372   0.00000   0.00742   0.00000   0.00742   0.00000   0.00769   0.00000   0.00769
-17.48362   0.00000   0.00742   0.00000   0.00742   0.00000   0.00769   0.00000   0.00769
-17.43353   0.00000   0.00742   0.00000   0.00742   0.00000   0.00769   0.00000   0.00769
-17.38343   0.00000   0.00742   0.00000   0.00742   0.00000   0.00769   0.00000   0.00769
-17.33333   0.00000   0.00742   0.00000   0.00742   0.00000   0.00769   0.00000   0.00769
-17.28324   0.00000   0.00742   0.00000   0.00742   0.00000   0.00769   0.00000   0.00769
-17.23314   0.00000   0.00742   0.00000   0.00742   0.00000   0.00769   0.00000   0.00769
-17.18304   0.00000   0.00742   0.00000   0.00742   0.00000   0.00769   0.00000   0.00769
-17.13295   0.00000   0.00742   0.00000   0.00742   0.00000   0.00769   0.00000   0.00769
-17.08285   0.00000   0.00742   0.00000   0.00742   0.00000   0.00769   0.00000   0.00769
-17.03276   0.00000   0.00742   0.00000   0.00742   0.00000   0.00769   0.00000   0.00769
-16.98266   0.00000   0.00742   0.00000   0.00742   0.00000   0.00769   0.00000   0.00769
-16.93256   0.00000   0.00742   0.00000   0.00742   0.00000   0.00769   0.00000   0.00769
-16.88247   0.00000   0.00742   0.00000   0.00742   0.00000   0.00769   0.00000   0.00769
-16.83237   0.00000   0.00742   0.00000   0.00742   0.00000   0.00769   0.00000   0.00769
-16.78227   0.00000   0.00742   0.00000   0.00742   0.00000   0.00769   0.00000   0.00769
-16.73218   0.00000   0.00742   0.00000   0.00742   0.00000   0.00769   0.00000   0.00769
-16.68208   0.00000   0.00742   0.00000   0.00742   0.00000   0.00769   0.00000   0.00769
-16.63198   0.00000   0.00742   0.00000   0.00742   0.00000   0.00769   0.00000   0.00769
-16.58189   0.00000   0.00742   0.00000   0.00742   0.00000   0.00769   0.00000   0.00769
-16.53179   0.00000   0.00742   0.00000   0.00742   0.00000   0.00769   0.00000   0.00769
-16.48170   0.00000   0.00742   0.00000   0.00742   0.00000   0.00769   0.00000   0.00769
-16.43160   0.00000   0.00742   0.00000   0.00742   0.00000   0.00769   0.00000   0.00769
-16.38150   0.00000   0.00742   0.00000   0.00742   0.00000   0.00769   0.00000   0.00769
-16.33141   0.00000   0.00742   0.00000   0.00742   0.00000   0.00769   0.00000   0.00769
-16.28131   0.00000   0.00742   0.00000   0.00742   0.00000   0.00769   0.00000   0.00769
-16.23121   0.00000   0.00742   0.00000   0.00742   0.00000   0.00769   0.00000   0.00769
-16.18112   0.00000   0.00742   0.00000   0.00742   0.00000   0.00769   0.00000   0.00769
-16.13102   0.00000   0.00742   0.00000   0.00742   0.00000   0.00769   0.00000   0.00769
-16.08092   0.00000   0.00742   0.00000   0.00742   0.00000   0.00769   0.00000   0.00769
-16.03083   0.00000   0.00742   0.00000   0.00742   0.00000   0.00769   0.00000   0.00769
-15.98073   0.00000   0.00742   0.00000   0.00742   0.00000   0.00769   0.00000   0.00769
-15.93064   0.00000   0.00742   0.00000   0.00742   0.00000   0.00769   0.00000   0.00769
-15.88054   0.00000   0.00742   0.00000   0.00742   0.00000   0.00769   0.00000   0.00769
-15.83044   0.00000   0.00742   0.00000   0.00742   0.00000   0.00769   0.00000   0.00769
-15.78035   0.00000   0.00742   0.00000   0.00742   0.00000   0.00769   0.00000   0.00769
-15.73025   0.00000   0.00742   0.00000   0.00742   0.00000   0.00769   0.00000   0.00769
-15.68015   0.00000   0.00742   0.00000   0.00742   0.00000   0.00769   0.00000   0.00769
-15.63006   0.00000   0.00742   0.00000   0.00742   0.00000   0.00769   0.00000   0.00769
-15.57996   0.00000   0.00742   0.00000   0.00742   0.00000   0.00769   0.00000   0.00769
-15.52987   0.00000   0.00742   0.00000   0.00742   0.00000   0.00769   0.00000   0.00769
-15.47977   0.00000   0.00742   0.00000   0.00742   0.00000   0.00769   0.00000   0.00769
-15.42967   0.00000   0.00742   0.00000   0.00742   0.00000   0.00769   0.00000   0.00769
-15.37958   0.00000   0.00742   0.00000   0.00742   0.00000   0.00769   0.00000   0.00769
-15.32948   0.00000   0.00742   0.00000   0.00742   0.00000   0.00769   0.00000   0.00769
-15.27938   0.00000   0.00742   0.00000   0.00742   0.00000   0.00769   0.00000   0.00769
-15.22929   0.00000   0.00742   0.00000   0.00742   0.00000   0.00769   0.00000   0.00769
-15.17919   0.00000   0.00742   0.00000   0.00742   0.00000   0.00769   0.00000   0.00769
-15.12909   0.00000   0.00742   0.00000   0.00742   0.00000   0.00769   0.00000   0.00769
-15.07900   0.00000   0.00742   0.00000   0.00742   0.00000   0.00769   0.00000   0.00769
-15.02890   0.00000   0.00742   0.00000   0.00742   0.00000   0.00769   0.00000   0.00769
-14.97881   0.00000   0.00742   0.00000   0.00742   0.00000   0.00769   0.00000   0.00769
-14.92871   0.00000   0.00742   0.00000   0.00742   0.00000   0.00769   0.00000   0.00769
-14.87861   0.00000   0.00742   0.00000   0.00742   0.00000   0.00769   0.00000   0.00769
-14.82852   0.00000   0.00742   0.00000   0.00742   0.00000   0.00769   0.00000   0.00769
-14.77842   0.00000   0.00742   0.00000   0.00742   0.00000   0.00769   0.00000   0.00769
-14.72832   0.00000   0.00742   0.00000   0.00742   0.00000   0.00769   0.00000   0.00769
-14.67823   0.00000   0.00742   0.00000   0.00742   0.00000   0.00769   0.00000   0.00769
-14.62813   0.00000   0.00742   0.00000   0.00742   0.00000   0.00769   0.00000   0.00769
-14.57803   0.00000   0.00742   0.00000   0.00742   0.00000   0.00769   0.00000   0.00769
-14.52794   0.00000   0.00742   0.00000   0.00742   0.00000   0.00769   0.00000   0.00769
-14.47784   0.00000   0.00742   0.00000   0.00742   0.00000   0.00769   0.00000   0.00769
-14.42775   0.00000   0.00742   0.00000   0.00742   0.00000   0.00769   0.00000   0.00769
-14.37765   0.00000   0.00742   0.00000   0.00742   0.00000   0.00769   0.00000   0.00769
-14.32755   0.00000   0.00742   0.00000   0.00742   0.00000   0.00769   0.00000   0.00769
-14.27746   0.00000   0.00742   0.00000   0.00742   0.00000   0.00769   0.00000   0.00769
-14.22736   0.00000   0.00742   0.00000   0.00742   0.00000   0.00769   0.00000   0.00769
-14.17726   0.00000   0.00742   0.00000   0.00742   0.00000   0.00769   0.00000   0.00769
-14.12717   0.00000   0.00742   0.00000   0.00742   0.00000   0.00769   0.00000   0.00769
-14.07707   0.00000   0.00742   0.00000   0.00742   0.00000   0.00769   0.00000   0.00769
-14.02697   0.00000   0.00742   0.00000   0.00742   0.00000   0.00769   0.00000   0.00769
-13.97688   0.00000   0.00742   0.00000   0.00742   0.00000   0.00769   0.00000   0.00769
-13.92678   0.00000   0.00742   0.00000   0.00742   0.00000   0.00769   0.00000   0.00769
-13.87669   0.00000   0.00742   0.00000   0.00742   0.00000   0.00769   0.00000   0.00769
-13.82659   0.00000   0.00742   0.00000   0.00742   0.00000   0.00769   0.00000   0.00769
-13.77649   0.00000   0.00742   0.00000   0.00742   0.00000   0.00769   0.00000   0.00769
-13.72640   0.00000   0.00742   0.00000   0.00742   0.00000   0.00769   0.00000   0.00769
-13.67630   0.00000   0.00742   0.00000   0.00742   0.00000   0.00769   0.00000   0.00769
-13.62620   0.00000   0.00742   0.00000   0.00742   0.00000   0.00769   0.00000   0.00769
-13.57611   0.00000   0.00742   0.00000   0.00742   0.00000   0.00769   0.00000   0.00769
-13.52601   0.00000   0.00742   0.00000   0.00742   0.00000   0.00769   0.00000   0.00769
-13.47592   0.00000   0.00742   0.00000   0.00742   0.00000   0.00769   0.00000   0.00769
-13.42582   0.00000   0.00742   0.00000   0.00742   0.00000   0.00769   0.00000   0.00769
-13.37572   0.00000   0.00742   0.00000   0.00742   0.00000   0.00769   0.00000   0.00769
-13.32563   0.00000   0.00742   0.00000   0.00742   0.00000   0.00769   0.00000   0.00769
-13.27553   0.00000   0.00742   0.00000   0.00742   0.00000   0.00769   0.00000   0.00769
-13.22543   0.00000   0.00742   0.00000   0.00742   0.00000   0.00769   0.00000   0.00769
-13.17534   0.00000   0.00742   0.00000   0.00742   0.00000   0.00769   0.00000   0.00769
-13.12524   0.00000   0.00742   0.00000   0.00742   0.00000   0.00769   0.00000   0.00769
-13.07514   0.00000   0.00742   0.00000   0.00742   0.00000   0.00769   0.00000   0.00769
-13.02505   0.00000   0.00742   0.00000   0.00742   0.00000   0.00769   0.00000   0.00769
-12.97495   0.00000   0.00742   0.00000   0.00742   0.00000   0.00769   0.00000   0.00769
-12.92486   0.00000   0.00742   0.00000   0.00742   0.00000   0.00769   0.00000   0.00769
-12.87476   0.00000   0.00742   0.00000   0.00742   0.00000   0.00769   0.00000   0.00769
-12.82466   0.00000   0.00742   0.00000   0.00742   0.00000   0.00769   0.00000   0.00769
-12.77457   0.00000   0.00742   0.00000   0.00742   0.00000   0.00769   0.00000   0.00769
-12.72447   0.00000   0.00742   0.00000   0.00742   0.00000   0.00769   0.00000   0.00769
-12.67437   0.00000   0.00742   0.00000   0.00742   0.00000   0.00769   0.00000   0.00769
-12.62428   0.00000   0.00742   0.00000   0.00742   0.00000   0.00769   0.00000   0.00769
-12.57418   0.00000   0.00742   0.00000   0.00742   0.00000   0.00769   0.00000   0.00769
-12.52408   0.00000   0.00742   0.00000   0.00742   0.00000   0.00769   0.00000   0.00769
-12.47399   0.00000   0.00742   0.00000   0.00742   0.00000   0.00769   0.00000   0.00769
-12.42389   0.00000   0.00742   0.00000   0.00742   0.00000   0.00769   0.00000   0.00769
-12.37380   0.00000   0.00742   0.00000   0.00742   0.00000   0.00769   0.00000   0.00769
-12.32370   0.00000   0.00742   0.00000   0.00742   0.00000   0.00769   0.00000   0.00769
-12.27360   0.00000   0.00742   0.00000   0.00742   0.00000   0.00769   0.00000   0.00769
-12.22351   0.00000   0.00742   0.00000   0.00742   0.00000   0.00769   0.00000   0.00769
-12.17341   0.00000   0.00742   0.00000   0.00742   0.00000   0.00769   0.00000   0.00769
-12.12331   0.00000   0.00742   0.00000   0.00742   0.00000   0.00769   0.00000   0.00769
-12.07322   0.00000   0.00742   0.00000   0.00742   0.00000   0.00769   0.00000   0.00769
-12.02312   0.00000   0.00742   0.00000   0.00742   0.00000   0.00769   0.00000   0.00769
-11.97303   0.00000   0.00742   0.00000   0.00742   0.00000   0.00769   0.00000   0.00769
-11.92293   0.00000   0.00742   0.00000   0.00742   0.00000   0.00769   0.00000   0.00769
-11.87283   0.00000   0.00742   0.00000   0.00742   0.00000   0.00769   0.00000   0.00769
-11.82274   0.00000   0.00742   0.00000   0.00742   0.00000   0.00769   0.00000   0.00769
-11.77264   0.00000   0.00742   0.00000   0.00742   0.00000   0.00769   0.00000   0.00769
-11.72254   0.00000   0.00742   0.00000   0.00742   0.00000   0.00769   0.00000   0.00769
-11.67245   0.00000   0.00742   0.00000   0.00742   0.00000   0.00769   0.00000   0.00769
-11.62235   0.00000   0.00742   0.00000   0.00742   0.00000   0.00769   0.00000   0.00769
-11.57225   0.00000   0.00742   0.00000   0.00742   0.00000   0.00769   0.00000   0.00769
-11.52216   0.00000   0.00742   0.00000   0.00742   0.00000   0.00769   0.00000   0.00769
-11.47206   0.00000   0.00742   0.00000   0.00742   0.00000   0.00769   0.00000   0.00769
-11.42197   0.00000   0.00742   0.00000   0.00742   0.00000   0.00769   0.00000   0.00769
-11.37187   0.00000   0.00742   0.00000   0.00742   0.00000   0.00769   0.00000   0.00769
-11.32177   0.00000   0.00742   0.00000   0.00742   0.00000   0.00769   0.00000   0.00769
-11.27168   0.00000   0.00742   0.00000   0.00742   0.00000   0.00769   0.00000   0.00769
-11.22158   0.00000   0.00742   0.00000   0.00742   0.00000   0.00769   0.00000   0.00769
-11.17148   0.00000   0.00742   0.00000   0.00742   0.00000   0.00769   0.00000   0.00769
-11.12139   0.00000   0.00742   0.00000   0.00742   0.00000   0.00769   0.00000   0.00769
-11.07129   0.00000   0.00742   0.00000   0.00742   0.00000   0.00769   0.00000   0.00769
-11.02119   0.00000   0.00742   0.00000   0.00742   0.00000   0.00769   0.00000   0.00769
-10.97110   0.00000   0.00742   0.00000   0.00742   0.00000   0.00769   0.00000   0.00769
-10.92100   0.00000   0.00742   0.00000   0.00742   0.00000   0.00769   0.00000   0.00769
-10.87091   0.00000   0.00742   0.00000   0.00742   0.00000   0.00769   0.00000   0.00769
-10.82081   0.00000   0.00742   0.00000   0.00742   0.00000   0.00769   0.00000   0.00769
-10.77071   0.00000   0.00742   0.00000   0.00742   0.00000   0.00769   0.00000   0.00769
-10.72062   0.00000   0.00742   0.00000   0.00742   0.00000   0.00769   0.00000   0.00769
-10.67052   0.00000   0.00742   0.00000   0.00742   0.00000   0.00769   0.00000   0.00769
-10.62042   0.00000   0.00742   0.00000   0.00742   0.00000   0.00769   0.00000   0.00769
-10.57033   0.00000   0.00742   0.00000   0.00742   0.00000   0.00769   0.00000   0.00769
-10.52023   0.00000   0.00742   0.00000   0.00742   0.00000   0.00769   0.00000   0.00769
-10.47013   0.00000   0.00742   0.00000   0.00742   0.00000   0.00769   0.00000   0.00769
-10.42004   0.00000   0.00742   0.00000   0.00742   0.00000   0.00769   0.00000   0.00769
-10.36994   0.00000   0.00742   0.00000   0.00742   0.00000   0.00769   0.00000   0.00769
-10.31985   0.00000   0.00742   0.00000   0.00742   0.00000   0.00769   0.00000   0.00769
-10.26975   0.00000   0.00742   0.00000   0.00742   0.00000   0.00769   0.00000   0.00769
-10.21965   0.00000   0.00742   0.00000   0.00742   0.00000   0.00769   0.00000   0.00769
-10.16956   0.00000   0.00742   0.00000   0.00742   0.00000   0.00769   0.00000   0.00769
-10.11946   0.00000   0.00742   0.00000   0.00742   0.00000   0.00769   0.00000   0.00769
-10.06936   0.00000   0.00742   0.00000   0.00742   0.00000   0.00769   0.00000   0.00769
-10.01927   0.00000   0.00742   0.00000   0.00742   0.00000   0.00769   0.00000   0.00769
 -9.96917   0.00000   0.00742   0.00000   0.00742   0.00000   0.00769   0.00000   0.00769
 -9.91908   0.00000   0.00742   0.00000   0.00742   0.00000   0.00769   0.00000   0.00769
 -9.86898   0.00000   0.00742   0.00000   0.00742   0.00000   0.00769   0.00000   0.00769
 -9.81888   0.00000   0.00742   0.00000   0.00742   0.00000   0.00769   0.00000   0.00769
 -9.76879   0.00000   0.00742   0.00000   0.00742   0.00000   0.00769   0.00000   0.00769
 -9.71869   0.00000   0.00742   0.00000   0.00742   0.00000   0.00769   0.00000   0.00769
 -9.66859   0.00000   0.00742   0.00000   0.00742   0.00000   0.00769   0.00000   0.00769
 -9.61850   0.00000   0.00742   0.00000   0.00742   0.00000   0.00769   0.00000   0.00769
 -9.56840   0.00000   0.00742   0.00000   0.00742   0.00000   0.00769   0.00000   0.00769
 -9.51830   0.00000   0.00742   0.00000   0.00742   0.00000   0.00769   0.00000   0.00769
 -9.46821   0.00000   0.00742   0.00000   0.00742   0.00000   0.00769   0.00000   0.00769
 -9.41811   0.00000   0.00742   0.00000   0.00742   0.00000   0.00769   0.00000   0.00769
 -9.36802   0.00000   0.00742   0.00000   0.00742   0.00000   0.00769   0.00000   0.00769
 -9.31792   0.00000   0.00742   0.00000   0.00742   0.00000   0.00769   0.00000   0.00769
 -9.26782   0.00000   0.00742   0.00000   0.00742   0.00000   0.00769   0.00000   0.00769
 -9.21773   0.00000   0.00742   0.00000   0.00742   0.00000   0.00769   0.00000   0.00769
 -9.16763   0.00000   0.00742   0.00000   0.00742   0.00000   0.00769   0.00000   0.00769
 -9.11753   0.00000   0.00742   0.00000   0.00742   0.00000   0.00769   0.00000   0.00769
 -9.06744   0.29780   0.02234   0.29780   0.02234   0.00000   0.00769   0.00000   0.00769
 -9.01734   0.11819   0.02826   0.11819   0.02826   0.00000   0.00769   0.00000   0.00769
 -8.96724   0.00000   0.02826   0.00000   0.02826   0.00000   0.00769   0.00000   0.00769
 -8.91715   0.00000   0.02826   0.00000   0.02826   0.40743   0.02810   0.40743   0.02810
 -8.86705   0.00000   0.02826   0.00000   0.02826   0.00000   0.02810   0.00000   0.02810
 -8.81696   0.00000   0.02826   0.00000   0.02826   0.00000   0.02810   0.00000   0.02810
 -8.76686   0.00000   0.02826   0.00000   0.02826   0.00000   0.02810   0.00000   0.02810
 -8.71676   0.00000   0.02826   0.00000   0.02826   0.00000   0.02810   0.00000   0.02810
 -8.66667   0.00000   0.02826   0.00000   0.02826   0.00000   0.02810   0.00000   0.02810
 -8.61657   0.00000   0.02826   0.00000   0.02826   0.00000   0.02810   0.00000   0.02810
 -8.56647   0.00000   0.02826   0.00000   0.02826   0.00000   0.02810   0.00000   0.02810
 -8.51638   0.00000   0.02826   0.00000   0.02826   0.00000   0.02810   0.00000   0.02810
 -8.46628   0.00014   0.02827   0.00014   0.02827   0.00070   0.02813   0.00070   0.02813
 -8.41618   0.00075   0.02831   0.00075   0.02831   0.00223   0.02824   0.00223   0.02824
 -8.36609   0.00135   0.02837   0.00135   0.02837   0.00355   0.02842   0.00355   0.02842
 -8.31599   0.00189   0.02847   0.00189   0.02847   0.00464   0.02865   0.00464   0.02865
 -8.26590   0.00204   0.02857   0.00204   0.02857   0.00323   0.02882   0.00323   0.02882
 -8.21580   0.00132   0.02864   0.00132   0.02864   0.00210   0.02892   0.00210   0.02892
 -8.16570   0.00110   0.02869   0.00110   0.02869   0.00172   0.02901   0.00172   0.02901
 -8.11561   0.00088   0.02873   0.00088   0.02873   0.00137   0.02908   0.00137   0.02908
 -8.06551   0.00069   0.02877   0.00069   0.02877   0.00104   0.02913   0.00104   0.02913
 -8.01541   0.00051   0.02879   0.00051   0.02879   0.00074   0.02916   0.00074   0.02916
 -7.96532   0.00034   0.02881   0.00034   0.02881   0.00046   0.02919   0.00046   0.02919
 -7.91522   0.00019   0.02882   0.00019   0.02882   0.00021   0.02920   0.00021   0.02920
 -7.86513   0.00005   0.02882   0.00005   0.02882   0.00003   0.02920   0.00003   0.02920
 -7.81503   0.00003   0.02882   0.00003   0.02882   0.00007   0.02920   0.00007   0.02920
 -7.76493   0.00008   0.02883   0.00008   0.02883   0.00016   0.02921   0.00016   0.02921
 -7.71484   0.00016   0.02884   0.00016   0.02884   0.00029   0.02923   0.00029   0.02923
 -7.66474   0.00025   0.02885   0.00025   0.02885   0.00043   0.02925   0.00043   0.02925
 -7.61464   0.00031   0.02887   0.00031   0.02887   0.00036   0.02926   0.00036   0.02926
 -7.56455   0.00030   0.02888   0.00030   0.02888   0.00031   0.02928   0.00031   0.02928
 -7.51445   0.00032   0.02890   0.00032   0.02890   0.00034   0.02930   0.00034   0.02930
 -7.46435   0.00034   0.02891   0.00034   0.02891   0.00036   0.02932   0.00036   0.02932
 -7.41426   0.00035   0.02893   0.00035   0.02893   0.00038   0.02933   0.00038   0.02933
 -7.36416   0.00036   0.02895   0.00036   0.02895   0.00039   0.02935   0.00039   0.02935
 -7.31407   0.00037   0.02897   0.00037   0.02897   0.00040   0.02937   0.00040   0.02937
 -7.26397   0.00037   0.02899   0.00037   0.02899   0.00041   0.02940   0.00041   0.02940
 -7.21387   0.00037   0.02900   0.00037   0.02900   0.00042   0.02942   0.00042   0.02942
 -7.16378   0.00037   0.02902   0.00037   0.02902   0.00042   0.02944   0.00042   0.02944
 -7.11368   0.00036   0.02904   0.00036   0.02904   0.00042   0.02946   0.00042   0.02946
 -7.06358   0.00035   0.02906   0.00035   0.02906   0.00041   0.02948   0.00041   0.02948
 -7.01349   0.00026   0.02907   0.00026   0.02907   0.00017   0.02949   0.00017   0.02949
 -6.96339  -0.00044   0.02905  -0.00044   0.02905  -0.00035   0.02947  -0.00035   0.02947
 -6.91329  -0.00036   0.02903  -0.00036   0.02903  -0.00028   0.02946  -0.00028   0.02946
 -6.86320  -0.00018   0.02902  -0.00018   0.02902  -0.00012   0.02945  -0.00012   0.02945
 -6.81310   0.00062   0.02905   0.00062   0.02905   0.00057   0.02948   0.00057   0.02948
 -6.76301   0.00042   0.02907   0.00042   0.02907   0.00039   0.02950   0.00039   0.02950
 -6.71291   0.00027   0.02909   0.00027   0.02909   0.00025   0.02951   0.00025   0.02951
 -6.66281   0.00018   0.02910   0.00018   0.02910   0.00017   0.02952   0.00017   0.02952
 -6.61272   0.00012   0.02910   0.00012   0.02910   0.00011   0.02952   0.00011   0.02952
 -6.56262   0.00013   0.02911   0.00013   0.02911   0.00008   0.02953   0.00008   0.02953
 -6.51252   0.00015   0.02912   0.00015   0.02912   0.00006   0.02953   0.00006   0.02953
 -6.46243   0.00018   0.02913   0.00018   0.02913   0.00005   0.02953   0.00005   0.02953
 -6.41233   0.00034   0.02914   0.00034   0.02914   0.00010   0.02954   0.00010   0.02954
 -6.36224   0.00028   0.02916   0.00028   0.02916   0.00054   0.02957   0.00054   0.02957
 -6.31214  -0.00005   0.02915  -0.00005   0.02915   0.00005   0.02957   0.00005   0.02957
 -6.26204  -0.00008   0.02915  -0.00008   0.02915  -0.00017   0.02956  -0.00017   0.02956
 -6.21195  -0.00012   0.02914  -0.00012   0.02914  -0.00021   0.02955  -0.00021   0.02955
 -6.16185  -0.00344   0.02897  -0.00344   0.02897  -0.00024   0.02954  -0.00024   0.02954
 -6.11175  -0.00240   0.02885  -0.00240   0.02885  -0.00040   0.02952  -0.00040   0.02952
 -6.06166   0.00119   0.02891   0.00119   0.02891  -0.00384   0.02933  -0.00384   0.02933
 -6.01156   0.00684   0.02925   0.00684   0.02925  -0.00135   0.02926  -0.00135   0.02926
 -5.96146   0.01550   0.03003   0.01550   0.03003   0.00156   0.02934   0.00156   0.02934
 -5.91137   0.03581   0.03182   0.03581   0.03182   0.00569   0.02962   0.00569   0.02962
 -5.86127   0.03489   0.03357   0.03489   0.03357   0.01000   0.03012   0.01000   0.03012
 -5.81118   0.03800   0.03548   0.03800   0.03548   0.00636   0.03044   0.00636   0.03044
 -5.76108   0.04679   0.03782   0.04679   0.03782   0.00955   0.03092   0.00955   0.03092
 -5.71098   0.01788   0.03872   0.01788   0.03872   0.00880   0.03136   0.00880   0.03136
 -5.66089   0.11294   0.04437   0.11294   0.04437   0.01118   0.03192   0.01118   0.03192
 -5.61079   0.02862   0.04581   0.02862   0.04581   0.03037   0.03344   0.03037   0.03344
 -5.56069   0.01743   0.04668   0.01743   0.04668   0.02630   0.03476   0.02630   0.03476
 -5.51060  -0.01368   0.04599  -0.01368   0.04599   0.02730   0.03613   0.02730   0.03613
 -5.46050  -0.00612   0.04569  -0.00612   0.04569   0.04069   0.03816   0.04069   0.03816
 -5.41040   0.00634   0.04601   0.00634   0.04601   0.11498   0.04392   0.11498   0.04392
 -5.36031   0.00114   0.04606   0.00114   0.04606   0.03723   0.04579   0.03723   0.04579
 -5.31021   0.00044   0.04609   0.00044   0.04609   0.00114   0.04585   0.00114   0.04585
 -5.26012  -0.00800   0.04568  -0.00800   0.04568  -0.00241   0.04573  -0.00241   0.04573
 -5.21002  -0.00324   0.04552  -0.00324   0.04552   0.00398   0.04593   0.00398   0.04593
 -5.15992   0.20136   0.05561   0.20136   0.05561  -0.00456   0.04570  -0.00456   0.04570
 -5.10983   0.01121   0.05617   0.01121   0.05617   0.00000   0.04570   0.00000   0.04570
 -5.05973   0.04772   0.05856   0.04772   0.05856  -0.01205   0.04509  -0.01205   0.04509
 -5.00963   0.02251   0.05969   0.02251   0.05969  -0.01272   0.04446  -0.01272   0.04446
 -4.95954   0.01908   0.06064   0.01908   0.06064  -0.00197   0.04436  -0.00197   0.04436
 -4.90944   0.00755   0.06102   0.00755   0.06102   0.02821   0.04577   0.02821   0.04577
 -4.85934   0.02106   0.06208   0.02106   0.06208   0.03223   0.04739   0.03223   0.04739
 -4.80925   0.00307   0.06223   0.00307   0.06223   0.02777   0.04878   0.02777   0.04878
 -4.75915   0.00679   0.06257   0.00679   0.06257   0.03792   0.05068   0.03792   0.05068
 -4.70906   0.00040   0.06259   0.00040   0.06259   0.02352   0.05186   0.02352   0.05186
 -4.65896   0.00932   0.06306   0.00932   0.06306   0.10079   0.05690   0.10079   0.05690
 -4.60886   0.01298   0.06371   0.01298   0.06371   0.03374   0.05860   0.03374   0.05860
 -4.55877   0.00206   0.06381   0.00206   0.06381   0.00578   0.05888   0.00578   0.05888
 -4.50867   0.00487   0.06406   0.00487   0.06406   0.01455   0.05961   0.01455   0.05961
 -4.45857  -0.00230   0.06394  -0.00230   0.06394   0.01724   0.06048   0.01724   0.06048
 -4.40848  -0.00043   0.06392  -0.00043   0.06392   0.01521   0.06124   0.01521   0.06124
 -4.35838  -0.00176   0.06383  -0.00176   0.06383   0.00399   0.06144   0.00399   0.06144
 -4.30829  -0.00076   0.06379  -0.00076   0.06379   0.00417   0.06165   0.00417   0.06165
 -4.25819  -0.00399   0.06359  -0.00399   0.06359   0.00643   0.06197   0.00643   0.06197
 -4.20809   0.00051   0.06362   0.00051   0.06362   0.00762   0.06235   0.00762   0.06235
 -4.15800  -0.00177   0.06353  -0.00177   0.06353   0.00376   0.06254   0.00376   0.06254
 -4.10790  -0.01120   0.06297  -0.01120   0.06297   0.00335   0.06271   0.00335   0.06271
 -4.05780  -0.00188   0.06288  -0.00188   0.06288  -0.00188   0.06261  -0.00188   0.06261
 -4.00771  -0.00128   0.06281  -0.00128   0.06281  -0.00246   0.06249  -0.00246   0.06249
 -3.95761  -0.00386   0.06262  -0.00386   0.06262  -0.00118   0.06243  -0.00118   0.06243
 -3.90751  -0.01582   0.06183  -0.01582   0.06183  -0.00231   0.06232  -0.00231   0.06232
 -3.85742  -0.01480   0.06108  -0.01480   0.06108  -0.00737   0.06195  -0.00737   0.06195
 -3.80732  -0.04032   0.05906  -0.04032   0.05906  -0.00222   0.06184  -0.00222   0.06184
 -3.75723  -0.04020   0.05705  -0.04020   0.05705   0.00081   0.06188   0.00081   0.06188
 -3.70713  -0.00784   0.05666  -0.00784   0.05666  -0.00261   0.06174  -0.00261   0.06174
 -3.65703  -0.02803   0.05525  -0.02803   0.05525  -0.01209   0.06114  -0.01209   0.06114
 -3.60694  -0.05936   0.05228  -0.05936   0.05228  -0.00891   0.06069  -0.00891   0.06069
 -3.55684  -0.02177   0.05119  -0.02177   0.05119  -0.01757   0.05981  -0.01757   0.05981