       N       E                     dE             d eps       ncg     rms          rms(c)
DAV:   1     0.125036836053E+04    0.12504E+04   -0.64068E+04 51240   0.209E+03
DAV:   2     0.446157053202E+02   -0.12058E+04   -0.11455E+04 51240   0.420E+02
DAV:   3    -0.937947557917E+02   -0.13841E+03   -0.11480E+03 51336   0.171E+02
DAV:   4    -0.991581390910E+02   -0.53634E+01   -0.53003E+01 55623   0.401E+01
DAV:   5    -0.992614296101E+02   -0.10329E+00   -0.10324E+00 76506   0.413E+00
RMM:   6    -0.992627451920E+02   -0.13156E-02   -0.13154E-02 53780   0.603E-01
RMM:   7    -0.992629850746E+02   -0.23988E-03   -0.23750E-03 75758   0.152E-01
RMM:   8    -0.992629925756E+02   -0.75009E-05   -0.83990E-05 76052   0.297E-02
RMM:   9    -0.992629933371E+02   -0.76155E-06   -0.81474E-06 39482   0.764E-03
   1 F= -.99262993E+02 E0= -.99262993E+02  d E =0.000000E+00  mag=    18.1256
