 vasp.5.4.4.18Apr17-6-g9f103f2a35 (build Sep 06 2021 19:49:22) complex          
  
 executed on             LinuxIFC date 2021.12.27  22:14:35
 running on   24 total cores
 distrk:  each k-point on   24 cores,    1 groups
 distr:  one band on NCORES_PER_BAND=   8 cores,    3 groups


--------------------------------------------------------------------------------------------------------


 INCAR:
 POTCAR:    PAW_PBE Ni 02Aug2007                  
 POTCAR:    PAW_PBE Fe 06Sep2000                  
 POTCAR:    PAW_PBE Ni 02Aug2007                  
   VRHFIN =Ni:                                                                  
   LEXCH  = PE                                                                  
   EATOM  =  1077.6739 eV,   79.2068 Ry                                         
                                                                                
   TITEL  = PAW_PBE Ni 02Aug2007                                                
   LULTRA =        F    use ultrasoft PP ?                                      
   IUNSCR =        1    unscreen: 0-lin 1-nonlin 2-no                           
   RPACOR =    2.000    partial core radius                                     
   POMASS =   58.690; ZVAL   =   10.000    mass and valenz                      
   RCORE  =    2.300    outmost cutoff radius                                   
   RWIGS  =    2.430; RWIGS  =    1.286    wigner-seitz radius (au A)           
   ENMAX  =  269.532; ENMIN  =  202.149 eV                                      
   RCLOC  =    1.201    cutoff for local pot                                    
   LCOR   =        T    correct aug charges                                     
   LPAW   =        T    paw PP                                                  
   EAUG   =  544.565                                                            
   DEXC   =    0.000                                                            
   RMAX   =    2.357    core radius for proj-oper                               
   RAUG   =    1.300    factor for augmentation sphere                          
   RDEP   =    2.390    radius for radial grids                                 
   RDEPT  =    1.838    core radius for aug-charge                              
                                                                                
   Atomic configuration                                                         
    9 entries                                                                   
     n  l   j            E        occ.                                          
     1  0  0.50     -8206.4253   2.0000                                         
     2  0  0.50      -976.1748   2.0000                                         
     2  1  1.50      -839.0571   6.0000                                         
     3  0  0.50      -105.9991   2.0000                                         
     3  1  1.50       -66.4603   6.0000                                         
     3  2  2.50        -4.6458   9.0000                                         
     4  0  0.50        -4.4926   1.0000                                         
     4  1  1.50        -4.0817   0.0000                                         
     4  3  2.50        -1.3606   0.0000                                         
   Description                                                                  
     l       E           TYP  RCUT    TYP  RCUT                                 
     2     -4.6457903     23  2.300                                             
     2     -6.0063729     23  2.300                                             
     0     -4.4925590     23  2.300                                             
     0      5.0102601     23  2.300                                             
     1     -2.7211652     23  2.300                                             
     1     16.5183231     23  2.300                                             
  local pseudopotential read in
  partial core-charges read in
  partial kinetic energy density read in
  atomic valenz-charges read in
  non local Contribution for L=           2  read in
    real space projection operators read in
  non local Contribution for L=           2  read in
    real space projection operators read in
  non local Contribution for L=           0  read in
    real space projection operators read in
  non local Contribution for L=           0  read in
    real space projection operators read in
  non local Contribution for L=           1  read in
    real space projection operators read in
  non local Contribution for L=           1  read in
    real space projection operators read in
    PAW grid and wavefunctions read in
 
   number of l-projection  operators is LMAX  =           6
   number of lm-projection operators is LMMAX =          18
 
 POTCAR:    PAW_PBE Fe 06Sep2000                  
   VRHFIN =Fe:  d7 s1                                                           
   LEXCH  = PE                                                                  
   EATOM  =   594.3153 eV,   43.6809 Ry                                         
                                                                                
   TITEL  = PAW_PBE Fe 06Sep2000                                                
   LULTRA =        F    use ultrasoft PP ?                                      
   IUNSCR =        1    unscreen: 0-lin 1-nonlin 2-no                           
   RPACOR =    2.000    partial core radius                                     
   POMASS =   55.847; ZVAL   =    8.000    mass and valenz                      
   RCORE  =    2.300    outmost cutoff radius                                   
   RWIGS  =    2.460; RWIGS  =    1.302    wigner-seitz radius (au A)           
   ENMAX  =  267.882; ENMIN  =  200.911 eV                                      
   RCLOC  =    1.701    cutoff for local pot                                    
   LCOR   =        T    correct aug charges                                     
   LPAW   =        T    paw PP                                                  
   EAUG   =  511.368                                                            
   DEXC   =    0.000                                                            
   RMAX   =    2.356    core radius for proj-oper                               
   RAUG   =    1.300    factor for augmentation sphere                          
   RDEP   =    2.442    radius for radial grids                                 
   RDEPT  =    1.890    core radius for aug-charge                              
                                                                                
   Atomic configuration                                                         
    9 entries                                                                   
     n  l   j            E        occ.                                          
     1  0  0.50     -6993.8440   2.0000                                         
     2  0  0.50      -814.6047   2.0000                                         
     2  1  1.50      -693.3689   6.0000                                         
     3  0  0.50       -89.4732   2.0000                                         
     3  1  1.50       -55.6373   6.0000                                         
     3  2  2.50        -3.8151   7.0000                                         
     4  0  0.50        -4.2551   1.0000                                         
     4  1  1.50        -3.4015   0.0000                                         
     4  3  2.50        -1.3606   0.0000                                         
   Description                                                                  
     l       E           TYP  RCUT    TYP  RCUT                                 
     2     -3.8151135     23  2.300                                             
     2     -5.1756961     23  2.300                                             
     0     -4.2550963     23  2.300                                             
     0      7.2035603     23  2.300                                             
     1     -2.7211652     23  2.300                                             
     1     18.4316424     23  2.300                                             
  local pseudopotential read in
  partial core-charges read in
  partial kinetic energy density read in
  atomic valenz-charges read in
  non local Contribution for L=           2  read in
    real space projection operators read in
  non local Contribution for L=           2  read in
    real space projection operators read in
  non local Contribution for L=           0  read in
    real space projection operators read in
  non local Contribution for L=           0  read in
    real space projection operators read in
  non local Contribution for L=           1  read in
    real space projection operators read in
  non local Contribution for L=           1  read in
    real space projection operators read in
    PAW grid and wavefunctions read in
 
   number of l-projection  operators is LMAX  =           6
   number of lm-projection operators is LMMAX =          18
 
 Optimization of the real space projectors (new method)

 maximal supplied QI-value         = 16.25
 optimisation between [QCUT,QGAM] = [ 11.54, 23.24] = [ 37.28,151.24] Ry 
 Optimized for a Real-space Cutoff    1.45 Angstroem

   l    n(q)    QCUT    max X(q) W(low)/X(q) W(high)/X(q)  e(spline) 
   2      9    11.539    60.317    0.19E-03    0.47E-04    0.16E-06
   2      9    11.539    55.921    0.19E-03    0.48E-04    0.16E-06
   0     10    11.539    51.690    0.80E-04    0.50E-04    0.24E-06
   0     10    11.539    30.015    0.73E-04    0.45E-04    0.22E-06
   1     10    11.539    18.849    0.87E-04    0.16E-03    0.71E-07
   1     10    11.539    14.624    0.73E-04    0.13E-03    0.64E-07
 Optimization of the real space projectors (new method)

 maximal supplied QI-value         = 16.25
 optimisation between [QCUT,QGAM] = [ 11.54, 23.24] = [ 37.28,151.24] Ry 
 Optimized for a Real-space Cutoff    1.53 Angstroem

   l    n(q)    QCUT    max X(q) W(low)/X(q) W(high)/X(q)  e(spline) 
   2     10    11.539    80.901    0.11E-03    0.14E-03    0.21E-06
   2     10    11.539    75.754    0.11E-03    0.14E-03    0.22E-06
   0     11    11.539    58.752    0.52E-04    0.18E-04    0.33E-06
   0     11    11.539    30.679    0.44E-04    0.16E-04    0.30E-06
   1     10    11.539    17.977    0.53E-04    0.29E-04    0.13E-06
   1     10    11.539    13.559    0.44E-04    0.25E-04    0.11E-06
  PAW_PBE Ni 02Aug2007                  :
 energy of atom  1       EATOM=-1077.6739
 kinetic energy error for atom=    0.0030 (will be added to EATOM!!)
  PAW_PBE Fe 06Sep2000                  :
 energy of atom  2       EATOM= -594.3153
 kinetic energy error for atom=    0.0026 (will be added to EATOM!!)
 
 
 POSCAR: POSCAR                                  
  positions in direct lattice
  velocities in cartesian coordinates
 exchange correlation table for  LEXCH =        8
   RHO(1)=    0.500       N(1)  =     2000
   RHO(2)=  100.500       N(2)  =     4000
 


--------------------------------------------------------------------------------------------------------


 ion  position               nearest neighbor table
   1  0.261  0.690  0.814-  13 2.46  14 2.46  13 2.49   7 2.49   6 2.49  10 2.50  15 2.50   3 2.52
                             4 2.53   2 2.53  11 2.54   6 2.54
   2  1.000  0.250  0.752-  13 2.46  14 2.48  10 2.49   6 2.50  11 2.50  14 2.50   7 2.51   4 2.51
                             3 2.52   7 2.52  12 2.52   1 2.53
   3  0.250  0.939  0.561-  14 2.47   6 2.49   7 2.50   8 2.50  12 2.50  12 2.51   9 2.51   2 2.52
                             4 2.52   6 2.52   1 2.52   5 2.53
   4  0.000  0.499  0.501-  16 2.47   8 2.49  12 2.50   6 2.50   7 2.50   7 2.51   2 2.51   9 2.52
                             3 2.52   8 2.52   5 2.52   1 2.53
   5  0.989  0.748  0.248-  15 2.46  16 2.46  15 2.49  12 2.49   8 2.49  11 2.50  13 2.50   4 2.52
                             3 2.53   9 2.53  10 2.54   8 2.54
   6  0.753  0.814  0.686-  13 2.46   3 2.49   1 2.49  12 2.49   2 2.50   8 2.50   4 2.50  14 2.50
                            11 2.51   3 2.52   7 2.52   1 2.54
   7  0.498  0.374  0.625-  14 2.48   1 2.49  13 2.49   8 2.49   3 2.50   4 2.50   2 2.51   4 2.51
                            12 2.51   2 2.52   9 2.52   6 2.52
   8  0.497  0.624  0.377-  15 2.46   4 2.49   5 2.49   7 2.49   9 2.50   6 2.50   3 2.50  16 2.50
                            10 2.51   4 2.52  12 2.52   5 2.54
   9  0.250  0.188  0.310-  15 2.46  16 2.48  11 2.49   8 2.50  10 2.50  16 2.50  12 2.51   3 2.51
                             4 2.52  12 2.52   7 2.52   5 2.53
  10  0.256  0.437  0.062-  15 2.45   2 2.49   9 2.50   1 2.50  16 2.51  14 2.51  13 2.51   8 2.51
                            11 2.52  16 2.53   5 2.54  13 2.57
  11  0.994  0.000  0.001-  13 2.45   9 2.49   2 2.50   5 2.50  14 2.51  16 2.51  15 2.51   6 2.51
                            10 2.52  14 2.53   1 2.54  15 2.57
  12  0.752  0.063  0.437-  16 2.48   5 2.49  15 2.49   6 2.49   4 2.50   3 2.50   9 2.51   3 2.51
                             7 2.51   9 2.52   2 2.52   8 2.52
  13  0.764  0.569  0.931-  11 2.45   6 2.46   1 2.46   2 2.46   1 2.49   7 2.49   5 2.50  10 2.51
                            10 2.57  14 2.58  15 2.59  16 2.59
  14  0.496  0.122  0.870-   1 2.46   3 2.47   2 2.48   7 2.48   6 2.50   2 2.50  11 2.51  10 2.51
                            11 2.53  13 2.58  16 2.59  15 2.59
  15  0.486  0.869  0.132-  10 2.45   8 2.46   5 2.46   9 2.46   5 2.49  12 2.49   1 2.50  11 2.51
                            11 2.57  16 2.58  13 2.59  14 2.59
  16  0.754  0.315  0.193-   5 2.46   4 2.47   9 2.48  12 2.48   8 2.50   9 2.50  10 2.51  11 2.51
                            10 2.53  15 2.58  14 2.59  13 2.59
 

IMPORTANT INFORMATION: All symmetrisations will be switched off!
NOSYMM: (Re-)initialisation of all symmetry stuff for point group C_1.

 
 

Automatic generation of k-mesh.
 generate k-points for:    8    6    5
Space group operators:
 irot       det(A)        alpha          n_x          n_y          n_z        tau_x        tau_y        tau_z
    1     1.000000     0.000001     1.000000     0.000000     0.000000     0.000000     0.000000     0.000000
 
 Subroutine IBZKPT returns following result:
 ===========================================
 
 Found    122 irreducible k-points:
 
 Following reciprocal coordinates:
            Coordinates               Weight
  0.000000  0.000000  0.000000      1.000000
  0.125000  0.000000  0.000000      2.000000
  0.250000  0.000000  0.000000      2.000000
  0.375000  0.000000  0.000000      2.000000
  0.500000  0.000000  0.000000      1.000000
  0.000000  0.166667  0.000000      2.000000
  0.125000  0.166667  0.000000      2.000000
  0.250000  0.166667  0.000000      2.000000
  0.375000  0.166667  0.000000      2.000000
  0.500000  0.166667  0.000000      2.000000
 -0.375000  0.166667  0.000000      2.000000
 -0.250000  0.166667  0.000000      2.000000
 -0.125000  0.166667  0.000000      2.000000
  0.000000  0.333333  0.000000      2.000000
  0.125000  0.333333  0.000000      2.000000
  0.250000  0.333333  0.000000      2.000000
  0.375000  0.333333  0.000000      2.000000
  0.500000  0.333333  0.000000      2.000000
 -0.375000  0.333333  0.000000      2.000000
 -0.250000  0.333333  0.000000      2.000000
 -0.125000  0.333333  0.000000      2.000000
  0.000000  0.500000  0.000000      1.000000
  0.125000  0.500000  0.000000      2.000000
  0.250000  0.500000  0.000000      2.000000
  0.375000  0.500000  0.000000      2.000000
  0.500000  0.500000  0.000000      1.000000
  0.000000  0.000000  0.200000      2.000000
  0.125000  0.000000  0.200000      2.000000
  0.250000  0.000000  0.200000      2.000000
  0.375000  0.000000  0.200000      2.000000
  0.500000  0.000000  0.200000      2.000000
 -0.375000  0.000000  0.200000      2.000000
 -0.250000  0.000000  0.200000      2.000000
 -0.125000  0.000000  0.200000      2.000000
  0.000000  0.166667  0.200000      2.000000
  0.125000  0.166667  0.200000      2.000000
  0.250000  0.166667  0.200000      2.000000
  0.375000  0.166667  0.200000      2.000000
  0.500000  0.166667  0.200000      2.000000
 -0.375000  0.166667  0.200000      2.000000
 -0.250000  0.166667  0.200000      2.000000
 -0.125000  0.166667  0.200000      2.000000
  0.000000  0.333333  0.200000      2.000000
  0.125000  0.333333  0.200000      2.000000
  0.250000  0.333333  0.200000      2.000000
  0.375000  0.333333  0.200000      2.000000
  0.500000  0.333333  0.200000      2.000000
 -0.375000  0.333333  0.200000      2.000000
 -0.250000  0.333333  0.200000      2.000000
 -0.125000  0.333333  0.200000      2.000000
  0.000000  0.500000  0.200000      2.000000
  0.125000  0.500000  0.200000      2.000000
  0.250000  0.500000  0.200000      2.000000
  0.375000  0.500000  0.200000      2.000000
  0.500000  0.500000  0.200000      2.000000
 -0.375000  0.500000  0.200000      2.000000
 -0.250000  0.500000  0.200000      2.000000
 -0.125000  0.500000  0.200000      2.000000
  0.000000 -0.333333  0.200000      2.000000
  0.125000 -0.333333  0.200000      2.000000
  0.250000 -0.333333  0.200000      2.000000
  0.375000 -0.333333  0.200000      2.000000
  0.500000 -0.333333  0.200000      2.000000
 -0.375000 -0.333333  0.200000      2.000000
 -0.250000 -0.333333  0.200000      2.000000
 -0.125000 -0.333333  0.200000      2.000000
  0.000000 -0.166667  0.200000      2.000000
  0.125000 -0.166667  0.200000      2.000000
  0.250000 -0.166667  0.200000      2.000000
  0.375000 -0.166667  0.200000      2.000000
  0.500000 -0.166667  0.200000      2.000000
 -0.375000 -0.166667  0.200000      2.000000
 -0.250000 -0.166667  0.200000      2.000000
 -0.125000 -0.166667  0.200000      2.000000
  0.000000  0.000000  0.400000      2.000000
  0.125000  0.000000  0.400000      2.000000
  0.250000  0.000000  0.400000      2.000000
  0.375000  0.000000  0.400000      2.000000
  0.500000  0.000000  0.400000      2.000000
 -0.375000  0.000000  0.400000      2.000000
 -0.250000  0.000000  0.400000      2.000000
 -0.125000  0.000000  0.400000      2.000000
  0.000000  0.166667  0.400000      2.000000
  0.125000  0.166667  0.400000      2.000000
  0.250000  0.166667  0.400000      2.000000
  0.375000  0.166667  0.400000      2.000000
  0.500000  0.166667  0.400000      2.000000
 -0.375000  0.166667  0.400000      2.000000
 -0.250000  0.166667  0.400000      2.000000
 -0.125000  0.166667  0.400000      2.000000
  0.000000  0.333333  0.400000      2.000000
  0.125000  0.333333  0.400000      2.000000
  0.250000  0.333333  0.400000      2.000000
  0.375000  0.333333  0.400000      2.000000
  0.500000  0.333333  0.400000      2.000000
 -0.375000  0.333333  0.400000      2.000000
 -0.250000  0.333333  0.400000      2.000000
 -0.125000  0.333333  0.400000      2.000000
  0.000000  0.500000  0.400000      2.000000
  0.125000  0.500000  0.400000      2.000000
  0.250000  0.500000  0.400000      2.000000
  0.375000  0.500000  0.400000      2.000000
  0.500000  0.500000  0.400000      2.000000
 -0.375000  0.500000  0.400000      2.000000
 -0.250000  0.500000  0.400000      2.000000
 -0.125000  0.500000  0.400000      2.000000
  0.000000 -0.333333  0.400000      2.000000
  0.125000 -0.333333  0.400000      2.000000
  0.250000 -0.333333  0.400000      2.000000
  0.375000 -0.333333  0.400000      2.000000
  0.500000 -0.333333  0.400000      2.000000
 -0.375000 -0.333333  0.400000      2.000000
 -0.250000 -0.333333  0.400000      2.000000
 -0.125000 -0.333333  0.400000      2.000000
  0.000000 -0.166667  0.400000      2.000000
  0.125000 -0.166667  0.400000      2.000000
  0.250000 -0.166667  0.400000      2.000000
  0.375000 -0.166667  0.400000      2.000000
  0.500000 -0.166667  0.400000      2.000000
 -0.375000 -0.166667  0.400000      2.000000
 -0.250000 -0.166667  0.400000      2.000000
 -0.125000 -0.166667  0.400000      2.000000
 
 Following cartesian coordinates:
            Coordinates               Weight
 -0.000000 -0.000000 -0.000000      1.000000
  0.031250  0.031250 -0.093750      2.000000
  0.062500  0.062500 -0.187500      2.000000
  0.093750  0.093750 -0.281250      2.000000
  0.125000  0.125000 -0.375000      1.000000
 -0.010417 -0.093750 -0.052083      2.000000
  0.020833 -0.062500 -0.145833      2.000000
  0.052083 -0.031250 -0.239583      2.000000
  0.083333 -0.000000 -0.333333      2.000000
  0.114583  0.031250 -0.427083      2.000000
 -0.104167 -0.187500  0.229167      2.000000
 -0.072917 -0.156250  0.135417      2.000000
 -0.041667 -0.125000  0.041667      2.000000
 -0.020833 -0.187500 -0.104167      2.000000
  0.010417 -0.156250 -0.197917      2.000000
  0.041667 -0.125000 -0.291667      2.000000
  0.072917 -0.093750 -0.385417      2.000000
  0.104167 -0.062500 -0.479167      2.000000
 -0.114583 -0.281250  0.177083      2.000000
 -0.083333 -0.250000  0.083333      2.000000
 -0.052083 -0.218750 -0.010417      2.000000
 -0.031250 -0.281250 -0.156250      1.000000
 -0.000000 -0.250000 -0.250000      2.000000
  0.031250 -0.218750 -0.343750      2.000000
  0.062500 -0.187500 -0.437500      2.000000
  0.093750 -0.156250 -0.531250      1.000000
 -0.087500  0.012500 -0.037500      2.000000
 -0.056250  0.043750 -0.131250      2.000000
 -0.025000  0.075000 -0.225000      2.000000
  0.006250  0.106250 -0.318750      2.000000
  0.037500  0.137500 -0.412500      2.000000
 -0.181250 -0.081250  0.243750      2.000000
 -0.150000 -0.050000  0.150000      2.000000
 -0.118750 -0.018750  0.056250      2.000000
 -0.097917 -0.081250 -0.089583      2.000000
 -0.066667 -0.050000 -0.183333      2.000000
 -0.035417 -0.018750 -0.277083      2.000000
 -0.004167  0.012500 -0.370833      2.000000
  0.027083  0.043750 -0.464583      2.000000
 -0.191667 -0.175000  0.191667      2.000000
 -0.160417 -0.143750  0.097917      2.000000
 -0.129167 -0.112500  0.004167      2.000000
 -0.108333 -0.175000 -0.141667      2.000000
 -0.077083 -0.143750 -0.235417      2.000000
 -0.045833 -0.112500 -0.329167      2.000000
 -0.014583 -0.081250 -0.422917      2.000000
  0.016667 -0.050000 -0.516667      2.000000
 -0.202083 -0.268750  0.139583      2.000000
 -0.170833 -0.237500  0.045833      2.000000
 -0.139583 -0.206250 -0.047917      2.000000
 -0.118750 -0.268750 -0.193750      2.000000
 -0.087500 -0.237500 -0.287500      2.000000
 -0.056250 -0.206250 -0.381250      2.000000
 -0.025000 -0.175000 -0.475000      2.000000
  0.006250 -0.143750 -0.568750      2.000000
 -0.212500 -0.362500  0.087500      2.000000
 -0.181250 -0.331250 -0.006250      2.000000
 -0.150000 -0.300000 -0.100000      2.000000
 -0.066667  0.200000  0.066667      2.000000
 -0.035417  0.231250 -0.027083      2.000000
 -0.004167  0.262500 -0.120833      2.000000
  0.027083  0.293750 -0.214583      2.000000
  0.058333  0.325000 -0.308333      2.000000
 -0.160417  0.106250  0.347917      2.000000
 -0.129167  0.137500  0.254167      2.000000
 -0.097917  0.168750  0.160417      2.000000
 -0.077083  0.106250  0.014583      2.000000
 -0.045833  0.137500 -0.079167      2.000000
 -0.014583  0.168750 -0.172917      2.000000
  0.016667  0.200000 -0.266667      2.000000
  0.047917  0.231250 -0.360417      2.000000
 -0.170833  0.012500  0.295833      2.000000
 -0.139583  0.043750  0.202083      2.000000
 -0.108333  0.075000  0.108333      2.000000
 -0.175000  0.025000 -0.075000      2.000000
 -0.143750  0.056250 -0.168750      2.000000
 -0.112500  0.087500 -0.262500      2.000000
 -0.081250  0.118750 -0.356250      2.000000
 -0.050000  0.150000 -0.450000      2.000000
 -0.268750 -0.068750  0.206250      2.000000
 -0.237500 -0.037500  0.112500      2.000000
 -0.206250 -0.006250  0.018750      2.000000
 -0.185417 -0.068750 -0.127083      2.000000
 -0.154167 -0.037500 -0.220833      2.000000
 -0.122917 -0.006250 -0.314583      2.000000
 -0.091667  0.025000 -0.408333      2.000000
 -0.060417  0.056250 -0.502083      2.000000
 -0.279167 -0.162500  0.154167      2.000000
 -0.247917 -0.131250  0.060417      2.000000
 -0.216667 -0.100000 -0.033333      2.000000
 -0.195833 -0.162500 -0.179167      2.000000
 -0.164583 -0.131250 -0.272917      2.000000
 -0.133333 -0.100000 -0.366667      2.000000
 -0.102083 -0.068750 -0.460417      2.000000
 -0.070833 -0.037500 -0.554167      2.000000
 -0.289583 -0.256250  0.102083      2.000000
 -0.258333 -0.225000  0.008333      2.000000
 -0.227083 -0.193750 -0.085417      2.000000
 -0.206250 -0.256250 -0.231250      2.000000
 -0.175000 -0.225000 -0.325000      2.000000
 -0.143750 -0.193750 -0.418750      2.000000
 -0.112500 -0.162500 -0.512500      2.000000
 -0.081250 -0.131250 -0.606250      2.000000
 -0.300000 -0.350000  0.050000      2.000000
 -0.268750 -0.318750 -0.043750      2.000000
 -0.237500 -0.287500 -0.137500      2.000000
 -0.154167  0.212500  0.029167      2.000000
 -0.122917  0.243750 -0.064583      2.000000
 -0.091667  0.275000 -0.158333      2.000000
 -0.060417  0.306250 -0.252083      2.000000
 -0.029167  0.337500 -0.345833      2.000000
 -0.247917  0.118750  0.310417      2.000000
 -0.216667  0.150000  0.216667      2.000000
 -0.185417  0.181250  0.122917      2.000000
 -0.164583  0.118750 -0.022917      2.000000
 -0.133333  0.150000 -0.116667      2.000000
 -0.102083  0.181250 -0.210417      2.000000
 -0.070833  0.212500 -0.304167      2.000000
 -0.039583  0.243750 -0.397917      2.000000
 -0.258333  0.025000  0.258333      2.000000
 -0.227083  0.056250  0.164583      2.000000
 -0.195833  0.087500  0.070833      2.000000
 
 TETIRR: Found    720 inequivalent tetrahedra from     1440


--------------------------------------------------------------------------------------------------------




 Dimension of arrays:
   k-points           NKPTS =    122   k-points in BZ     NKDIM =    122   number of bands    NBANDS=    105
   number of dos      NEDOS =    301   number of ions     NIONS =     16
   non local maximal  LDIM  =      6   non local SUM 2l+1 LMDIM =     18
   total plane-waves  NPLWV =  75264
   max r-space proj   IRMAX =   6433   max aug-charges    IRDMAX=  15243
   dimension x,y,z NGX =    32 NGY =   42 NGZ =   56
   dimension x,y,z NGXF=    64 NGYF=   84 NGZF=  112
   support grid    NGXF=    64 NGYF=   84 NGZF=  112
   ions per type =              12   4
   NGX,Y,Z   is equivalent  to a cutoff of  12.25, 12.46, 12.38 a.u.
   NGXF,Y,Z  is equivalent  to a cutoff of  24.51, 24.91, 24.76 a.u.

 SYSTEM =  SQS-NiFe                                
 POSCAR =  POSCAR                                  

 Startparameter for this run:
   NWRITE =      2    write-flag & timer
   PREC   = accura    normal or accurate (medium, high low for compatibility)
   ISTART =      0    job   : 0-new  1-cont  2-samecut
   ICHARG =     11    charge: 1-file 2-atom 10-const
   ISPIN  =      2    spin polarized calculation?
   LNONCOLLINEAR =      F non collinear calculations
   LSORBIT =      F    spin-orbit coupling
   INIWAV =      1    electr: 0-lowe 1-rand  2-diag
   LASPH  =      F    aspherical Exc in radial PAW
   METAGGA=      F    non-selfconsistent MetaGGA calc.

 Electronic Relaxation 1
   ENCUT  =  520.0 eV  38.22 Ry    6.18 a.u.   8.07 10.42 13.98*2*pi/ulx,y,z
   ENINI  =  520.0     initial cutoff
   ENAUG  =  544.6 eV  augmentation charge cutoff
   NELM   =    200;   NELMIN=  2; NELMDL= -5     # of ELM steps 
   EDIFF  = 0.1E-05   stopping-criterion for ELM
   LREAL  =      T    real-space projection
   NLSPLINE    = F    spline interpolate recip. space projectors
   LCOMPAT=      F    compatible to vasp.4.4
   GGA_COMPAT  = T    GGA compatible to vasp.4.4-vasp.4.6
   LMAXPAW     = -100 max onsite density
   LMAXMIX     =    2 max onsite mixed and CHGCAR
   VOSKOWN=      0    Vosko Wilk Nusair interpolation
   ROPT   =   -0.00025  -0.00025
 Ionic relaxation
   EDIFFG = -.2E-01   stopping-criterion for IOM
   NSW    =      0    number of steps for IOM
   NBLOCK =      1;   KBLOCK =      1    inner block; outer block 
   IBRION =     -1    ionic relax: 0-MD 1-quasi-New 2-CG
   NFREE  =      0    steps in history (QN), initial steepest desc. (CG)
   ISIF   =      2    stress and relaxation
   IWAVPR =     10    prediction:  0-non 1-charg 2-wave 3-comb
   ISYM   =      0    0-nonsym 1-usesym 2-fastsym
   LCORR  =      T    Harris-Foulkes like correction to forces

   POTIM  = 0.5000    time-step for ionic-motion
   TEIN   =    0.0    initial temperature
   TEBEG  =    0.0;   TEEND  =   0.0 temperature during run
   SMASS  =  -3.00    Nose mass-parameter (am)
   estimated Nose-frequenzy (Omega)   =  0.10E-29 period in steps =****** mass=  -0.431E-27a.u.
   SCALEE = 1.0000    scale energy and forces
   NPACO  =    256;   APACO  = 16.0  distance and # of slots for P.C.
   PSTRESS=    0.0 pullay stress

  Mass of Ions in am
   POMASS =  58.69 55.85
  Ionic Valenz
   ZVAL   =  10.00  8.00
  Atomic Wigner-Seitz radii
   RWIGS  =  -1.00 -1.00
  virtual crystal weights 
   VCA    =   1.00  1.00
   NELECT =     152.0000    total number of electrons
   NUPDOWN=      -1.0000    fix difference up-down

 DOS related values:
   EMIN   =  10.00;   EMAX   =-10.00  energy-range for DOS
   EFERMI =   0.00
   ISMEAR =    -5;   SIGMA  =   0.20  broadening in eV -4-tet -1-fermi 0-gaus

 Electronic relaxation 2 (details)
   IALGO  =     68    algorithm
   LDIAG  =      T    sub-space diagonalisation (order eigenvalues)
   LSUBROT=      F    optimize rotation matrix (better conditioning)
   TURBO    =      0    0=normal 1=particle mesh
   IRESTART =      0    0=no restart 2=restart with 2 vectors
   NREBOOT  =      0    no. of reboots
   NMIN     =      0    reboot dimension
   EREF     =   0.00    reference energy to select bands
   IMIX   =      4    mixing-type and parameters
     AMIX     =   0.40;   BMIX     =  1.00
     AMIX_MAG =   1.60;   BMIX_MAG =  1.00
     AMIN     =   0.10
     WC   =   100.;   INIMIX=   1;  MIXPRE=   1;  MAXMIX= -45

 Intra band minimization:
   WEIMIN = 0.0000     energy-eigenvalue tresh-hold
   EBREAK =  0.24E-08  absolut break condition
   DEPER  =   0.30     relativ break condition  

   TIME   =   0.40     timestep for ELM

  volume/ion in A,a.u.               =      11.14        75.16
  Fermi-wavevector in a.u.,A,eV,Ry     =   1.552577  2.933945 32.796776  2.410495
  Thomas-Fermi vector in A             =   2.656932
 
 Write flags
   LWAVE        =      F    write WAVECAR
   LDOWNSAMPLE  =      F    k-point downsampling of WAVECAR
   LCHARG       =      F    write CHGCAR
   LVTOT        =      F    write LOCPOT, total local potential
   LVHAR        =      F    write LOCPOT, Hartree potential only
   LELF         =      F    write electronic localiz. function (ELF)
   LORBIT       =     11    0 simple, 1 ext, 2 COOP (PROOUT), +10 PAW based schemes


 Dipole corrections
   LMONO  =      F    monopole corrections only (constant potential shift)
   LDIPOL =      F    correct potential (dipole corrections)
   IDIPOL =      0    1-x, 2-y, 3-z, 4-all directions 
   EPSILON=  1.0000000 bulk dielectric constant

 Exchange correlation treatment:
   GGA     =    --    GGA type
   LEXCH   =     8    internal setting for exchange type
   VOSKOWN=      0    Vosko Wilk Nusair interpolation
   LHFCALC =     F    Hartree Fock is set to
   LHFONE  =     F    Hartree Fock one center treatment
   AEXX    =    0.0000 exact exchange contribution

 Linear response parameters
   LEPSILON=     F    determine dielectric tensor
   LRPA    =     F    only Hartree local field effects (RPA)
   LNABLA  =     F    use nabla operator in PAW spheres
   LVEL    =     F    velocity operator in full k-point grid
   LINTERFAST=   F  fast interpolation
   KINTER  =     0    interpolate to denser k-point grid
   CSHIFT  =0.1000    complex shift for real part using Kramers Kronig
   OMEGAMAX=  -1.0    maximum frequency
   DEG_THRESHOLD= 0.2000000E-02 threshold for treating states as degnerate
   RTIME   =   -0.100 relaxation time in fs
  (WPLASMAI=    0.000 imaginary part of plasma frequency in eV, 0.658/RTIME)
   DFIELD  = 0.0000000 0.0000000 0.0000000 field for delta impulse in time
 
 Orbital magnetization related:
   ORBITALMAG=     F  switch on orbital magnetization
   LCHIMAG   =     F  perturbation theory with respect to B field
   DQ        =  0.001000  dq finite difference perturbation B field
   LLRAUG    =     F  two centre corrections for induced B field



--------------------------------------------------------------------------------------------------------


 Static calculation
 charge density and potential remain constant during run
 spin polarized calculation
 RMM-DIIS sequential band-by-band and
  variant of blocked Davidson during initial phase
 perform sub-space diagonalisation
    before iterative eigenvector-optimisation
 no mixing
 using additional bands           29
 real space projection scheme for non local part
 use partial core corrections
 calculate Harris-corrections to forces 
   (improved forces if not selfconsistent)
 use gradient corrections 
 WARNING: stress and forces are not correct
  (second derivative of E(xc) not defined)
 use of overlap-Matrix (Vanderbilt PP)
 Fermi weights with tetrahedron method with Bloechl corrections


--------------------------------------------------------------------------------------------------------


  energy-cutoff  :      520.00
  volume of cell :      178.20
      direct lattice vectors                 reciprocal lattice vectors
     1.772500000  1.772500000 -3.545000000     0.070521862  0.070521862 -0.211565585
     0.000000000 -5.317500000 -1.772500000    -0.017630465 -0.158674189 -0.088152327
    -7.090000000  1.772500000 -1.772500000    -0.123413258  0.017630465 -0.052891396

  length of vectors
     4.341720569  5.605137153  7.520080618     0.233894555  0.182370953  0.135422175


 
 k-points in units of 2pi/SCALE and weight: read from INCAR                         
  -0.00000000 -0.00000000 -0.00000000       0.004
   0.03125000  0.03125000 -0.09375000       0.008
   0.06250000  0.06250000 -0.18750000       0.008
   0.09375000  0.09375000 -0.28125000       0.008
   0.12500000  0.12500000 -0.37500000       0.004
  -0.01041667 -0.09375000 -0.05208333       0.008
   0.02083333 -0.06250000 -0.14583333       0.008
   0.05208333 -0.03125000 -0.23958333       0.008
   0.08333333 -0.00000000 -0.33333333       0.008
   0.11458333  0.03125000 -0.42708333       0.008
  -0.10416667 -0.18750000  0.22916667       0.008
  -0.07291667 -0.15625000  0.13541667       0.008
  -0.04166667 -0.12500000  0.04166667       0.008
  -0.02083333 -0.18750000 -0.10416667       0.008
   0.01041667 -0.15625000 -0.19791667       0.008
   0.04166667 -0.12500000 -0.29166667       0.008
   0.07291667 -0.09375000 -0.38541667       0.008
   0.10416667 -0.06250000 -0.47916667       0.008
  -0.11458333 -0.28125000  0.17708333       0.008
  -0.08333333 -0.25000000  0.08333333       0.008
  -0.05208333 -0.21875000 -0.01041667       0.008
  -0.03125000 -0.28125000 -0.15625000       0.004
  -0.00000000 -0.25000000 -0.25000000       0.008
   0.03125000 -0.21875000 -0.34375000       0.008
   0.06250000 -0.18750000 -0.43750000       0.008
   0.09375000 -0.15625000 -0.53125000       0.004
  -0.08750000  0.01250000 -0.03750000       0.008
  -0.05625000  0.04375000 -0.13125000       0.008
  -0.02500000  0.07500000 -0.22500000       0.008
   0.00625000  0.10625000 -0.31875000       0.008
   0.03750000  0.13750000 -0.41250000       0.008
  -0.18125000 -0.08125000  0.24375000       0.008
  -0.15000000 -0.05000000  0.15000000       0.008
  -0.11875000 -0.01875000  0.05625000       0.008
  -0.09791667 -0.08125000 -0.08958333       0.008
  -0.06666667 -0.05000000 -0.18333333       0.008
  -0.03541667 -0.01875000 -0.27708333       0.008
  -0.00416667  0.01250000 -0.37083333       0.008
   0.02708333  0.04375000 -0.46458333       0.008
  -0.19166667 -0.17500000  0.19166667       0.008
  -0.16041667 -0.14375000  0.09791667       0.008
  -0.12916667 -0.11250000  0.00416667       0.008
  -0.10833333 -0.17500000 -0.14166667       0.008
  -0.07708333 -0.14375000 -0.23541667       0.008
  -0.04583333 -0.11250000 -0.32916667       0.008
  -0.01458333 -0.08125000 -0.42291667       0.008
   0.01666667 -0.05000000 -0.51666667       0.008
  -0.20208333 -0.26875000  0.13958333       0.008
  -0.17083333 -0.23750000  0.04583333       0.008
  -0.13958333 -0.20625000 -0.04791667       0.008
  -0.11875000 -0.26875000 -0.19375000       0.008
  -0.08750000 -0.23750000 -0.28750000       0.008
  -0.05625000 -0.20625000 -0.38125000       0.008
  -0.02500000 -0.17500000 -0.47500000       0.008
   0.00625000 -0.14375000 -0.56875000       0.008
  -0.21250000 -0.36250000  0.08750000       0.008
  -0.18125000 -0.33125000 -0.00625000       0.008
  -0.15000000 -0.30000000 -0.10000000       0.008
  -0.06666667  0.20000000  0.06666667       0.008
  -0.03541667  0.23125000 -0.02708333       0.008
  -0.00416667  0.26250000 -0.12083333       0.008
   0.02708333  0.29375000 -0.21458333       0.008
   0.05833333  0.32500000 -0.30833333       0.008
  -0.16041667  0.10625000  0.34791667       0.008
  -0.12916667  0.13750000  0.25416667       0.008
  -0.09791667  0.16875000  0.16041667       0.008
  -0.07708333  0.10625000  0.01458333       0.008
  -0.04583333  0.13750000 -0.07916667       0.008
  -0.01458333  0.16875000 -0.17291667       0.008
   0.01666667  0.20000000 -0.26666667       0.008
   0.04791667  0.23125000 -0.36041667       0.008
  -0.17083333  0.01250000  0.29583333       0.008
  -0.13958333  0.04375000  0.20208333       0.008
  -0.10833333  0.07500000  0.10833333       0.008
  -0.17500000  0.02500000 -0.07500000       0.008
  -0.14375000  0.05625000 -0.16875000       0.008
  -0.11250000  0.08750000 -0.26250000       0.008
  -0.08125000  0.11875000 -0.35625000       0.008
  -0.05000000  0.15000000 -0.45000000       0.008
  -0.26875000 -0.06875000  0.20625000       0.008
  -0.23750000 -0.03750000  0.11250000       0.008
  -0.20625000 -0.00625000  0.01875000       0.008
  -0.18541667 -0.06875000 -0.12708333       0.008
  -0.15416667 -0.03750000 -0.22083333       0.008
  -0.12291667 -0.00625000 -0.31458333       0.008
  -0.09166667  0.02500000 -0.40833333       0.008
  -0.06041667  0.05625000 -0.50208333       0.008
  -0.27916667 -0.16250000  0.15416667       0.008
  -0.24791667 -0.13125000  0.06041667       0.008
  -0.21666667 -0.10000000 -0.03333333       0.008
  -0.19583333 -0.16250000 -0.17916667       0.008
  -0.16458333 -0.13125000 -0.27291667       0.008
  -0.13333333 -0.10000000 -0.36666667       0.008
  -0.10208333 -0.06875000 -0.46041667       0.008
  -0.07083333 -0.03750000 -0.55416667       0.008
  -0.28958333 -0.25625000  0.10208333       0.008
  -0.25833333 -0.22500000  0.00833333       0.008
  -0.22708333 -0.19375000 -0.08541667       0.008
  -0.20625000 -0.25625000 -0.23125000       0.008
  -0.17500000 -0.22500000 -0.32500000       0.008
  -0.14375000 -0.19375000 -0.41875000       0.008
  -0.11250000 -0.16250000 -0.51250000       0.008
  -0.08125000 -0.13125000 -0.60625000       0.008
  -0.30000000 -0.35000000  0.05000000       0.008
  -0.26875000 -0.31875000 -0.04375000       0.008
  -0.23750000 -0.28750000 -0.13750000       0.008
  -0.15416667  0.21250000  0.02916667       0.008
  -0.12291667  0.24375000 -0.06458333       0.008
  -0.09166667  0.27500000 -0.15833333       0.008
  -0.06041667  0.30625000 -0.25208333       0.008
  -0.02916667  0.33750000 -0.34583333       0.008
  -0.24791667  0.11875000  0.31041667       0.008
  -0.21666667  0.15000000  0.21666667       0.008
  -0.18541667  0.18125000  0.12291667       0.008
  -0.16458333  0.11875000 -0.02291667       0.008
  -0.13333333  0.15000000 -0.11666667       0.008
  -0.10208333  0.18125000 -0.21041667       0.008
  -0.07083333  0.21250000 -0.30416667       0.008
  -0.03958333  0.24375000 -0.39791667       0.008
  -0.25833333  0.02500000  0.25833333       0.008
  -0.22708333  0.05625000  0.16458333       0.008
  -0.19583333  0.08750000  0.07083333       0.008
 
 k-points in reciprocal lattice and weights: read from INCAR                         
   0.00000000  0.00000000  0.00000000       0.004
   0.12500000  0.00000000  0.00000000       0.008
   0.25000000  0.00000000  0.00000000       0.008
   0.37500000  0.00000000  0.00000000       0.008
   0.50000000  0.00000000  0.00000000       0.004
   0.00000000  0.16666667  0.00000000       0.008
   0.12500000  0.16666667  0.00000000       0.008
   0.25000000  0.16666667  0.00000000       0.008
   0.37500000  0.16666667  0.00000000       0.008
   0.50000000  0.16666667  0.00000000       0.008
  -0.37500000  0.16666667  0.00000000       0.008
  -0.25000000  0.16666667  0.00000000       0.008
  -0.12500000  0.16666667  0.00000000       0.008
   0.00000000  0.33333333  0.00000000       0.008
   0.12500000  0.33333333  0.00000000       0.008
   0.25000000  0.33333333  0.00000000       0.008
   0.37500000  0.33333333  0.00000000       0.008
   0.50000000  0.33333333  0.00000000       0.008
  -0.37500000  0.33333333  0.00000000       0.008
  -0.25000000  0.33333333  0.00000000       0.008
  -0.12500000  0.33333333  0.00000000       0.008
   0.00000000  0.50000000  0.00000000       0.004
   0.12500000  0.50000000  0.00000000       0.008
   0.25000000  0.50000000  0.00000000       0.008
   0.37500000  0.50000000  0.00000000       0.008
   0.50000000  0.50000000  0.00000000       0.004
   0.00000000  0.00000000  0.20000000       0.008
   0.12500000  0.00000000  0.20000000       0.008
   0.25000000  0.00000000  0.20000000       0.008
   0.37500000  0.00000000  0.20000000       0.008
   0.50000000  0.00000000  0.20000000       0.008
  -0.37500000  0.00000000  0.20000000       0.008
  -0.25000000  0.00000000  0.20000000       0.008
  -0.12500000  0.00000000  0.20000000       0.008
   0.00000000  0.16666667  0.20000000       0.008
   0.12500000  0.16666667  0.20000000       0.008
   0.25000000  0.16666667  0.20000000       0.008
   0.37500000  0.16666667  0.20000000       0.008
   0.50000000  0.16666667  0.20000000       0.008
  -0.37500000  0.16666667  0.20000000       0.008
  -0.25000000  0.16666667  0.20000000       0.008
  -0.12500000  0.16666667  0.20000000       0.008
   0.00000000  0.33333333  0.20000000       0.008
   0.12500000  0.33333333  0.20000000       0.008
   0.25000000  0.33333333  0.20000000       0.008
   0.37500000  0.33333333  0.20000000       0.008
   0.50000000  0.33333333  0.20000000       0.008
  -0.37500000  0.33333333  0.20000000       0.008
  -0.25000000  0.33333333  0.20000000       0.008
  -0.12500000  0.33333333  0.20000000       0.008
   0.00000000  0.50000000  0.20000000       0.008
   0.12500000  0.50000000  0.20000000       0.008
   0.25000000  0.50000000  0.20000000       0.008
   0.37500000  0.50000000  0.20000000       0.008
   0.50000000  0.50000000  0.20000000       0.008
  -0.37500000  0.50000000  0.20000000       0.008
  -0.25000000  0.50000000  0.20000000       0.008
  -0.12500000  0.50000000  0.20000000       0.008
   0.00000000 -0.33333333  0.20000000       0.008
   0.12500000 -0.33333333  0.20000000       0.008
   0.25000000 -0.33333333  0.20000000       0.008
   0.37500000 -0.33333333  0.20000000       0.008
   0.50000000 -0.33333333  0.20000000       0.008
  -0.37500000 -0.33333333  0.20000000       0.008
  -0.25000000 -0.33333333  0.20000000       0.008
  -0.12500000 -0.33333333  0.20000000       0.008
   0.00000000 -0.16666667  0.20000000       0.008
   0.12500000 -0.16666667  0.20000000       0.008
   0.25000000 -0.16666667  0.20000000       0.008
   0.37500000 -0.16666667  0.20000000       0.008
   0.50000000 -0.16666667  0.20000000       0.008
  -0.37500000 -0.16666667  0.20000000       0.008
  -0.25000000 -0.16666667  0.20000000       0.008
  -0.12500000 -0.16666667  0.20000000       0.008
   0.00000000  0.00000000  0.40000000       0.008
   0.12500000  0.00000000  0.40000000       0.008
   0.25000000  0.00000000  0.40000000       0.008
   0.37500000  0.00000000  0.40000000       0.008
   0.50000000  0.00000000  0.40000000       0.008
  -0.37500000  0.00000000  0.40000000       0.008
  -0.25000000  0.00000000  0.40000000       0.008
  -0.12500000  0.00000000  0.40000000       0.008
   0.00000000  0.16666667  0.40000000       0.008
   0.12500000  0.16666667  0.40000000       0.008
   0.25000000  0.16666667  0.40000000       0.008
   0.37500000  0.16666667  0.40000000       0.008
   0.50000000  0.16666667  0.40000000       0.008
  -0.37500000  0.16666667  0.40000000       0.008
  -0.25000000  0.16666667  0.40000000       0.008
  -0.12500000  0.16666667  0.40000000       0.008
   0.00000000  0.33333333  0.40000000       0.008
   0.12500000  0.33333333  0.40000000       0.008
   0.25000000  0.33333333  0.40000000       0.008
   0.37500000  0.33333333  0.40000000       0.008
   0.50000000  0.33333333  0.40000000       0.008
  -0.37500000  0.33333333  0.40000000       0.008
  -0.25000000  0.33333333  0.40000000       0.008
  -0.12500000  0.33333333  0.40000000       0.008
   0.00000000  0.50000000  0.40000000       0.008
   0.12500000  0.50000000  0.40000000       0.008
   0.25000000  0.50000000  0.40000000       0.008
   0.37500000  0.50000000  0.40000000       0.008
   0.50000000  0.50000000  0.40000000       0.008
  -0.37500000  0.50000000  0.40000000       0.008
  -0.25000000  0.50000000  0.40000000       0.008
  -0.12500000  0.50000000  0.40000000       0.008
   0.00000000 -0.33333333  0.40000000       0.008
   0.12500000 -0.33333333  0.40000000       0.008
   0.25000000 -0.33333333  0.40000000       0.008
   0.37500000 -0.33333333  0.40000000       0.008
   0.50000000 -0.33333333  0.40000000       0.008
  -0.37500000 -0.33333333  0.40000000       0.008
  -0.25000000 -0.33333333  0.40000000       0.008
  -0.12500000 -0.33333333  0.40000000       0.008
   0.00000000 -0.16666667  0.40000000       0.008
   0.12500000 -0.16666667  0.40000000       0.008
   0.25000000 -0.16666667  0.40000000       0.008
   0.37500000 -0.16666667  0.40000000       0.008
   0.50000000 -0.16666667  0.40000000       0.008
  -0.37500000 -0.16666667  0.40000000       0.008
  -0.25000000 -0.16666667  0.40000000       0.008
  -0.12500000 -0.16666667  0.40000000       0.008
 
 position of ions in fractional coordinates (direct lattice) 
   0.26089384  0.68950155  0.81419434
   0.99992985  0.24993015  0.75227757
   0.24993165  0.93853124  0.56149491
   0.00007258  0.49897331  0.50100451
   0.98910417  0.74800006  0.24831606
   0.75339002  0.81381833  0.68572140
   0.49835085  0.37442955  0.62527246
   0.49660267  0.62367129  0.37677335
   0.25007658  0.18757614  0.31022108
   0.25579085  0.43727671  0.06169838
   0.99420130  0.00022474  0.00080070
   0.75164356  0.06307274  0.43722919
   0.76403065  0.56895930  0.93066932
   0.49575906  0.12206672  0.86997398
   0.48596729  0.86853597  0.13182357
   0.75425508  0.31543219  0.19252918
 
 position of ions in cartesian coordinates  (Angst):
  -5.31020352 -1.76083071 -3.59016962
  -3.56127230  1.77678405 -5.32116451
  -3.53799507 -3.55238629 -3.54480405
  -3.55199334 -1.76513141 -1.77271798
  -0.00737372 -1.78416297 -5.27234461
  -3.52638092 -1.77665399 -5.32870179
  -3.54985488  0.00059318 -3.53862560
  -1.79109480 -1.76831310 -3.53374457
  -1.75620674 -0.00430849 -1.76886706
   0.01594776 -1.76246924 -1.79121190
   1.75654482  1.76244597 -3.52626122
  -1.76766676  1.77188764 -3.55136160
  -5.24420113 -0.02158541 -5.36658038
  -5.28938257  1.77167205 -3.51585800
  -0.07325207 -3.52340574 -3.49589133
  -0.02811478  0.00086443 -3.57419578
 


--------------------------------------------------------------------------------------------------------


 k-point  1 :   0.0000 0.0000 0.0000  plane waves:    4803
 k-point  2 :   0.1250 0.0000 0.0000  plane waves:    4798
 k-point  3 :   0.2500 0.0000 0.0000  plane waves:    4790
 k-point  4 :   0.3750 0.0000 0.0000  plane waves:    4794
 k-point  5 :   0.5000 0.0000 0.0000  plane waves:    4818
 k-point  6 :   0.0000 0.1667 0.0000  plane waves:    4790
 k-point  7 :   0.1250 0.1667 0.0000  plane waves:    4785
 k-point  8 :   0.2500 0.1667 0.0000  plane waves:    4793
 k-point  9 :   0.3750 0.1667 0.0000  plane waves:    4799
 k-point 10 :   0.5000 0.1667 0.0000  plane waves:    4800
 k-point 11 :  -0.3750 0.1667 0.0000  plane waves:    4807
 k-point 12 :  -0.2500 0.1667 0.0000  plane waves:    4812
 k-point 13 :  -0.1250 0.1667 0.0000  plane waves:    4790
 k-point 14 :   0.0000 0.3333 0.0000  plane waves:    4777
 k-point 15 :   0.1250 0.3333 0.0000  plane waves:    4794
 k-point 16 :   0.2500 0.3333 0.0000  plane waves:    4783
 k-point 17 :   0.3750 0.3333 0.0000  plane waves:    4783
 k-point 18 :   0.5000 0.3333 0.0000  plane waves:    4804
 k-point 19 :  -0.3750 0.3333 0.0000  plane waves:    4801
 k-point 20 :  -0.2500 0.3333 0.0000  plane waves:    4796
 k-point 21 :  -0.1250 0.3333 0.0000  plane waves:    4783
 k-point 22 :   0.0000 0.5000 0.0000  plane waves:    4768
 k-point 23 :   0.1250 0.5000 0.0000  plane waves:    4795
 k-point 24 :   0.2500 0.5000 0.0000  plane waves:    4788
 k-point 25 :   0.3750 0.5000 0.0000  plane waves:    4796
 k-point 26 :   0.5000 0.5000 0.0000  plane waves:    4794
 k-point 27 :   0.0000 0.0000 0.2000  plane waves:    4782
 k-point 28 :   0.1250 0.0000 0.2000  plane waves:    4803
 k-point 29 :   0.2500 0.0000 0.2000  plane waves:    4791
 k-point 30 :   0.3750 0.0000 0.2000  plane waves:    4796
 k-point 31 :   0.5000 0.0000 0.2000  plane waves:    4806
 k-point 32 :  -0.3750 0.0000 0.2000  plane waves:    4816
 k-point 33 :  -0.2500 0.0000 0.2000  plane waves:    4807
 k-point 34 :  -0.1250 0.0000 0.2000  plane waves:    4799
 k-point 35 :   0.0000 0.1667 0.2000  plane waves:    4792
 k-point 36 :   0.1250 0.1667 0.2000  plane waves:    4790
 k-point 37 :   0.2500 0.1667 0.2000  plane waves:    4793
 k-point 38 :   0.3750 0.1667 0.2000  plane waves:    4811
 k-point 39 :   0.5000 0.1667 0.2000  plane waves:    4811
 k-point 40 :  -0.3750 0.1667 0.2000  plane waves:    4823
 k-point 41 :  -0.2500 0.1667 0.2000  plane waves:    4820
 k-point 42 :  -0.1250 0.1667 0.2000  plane waves:    4801
 k-point 43 :   0.0000 0.3333 0.2000  plane waves:    4793
 k-point 44 :   0.1250 0.3333 0.2000  plane waves:    4796
 k-point 45 :   0.2500 0.3333 0.2000  plane waves:    4789
 k-point 46 :   0.3750 0.3333 0.2000  plane waves:    4800
 k-point 47 :   0.5000 0.3333 0.2000  plane waves:    4803
 k-point 48 :  -0.3750 0.3333 0.2000  plane waves:    4809
 k-point 49 :  -0.2500 0.3333 0.2000  plane waves:    4812
 k-point 50 :  -0.1250 0.3333 0.2000  plane waves:    4789
 k-point 51 :   0.0000 0.5000 0.2000  plane waves:    4782
 k-point 52 :   0.1250 0.5000 0.2000  plane waves:    4792
 k-point 53 :   0.2500 0.5000 0.2000  plane waves:    4776
 k-point 54 :   0.3750 0.5000 0.2000  plane waves:    4788
 k-point 55 :   0.5000 0.5000 0.2000  plane waves:    4794
 k-point 56 :  -0.3750 0.5000 0.2000  plane waves:    4801
 k-point 57 :  -0.2500 0.5000 0.2000  plane waves:    4798
 k-point 58 :  -0.1250 0.5000 0.2000  plane waves:    4795
 k-point 59 :   0.0000-0.3333 0.2000  plane waves:    4782
 k-point 60 :   0.1250-0.3333 0.2000  plane waves:    4779
 k-point 61 :   0.2500-0.3333 0.2000  plane waves:    4796
 k-point 62 :   0.3750-0.3333 0.2000  plane waves:    4804
 k-point 63 :   0.5000-0.3333 0.2000  plane waves:    4810
 k-point 64 :  -0.3750-0.3333 0.2000  plane waves:    4796
 k-point 65 :  -0.2500-0.3333 0.2000  plane waves:    4782
 k-point 66 :  -0.1250-0.3333 0.2000  plane waves:    4794
 k-point 67 :   0.0000-0.1667 0.2000  plane waves:    4790
 k-point 68 :   0.1250-0.1667 0.2000  plane waves:    4785
 k-point 69 :   0.2500-0.1667 0.2000  plane waves:    4805
 k-point 70 :   0.3750-0.1667 0.2000  plane waves:    4809
 k-point 71 :   0.5000-0.1667 0.2000  plane waves:    4815
 k-point 72 :  -0.3750-0.1667 0.2000  plane waves:    4804
 k-point 73 :  -0.2500-0.1667 0.2000  plane waves:    4800
 k-point 74 :  -0.1250-0.1667 0.2000  plane waves:    4790
 k-point 75 :   0.0000 0.0000 0.4000  plane waves:    4781
 k-point 76 :   0.1250 0.0000 0.4000  plane waves:    4801
 k-point 77 :   0.2500 0.0000 0.4000  plane waves:    4809
 k-point 78 :   0.3750 0.0000 0.4000  plane waves:    4810
 k-point 79 :   0.5000 0.0000 0.4000  plane waves:    4820
 k-point 80 :  -0.3750 0.0000 0.4000  plane waves:    4828
 k-point 81 :  -0.2500 0.0000 0.4000  plane waves:    4821
 k-point 82 :  -0.1250 0.0000 0.4000  plane waves:    4801
 k-point 83 :   0.0000 0.1667 0.4000  plane waves:    4801
 k-point 84 :   0.1250 0.1667 0.4000  plane waves:    4795
 k-point 85 :   0.2500 0.1667 0.4000  plane waves:    4799
 k-point 86 :   0.3750 0.1667 0.4000  plane waves:    4818
 k-point 87 :   0.5000 0.1667 0.4000  plane waves:    4808
 k-point 88 :  -0.3750 0.1667 0.4000  plane waves:    4811
 k-point 89 :  -0.2500 0.1667 0.4000  plane waves:    4815
 k-point 90 :  -0.1250 0.1667 0.4000  plane waves:    4798
 k-point 91 :   0.0000 0.3333 0.4000  plane waves:    4781
 k-point 92 :   0.1250 0.3333 0.4000  plane waves:    4783
 k-point 93 :   0.2500 0.3333 0.4000  plane waves:    4805
 k-point 94 :   0.3750 0.3333 0.4000  plane waves:    4814
 k-point 95 :   0.5000 0.3333 0.4000  plane waves:    4802
 k-point 96 :  -0.3750 0.3333 0.4000  plane waves:    4813
 k-point 97 :  -0.2500 0.3333 0.4000  plane waves:    4811
 k-point 98 :  -0.1250 0.3333 0.4000  plane waves:    4792
 k-point 99 :   0.0000 0.5000 0.4000  plane waves:    4796
 k-point ** :   0.1250 0.5000 0.4000  plane waves:    4784
 k-point ** :   0.2500 0.5000 0.4000  plane waves:    4797
 k-point ** :   0.3750 0.5000 0.4000  plane waves:    4799
 k-point ** :   0.5000 0.5000 0.4000  plane waves:    4805
 k-point ** :  -0.3750 0.5000 0.4000  plane waves:    4802
 k-point ** :  -0.2500 0.5000 0.4000  plane waves:    4797
 k-point ** :  -0.1250 0.5000 0.4000  plane waves:    4791
 k-point ** :   0.0000-0.3333 0.4000  plane waves:    4779
 k-point ** :   0.1250-0.3333 0.4000  plane waves:    4789
 k-point ** :   0.2500-0.3333 0.4000  plane waves:    4809
 k-point ** :   0.3750-0.3333 0.4000  plane waves:    4822
 k-point ** :   0.5000-0.3333 0.4000  plane waves:    4808
 k-point ** :  -0.3750-0.3333 0.4000  plane waves:    4790
 k-point ** :  -0.2500-0.3333 0.4000  plane waves:    4795
 k-point ** :  -0.1250-0.3333 0.4000  plane waves:    4792
 k-point ** :   0.0000-0.1667 0.4000  plane waves:    4781
 k-point ** :   0.1250-0.1667 0.4000  plane waves:    4796
 k-point ** :   0.2500-0.1667 0.4000  plane waves:    4816
 k-point ** :   0.3750-0.1667 0.4000  plane waves:    4816
 k-point ** :   0.5000-0.1667 0.4000  plane waves:    4817
 k-point ** :  -0.3750-0.1667 0.4000  plane waves:    4803
 k-point ** :  -0.2500-0.1667 0.4000  plane waves:    4797
 k-point ** :  -0.1250-0.1667 0.4000  plane waves:    4794

 maximum and minimum number of plane-waves per node :       627      570

 maximum number of plane-waves:      4828
 maximum index in each direction: 
   IXMAX=    8   IYMAX=   10   IZMAX=   13
   IXMIN=   -8   IYMIN=  -10   IZMIN=  -14


 real space projection operators:
  total allocation   :      12242.67 KBytes
  max/ min on nodes  :       1617.05       1455.75


 parallel 3D FFT for wavefunctions:
    minimum data exchange during FFTs selected (reduces bandwidth)
 parallel 3D FFT for charge:
    minimum data exchange during FFTs selected (reduces bandwidth)


 total amount of memory used by VASP MPI-rank0   128255. kBytes
=======================================================================

   base      :      30000. kBytes
   nonlr-proj:       3737. kBytes
   fftplans  :       1226. kBytes
   grid      :       3048. kBytes
   one-center:         62. kBytes
   wavefun   :      90182. kBytes
 
     INWAV:  cpu time    0.0010: real time    0.0024
 initial charge density was supplied:
 number of electron     151.9999949 magnetization      18.1255505
 keeping initial charge density in first step


--------------------------------------------------------------------------------------------------------


 Maximum index for non-local projection operator          827
 Maximum index for augmentation-charges          723 (set IRDMAX)


--------------------------------------------------------------------------------------------------------


 First call to EWALD:  gamma=   0.315
 Maximum number of real-space cells 3x 3x 2
 Maximum number of reciprocal cells 2x 3x 4

    FEWALD:  cpu time    0.0020: real time    0.0014


--------------------------------------- Iteration      1(   1)  ---------------------------------------


    POTLOK:  cpu time    0.0390: real time    0.0421
    SETDIJ:  cpu time    0.0090: real time    0.0091
     EDDAV:  cpu time   25.7551: real time   26.1977
 BZINTS: Fermi energy: 22.402804;152.000000 electrons
         Band energy:2267.284361;  BLOECHL correction: -0.085302
       DOS:  cpu time    0.3579: real time    0.3622
    --------------------------------------------
      LOOP:  cpu time   26.1610: real time   26.6111

 eigenvalue-minimisations  : 51240
 total energy-change (2. order) : 0.1250368E+04  (-0.6406774E+04)
 number of electron     151.9999949 magnetization      18.1255505
 augmentation part      151.9999949 magnetization      18.1255505

 Free energy of the ion-electron system (eV)
  ---------------------------------------------------
  alpha Z        PSCENC =       816.77350523
  Ewald energy   TEWEN  =    -13459.44393300
  -Hartree energ DENC   =     -3211.22047622
  -exchange      EXHF   =         0.00000000
  -V(xc)+E(xc)   XCENC  =       387.36256456
  PAW double counting   =     16554.33799839   -17414.02741530
  entropy T*S    EENTRO =         0.00000000
  eigenvalues    EBANDS =      2267.28436124
  atomic energy  EATOM  =     15309.30175564
  Solvation  Ediel_sol  =         0.00000000
  ---------------------------------------------------
  free energy    TOTEN  =      1250.36836053 eV

  energy without entropy =     1250.36836053  energy(sigma->0) =     1250.36836053


--------------------------------------------------------------------------------------------------------




--------------------------------------- Iteration      1(   2)  ---------------------------------------


     EDDAV:  cpu time   25.2382: real time   25.5208
 BZINTS: Fermi energy: 10.154566;152.000000 electrons
         Band energy:1061.531706;  BLOECHL correction: -0.030568
       DOS:  cpu time    0.3809: real time    0.3828
    --------------------------------------------
      LOOP:  cpu time   25.6191: real time   25.9036

 eigenvalue-minimisations  : 51240
 total energy-change (2. order) :-0.1205753E+04  (-0.1145453E+04)
 number of electron     151.9999949 magnetization      18.1255505
 augmentation part      151.9999949 magnetization      18.1255505

 Free energy of the ion-electron system (eV)
  ---------------------------------------------------
  alpha Z        PSCENC =       816.77350523
  Ewald energy   TEWEN  =    -13459.44393300
  -Hartree energ DENC   =     -3211.22047622
  -exchange      EXHF   =         0.00000000
  -V(xc)+E(xc)   XCENC  =       387.36256456
  PAW double counting   =     16554.33799839   -17414.02741530
  entropy T*S    EENTRO =         0.00000000
  eigenvalues    EBANDS =      1061.53170603
  atomic energy  EATOM  =     15309.30175564
  Solvation  Ediel_sol  =         0.00000000
  ---------------------------------------------------
  free energy    TOTEN  =        44.61570532 eV

  energy without entropy =       44.61570532  energy(sigma->0) =       44.61570532


--------------------------------------------------------------------------------------------------------




--------------------------------------- Iteration      1(   3)  ---------------------------------------


     EDDAV:  cpu time   25.1202: real time   25.4574
 BZINTS: Fermi energy:  8.459340;152.000000 electrons
         Band energy: 923.121245;  BLOECHL correction: -0.060096
       DOS:  cpu time    0.3299: real time    0.3316
    --------------------------------------------
      LOOP:  cpu time   25.4501: real time   25.7890

 eigenvalue-minimisations  : 51336
 total energy-change (2. order) :-0.1384105E+03  (-0.1148020E+03)
 number of electron     151.9999949 magnetization      18.1255505
 augmentation part      151.9999949 magnetization      18.1255505

 Free energy of the ion-electron system (eV)
  ---------------------------------------------------
  alpha Z        PSCENC =       816.77350523
  Ewald energy   TEWEN  =    -13459.44393300
  -Hartree energ DENC   =     -3211.22047622
  -exchange      EXHF   =         0.00000000
  -V(xc)+E(xc)   XCENC  =       387.36256456
  PAW double counting   =     16554.33799839   -17414.02741530
  entropy T*S    EENTRO =         0.00000000
  eigenvalues    EBANDS =       923.12124492
  atomic energy  EATOM  =     15309.30175564
  Solvation  Ediel_sol  =         0.00000000
  ---------------------------------------------------
  free energy    TOTEN  =       -93.79475579 eV

  energy without entropy =      -93.79475579  energy(sigma->0) =      -93.79475579


--------------------------------------------------------------------------------------------------------




--------------------------------------- Iteration      1(   4)  ---------------------------------------


     EDDAV:  cpu time   26.7849: real time   27.1230
 BZINTS: Fermi energy:  8.423702;152.000000 electrons
         Band energy: 917.757862;  BLOECHL correction: -0.060051
       DOS:  cpu time    0.3819: real time    0.3835
    --------------------------------------------
      LOOP:  cpu time   27.1669: real time   27.5066

 eigenvalue-minimisations  : 55623
 total energy-change (2. order) :-0.5363383E+01  (-0.5300347E+01)
 number of electron     151.9999949 magnetization      18.1255505
 augmentation part      151.9999949 magnetization      18.1255505

 Free energy of the ion-electron system (eV)
  ---------------------------------------------------
  alpha Z        PSCENC =       816.77350523
  Ewald energy   TEWEN  =    -13459.44393300
  -Hartree energ DENC   =     -3211.22047622
  -exchange      EXHF   =         0.00000000
  -V(xc)+E(xc)   XCENC  =       387.36256456
  PAW double counting   =     16554.33799839   -17414.02741530
  entropy T*S    EENTRO =         0.00000000
  eigenvalues    EBANDS =       917.75786162
  atomic energy  EATOM  =     15309.30175564
  Solvation  Ediel_sol  =         0.00000000
  ---------------------------------------------------
  free energy    TOTEN  =       -99.15813909 eV

  energy without entropy =      -99.15813909  energy(sigma->0) =      -99.15813909


--------------------------------------------------------------------------------------------------------




--------------------------------------- Iteration      1(   5)  ---------------------------------------


     EDDAV:  cpu time   34.5747: real time   34.9948
 BZINTS: Fermi energy:  8.422981;152.000000 electrons
         Band energy: 917.654571;  BLOECHL correction: -0.060019
       DOS:  cpu time    0.3809: real time    0.3832
    --------------------------------------------
      LOOP:  cpu time   34.9557: real time   35.3781

 eigenvalue-minimisations  : 76506
 total energy-change (2. order) :-0.1032905E+00  (-0.1032404E+00)
 number of electron     151.9999949 magnetization      18.1255505
 augmentation part      151.9999949 magnetization      18.1255505

 Free energy of the ion-electron system (eV)
  ---------------------------------------------------
  alpha Z        PSCENC =       816.77350523
  Ewald energy   TEWEN  =    -13459.44393300
  -Hartree energ DENC   =     -3211.22047622
  -exchange      EXHF   =         0.00000000
  -V(xc)+E(xc)   XCENC  =       387.36256456
  PAW double counting   =     16554.33799839   -17414.02741530
  entropy T*S    EENTRO =         0.00000000
  eigenvalues    EBANDS =       917.65457110
  atomic energy  EATOM  =     15309.30175564
  Solvation  Ediel_sol  =         0.00000000
  ---------------------------------------------------
  free energy    TOTEN  =       -99.26142961 eV

  energy without entropy =      -99.26142961  energy(sigma->0) =      -99.26142961


--------------------------------------------------------------------------------------------------------




--------------------------------------- Iteration      1(   6)  ---------------------------------------


    EDDIAG:  cpu time    3.7774: real time    3.8016
  RMM-DIIS:  cpu time   16.9244: real time   17.1291
    ORTHCH:  cpu time    0.4909: real time    0.4948
 BZINTS: Fermi energy:  8.422970;152.000000 electrons
         Band energy: 917.653256;  BLOECHL correction: -0.060019
       DOS:  cpu time    0.3549: real time    0.3558
    --------------------------------------------
      LOOP:  cpu time   21.5477: real time   21.7813

 eigenvalue-minimisations  : 53780
 total energy-change (2. order) :-0.1315582E-02  (-0.1315350E-02)
 number of electron     151.9999949 magnetization      18.1255505
 augmentation part      151.9999949 magnetization      18.1255505

 Free energy of the ion-electron system (eV)
  ---------------------------------------------------
  alpha Z        PSCENC =       816.77350523
  Ewald energy   TEWEN  =    -13459.44393300
  -Hartree energ DENC   =     -3211.22047622
  -exchange      EXHF   =         0.00000000
  -V(xc)+E(xc)   XCENC  =       387.36256456
  PAW double counting   =     16554.33799839   -17414.02741530
  entropy T*S    EENTRO =         0.00000000
  eigenvalues    EBANDS =       917.65325552
  atomic energy  EATOM  =     15309.30175564
  Solvation  Ediel_sol  =         0.00000000
  ---------------------------------------------------
  free energy    TOTEN  =       -99.26274519 eV

  energy without entropy =      -99.26274519  energy(sigma->0) =      -99.26274519


--------------------------------------------------------------------------------------------------------




--------------------------------------- Iteration      1(   7)  ---------------------------------------


    EDDIAG:  cpu time    3.7724: real time    3.7990
  RMM-DIIS:  cpu time   23.4724: real time   23.9219
    ORTHCH:  cpu time    0.4959: real time    0.4995
 BZINTS: Fermi energy:  8.422968;152.000000 electrons
         Band energy: 917.653016;  BLOECHL correction: -0.060019
       DOS:  cpu time    0.3809: real time    0.3829
    --------------------------------------------
      LOOP:  cpu time   28.1217: real time   28.6034

 eigenvalue-minimisations  : 75758
 total energy-change (2. order) :-0.2398826E-03  (-0.2375037E-03)
 number of electron     151.9999949 magnetization      18.1255505
 augmentation part      151.9999949 magnetization      18.1255505

 Free energy of the ion-electron system (eV)
  ---------------------------------------------------
  alpha Z        PSCENC =       816.77350523
  Ewald energy   TEWEN  =    -13459.44393300
  -Hartree energ DENC   =     -3211.22047622
  -exchange      EXHF   =         0.00000000
  -V(xc)+E(xc)   XCENC  =       387.36256456
  PAW double counting   =     16554.33799839   -17414.02741530
  entropy T*S    EENTRO =         0.00000000
  eigenvalues    EBANDS =       917.65301563
  atomic energy  EATOM  =     15309.30175564
  Solvation  Ediel_sol  =         0.00000000
  ---------------------------------------------------
  free energy    TOTEN  =       -99.26298507 eV

  energy without entropy =      -99.26298507  energy(sigma->0) =      -99.26298507


--------------------------------------------------------------------------------------------------------




--------------------------------------- Iteration      1(   8)  ---------------------------------------


    EDDIAG:  cpu time    3.7804: real time    3.8069
  RMM-DIIS:  cpu time   23.5524: real time   23.8759
    ORTHCH:  cpu time    0.5259: real time    0.5313
 BZINTS: Fermi energy:  8.422968;152.000000 electrons
         Band energy: 917.653008;  BLOECHL correction: -0.060019
       DOS:  cpu time    0.3549: real time    0.3560
    --------------------------------------------
      LOOP:  cpu time   28.2137: real time   28.5701

 eigenvalue-minimisations  : 76052
 total energy-change (2. order) :-0.7500914E-05  (-0.8399047E-05)
 number of electron     151.9999949 magnetization      18.1255505
 augmentation part      151.9999949 magnetization      18.1255505

 Free energy of the ion-electron system (eV)
  ---------------------------------------------------
  alpha Z        PSCENC =       816.77350523
  Ewald energy   TEWEN  =    -13459.44393300
  -Hartree energ DENC   =     -3211.22047622
  -exchange      EXHF   =         0.00000000
  -V(xc)+E(xc)   XCENC  =       387.36256456
  PAW double counting   =     16554.33799839   -17414.02741530
  entropy T*S    EENTRO =         0.00000000
  eigenvalues    EBANDS =       917.65300813
  atomic energy  EATOM  =     15309.30175564
  Solvation  Ediel_sol  =         0.00000000
  ---------------------------------------------------
  free energy    TOTEN  =       -99.26299258 eV

  energy without entropy =      -99.26299258  energy(sigma->0) =      -99.26299258


--------------------------------------------------------------------------------------------------------




--------------------------------------- Iteration      1(   9)  ---------------------------------------


    EDDIAG:  cpu time    3.7874: real time    3.8158
  RMM-DIIS:  cpu time   12.7671: real time   12.9518
    ORTHCH:  cpu time    0.4929: real time    0.4992
 BZINTS: Fermi energy:  8.422968;152.000000 electrons
         Band energy: 917.653007;  BLOECHL correction: -0.060019
       DOS:  cpu time    0.3719: real time    0.3747
    --------------------------------------------
      LOOP:  cpu time   17.4194: real time   17.6415

 eigenvalue-minimisations  : 39482
 total energy-change (2. order) :-0.7615508E-06  (-0.8147391E-06)
 number of electron     151.9999949 magnetization      18.1255505
 augmentation part      151.9999949 magnetization      18.1255505

 Free energy of the ion-electron system (eV)
  ---------------------------------------------------
  alpha Z        PSCENC =       816.77350523
  Ewald energy   TEWEN  =    -13459.44393300
  -Hartree energ DENC   =     -3211.22047622
  -exchange      EXHF   =         0.00000000
  -V(xc)+E(xc)   XCENC  =       387.36256456
  PAW double counting   =     16554.33799839   -17414.02741530
  entropy T*S    EENTRO =         0.00000000
  eigenvalues    EBANDS =       917.65300737
  atomic energy  EATOM  =     15309.30175564
  Solvation  Ediel_sol  =         0.00000000
  ---------------------------------------------------
  free energy    TOTEN  =       -99.26299334 eV

  energy without entropy =      -99.26299334  energy(sigma->0) =      -99.26299334


--------------------------------------------------------------------------------------------------------




 average (electrostatic) potential at core
  the test charge radii are     0.9791  1.0103
  (the norm of the test charge is              1.0000)
       1 -82.9666       2 -82.9130       3 -82.8979       4 -82.8980       5 -82.9666
       6 -82.9158       7 -82.9218       8 -82.9159       9 -82.9131      10 -83.0095
      11 -83.0092      12 -82.9218      13 -41.1695      14 -41.1521      15 -41.1696
      16 -41.1522
 
 
 
 E-fermi :   8.4230     XC(G=0): -13.1408     alpha+bet :-15.5409


 spin component 1

 k-point     1 :       0.0000    0.0000    0.0000
  band No.  band energies     occupation 
      1      -0.4930      1.00000
      2       2.1421      1.00000
      3       2.1959      1.00000
      4       3.4351      1.00000
      5       3.6275      1.00000
      6       3.6781      1.00000
      7       3.9997      1.00000
      8       4.0724      1.00000
      9       4.1492      1.00000
     10       4.1706      1.00000
     11       4.2080      1.00000
     12       4.2537      1.00000
     13       4.3358      1.00000
     14       4.3731      1.00000
     15       4.3812      1.00000
     16       4.5590      1.00000
     17       4.5728      1.00000
     18       4.6563      1.00000
     19       4.6817      1.00000
     20       4.8023      1.00000
     21       4.8571      1.00000
     22       4.9442      1.00000
     23       4.9864      1.00000
     24       5.0344      1.00000
     25       5.0602      1.00000
     26       5.1062      1.00000
     27       5.1331      1.00000
     28       5.2140      1.00000
     29       5.2660      1.00000
     30       5.3224      1.00000
     31       5.4924      1.00000
     32       5.5422      1.00000
     33       5.6635      1.00000
     34       5.6763      1.00000
     35       5.6992      1.00000
     36       5.7863      1.00000
     37       5.8399      1.00000
     38       5.8638      1.00000
     39       5.9027      1.00000
     40       5.9115      1.00000
     41       5.9279      1.00000
     42       5.9824      1.00000
     43       6.0045      1.00000
     44       6.0130      1.00000
     45       6.0628      1.00000
     46       6.1092      1.00000
     47       6.1406      1.00000
     48       6.1590      1.00000
     49       6.1631      1.00000
     50       6.4241      1.00000
     51       6.4822      1.00000
     52       6.5107      1.00000
     53       6.5716      1.00000
     54       6.5857      1.00000
     55       6.6778      1.00000
     56       6.7443      1.00000
     57       6.7508      1.00000
     58       6.7808      1.00000
     59       6.7976      1.00000
     60       6.8582      1.00000
     61       6.8762      1.00000
     62       7.0013      1.00000
     63       7.0282      1.00000
     64       7.0647      1.00000
     65       7.0751      1.00000
     66       7.1079      1.00000
     67       7.1291      1.00000
     68       7.1407      1.00000
     69       7.2011      1.00000
     70       7.4202      1.00000
     71       7.4735      1.00000
     72       7.5013      1.00000
     73       7.5092      1.00000
     74       7.6194      1.00000
     75       7.6310      1.00000
     76       7.7434      1.00000
     77       7.7518      1.00000
     78       7.7594      1.00000
     79       7.7718      1.00000
     80       7.8070      1.00000
     81       7.8087      1.00000
     82       7.8128      1.00000
     83       7.8337      1.00000
     84       8.1177      1.00000
     85       8.5519      0.18345
     86       8.5636      0.00000
     87       9.4495      0.00000
     88       9.5777      0.00000
     89      10.5122      0.00000
     90      10.7688      0.00000
     91      11.7724      0.00000
     92      11.7961      0.00000
     93      13.1141      0.00000
     94      13.1939      0.00000
     95      13.7321      0.00000
     96      13.7840      0.00000
     97      14.1090      0.00000
     98      14.7280      0.00000
     99      14.7364      0.00000
    100      15.8341      0.00000
    101      15.9502      0.00000
    102      16.3496      0.00000
    103      16.4752      0.00000
    104      16.6652      0.00000
    105      16.9816      0.00000

 k-point     2 :       0.1250    0.0000    0.0000
  band No.  band energies     occupation 
      1      -0.3540      1.00000
      2       2.1427      1.00000
      3       2.3822      1.00000
      4       3.4611      1.00000
      5       3.5602      1.00000
      6       3.8491      1.00000
      7       3.8816      1.00000
      8       3.9184      1.00000
      9       4.0232      1.00000
     10       4.1652      1.00000
     11       4.2248      1.00000
     12       4.2622      1.00000
     13       4.2828      1.00000
     14       4.3260      1.00000
     15       4.3670      1.00000
     16       4.4452      1.00000
     17       4.6713      1.00000
     18       4.6894      1.00000
     19       4.7186      1.00000
     20       4.7911      1.00000
     21       4.8297      1.00000
     22       4.8677      1.00000
     23       4.9767      1.00000
     24       5.0114      1.00000
     25       5.0417      1.00000
     26       5.0493      1.00000
     27       5.1957      1.00000
     28       5.2195      1.00000
     29       5.3401      1.00000
     30       5.4353      1.00000
     31       5.5115      1.00000
     32       5.5422      1.00000
     33       5.5978      1.00000
     34       5.6460      1.00000
     35       5.7658      1.00000
     36       5.8202      1.00000
     37       5.8378      1.00000
     38       5.8850      1.00000
     39       5.8865      1.00000
     40       5.9137      1.00000
     41       5.9622      1.00000
     42       6.0125      1.00000
     43       6.0490      1.00000
     44       6.0622      1.00000
     45       6.0758      1.00000
     46       6.0925      1.00000
     47       6.1197      1.00000
     48       6.2063      1.00000
     49       6.3148      1.00000
     50       6.3931      1.00000
     51       6.4255      1.00000
     52       6.4786      1.00000
     53       6.5689      1.00000
     54       6.6387      1.00000
     55       6.6783      1.00000
     56       6.7024      1.00000
     57       6.8019      1.00000
     58       6.8199      1.00000
     59       6.8395      1.00000
     60       6.8517      1.00000
     61       6.9075      1.00000
     62       6.9490      1.00000
     63       6.9734      1.00000
     64       6.9925      1.00000
     65       7.0419      1.00000
     66       7.0626      1.00000
     67       7.1256      1.00000
     68       7.1338      1.00000
     69       7.2457      1.00000
     70       7.3311      1.00000
     71       7.4111      1.00000
     72       7.4574      1.00000
     73       7.5374      1.00000
     74       7.5836      1.00000
     75       7.6736      1.00000
     76       7.7127      1.00000
     77       7.7255      1.00000
     78       7.7390      1.00000
     79       7.7680      1.00000
     80       7.7772      1.00000
     81       7.7854      1.00000
     82       7.8166      1.00000
     83       7.8680      1.00000
     84       8.2221      1.00000
     85       8.8800     -0.16438
     86       8.9297      0.00000
     87       9.0650      0.00000
     88       9.3699      0.00000
     89       9.5961      0.00000
     90      10.6465      0.00000
     91      11.7257      0.00000
     92      12.1713      0.00000
     93      12.5248      0.00000
     94      12.5559      0.00000
     95      13.4263      0.00000
     96      14.1600      0.00000
     97      14.2652      0.00000
     98      14.9839      0.00000
     99      15.1388      0.00000
    100      15.3868      0.00000
    101      15.8907      0.00000
    102      16.1888      0.00000
    103      16.2615      0.00000
    104      16.5052      0.00000
    105      18.0671      0.00000

 k-point     3 :       0.2500    0.0000    0.0000
  band No.  band energies     occupation 
      1       0.0559      1.00000
      2       2.3169      1.00000
      3       2.7414      1.00000
      4       3.3344      1.00000
      5       3.4763      1.00000
      6       3.6680      1.00000
      7       3.7646      1.00000
      8       3.7812      1.00000
      9       4.0947      1.00000
     10       4.1228      1.00000
     11       4.1381      1.00000
     12       4.1812      1.00000
     13       4.1991      1.00000
     14       4.2647      1.00000
     15       4.3185      1.00000
     16       4.4565      1.00000
     17       4.5567      1.00000
     18       4.6532      1.00000
     19       4.7668      1.00000
     20       4.8262      1.00000
     21       4.8504      1.00000
     22       4.8748      1.00000
     23       4.9251      1.00000
     24       4.9309      1.00000
     25       4.9643      1.00000
     26       5.0716      1.00000
     27       5.1906      1.00000
     28       5.2689      1.00000
     29       5.3851      1.00000
     30       5.4391      1.00000
     31       5.5420      1.00000
     32       5.6165      1.00000
     33       5.6395      1.00000
     34       5.6627      1.00000
[...]
     97      14.9987      0.00000
     98      15.1967      0.00000
     99      15.7942      0.00000
    100      15.9186      0.00000
    101      16.1548      0.00000
    102      16.4909      0.00000
    103      16.9784      0.00000
    104      18.1317      0.00000
    105      18.2932      0.00000


--------------------------------------------------------------------------------------------------------


 soft charge-density along one line, spin component           1
         0         1         2         3         4         5         6         7         8         9
 total charge-density along one line
 
 soft charge-density along one line, spin component           2
         0         1         2         3         4         5         6         7         8         9
 total charge-density along one line
 
 pseudopotential strength for first ion, spin component:           1
 -1.253  -0.006  -0.002  -0.003   0.000  -1.902  -0.006  -0.002
 -0.006  -1.248  -0.001   0.001   0.003  -0.006  -1.897  -0.001
 -0.002  -0.001  -1.258  -0.006   0.004  -0.002  -0.001  -1.906
 -0.003   0.001  -0.006  -1.251   0.001  -0.003   0.001  -0.006
  0.000   0.003   0.004   0.001  -1.223   0.000   0.003   0.003
 -1.902  -0.006  -0.002  -0.003   0.000  -2.481  -0.006  -0.002
 -0.006  -1.897  -0.001   0.001   0.003  -0.006  -2.476  -0.001
 -0.002  -0.001  -1.906  -0.006   0.003  -0.002  -0.001  -2.485
 -0.003   0.001  -0.006  -1.900   0.001  -0.003   0.001  -0.006
  0.000   0.003   0.003   0.001  -1.873   0.000   0.003   0.003
 -0.000   0.001   0.002   0.001   0.001  -0.000   0.001   0.002
 -0.000   0.001   0.004   0.002   0.001  -0.000   0.001   0.003
 -0.006  -0.005   0.000  -0.000   0.000  -0.006  -0.005  -0.000
 -0.000  -0.000  -0.006  -0.006  -0.000  -0.000  -0.000  -0.005
 -0.000  -0.000   0.004  -0.005  -0.006  -0.000  -0.000   0.004
 -0.008  -0.006   0.000  -0.000   0.000  -0.008  -0.006  -0.000
 -0.000  -0.000  -0.007  -0.008  -0.000  -0.000  -0.000  -0.007
 -0.000  -0.000   0.005  -0.006  -0.008   0.000  -0.000   0.004
 pseudopotential strength for first ion, spin component:           2
 -0.627   0.006  -0.002  -0.002  -0.000  -1.305   0.006  -0.001
  0.006  -0.668  -0.002   0.002   0.002   0.006  -1.344  -0.002
 -0.002  -0.002  -0.658   0.009  -0.001  -0.001  -0.002  -1.335
 -0.002   0.002   0.009  -0.673  -0.006  -0.002   0.002   0.009
 -0.000   0.002  -0.001  -0.006  -0.682  -0.000   0.002  -0.001
 -1.305   0.006  -0.001  -0.002  -0.000  -1.911   0.006  -0.001
  0.006  -1.344  -0.002   0.002   0.002   0.006  -1.950  -0.002
 -0.001  -0.002  -1.335   0.009  -0.001  -0.001  -0.002  -1.940
 -0.002   0.002   0.009  -1.350  -0.006  -0.002   0.002   0.009
 -0.000   0.002  -0.001  -0.006  -1.358  -0.000   0.002  -0.001
 -0.001   0.000  -0.000  -0.000   0.000  -0.001   0.000  -0.000
 -0.001   0.001  -0.000  -0.001   0.000  -0.001   0.001  -0.000
 -0.003  -0.003  -0.000   0.000  -0.000  -0.003  -0.003  -0.000
  0.000   0.000  -0.003  -0.004   0.000   0.000   0.000  -0.003
  0.000   0.000   0.002  -0.003  -0.004   0.000   0.000   0.002
 -0.004  -0.003  -0.000   0.000  -0.000  -0.004  -0.003  -0.000
  0.000   0.000  -0.004  -0.004   0.000   0.000   0.000  -0.004
  0.000   0.000   0.002  -0.003  -0.004   0.000   0.000   0.002
 total augmentation occupancy for first ion, spin component:           1
  1.800   0.000   0.000   0.000   0.000   0.000   0.000   0.000   0.000   0.000   0.000   0.000   0.000   0.000   0.000   0.000
  0.000   1.800   0.000   0.000   0.000   0.000   0.000   0.000   0.000   0.000   0.000   0.000   0.000   0.000   0.000   0.000
  0.000   0.000   1.800   0.000   0.000   0.000   0.000   0.000   0.000   0.000   0.000   0.000   0.000   0.000   0.000   0.000
  0.000   0.000   0.000   1.800   0.000   0.000   0.000   0.000   0.000   0.000   0.000   0.000   0.000   0.000   0.000   0.000
  0.000   0.000   0.000   0.000   1.800   0.000   0.000   0.000   0.000   0.000   0.000   0.000   0.000   0.000   0.000   0.000
  0.000   0.000   0.000   0.000   0.000   0.000   0.000   0.000   0.000   0.000   0.000   0.000   0.000   0.000   0.000   0.000
  0.000   0.000   0.000   0.000   0.000   0.000   0.000   0.000   0.000   0.000   0.000   0.000   0.000   0.000   0.000   0.000
  0.000   0.000   0.000   0.000   0.000   0.000   0.000   0.000   0.000   0.000   0.000   0.000   0.000   0.000   0.000   0.000
  0.000   0.000   0.000   0.000   0.000   0.000   0.000   0.000   0.000   0.000   0.000   0.000   0.000   0.000   0.000   0.000
  0.000   0.000   0.000   0.000   0.000   0.000   0.000   0.000   0.000   0.000   0.000   0.000   0.000   0.000   0.000   0.000
  0.000   0.000   0.000   0.000   0.000   0.000   0.000   0.000   0.000   0.000   1.000   0.000   0.000   0.000   0.000   0.000
  0.000   0.000   0.000   0.000   0.000   0.000   0.000   0.000   0.000   0.000   0.000   0.000   0.000   0.000   0.000   0.000
  0.000   0.000   0.000   0.000   0.000   0.000   0.000   0.000   0.000   0.000   0.000   0.000   0.000   0.000   0.000   0.000
  0.000   0.000   0.000   0.000   0.000   0.000   0.000   0.000   0.000   0.000   0.000   0.000   0.000   0.000   0.000   0.000
  0.000   0.000   0.000   0.000   0.000   0.000   0.000   0.000   0.000   0.000   0.000   0.000   0.000   0.000   0.000   0.000
  0.000   0.000   0.000   0.000   0.000   0.000   0.000   0.000   0.000   0.000   0.000   0.000   0.000   0.000   0.000   0.000
  0.000   0.000   0.000   0.000   0.000   0.000   0.000   0.000   0.000   0.000   0.000   0.000   0.000   0.000   0.000   0.000
  0.000   0.000   0.000   0.000   0.000   0.000   0.000   0.000   0.000   0.000   0.000   0.000   0.000   0.000   0.000   0.000
 total augmentation occupancy for first ion, spin component:           2
  0.180   0.000   0.000   0.000   0.000   0.000   0.000   0.000   0.000   0.000   0.000   0.000   0.000   0.000   0.000   0.000
  0.000   0.180   0.000   0.000   0.000   0.000   0.000   0.000   0.000   0.000   0.000   0.000   0.000   0.000   0.000   0.000
  0.000   0.000   0.180   0.000   0.000   0.000   0.000   0.000   0.000   0.000   0.000   0.000   0.000   0.000   0.000   0.000
  0.000   0.000   0.000   0.180   0.000   0.000   0.000   0.000   0.000   0.000   0.000   0.000   0.000   0.000   0.000   0.000
  0.000   0.000   0.000   0.000   0.180   0.000   0.000   0.000   0.000   0.000   0.000   0.000   0.000   0.000   0.000   0.000
  0.000   0.000   0.000   0.000   0.000   0.000   0.000   0.000   0.000   0.000   0.000   0.000   0.000   0.000   0.000   0.000
  0.000   0.000   0.000   0.000   0.000   0.000   0.000   0.000   0.000   0.000   0.000   0.000   0.000   0.000   0.000   0.000
  0.000   0.000   0.000   0.000   0.000   0.000   0.000   0.000   0.000   0.000   0.000   0.000   0.000   0.000   0.000   0.000
  0.000   0.000   0.000   0.000   0.000   0.000   0.000   0.000   0.000   0.000   0.000   0.000   0.000   0.000   0.000   0.000
  0.000   0.000   0.000   0.000   0.000   0.000   0.000   0.000   0.000   0.000   0.000   0.000   0.000   0.000   0.000   0.000
  0.000   0.000   0.000   0.000   0.000   0.000   0.000   0.000   0.000   0.000   0.100   0.000   0.000   0.000   0.000   0.000
  0.000   0.000   0.000   0.000   0.000   0.000   0.000   0.000   0.000   0.000   0.000   0.000   0.000   0.000   0.000   0.000
  0.000   0.000   0.000   0.000   0.000   0.000   0.000   0.000   0.000   0.000   0.000   0.000   0.000   0.000   0.000   0.000
  0.000   0.000   0.000   0.000   0.000   0.000   0.000   0.000   0.000   0.000   0.000   0.000   0.000   0.000   0.000   0.000
  0.000   0.000   0.000   0.000   0.000   0.000   0.000   0.000   0.000   0.000   0.000   0.000   0.000   0.000   0.000   0.000
  0.000   0.000   0.000   0.000   0.000   0.000   0.000   0.000   0.000   0.000   0.000   0.000   0.000   0.000   0.000   0.000
  0.000   0.000   0.000   0.000   0.000   0.000   0.000   0.000   0.000   0.000   0.000   0.000   0.000   0.000   0.000   0.000
  0.000   0.000   0.000   0.000   0.000   0.000   0.000   0.000   0.000   0.000   0.000   0.000   0.000   0.000   0.000   0.000


------------------------ aborting loop because EDIFF is reached ----------------------------------------


 


 total charge     
 
# of ion       s       p       d       tot
------------------------------------------
    1        0.507   0.508   8.324   9.339
    2        0.502   0.502   8.324   9.328
    3        0.492   0.485   8.313   9.290
    4        0.492   0.485   8.313   9.290
    5        0.507   0.508   8.324   9.339
    6        0.499   0.495   8.318   9.313
    7        0.498   0.494   8.318   9.311
    8        0.499   0.495   8.318   9.313
    9        0.502   0.502   8.324   9.328
   10        0.509   0.515   8.322   9.346
   11        0.509   0.515   8.322   9.346
   12        0.498   0.494   8.318   9.311
   13        0.475   0.509   6.170   7.154
   14        0.473   0.504   6.166   7.142
   15        0.475   0.509   6.170   7.154
   16        0.473   0.504   6.166   7.143
--------------------------------------------------
tot          7.912   8.025 124.510 140.447
 


 magnetization (x)
 
# of ion       s       p       d       tot
------------------------------------------
    1       -0.018  -0.039   0.674   0.618
    2       -0.014  -0.036   0.643   0.593
    3       -0.010  -0.028   0.653   0.615
    4       -0.010  -0.028   0.653   0.615
    5       -0.018  -0.039   0.674   0.618
    6       -0.012  -0.030   0.650   0.608
    7       -0.013  -0.032   0.656   0.611
    8       -0.012  -0.030   0.650   0.608
    9       -0.014  -0.036   0.643   0.593
   10       -0.020  -0.047   0.701   0.634
   11       -0.020  -0.047   0.701   0.634
   12       -0.013  -0.032   0.656   0.611
   13        0.004  -0.018   2.745   2.731
   14        0.003  -0.020   2.745   2.728
   15        0.004  -0.018   2.745   2.731
   16        0.003  -0.020   2.745   2.728
--------------------------------------------------
tot         -0.159  -0.500  18.936  18.277
 
    CHARGE:  cpu time    0.8389: real time    0.8442
    FORLOC:  cpu time    0.0030: real time    0.0028
    FORNL :  cpu time    6.4920: real time    6.6073
    STRESS:  cpu time   19.0761: real time   19.1175
    FORCOR:  cpu time    0.0370: real time    0.0366
    FORHAR:  cpu time    0.0060: real time    0.0061
    OFIELD:  cpu time    0.0000: real time    0.0001

  FORCE on cell =-STRESS in cart. coord.  units (eV):
  Direction    XX          YY          ZZ          XY          YZ          ZX
  --------------------------------------------------------------------------------------
  Alpha Z   816.77351   816.77351   816.77351
  Ewald   -4530.18030 -4445.76929 -4483.52762    -2.13876    24.54309   -20.19634
  Hartree  1027.79643  1108.61477  1073.39189    -1.12956    23.21889   -20.62424
  E(xc)    -820.31299  -820.37758  -820.26763     0.03274    -0.06799     0.01895
  Local     205.40053    40.49111   114.25592     3.22284   -47.89697    41.62318
  n-local  -195.05515  -195.11471  -194.72213    -0.01994    -0.35789    -0.20456
  augment  2268.88507  2268.68498  2267.97372     0.17167     0.27031    -0.27978
  Kinetic  1225.39685  1225.23591  1224.76256    -0.16308     0.41659    -0.62582
  Fock        0.00000     0.00000     0.00000     0.00000     0.00000     0.00000
  -------------------------------------------------------------------------------------
  Total      -1.29606    -1.46131    -1.35980    -0.02408     0.12603    -0.28862
  in kB     -11.65268   -13.13843   -12.22575    -0.21650     1.13309    -2.59496
  external pressure =      -12.34 kB  Pullay stress =        0.00 kB


 VOLUME and BASIS-vectors are now :
 -----------------------------------------------------------------------------
  energy-cutoff  :      520.00
  volume of cell :      178.20
      direct lattice vectors                 reciprocal lattice vectors
     1.772500000  1.772500000 -3.545000000     0.070521862  0.070521862 -0.211565585
     0.000000000 -5.317500000 -1.772500000    -0.017630465 -0.158674189 -0.088152327
    -7.090000000  1.772500000 -1.772500000    -0.123413258  0.017630465 -0.052891396

  length of vectors
     4.341720569  5.605137153  7.520080618     0.233894555  0.182370953  0.135422175


 FORCES acting on ions
    electron-ion (+dipol)            ewald-force                    non-local-force                 convergence-correction
 -----------------------------------------------------------------------------------------------
   0.815E+02 -.879E+01 0.539E+02   -.816E+02 0.886E+01 -.541E+02   -.109E+00 -.168E-01 -.172E-01   0.282E+00 -.544E-01 0.157E+00
   0.869E+02 -.565E+01 0.228E+02   -.871E+02 0.565E+01 -.228E+02   -.664E-01 0.376E-01 -.116E+00   0.253E+00 -.344E-01 0.961E-01
   0.176E+02 -.480E+00 0.191E+02   -.177E+02 0.338E+00 -.191E+02   0.184E-03 0.341E-01 -.748E-01   0.655E-01 0.109E+00 0.887E-01
   -.176E+02 0.485E+00 -.191E+02   0.177E+02 -.335E+00 0.191E+02   -.467E-02 -.265E-01 0.710E-01   -.609E-01 -.125E+00 -.868E-01
   -.815E+02 0.882E+01 -.539E+02   0.817E+02 -.889E+01 0.541E+02   0.114E+00 0.130E-01 0.180E-01   -.292E+00 0.563E-01 -.162E+00
   0.749E+02 -.430E+01 0.234E+02   -.749E+02 0.425E+01 -.235E+02   -.220E+00 0.716E-01 -.320E-01   0.227E+00 -.125E-01 0.810E-01
   0.548E+02 -.244E+02 0.277E+02   -.549E+02 0.245E+02 -.278E+02   -.729E-01 0.205E-01 -.341E-03   0.182E+00 -.118E+00 0.333E-01
   -.749E+02 0.434E+01 -.234E+02   0.749E+02 -.427E+01 0.235E+02   0.228E+00 -.679E-01 0.342E-01   -.247E+00 -.285E-02 -.905E-01
   -.869E+02 0.561E+01 -.228E+02   0.871E+02 -.562E+01 0.228E+02   0.641E-01 -.336E-01 0.113E+00   -.250E+00 0.346E-01 -.851E-01
   -.309E+02 -.156E+02 0.920E+01   0.311E+02 0.157E+02 -.922E+01   -.612E-01 -.118E+00 0.508E-01   -.864E-01 -.447E-01 -.197E-01
   0.309E+02 0.156E+02 -.919E+01   -.311E+02 -.157E+02 0.921E+01   0.611E-01 0.113E+00 -.513E-01   0.942E-01 0.541E-01 0.266E-01
   -.548E+02 0.244E+02 -.277E+02   0.549E+02 -.245E+02 0.278E+02   0.820E-01 -.265E-01 -.206E-02   -.207E+00 0.138E+00 -.294E-01
   0.695E+02 -.256E+02 -.124E+02   -.697E+02 0.259E+02 0.126E+02   0.620E-01 -.258E+00 -.162E+00   0.169E+00 -.830E-01 -.978E-02
   0.795E+02 -.687E+01 0.563E+02   -.799E+02 0.680E+01 -.566E+02   0.224E+00 0.309E-01 0.205E+00   0.221E+00 0.341E-01 0.121E+00
   -.695E+02 0.256E+02 0.124E+02   0.697E+02 -.259E+02 -.126E+02   -.621E-01 0.259E+00 0.162E+00   -.162E+00 0.756E-01 0.111E-01
   -.795E+02 0.687E+01 -.563E+02   0.799E+02 -.681E+01 0.566E+02   -.224E+00 -.317E-01 -.204E+00   -.215E+00 -.299E-01 -.120E+00
 -----------------------------------------------------------------------------------------------
   0.119E-01 0.914E-03 -.227E-02   -.284E-13 0.355E-13 -.995E-13   0.149E-01 0.450E-03 -.622E-02   -.263E-01 -.229E-02 0.107E-01
 
 
 POSITION                                       TOTAL-FORCE (eV/Angst)
 -----------------------------------------------------------------------------------
     -5.31020     -1.76083     -3.59017         0.010662     -0.003926     -0.003278
     -3.56127      1.77678     -5.32116         0.010585      0.008885     -0.008718
     -3.53800     -3.55239     -3.54480         0.001925      0.001491     -0.007159
     -3.55199     -1.76513     -1.77272        -0.001677     -0.001788      0.007219
     -0.00737     -1.78416     -5.27234        -0.010569      0.004274      0.003471
     -3.52638     -1.77665     -5.32870        -0.016784      0.000540      0.003288
     -3.54985      0.00059     -3.53863        -0.004414     -0.004618     -0.007597
     -1.79109     -1.76831     -3.53374         0.016429     -0.000805     -0.003623
     -1.75621     -0.00431     -1.76887        -0.010273     -0.009253      0.008705
      0.01595     -1.76247     -1.79121        -0.013113      0.007242      0.007677
      1.75654      1.76245     -3.52626         0.012733     -0.006964     -0.007565
     -1.76767      1.77189     -3.55136         0.004424      0.004972      0.007732
     -5.24420     -0.02159     -5.36658        -0.009841     -0.001718     -0.001315
     -5.28938      1.77167     -3.51586        -0.001551     -0.003860     -0.012557
     -0.07325     -3.52341     -3.49589         0.010009      0.001803      0.001229
     -0.02811      0.00086     -3.57420         0.001454      0.003727      0.012492
 -----------------------------------------------------------------------------------
    total drift:                                0.000501     -0.000930      0.002178


--------------------------------------------------------------------------------------------------------



  FREE ENERGIE OF THE ION-ELECTRON SYSTEM (eV)
  ---------------------------------------------------
  free  energy   TOTEN  =       -99.26299334 eV

  energy  without entropy=      -99.26299334  energy(sigma->0) =      -99.26299334
 


--------------------------------------------------------------------------------------------------------


    POTLOK:  cpu time    0.0420: real time    0.0427


--------------------------------------------------------------------------------------------------------


     LOOP+:  cpu time  261.3563: real time  264.6603
    4ORBIT:  cpu time    0.0000: real time    0.0000
 


 total charge     
 
# of ion       s       p       d       tot
------------------------------------------
    1        0.507   0.508   8.324   9.339
    2        0.502   0.502   8.324   9.328
    3        0.492   0.485   8.313   9.290
    4        0.492   0.485   8.313   9.290
    5        0.507   0.508   8.324   9.339
    6        0.499   0.495   8.318   9.313
    7        0.498   0.494   8.318   9.311
    8        0.499   0.495   8.318   9.313
    9        0.502   0.502   8.324   9.328
   10        0.509   0.515   8.322   9.346
   11        0.509   0.515   8.322   9.346
   12        0.498   0.494   8.318   9.311
   13        0.475   0.509   6.170   7.154
   14        0.473   0.504   6.166   7.142
   15        0.475   0.509   6.170   7.154
   16        0.473   0.504   6.166   7.143
--------------------------------------------------
tot          7.912   8.025 124.510 140.447
 


 magnetization (x)
 
# of ion       s       p       d       tot
------------------------------------------
    1       -0.018  -0.039   0.674   0.618
    2       -0.014  -0.036   0.643   0.593
    3       -0.010  -0.028   0.653   0.615
    4       -0.010  -0.028   0.653   0.615
    5       -0.018  -0.039   0.674   0.618
    6       -0.012  -0.030   0.650   0.608
    7       -0.013  -0.032   0.656   0.611
    8       -0.012  -0.030   0.650   0.608
    9       -0.014  -0.036   0.643   0.593
   10       -0.020  -0.047   0.701   0.634
   11       -0.020  -0.047   0.701   0.634
   12       -0.013  -0.032   0.656   0.611
   13        0.004  -0.018   2.745   2.731
   14        0.003  -0.020   2.745   2.728
   15        0.004  -0.018   2.745   2.731
   16        0.003  -0.020   2.745   2.728
--------------------------------------------------
tot         -0.159  -0.500  18.936  18.277
 
 BZINTS: Fermi energy:  8.422968;152.000000 electrons
         Band energy: 917.653007;  BLOECHL correction: -0.060019

 total amount of memory used by VASP MPI-rank0   128255. kBytes
=======================================================================

   base      :      30000. kBytes
   nonlr-proj:       3737. kBytes
   fftplans  :       1226. kBytes
   grid      :       3048. kBytes
   one-center:         62. kBytes
   wavefun   :      90182. kBytes
 
  
  
 General timing and accounting informations for this job:
 ========================================================
  
                  Total CPU time used (sec):      284.562
                            User time (sec):      276.058
                          System time (sec):        8.504
                         Elapsed time (sec):      288.163
  
                   Maximum memory used (kb):      179860.
                   Average memory used (kb):           0.
  
                          Minor page faults:        23220
                          Major page faults:            0
                 Voluntary context switches:         1685
