SQS-NiFe                                
           1
     1.772500    1.772500   -3.545000
     0.000000   -5.317500   -1.772500
    -7.090000    1.772500   -1.772500
   Ni   Fe
  12   4
Direct configuration=     1
   0.26089384  0.68950155  0.81419434
   0.99992985  0.24993015  0.75227757
   0.24993165  0.93853124  0.56149491
   0.00007258  0.49897331  0.50100451
   0.98910417  0.74800006  0.24831606
   0.75339002  0.81381833  0.68572140
   0.49835085  0.37442955  0.62527246
   0.49660267  0.62367129  0.37677335
   0.25007658  0.18757614  0.31022108
   0.25579085  0.43727671  0.06169838
   0.99420130  0.00022474  0.00080070
   0.75164356  0.06307274  0.43722919
   0.76403065  0.56895930  0.93066932
   0.49575906  0.12206672  0.86997398
   0.48596729  0.86853597  0.13182357
   0.75425508  0.31543219  0.19252918
