       N       E                     dE             d eps       ncg     rms          rms(c)
DAV:   1    -0.441709436985E+03   -0.44171E+03   -0.15599E+03  8442   0.476E+01    0.814E+00
RMM:   2    -0.454754791558E+03   -0.13045E+02   -0.12792E+02  8164   0.235E+01    0.121E+01
RMM:   3    -0.457198742747E+03   -0.24440E+01   -0.10262E+01  8171   0.622E+00    0.214E+01
RMM:   4    -0.455823106128E+03    0.13756E+01   -0.14821E+00  8185   0.288E+00    0.148E+01
RMM:   5    -0.454710291923E+03    0.11128E+01   -0.56641E-01  8152   0.182E+00    0.403E+00
RMM:   6    -0.454837035762E+03   -0.12674E+00   -0.28383E-01  8119   0.129E+00    0.657E+00
RMM:   7    -0.454676511336E+03    0.16052E+00   -0.10289E-01  8099   0.870E-01    0.283E+00
RMM:   8    -0.454658741882E+03    0.17769E-01   -0.23025E-02  8120   0.383E-01    0.190E+00
RMM:   9    -0.454656548447E+03    0.21934E-02   -0.69403E-03  8181   0.190E-01    0.185E+00
RMM:  10    -0.454648784718E+03    0.77637E-02   -0.37437E-03  8096   0.155E-01    0.151E+00
RMM:  11    -0.454643667000E+03    0.51177E-02   -0.38170E-03  8120   0.153E-01    0.136E+00
RMM:  12    -0.454628726691E+03    0.14940E-01   -0.46466E-03  8107   0.170E-01    0.791E-01
RMM:  13    -0.454625406226E+03    0.33205E-02   -0.21022E-03  8085   0.115E-01    0.656E-01
RMM:  14    -0.454623815253E+03    0.15910E-02   -0.10308E-03  8113   0.831E-02    0.354E-01
RMM:  15    -0.454625359915E+03   -0.15447E-02   -0.65678E-04  8031   0.643E-02    0.307E-01
RMM:  16    -0.454631750700E+03   -0.63908E-02   -0.75427E-04  8083   0.642E-02    0.246E-01
RMM:  17    -0.454635329079E+03   -0.35784E-02   -0.37567E-04  8030   0.468E-02    0.168E-01
RMM:  18    -0.454645106070E+03   -0.97770E-02   -0.41261E-04  8011   0.368E-02    0.185E-01
RMM:  19    -0.454650054008E+03   -0.49479E-02   -0.24584E-04  7976   0.330E-02    0.123E-01
RMM:  20    -0.454657671506E+03   -0.76175E-02   -0.31108E-04  8008   0.282E-02    0.147E-01
RMM:  21    -0.454662602380E+03   -0.49309E-02   -0.22274E-04  7964   0.248E-02    0.871E-02
RMM:  22    -0.454667533229E+03   -0.49308E-02   -0.27541E-04  7988   0.260E-02    0.129E-01
RMM:  23    -0.454673013461E+03   -0.54802E-02   -0.43491E-04  8010   0.268E-02    0.574E-02
RMM:  24    -0.454674343668E+03   -0.13302E-02   -0.10753E-04  7248   0.165E-02    0.650E-02
RMM:  25    -0.454676821996E+03   -0.24783E-02   -0.23349E-04  7837   0.169E-02    0.423E-02
RMM:  26    -0.454677261089E+03   -0.43909E-03   -0.55378E-05  6050   0.111E-02    0.306E-02
RMM:  27    -0.454677679253E+03   -0.41816E-03   -0.68201E-05  6309   0.935E-03    0.254E-02
RMM:  28    -0.454677722523E+03   -0.43270E-04   -0.12904E-05  5051   0.667E-03    0.242E-02
RMM:  29    -0.454677751265E+03   -0.28743E-04   -0.94593E-06  4911   0.467E-03    0.218E-02
RMM:  30    -0.454677755210E+03   -0.39446E-05   -0.28397E-06  4447   0.418E-03
   1 F= -.47041198E+03 E0= -.47043586E+03  d E =-.470412E+03  mag=    84.0823
       N       E                     dE             d eps       ncg     rms          rms(c)
DAV:   1    -0.454676313086E+03    0.14382E-02   -0.45504E-01  8196   0.109E+00    0.334E-01
RMM:   2    -0.454682428043E+03   -0.61150E-02   -0.13896E-02  8209   0.296E-01    0.916E-01
RMM:   3    -0.454685385380E+03   -0.29573E-02   -0.44959E-03  8140   0.168E-01    0.116E+00
RMM:   4    -0.454680517494E+03    0.48679E-02   -0.34560E-03  8064   0.146E-01    0.697E-01
RMM:   5    -0.454678460393E+03    0.20571E-02   -0.14204E-03  8061   0.106E-01    0.213E-01
RMM:   6    -0.454678327257E+03    0.13314E-03   -0.23333E-04  7993   0.404E-02    0.109E-01
RMM:   7    -0.454678399006E+03   -0.71749E-04   -0.15140E-04  8015   0.305E-02    0.173E-01
RMM:   8    -0.454678255194E+03    0.14381E-03   -0.11126E-04  8011   0.287E-02    0.628E-02
RMM:   9    -0.454678297395E+03   -0.42201E-04   -0.12985E-04  7961   0.287E-02    0.127E-01
RMM:  10    -0.454678221824E+03    0.75571E-04   -0.61848E-05  7241   0.214E-02    0.530E-02
RMM:  11    -0.454678208952E+03    0.12872E-04   -0.13279E-05  4305   0.104E-02    0.165E-02
RMM:  12    -0.454678212231E+03   -0.32785E-05   -0.41677E-06  4183   0.540E-03
   2 F= -.47041367E+03 E0= -.47043757E+03  d E =-.169706E-02  mag=    84.0848
       N       E                     dE             d eps       ncg     rms          rms(c)
DAV:   1    -0.454675912829E+03    0.22961E-02   -0.38840E-01  8148   0.101E+00    0.310E-01
RMM:   2    -0.454682095081E+03   -0.61823E-02   -0.12111E-02  8206   0.276E-01    0.955E-01
RMM:   3    -0.454683118331E+03   -0.10233E-02   -0.38004E-03  8150   0.154E-01    0.103E+00
RMM:   4    -0.454679412850E+03    0.37055E-02   -0.31426E-03  8063   0.140E-01    0.642E-01
RMM:   5    -0.454677677075E+03    0.17358E-02   -0.12241E-03  8055   0.994E-02    0.213E-01
RMM:   6    -0.454677526437E+03    0.15064E-03   -0.20669E-04  7987   0.384E-02    0.101E-01
RMM:   7    -0.454677569078E+03   -0.42642E-04   -0.12916E-04  7984   0.282E-02    0.155E-01
RMM:   8    -0.454677442058E+03    0.12702E-03   -0.92021E-05  7995   0.262E-02    0.590E-02
RMM:   9    -0.454677481998E+03   -0.39939E-04   -0.10898E-04  7933   0.264E-02    0.118E-01
RMM:  10    -0.454677431524E+03    0.50474E-04   -0.51434E-05  7015   0.197E-02    0.499E-02
RMM:  11    -0.454677423341E+03    0.81833E-05   -0.11593E-05  4193   0.984E-03
   3 F= -.47041404E+03 E0= -.47043792E+03  d E =-.205942E-02  mag=    84.0858
       N       E                     dE             d eps       ncg     rms          rms(c)
DAV:   1    -0.454676055074E+03    0.13764E-02   -0.23959E-01  8175   0.779E-01    0.221E-01
RMM:   2    -0.454677983665E+03   -0.19286E-02   -0.81969E-03  8247   0.196E-01    0.473E-01
RMM:   3    -0.454680633581E+03   -0.26499E-02   -0.23090E-03  8126   0.121E-01    0.819E-01
RMM:   4    -0.454678117621E+03    0.25160E-02   -0.12668E-03  8078   0.862E-02    0.499E-01
RMM:   5    -0.454677016857E+03    0.11008E-02   -0.68405E-04  8036   0.720E-02    0.141E-01
RMM:   6    -0.454676961626E+03    0.55231E-04   -0.11536E-04  7948   0.275E-02    0.822E-02
RMM:   7    -0.454676980495E+03   -0.18869E-04   -0.74974E-05  7591   0.211E-02    0.121E-01
RMM:   8    -0.454676904522E+03    0.75973E-04   -0.57355E-05  7353   0.205E-02    0.536E-02
RMM:   9    -0.454676925502E+03   -0.20980E-04   -0.72918E-05  7691   0.212E-02    0.104E-01
RMM:  10    -0.454676874168E+03    0.51334E-04   -0.39018E-05  6224   0.175E-02    0.278E-02
RMM:  11    -0.454676884074E+03   -0.99063E-05   -0.11086E-05  4218   0.920E-03
   4 F= -.47041447E+03 E0= -.47043835E+03  d E =-.439110E-03  mag=    84.0893
       N       E                     dE             d eps       ncg     rms          rms(c)
DAV:   1    -0.454677098686E+03   -0.22452E-03   -0.96630E-03  8190   0.158E-01    0.447E-02
RMM:   2    -0.454677207294E+03   -0.10861E-03   -0.33407E-04  8213   0.401E-02    0.102E-01
RMM:   3    -0.454677314100E+03   -0.10681E-03   -0.98330E-05  7936   0.248E-02    0.162E-01
RMM:   4    -0.454677221097E+03    0.93003E-04   -0.52891E-05  7310   0.184E-02    0.973E-02
RMM:   5    -0.454677198298E+03    0.22799E-04   -0.24252E-05  4722   0.149E-02    0.288E-02
RMM:   6    -0.454677203188E+03   -0.48904E-05   -0.59973E-06  4211   0.707E-03
   5 F= -.47041460E+03 E0= -.47043847E+03  d E =-.562038E-03  mag=    84.0892
       N       E                     dE             d eps       ncg     rms          rms(c)
DAV:   1    -0.454676869973E+03    0.32832E-03   -0.47282E-02  8124   0.349E-01    0.112E-01
RMM:   2    -0.454677221082E+03   -0.35111E-03   -0.11477E-03  8190   0.836E-02    0.188E-01
RMM:   3    -0.454677528246E+03   -0.30716E-03   -0.63857E-04  8039   0.661E-02    0.314E-01
RMM:   4    -0.454677443017E+03    0.85229E-04   -0.25481E-04  7986   0.427E-02    0.254E-01
RMM:   5    -0.454677192142E+03    0.25087E-03   -0.10137E-04  7773   0.266E-02    0.109E-01
RMM:   6    -0.454677140124E+03    0.52019E-04   -0.31911E-05  5480   0.156E-02    0.350E-02
RMM:   7    -0.454677165633E+03   -0.25510E-04   -0.22550E-05  4764   0.131E-02    0.622E-02
RMM:   8    -0.454677164832E+03    0.80103E-06   -0.16264E-05  4452   0.134E-02
   6 F= -.47041504E+03 E0= -.47043892E+03  d E =-.438237E-03  mag=    84.0898
       N       E                     dE             d eps       ncg     rms          rms(c)
DAV:   1    -0.454674340662E+03    0.28250E-02   -0.41111E-01  8052   0.103E+00    0.330E-01
RMM:   2    -0.454677385538E+03   -0.30449E-02   -0.95639E-03  8199   0.243E-01    0.547E-01
RMM:   3    -0.454684656665E+03   -0.72711E-02   -0.45176E-03  8121   0.169E-01    0.123E+00
RMM:   4    -0.454679014493E+03    0.56422E-02   -0.23916E-03  8069   0.120E-01    0.796E-01
RMM:   5    -0.454676278571E+03    0.27359E-02   -0.14030E-03  8054   0.104E-01    0.209E-01
RMM:   6    -0.454676204651E+03    0.73920E-04   -0.31231E-04  7999   0.449E-02    0.146E-01
RMM:   7    -0.454676300790E+03   -0.96139E-04   -0.23635E-04  8024   0.387E-02    0.222E-01
RMM:   8    -0.454676105711E+03    0.19508E-03   -0.16829E-04  8013   0.360E-02    0.764E-02
RMM:   9    -0.454676114865E+03   -0.91541E-05   -0.10399E-04  7897   0.263E-02    0.998E-02
RMM:  10    -0.454676058757E+03    0.56108E-04   -0.42687E-05  6644   0.184E-02    0.479E-02
RMM:  11    -0.454676047306E+03    0.11451E-04   -0.14405E-05  4303   0.113E-02    0.192E-02
RMM:  12    -0.454676044414E+03    0.28919E-05   -0.40808E-06  4181   0.562E-03
   7 F= -.47041532E+03 E0= -.47043922E+03  d E =-.727111E-03  mag=    84.0941
       N       E                     dE             d eps       ncg     rms          rms(c)
DAV:   1    -0.454675487766E+03    0.55954E-03   -0.88240E-02  8112   0.478E-01    0.141E-01
RMM:   2    -0.454676011869E+03   -0.52410E-03   -0.24507E-03  8498   0.107E-01    0.180E-01
RMM:   3    -0.454676978460E+03   -0.96659E-03   -0.90225E-04  8057   0.764E-02    0.443E-01
RMM:   4    -0.454676489859E+03    0.48860E-03   -0.36504E-04  7991   0.487E-02    0.344E-01
RMM:   5    -0.454675917378E+03    0.57248E-03   -0.18411E-04  7951   0.366E-02    0.801E-02
RMM:   6    -0.454675909011E+03    0.83672E-05   -0.33346E-05  5602   0.151E-02
   8 F= -.47041569E+03 E0= -.47043959E+03  d E =-.366594E-03  mag=    84.0955
