       N       E                     dE             d eps       ncg     rms          rms(c)
DAV:   1     0.516219251107E+04    0.51622E+04   -0.28478E+05 33600   0.169E+03
DAV:   2     0.242198136234E+03   -0.49200E+04   -0.46503E+04 33600   0.382E+02
DAV:   3    -0.335962354381E+03   -0.57816E+03   -0.50386E+03 35415   0.165E+02
DAV:   4    -0.409568202162E+03   -0.73606E+02   -0.63887E+02 46302   0.463E+01
DAV:   5    -0.412785734683E+03   -0.32175E+01   -0.31801E+01 35538   0.103E+01
RMM:   6    -0.412853591919E+03   -0.67857E-01   -0.67828E-01 34928   0.139E+00
RMM:   7    -0.412872378830E+03   -0.18787E-01   -0.19399E-01 51443   0.446E-01
RMM:   8    -0.412872729171E+03   -0.35034E-03   -0.80934E-03 61645   0.873E-02
RMM:   9    -0.412873005708E+03   -0.27654E-03   -0.29988E-03 55215   0.316E-02
RMM:  10    -0.412873009230E+03   -0.35227E-05   -0.54677E-04 42211   0.954E-03
RMM:  11    -0.412873019412E+03   -0.10182E-04   -0.19673E-04 22613   0.460E-03
RMM:  12    -0.412873020157E+03   -0.74430E-06   -0.51030E-05 20660   0.287E-03
RMM:  13    -0.412873020373E+03   -0.21630E-06   -0.15164E-05 20020   0.192E-03
RMM:  14    -0.412873020496E+03   -0.12346E-06   -0.40629E-06 19434   0.128E-03
   1 F= -.42982078E+03 E0= -.42982078E+03  d E =0.000000E+00  mag=    74.1203
