 vasp.5.4.4.18Apr17-6-g9f103f2a35 (build Dec 15 2018 21:27:11) complex          
  
 executed on             LinuxIFC date 2022.03.12  19:09:20
 running on   72 total cores
 distrk:  each k-point on   72 cores,    1 groups
 distr:  one band on NCORES_PER_BAND=  24 cores,    3 groups


--------------------------------------------------------------------------------------------------------


 INCAR:
 POTCAR:    PAW_PBE Ni 02Aug2007                  
 POTCAR:    PAW_PBE Fe 06Sep2000                  
 POTCAR:    PAW_PBE O 08Apr2002                   
 POTCAR:    PAW_PBE H 15Jun2001                   

 ----------------------------------------------------------------------------- 
|                                                                             |
|           W    W    AA    RRRRR   N    N  II  N    N   GGGG   !!!           |
|           W    W   A  A   R    R  NN   N  II  NN   N  G    G  !!!           |
|           W    W  A    A  R    R  N N  N  II  N N  N  G       !!!           |
|           W WW W  AAAAAA  RRRRR   N  N N  II  N  N N  G  GGG   !            |
|           WW  WW  A    A  R   R   N   NN  II  N   NN  G    G                |
|           W    W  A    A  R    R  N    N  II  N    N   GGGG   !!!           |
|                                                                             |
|      For optimal performance we recommend to set                            |
|        NCORE= 4 - approx SQRT( number of cores)                             |
|      NCORE specifies how many cores store one orbital (NPAR=cpu/NCORE).     |
|      This setting can  greatly improve the performance of VASP for DFT.     |
|      The default,   NCORE=1            might be grossly inefficient         |
|      on modern multi-core architectures or massively parallel machines.     |
|      Do your own testing !!!!                                               |
|      Unfortunately you need to use the default for GW and RPA calculations. |
|      (for HF NCORE is supported but not extensively tested yet)             |
|                                                                             |
 ----------------------------------------------------------------------------- 

 POTCAR:    PAW_PBE Ni 02Aug2007                  
   VRHFIN =Ni:                                                                  
   LEXCH  = PE                                                                  
   EATOM  =  1077.6739 eV,   79.2068 Ry                                         
                                                                                
   TITEL  = PAW_PBE Ni 02Aug2007                                                
   LULTRA =        F    use ultrasoft PP ?                                      
   IUNSCR =        1    unscreen: 0-lin 1-nonlin 2-no                           
   RPACOR =    2.000    partial core radius                                     
   POMASS =   58.690; ZVAL   =   10.000    mass and valenz                      
   RCORE  =    2.300    outmost cutoff radius                                   
   RWIGS  =    2.430; RWIGS  =    1.286    wigner-seitz radius (au A)           
   ENMAX  =  269.532; ENMIN  =  202.149 eV                                      
   RCLOC  =    1.201    cutoff for local pot                                    
   LCOR   =        T    correct aug charges                                     
   LPAW   =        T    paw PP                                                  
   EAUG   =  544.565                                                            
   DEXC   =    0.000                                                            
   RMAX   =    2.357    core radius for proj-oper                               
   RAUG   =    1.300    factor for augmentation sphere                          
   RDEP   =    2.390    radius for radial grids                                 
   RDEPT  =    1.838    core radius for aug-charge                              
                                                                                
   Atomic configuration                                                         
    9 entries                                                                   
     n  l   j            E        occ.                                          
     1  0  0.50     -8206.4253   2.0000                                         
     2  0  0.50      -976.1748   2.0000                                         
     2  1  1.50      -839.0571   6.0000                                         
     3  0  0.50      -105.9991   2.0000                                         
     3  1  1.50       -66.4603   6.0000                                         
     3  2  2.50        -4.6458   9.0000                                         
     4  0  0.50        -4.4926   1.0000                                         
     4  1  1.50        -4.0817   0.0000                                         
     4  3  2.50        -1.3606   0.0000                                         
   Description                                                                  
     l       E           TYP  RCUT    TYP  RCUT                                 
     2     -4.6457903     23  2.300                                             
     2     -6.0063729     23  2.300                                             
     0     -4.4925590     23  2.300                                             
     0      5.0102601     23  2.300                                             
     1     -2.7211652     23  2.300                                             
     1     16.5183231     23  2.300                                             
  local pseudopotential read in
  partial core-charges read in
  partial kinetic energy density read in
  atomic valenz-charges read in
  non local Contribution for L=           2  read in
    real space projection operators read in
  non local Contribution for L=           2  read in
    real space projection operators read in
  non local Contribution for L=           0  read in
    real space projection operators read in
  non local Contribution for L=           0  read in
    real space projection operators read in
  non local Contribution for L=           1  read in
    real space projection operators read in
  non local Contribution for L=           1  read in
    real space projection operators read in
    PAW grid and wavefunctions read in
 
   number of l-projection  operators is LMAX  =           6
   number of lm-projection operators is LMMAX =          18
 
 POTCAR:    PAW_PBE Fe 06Sep2000                  
   VRHFIN =Fe:  d7 s1                                                           
   LEXCH  = PE                                                                  
   EATOM  =   594.3153 eV,   43.6809 Ry                                         
                                                                                
   TITEL  = PAW_PBE Fe 06Sep2000                                                
   LULTRA =        F    use ultrasoft PP ?                                      
   IUNSCR =        1    unscreen: 0-lin 1-nonlin 2-no                           
   RPACOR =    2.000    partial core radius                                     
   POMASS =   55.847; ZVAL   =    8.000    mass and valenz                      
   RCORE  =    2.300    outmost cutoff radius                                   
   RWIGS  =    2.460; RWIGS  =    1.302    wigner-seitz radius (au A)           
   ENMAX  =  267.882; ENMIN  =  200.911 eV                                      
   RCLOC  =    1.701    cutoff for local pot                                    
   LCOR   =        T    correct aug charges                                     
   LPAW   =        T    paw PP                                                  
   EAUG   =  511.368                                                            
   DEXC   =    0.000                                                            
   RMAX   =    2.356    core radius for proj-oper                               
   RAUG   =    1.300    factor for augmentation sphere                          
   RDEP   =    2.442    radius for radial grids                                 
   RDEPT  =    1.890    core radius for aug-charge                              
                                                                                
   Atomic configuration                                                         
    9 entries                                                                   
     n  l   j            E        occ.                                          
     1  0  0.50     -6993.8440   2.0000                                         
     2  0  0.50      -814.6047   2.0000                                         
     2  1  1.50      -693.3689   6.0000                                         
     3  0  0.50       -89.4732   2.0000                                         
     3  1  1.50       -55.6373   6.0000                                         
     3  2  2.50        -3.8151   7.0000                                         
     4  0  0.50        -4.2551   1.0000                                         
     4  1  1.50        -3.4015   0.0000                                         
     4  3  2.50        -1.3606   0.0000                                         
   Description                                                                  
     l       E           TYP  RCUT    TYP  RCUT                                 
     2     -3.8151135     23  2.300                                             
     2     -5.1756961     23  2.300                                             
     0     -4.2550963     23  2.300                                             
     0      7.2035603     23  2.300                                             
     1     -2.7211652     23  2.300                                             
     1     18.4316424     23  2.300                                             
  local pseudopotential read in
  partial core-charges read in
  partial kinetic energy density read in
  atomic valenz-charges read in
  non local Contribution for L=           2  read in
    real space projection operators read in
  non local Contribution for L=           2  read in
    real space projection operators read in
  non local Contribution for L=           0  read in
    real space projection operators read in
  non local Contribution for L=           0  read in
    real space projection operators read in
  non local Contribution for L=           1  read in
    real space projection operators read in
  non local Contribution for L=           1  read in
    real space projection operators read in
    PAW grid and wavefunctions read in
 
   number of l-projection  operators is LMAX  =           6
   number of lm-projection operators is LMMAX =          18
 
 POTCAR:    PAW_PBE O 08Apr2002                   
   VRHFIN =O: s2p4                                                              
   LEXCH  = PE                                                                  
   EATOM  =   432.3788 eV,   31.7789 Ry                                         
                                                                                
   TITEL  = PAW_PBE O 08Apr2002                                                 
   LULTRA =        F    use ultrasoft PP ?                                      
   IUNSCR =        1    unscreen: 0-lin 1-nonlin 2-no                           
   RPACOR =    1.200    partial core radius                                     
   POMASS =   16.000; ZVAL   =    6.000    mass and valenz                      
   RCORE  =    1.520    outmost cutoff radius                                   
   RWIGS  =    1.550; RWIGS  =    0.820    wigner-seitz radius (au A)           
   ENMAX  =  400.000; ENMIN  =  300.000 eV                                      
   ICORE  =        2    local potential                                         
   LCOR   =        T    correct aug charges                                     
   LPAW   =        T    paw PP                                                  
   EAUG   =  605.392                                                            
   DEXC   =    0.000                                                            
   RMAX   =    1.553    core radius for proj-oper                               
   RAUG   =    1.300    factor for augmentation sphere                          
   RDEP   =    1.550    radius for radial grids                                 
   RDEPT  =    1.329    core radius for aug-charge                              
                                                                                
   Atomic configuration                                                         
    4 entries                                                                   
     n  l   j            E        occ.                                          
     1  0  0.50      -514.6923   2.0000                                         
     2  0  0.50       -23.9615   2.0000                                         
     2  1  0.50        -9.0305   4.0000                                         
     3  2  1.50        -9.5241   0.0000                                         
   Description                                                                  
     l       E           TYP  RCUT    TYP  RCUT                                 
     0    -23.9615318     23  1.200                                             
     0     -9.5240782     23  1.200                                             
     1     -9.0304911     23  1.520                                             
     1      8.1634956     23  1.520                                             
     2     -9.5240782      7  1.500                                             
  local pseudopotential read in
  partial core-charges read in
  partial kinetic energy density read in
  kinetic energy density of atom read in
  atomic valenz-charges read in
  non local Contribution for L=           0  read in
    real space projection operators read in
  non local Contribution for L=           0  read in
    real space projection operators read in
  non local Contribution for L=           1  read in
    real space projection operators read in
  non local Contribution for L=           1  read in
    real space projection operators read in
    PAW grid and wavefunctions read in
 
   number of l-projection  operators is LMAX  =           4
   number of lm-projection operators is LMMAX =           8
 
 POTCAR:    PAW_PBE H 15Jun2001                   
   VRHFIN =H: ultrasoft test                                                    
   LEXCH  = PE                                                                  
   EATOM  =    12.4884 eV,    0.9179 Ry                                         
                                                                                
   TITEL  = PAW_PBE H 15Jun2001                                                 
   LULTRA =        F    use ultrasoft PP ?                                      
   IUNSCR =        0    unscreen: 0-lin 1-nonlin 2-no                           
   RPACOR =    0.000    partial core radius                                     
   POMASS =    1.000; ZVAL   =    1.000    mass and valenz                      
   RCORE  =    1.100    outmost cutoff radius                                   
   RWIGS  =    0.700; RWIGS  =    0.370    wigner-seitz radius (au A)           
   ENMAX  =  250.000; ENMIN  =  200.000 eV                                      
   RCLOC  =    0.701    cutoff for local pot                                    
   LCOR   =        T    correct aug charges                                     
   LPAW   =        T    paw PP                                                  
   EAUG   =  400.000                                                            
   RMAX   =    1.123    core radius for proj-oper                               
   RAUG   =    1.200    factor for augmentation sphere                          
   RDEP   =    1.112    radius for radial grids                                 
   RDEPT  =    0.926    core radius for aug-charge                              
                                                                                
   Atomic configuration                                                         
    2 entries                                                                   
     n  l   j            E        occ.                                          
     1  0  0.50        -6.4927   1.0000                                         
     2  1  0.50        -3.4015   0.0000                                         
   Description                                                                  
     l       E           TYP  RCUT    TYP  RCUT                                 
     0     -6.4927494     23  1.100                                             
     0      6.8029130     23  1.100                                             
     1     -4.0817478     23  1.100                                             
  local pseudopotential read in
  atomic valenz-charges read in
  non local Contribution for L=           0  read in
    real space projection operators read in
  non local Contribution for L=           0  read in
    real space projection operators read in
  non local Contribution for L=           1  read in
    real space projection operators read in
    PAW grid and wavefunctions read in
 
   number of l-projection  operators is LMAX  =           3
   number of lm-projection operators is LMMAX =           5
 
 Optimization of the real space projectors (new method)

 maximal supplied QI-value         = 16.25
 optimisation between [QCUT,QGAM] = [ 11.54, 23.24] = [ 37.28,151.24] Ry 
 Optimized for a Real-space Cutoff    1.45 Angstroem

   l    n(q)    QCUT    max X(q) W(low)/X(q) W(high)/X(q)  e(spline) 
   2      9    11.539    60.317    0.19E-03    0.47E-04    0.16E-06
   2      9    11.539    55.921    0.19E-03    0.48E-04    0.16E-06
   0     10    11.539    51.690    0.80E-04    0.50E-04    0.24E-06
   0     10    11.539    30.015    0.73E-04    0.45E-04    0.22E-06
   1     10    11.539    18.849    0.87E-04    0.16E-03    0.71E-07
   1     10    11.539    14.624    0.73E-04    0.13E-03    0.64E-07
 Optimization of the real space projectors (new method)

 maximal supplied QI-value         = 16.25
 optimisation between [QCUT,QGAM] = [ 11.54, 23.24] = [ 37.28,151.24] Ry 
 Optimized for a Real-space Cutoff    1.53 Angstroem

   l    n(q)    QCUT    max X(q) W(low)/X(q) W(high)/X(q)  e(spline) 
   2     10    11.539    80.901    0.11E-03    0.14E-03    0.21E-06
   2     10    11.539    75.754    0.11E-03    0.14E-03    0.22E-06
   0     11    11.539    58.752    0.52E-04    0.18E-04    0.33E-06
   0     11    11.539    30.679    0.44E-04    0.16E-04    0.30E-06
   1     10    11.539    17.977    0.53E-04    0.29E-04    0.13E-06
   1     10    11.539    13.559    0.44E-04    0.25E-04    0.11E-06
 Optimization of the real space projectors (new method)

 maximal supplied QI-value         = 24.76
 optimisation between [QCUT,QGAM] = [ 11.64, 23.27] = [ 37.91,151.63] Ry 
 Optimized for a Real-space Cutoff    1.14 Angstroem

   l    n(q)    QCUT    max X(q) W(low)/X(q) W(high)/X(q)  e(spline) 
   0      8    11.635    20.381    0.10E-03    0.33E-03    0.24E-06
   0      8    11.635    15.268    0.11E-03    0.35E-03    0.26E-06
   1      7    11.635     5.964    0.24E-03    0.31E-03    0.30E-06
   1      7    11.635     5.382    0.22E-03    0.25E-03    0.26E-06
 Optimization of the real space projectors (new method)

 maximal supplied QI-value         = 34.20
 optimisation between [QCUT,QGAM] = [ 11.63, 23.26] = [ 37.87,151.49] Ry 
 Optimized for a Real-space Cutoff    1.21 Angstroem

   l    n(q)    QCUT    max X(q) W(low)/X(q) W(high)/X(q)  e(spline) 
   0      8    11.629    19.460    0.17E-03    0.34E-03    0.21E-06
   0      8    11.629    12.209    0.16E-03    0.33E-03    0.21E-06
   1      8    11.629     4.655    0.18E-03    0.16E-03    0.26E-06
  PAW_PBE Ni 02Aug2007                  :
 energy of atom  1       EATOM=-1077.6739
 kinetic energy error for atom=    0.0030 (will be added to EATOM!!)
  PAW_PBE Fe 06Sep2000                  :
 energy of atom  2       EATOM= -594.3153
 kinetic energy error for atom=    0.0026 (will be added to EATOM!!)
  PAW_PBE O 08Apr2002                   :
 energy of atom  3       EATOM= -432.3788
 kinetic energy error for atom=    0.0208 (will be added to EATOM!!)
  PAW_PBE H 15Jun2001                   :
 energy of atom  4       EATOM=  -12.4884
 kinetic energy error for atom=    0.0014 (will be added to EATOM!!)
 
 
 POSCAR: POSCAR                                  
  positions in direct lattice
  velocities in cartesian coordinates
 exchange correlation table for  LEXCH =        8
   RHO(1)=    0.500       N(1)  =     2000
   RHO(2)=  100.500       N(2)  =     4000

 VTST: version 3.2, (02/03/18)

 CHAIN: initializing optimizer
 
 OPT: Using VASP Dynamics algorithm
 CHAIN: Read ICHAIN            0
 
 POSCAR: POSCAR                                  
  positions in direct lattice
  velocities in cartesian coordinates
 


--------------------------------------------------------------------------------------------------------


 ion  position               nearest neighbor table
   1  0.999  1.000  0.287-  18 2.48  41 2.48  50 2.48  49 2.48   8 2.48  47 2.49   5 2.49  33 2.50
                             2 2.50   4 2.50  26 2.51   6 2.53
   2  0.248  0.000  0.285-  11 2.45  44 2.45  51 2.45  50 2.47  26 2.50   1 2.50   9 2.50   6 2.51
                             3 2.51  41 2.52  27 2.52  43 2.55
   3  0.498  0.999  0.287-  14 2.46  43 2.46  51 2.46  64 2.46  17 2.47  45 2.48  27 2.50   4 2.51
                             9 2.51   2 2.51  30 2.52  12 2.53
   4  0.748  0.998  0.286-  16 2.43  48 2.45  17 2.46  18 2.48  30 2.49  64 2.50   1 2.50   3 2.51
                             5 2.51  33 2.53  47 2.53  12 2.53
   5  0.999  0.248  0.287-  60 2.43  16 2.43  18 2.47  22 2.48   1 2.49  52 2.51   6 2.51   4 2.51
                            21 2.51  12 2.51  19 2.51   8 2.53
   6  0.251  0.252  0.287-  11 2.41  56 2.47  52 2.48  22 2.49   9 2.50   2 2.51   5 2.51  50 2.51
                             1 2.53  53 2.53  55 2.55   8 2.55
   7  0.083  0.166  0.096-  50 2.47  15 2.50  40 2.50  18 2.50  54 2.50  10 2.50  46 2.51  22 2.51
                            20 2.51
   8  0.079  0.159  0.385-  67 1.85  47 2.43  41 2.44   1 2.48  11 2.50  16 2.50   5 2.53   6 2.55
                            55 2.56  21 2.57
   9  0.499  0.249  0.286-  11 2.44  59 2.44  56 2.45   6 2.50  51 2.50  53 2.50   2 2.50  12 2.51
                             3 2.51  14 2.53  25 2.53  23 2.54
  10  0.333  0.167  0.096-  13 2.50  56 2.50   7 2.50  24 2.51  40 2.51  42 2.51  50 2.51  54 2.52
                            51 2.52
  11  0.330  0.165  0.379-   6 2.41   9 2.44   2 2.45  41 2.48  25 2.48  55 2.49   8 2.50  43 2.52
                            14 2.52
  12  0.750  0.252  0.288-  16 2.43  59 2.44  60 2.46  58 2.48  17 2.50  23 2.50  19 2.51   9 2.51
                            14 2.51   5 2.51   3 2.53   4 2.53
  13  0.582  0.167  0.097-  51 2.48  24 2.49  42 2.50  17 2.50  10 2.50  63 2.52  59 2.52  57 2.52
                            15 2.53
  14  0.577  0.157  0.383-  65 1.84  43 2.41  64 2.42   3 2.46  12 2.51  16 2.52  11 2.52   9 2.53
                            25 2.58  58 2.58
  15  0.834  0.167  0.096-  20 2.49  60 2.49  18 2.49  46 2.49   7 2.50  17 2.51  63 2.51  57 2.53
                            13 2.53
  16  0.831  0.163  0.379-  12 2.43   4 2.43   5 2.43  47 2.48  64 2.50   8 2.50  58 2.51  21 2.51
                            14 2.52
  17  0.666  0.083  0.193-   4 2.46  60 2.47   3 2.47  51 2.48  59 2.49  13 2.50  12 2.50  45 2.50
                            48 2.51  15 2.51  63 2.51  18 2.52
  18  0.916  0.082  0.192-  50 2.46  60 2.47   5 2.47   1 2.48   4 2.48  46 2.48  15 2.49  49 2.50
                            48 2.50   7 2.50  22 2.51  17 2.52
  19  0.001  0.500  0.286-  60 2.47  29 2.47  52 2.49  27 2.49  39 2.49  21 2.50  12 2.51  23 2.51
                             5 2.51  61 2.52  26 2.52  58 2.53
  20  0.081  0.416  0.096-  61 2.48  15 2.49  57 2.49  22 2.50  54 2.51  28 2.51   7 2.51  31 2.52
                            60 2.53
  21  0.079  0.415  0.384-  67 1.85  58 2.44  29 2.45  19 2.50  32 2.51  16 2.51   5 2.51  52 2.51
                             8 2.57  55 2.57
  22  0.166  0.334  0.192-  52 2.47   5 2.48   6 2.49  60 2.49  54 2.49  36 2.50  20 2.50  50 2.50
                             7 2.51  18 2.51  56 2.52  61 2.54
  23  0.752  0.502  0.288-  33 2.46  53 2.47  59 2.47  26 2.49  38 2.49  12 2.50  39 2.51  19 2.51
                            58 2.52   9 2.54  62 2.55  25 2.56
  24  0.584  0.416  0.096-  13 2.49  62 2.49  57 2.50  10 2.51  56 2.51  34 2.51  37 2.52  54 2.53
                            59 2.54
  25  0.576  0.414  0.385-  65 1.88  55 2.42  53 2.45  35 2.46  11 2.48   9 2.53  38 2.53  23 2.56
                            14 2.58  58 2.60
  26  0.000  0.750  0.287-  49 2.46  33 2.47  44 2.48  23 2.49  39 2.50   2 2.50  27 2.50   1 2.51
                            41 2.51  29 2.51  19 2.52  38 2.55
  27  0.249  0.749  0.285-  45 2.45  32 2.46  61 2.46  44 2.46  19 2.49  29 2.50  26 2.50   3 2.50
                            52 2.52   2 2.52  30 2.53  43 2.53
  28  0.084  0.668  0.095-  61 2.47  39 2.50  40 2.50  37 2.50  31 2.50  42 2.50  57 2.51  44 2.51
                            20 2.51
  29  0.084  0.662  0.382-  66 1.85  21 2.45  19 2.47  32 2.47  58 2.49  27 2.50  26 2.51  38 2.54
                            43 2.54  41 2.58
  30  0.501  0.749  0.287-  32 2.44  48 2.46  45 2.47   4 2.49  36 2.49  64 2.49  53 2.50   3 2.52
                            52 2.52  27 2.53  35 2.53  33 2.53
  31  0.333  0.667  0.094-  61 2.47  42 2.50  54 2.50  28 2.50  63 2.50  34 2.51  36 2.52  45 2.52
                            20 2.52
  32  0.331  0.664  0.378-  52 2.41  30 2.44  27 2.46  29 2.47  35 2.48  21 2.51  64 2.51  43 2.51
                            55 2.52
  33  0.752  0.747  0.288-  23 2.46  53 2.47  26 2.47  49 2.48  62 2.48   1 2.50  48 2.51  38 2.51
                            47 2.53  30 2.53   4 2.53  35 2.56
  34  0.583  0.667  0.095-  62 2.47  36 2.50  63 2.50  46 2.51  31 2.51  37 2.51  54 2.51  24 2.51
                            48 2.53
  35  0.576  0.659  0.385-  68 1.87  55 2.44  53 2.44  25 2.46  32 2.48  30 2.53  38 2.54  33 2.56
                            64 2.56  47 2.60
  36  0.417  0.582  0.191-  54 2.47  30 2.49  22 2.50  34 2.50  62 2.50  45 2.51  56 2.51  48 2.51
                            61 2.51  52 2.52  31 2.52  53 2.55
  37  0.834  0.668  0.095-  62 2.47  40 2.50  57 2.50  39 2.50  28 2.50  46 2.51  49 2.51  34 2.51
                            24 2.52
  38  0.832  0.663  0.385-  69 1.81  23 2.49  58 2.51  33 2.51  47 2.53  25 2.53  29 2.54  41 2.54
                            35 2.54  26 2.55
  39  0.917  0.583  0.191-  19 2.49  57 2.49  26 2.50  28 2.50  37 2.50  61 2.50  49 2.51  23 2.51
                            59 2.51  62 2.51  44 2.51  60 2.56
  40  0.083  0.917  0.095-  50 2.49  44 2.49  37 2.50  28 2.50   7 2.50  10 2.51  49 2.51  46 2.51
                            42 2.52
  41  0.083  0.919  0.383-  66 1.85   8 2.44  47 2.47  11 2.48   1 2.48  26 2.51   2 2.52  38 2.54
                            43 2.55  29 2.58
  42  0.334  0.917  0.095-  51 2.48  13 2.50  63 2.50  31 2.50  44 2.50  28 2.50  10 2.51  45 2.51
                            40 2.52
  43  0.337  0.917  0.382-  66 1.83  14 2.41  64 2.44   3 2.46  32 2.51  11 2.52  27 2.53  29 2.54
                             2 2.55  41 2.55
  44  0.167  0.835  0.191-   2 2.45  27 2.46  51 2.47  26 2.48  61 2.49  49 2.49  40 2.49  42 2.50
                            50 2.50  28 2.51  39 2.51  45 2.53
  45  0.417  0.832  0.192-  27 2.45  61 2.47  51 2.47  30 2.47   3 2.48  48 2.49  63 2.50  17 2.50
                            36 2.51  42 2.51  31 2.52  44 2.53
  46  0.832  0.917  0.096-  18 2.48  48 2.49  15 2.49  63 2.50  49 2.50   7 2.51  34 2.51  37 2.51
                            40 2.51
  47  0.836  0.918  0.384-  68 1.86   8 2.43  41 2.47  16 2.48   1 2.49  33 2.53   4 2.53  38 2.53
                            64 2.57  35 2.60
  48  0.666  0.833  0.192-   4 2.45  30 2.46  62 2.47  45 2.49  46 2.49  18 2.50  63 2.50  17 2.51
                            33 2.51  36 2.51  49 2.52  34 2.53
  49  0.917  0.833  0.192-  62 2.46  26 2.46  50 2.47  33 2.48   1 2.48  44 2.49  18 2.50  46 2.50
                            39 2.51  40 2.51  37 2.51  48 2.52
  50  0.162  0.082  0.191-  18 2.46   2 2.47   7 2.47  49 2.47   1 2.48  40 2.49  44 2.50  22 2.50
                             6 2.51  10 2.51  56 2.53  51 2.57
  51  0.416  0.078  0.192-   2 2.45   3 2.46  44 2.47  45 2.47  42 2.48  17 2.48  13 2.48   9 2.50
                            10 2.52  59 2.54  56 2.54  50 2.57
  52  0.248  0.498  0.287-  32 2.41  22 2.47   6 2.48  19 2.49   5 2.51  21 2.51  36 2.52  27 2.52
                            30 2.52  61 2.55  53 2.56  55 2.57
  53  0.506  0.502  0.289-  35 2.44  25 2.45  33 2.47  23 2.47   9 2.50  30 2.50  56 2.53   6 2.53
                            62 2.55  55 2.55  36 2.55  52 2.56
  54  0.331  0.417  0.096-  36 2.47  22 2.49  31 2.50   7 2.50  20 2.51  34 2.51  10 2.52  56 2.53
                            24 2.53
  55  0.335  0.415  0.387-  67 1.84  25 2.42  35 2.44  11 2.49  32 2.52   6 2.55  53 2.55   8 2.56
                            21 2.57  52 2.57
  56  0.416  0.331  0.193-   9 2.45   6 2.47  10 2.50  24 2.51  36 2.51  59 2.51  22 2.52  50 2.53
                            54 2.53  53 2.53  51 2.54  62 2.56
  57  0.834  0.418  0.094-  20 2.49  39 2.49  24 2.50  37 2.50  28 2.51  13 2.52  15 2.53  59 2.56
                            60 2.59
  58  0.835  0.415  0.384-  65 1.83  21 2.44  12 2.48  29 2.49  16 2.51  38 2.51  23 2.52  19 2.53
                            14 2.58  25 2.60
  59  0.667  0.332  0.194-   9 2.44  12 2.44  23 2.47  17 2.49  60 2.51  39 2.51  56 2.51  13 2.52
                            51 2.54  24 2.54  57 2.56  62 2.57
  60  0.914  0.327  0.194-   5 2.43  12 2.46  19 2.47  18 2.47  17 2.47  22 2.49  15 2.49  59 2.51
                            20 2.53  39 2.56  57 2.59  61 2.59
  61  0.169  0.588  0.189-  27 2.46  45 2.47  28 2.47  31 2.47  20 2.48  44 2.49  39 2.50  36 2.51
                            19 2.52  22 2.54  52 2.55  60 2.59
  62  0.670  0.589  0.190-  49 2.46  48 2.47  37 2.47  34 2.47  33 2.48  24 2.49  36 2.50  39 2.51
                            53 2.55  23 2.55  56 2.56  59 2.57
  63  0.583  0.917  0.096-  46 2.50  45 2.50  42 2.50  48 2.50  31 2.50  34 2.50  17 2.51  15 2.51
                            13 2.52
  64  0.579  0.916  0.382-  68 1.81  14 2.42  43 2.44   3 2.46  30 2.49   4 2.50  16 2.50  32 2.51
                            35 2.56  47 2.57
  65  0.665  0.326  0.436-  58 1.83  14 1.84  25 1.88
  66  0.169  0.833  0.434-  43 1.83  29 1.85  41 1.85
  67  0.162  0.330  0.437-  55 1.84   8 1.85  21 1.85
  68  0.662  0.836  0.435-  64 1.81  47 1.86  35 1.87
  69  0.845  0.673  0.470-  70 0.98  38 1.81
  70  0.952  0.720  0.485-  69 0.98
 

IMPORTANT INFORMATION: All symmetrisations will be switched off!
NOSYMM: (Re-)initialisation of all symmetry stuff for point group C_1.

 
 

Automatic generation of k-mesh.
 generate k-points for:    4    4    2
Space group operators:
 irot       det(A)        alpha          n_x          n_y          n_z        tau_x        tau_y        tau_z
    1     1.000000     0.000000     1.000000     0.000000     0.000000     0.000000     0.000000     0.000000
 
 Subroutine IBZKPT returns following result:
 ===========================================
 
 Found     20 irreducible k-points:
 
 Following reciprocal coordinates:
            Coordinates               Weight
  0.000000  0.000000  0.000000      1.000000
  0.250000  0.000000  0.000000      2.000000
  0.500000  0.000000  0.000000      1.000000
  0.000000  0.250000  0.000000      2.000000
  0.250000  0.250000  0.000000      2.000000
  0.500000  0.250000  0.000000      2.000000
 -0.250000  0.250000  0.000000      2.000000
  0.000000  0.500000  0.000000      1.000000
  0.250000  0.500000  0.000000      2.000000
  0.500000  0.500000  0.000000      1.000000
  0.000000  0.000000  0.500000      1.000000
  0.250000  0.000000  0.500000      2.000000
  0.500000  0.000000  0.500000      1.000000
  0.000000  0.250000  0.500000      2.000000
  0.250000  0.250000  0.500000      2.000000
  0.500000  0.250000  0.500000      2.000000
 -0.250000  0.250000  0.500000      2.000000
  0.000000  0.500000  0.500000      1.000000
  0.250000  0.500000  0.500000      2.000000
  0.500000  0.500000  0.500000      1.000000
 
 Following cartesian coordinates:
            Coordinates               Weight
  0.000000  0.000000  0.000000      1.000000
  0.024933  0.014395  0.000000      2.000000
  0.049867  0.028790  0.000000      1.000000
  0.000000  0.028790  0.000000      2.000000
  0.024933  0.043186  0.000000      2.000000
  0.049867  0.057581  0.000000      2.000000
 -0.024933  0.014395  0.000000      2.000000
  0.000000  0.057581  0.000000      1.000000
  0.024933  0.071976  0.000000      2.000000
  0.049867  0.086371  0.000000      1.000000
  0.000000  0.000000  0.023597      1.000000
  0.024933  0.014395  0.023597      2.000000
  0.049867  0.028790  0.023597      1.000000
  0.000000  0.028790  0.023597      2.000000
  0.024933  0.043186  0.023597      2.000000
  0.049867  0.057581  0.023597      2.000000
 -0.024933  0.014395  0.023597      2.000000
  0.000000  0.057581  0.023597      1.000000
  0.024933  0.071976  0.023597      2.000000
  0.049867  0.086371  0.023597      1.000000
 
 TETIRR: Found     96 inequivalent tetrahedra from      192


--------------------------------------------------------------------------------------------------------




 Dimension of arrays:
   k-points           NKPTS =     20   k-points in BZ     NKDIM =     20   number of bands    NBANDS=    420
   number of dos      NEDOS =    301   number of ions     NIONS =     70
   non local maximal  LDIM  =      6   non local SUM 2l+1 LMDIM =     18
   total plane-waves  NPLWV = ******
   max r-space proj   IRMAX =   8439   max aug-charges    IRDMAX=  19969
   dimension x,y,z NGX =    80 NGY =   80 NGZ =  160
   dimension x,y,z NGXF=   160 NGYF=  160 NGZF=  320
   support grid    NGXF=   160 NGYF=  160 NGZF=  320
   ions per type =              49  15   5   1
   NGX,Y,Z   is equivalent  to a cutoff of  13.26, 13.26, 12.55 a.u.
   NGXF,Y,Z  is equivalent  to a cutoff of  26.53, 26.53, 25.11 a.u.

 SYSTEM =  SQS-NiFe                                
 POSCAR =  POSCAR                                  

 Startparameter for this run:
   NWRITE =      2    write-flag & timer
   PREC   = accura    normal or accurate (medium, high low for compatibility)
   ISTART =      0    job   : 0-new  1-cont  2-samecut
   ICHARG =     11    charge: 1-file 2-atom 10-const
   ISPIN  =      2    spin polarized calculation?
   LNONCOLLINEAR =      F non collinear calculations
   LSORBIT =      F    spin-orbit coupling
   INIWAV =      1    electr: 0-lowe 1-rand  2-diag
   LASPH  =      F    aspherical Exc in radial PAW
   METAGGA=      F    non-selfconsistent MetaGGA calc.

 Electronic Relaxation 1
   ENCUT  =  520.0 eV  38.22 Ry    6.18 a.u.  18.64 18.64 39.40*2*pi/ulx,y,z
   ENINI  =  520.0     initial cutoff
   ENAUG  =  605.4 eV  augmentation charge cutoff
   NELM   =    200;   NELMIN=  2; NELMDL=  0     # of ELM steps 
   EDIFF  = 0.1E-05   stopping-criterion for ELM
   LREAL  =      T    real-space projection
   NLSPLINE    = F    spline interpolate recip. space projectors
   LCOMPAT=      F    compatible to vasp.4.4
   GGA_COMPAT  = T    GGA compatible to vasp.4.4-vasp.4.6
   LMAXPAW     = -100 max onsite density
   LMAXMIX     =    2 max onsite mixed and CHGCAR
   VOSKOWN=      0    Vosko Wilk Nusair interpolation
   ROPT   =   -0.00025  -0.00025  -0.00025  -0.00025
 Ionic relaxation
   EDIFFG = -.2E-01   stopping-criterion for IOM
   NSW    =      0    number of steps for IOM
   NBLOCK =      1;   KBLOCK =      1    inner block; outer block 
   IBRION =     -1    ionic relax: 0-MD 1-quasi-New 2-CG
   NFREE  =      0    steps in history (QN), initial steepest desc. (CG)
   ISIF   =      2    stress and relaxation
   IWAVPR =     10    prediction:  0-non 1-charg 2-wave 3-comb
   ISYM   =      0    0-nonsym 1-usesym 2-fastsym
   LCORR  =      T    Harris-Foulkes like correction to forces

   POTIM  = 0.5000    time-step for ionic-motion
   TEIN   =    0.0    initial temperature
   TEBEG  =    0.0;   TEEND  =   0.0 temperature during run
   SMASS  =  -3.00    Nose mass-parameter (am)
   estimated Nose-frequenzy (Omega)   =  0.10E-29 period in steps =****** mass=  -0.230E-26a.u.
   SCALEE = 1.0000    scale energy and forces
   NPACO  =    256;   APACO  = 16.0  distance and # of slots for P.C.
   PSTRESS=    0.0 pullay stress

  Mass of Ions in am
   POMASS =  58.69 55.85 16.00  1.00
  Ionic Valenz
   ZVAL   =  10.00  8.00  6.00  1.00
  Atomic Wigner-Seitz radii
   RWIGS  =  -1.00 -1.00 -1.00 -1.00
  virtual crystal weights 
   VCA    =   1.00  1.00  1.00  1.00
   NELECT =     641.0000    total number of electrons
   NUPDOWN=      -1.0000    fix difference up-down

 DOS related values:
   EMIN   =  10.00;   EMAX   =-10.00  energy-range for DOS
   EFERMI =   0.00
   ISMEAR =    -5;   SIGMA  =   0.20  broadening in eV -4-tet -1-fermi 0-gaus

 Electronic relaxation 2 (details)
   IALGO  =     68    algorithm
   LDIAG  =      T    sub-space diagonalisation (order eigenvalues)
   LSUBROT=      F    optimize rotation matrix (better conditioning)
   TURBO    =      0    0=normal 1=particle mesh
   IRESTART =      0    0=no restart 2=restart with 2 vectors
   NREBOOT  =      0    no. of reboots
   NMIN     =      0    reboot dimension
   EREF     =   0.00    reference energy to select bands
   IMIX   =      4    mixing-type and parameters
     AMIX     =   0.40;   BMIX     =  1.00
     AMIX_MAG =   1.60;   BMIX_MAG =  1.00
     AMIN     =   0.10
     WC   =   100.;   INIMIX=   1;  MIXPRE=   1;  MAXMIX= -45

 Intra band minimization:
   WEIMIN = 0.0000     energy-eigenvalue tresh-hold
   EBREAK =  0.60E-09  absolut break condition
   DEPER  =   0.30     relativ break condition  

   TIME   =   0.40     timestep for ELM

  volume/ion in A,a.u.               =      26.36       177.85
  Fermi-wavevector in a.u.,A,eV,Ry     =   1.150903  2.174890 18.021959  1.324577
  Thomas-Fermi vector in A             =   2.287564
 
 Write flags
   LWAVE        =      F    write WAVECAR
   LDOWNSAMPLE  =      F    k-point downsampling of WAVECAR
   LCHARG       =      F    write CHGCAR
   LVTOT        =      F    write LOCPOT, total local potential
   LVHAR        =      F    write LOCPOT, Hartree potential only
   LELF         =      F    write electronic localiz. function (ELF)
   LORBIT       =     11    0 simple, 1 ext, 2 COOP (PROOUT), +10 PAW based schemes


 Dipole corrections
   LMONO  =      F    monopole corrections only (constant potential shift)
   LDIPOL =      T    correct potential (dipole corrections)
   IDIPOL =      3    1-x, 2-y, 3-z, 4-all directions 
   EPSILON=  1.0000000 bulk dielectric constant

 Exchange correlation treatment:
   GGA     =    --    GGA type
   LEXCH   =     8    internal setting for exchange type
   VOSKOWN=      0    Vosko Wilk Nusair interpolation
   LHFCALC =     F    Hartree Fock is set to
   LHFONE  =     F    Hartree Fock one center treatment
   AEXX    =    0.0000 exact exchange contribution

 Linear response parameters
   LEPSILON=     F    determine dielectric tensor
   LRPA    =     F    only Hartree local field effects (RPA)
   LNABLA  =     F    use nabla operator in PAW spheres
   LVEL    =     F    velocity operator in full k-point grid
   LINTERFAST=   F  fast interpolation
   KINTER  =     0    interpolate to denser k-point grid
   CSHIFT  =0.1000    complex shift for real part using Kramers Kronig
   OMEGAMAX=  -1.0    maximum frequency
   DEG_THRESHOLD= 0.2000000E-02 threshold for treating states as degnerate
   RTIME   =   -0.100 relaxation time in fs
  (WPLASMAI=    0.000 imaginary part of plasma frequency in eV, 0.658/RTIME)
   DFIELD  = 0.0000000 0.0000000 0.0000000 field for delta impulse in time
 
 Orbital magnetization related:
   ORBITALMAG=     F  switch on orbital magnetization
   LCHIMAG   =     F  perturbation theory with respect to B field
   DQ        =  0.001000  dq finite difference perturbation B field
   LLRAUG    =     F  two centre corrections for induced B field



--------------------------------------------------------------------------------------------------------


 Static calculation
 charge density and potential remain constant during run
 spin polarized calculation
 RMM-DIIS sequential band-by-band and
  variant of blocked Davidson during initial phase
 perform sub-space diagonalisation
    before iterative eigenvector-optimisation
 no mixing
 using additional bands           99
 real space projection scheme for non local part
 use partial core corrections
 calculate Harris-corrections to forces 
   (improved forces if not selfconsistent)
 use gradient corrections 
 WARNING: stress and forces are not correct
  (second derivative of E(xc) not defined)
 use of overlap-Matrix (Vanderbilt PP)
 Fermi weights with tetrahedron method with Bloechl corrections


--------------------------------------------------------------------------------------------------------


  energy-cutoff  :      520.00
  volume of cell :     1844.87
      direct lattice vectors                 reciprocal lattice vectors
    10.026770000  0.000000000  0.000000000     0.099733015  0.057580883  0.000000000
    -5.013385000  8.683437540  0.000000000     0.000000000  0.115161766  0.000000000
     0.000000000  0.000000000 21.189180000     0.000000000  0.000000000  0.047193898

  length of vectors
    10.026770000 10.026770002 21.189180000     0.115161766  0.115161766  0.047193898


 
 k-points in units of 2pi/SCALE and weight: read from INCAR                         
   0.00000000  0.00000000  0.00000000       0.031
   0.02493325  0.01439522  0.00000000       0.062
   0.04986651  0.02879044  0.00000000       0.031
   0.00000000  0.02879044  0.00000000       0.062
   0.02493325  0.04318566  0.00000000       0.062
   0.04986651  0.05758088  0.00000000       0.062
  -0.02493325  0.01439522  0.00000000       0.062
   0.00000000  0.05758088  0.00000000       0.031
   0.02493325  0.07197610  0.00000000       0.062
   0.04986651  0.08637132  0.00000000       0.031
   0.00000000  0.00000000  0.02359695       0.031
   0.02493325  0.01439522  0.02359695       0.062
   0.04986651  0.02879044  0.02359695       0.031
   0.00000000  0.02879044  0.02359695       0.062
   0.02493325  0.04318566  0.02359695       0.062
   0.04986651  0.05758088  0.02359695       0.062
  -0.02493325  0.01439522  0.02359695       0.062
   0.00000000  0.05758088  0.02359695       0.031
   0.02493325  0.07197610  0.02359695       0.062
   0.04986651  0.08637132  0.02359695       0.031
 
 k-points in reciprocal lattice and weights: read from INCAR                         
   0.00000000  0.00000000  0.00000000       0.031
   0.25000000  0.00000000  0.00000000       0.062
   0.50000000  0.00000000  0.00000000       0.031
   0.00000000  0.25000000  0.00000000       0.062
   0.25000000  0.25000000  0.00000000       0.062
   0.50000000  0.25000000  0.00000000       0.062
  -0.25000000  0.25000000  0.00000000       0.062
   0.00000000  0.50000000  0.00000000       0.031
   0.25000000  0.50000000  0.00000000       0.062
   0.50000000  0.50000000  0.00000000       0.031
   0.00000000  0.00000000  0.50000000       0.031
   0.25000000  0.00000000  0.50000000       0.062
   0.50000000  0.00000000  0.50000000       0.031
   0.00000000  0.25000000  0.50000000       0.062
   0.25000000  0.25000000  0.50000000       0.062
   0.50000000  0.25000000  0.50000000       0.062
  -0.25000000  0.25000000  0.50000000       0.062
   0.00000000  0.50000000  0.50000000       0.031
   0.25000000  0.50000000  0.50000000       0.062
   0.50000000  0.50000000  0.50000000       0.031
 
 position of ions in fractional coordinates (direct lattice) 
   0.99851852  0.99959365  0.28742433
   0.24842762  0.00022604  0.28500865
   0.49842892  0.99876059  0.28706395
   0.74782907  0.99768602  0.28642644
   0.99871924  0.24776725  0.28706706
   0.25096859  0.25156814  0.28730989
   0.08288200  0.16633200  0.09567600
   0.07873989  0.15936390  0.38463063
   0.49878036  0.24924371  0.28647167
   0.33293900  0.16685800  0.09574200
   0.33046378  0.16485405  0.37865449
   0.74998557  0.25152885  0.28822493
   0.58230700  0.16720100  0.09670300
   0.57749776  0.15716650  0.38316230
   0.83403200  0.16672400  0.09645100
   0.83103315  0.16270410  0.37908522
   0.66558100  0.08305500  0.19258300
   0.91639700  0.08203100  0.19204900
   0.00143502  0.49989083  0.28626947
   0.08092200  0.41609700  0.09594800
   0.07891662  0.41546014  0.38368591
   0.16611800  0.33395200  0.19207500
   0.75212340  0.50205142  0.28793602
   0.58357300  0.41617200  0.09593300
   0.57616917  0.41402715  0.38496290
   0.00004507  0.75042458  0.28655876
   0.24879629  0.74884812  0.28498446
   0.08375800  0.66810400  0.09479700
   0.08439557  0.66231043  0.38178876
   0.50051539  0.74857485  0.28654289
   0.33297400  0.66727700  0.09438800
   0.33113005  0.66362828  0.37839256
   0.75184383  0.74744827  0.28753720
   0.58298100  0.66668200  0.09450900
   0.57605041  0.65915369  0.38465865
   0.41661000  0.58200200  0.19081700
   0.83395900  0.66770600  0.09497900
   0.83193652  0.66344375  0.38532987
   0.91708300  0.58323900  0.19079400
   0.08291700  0.91685800  0.09518600
   0.08299445  0.91865092  0.38274877
   0.33420600  0.91705400  0.09538200
   0.33685893  0.91709377  0.38238213
   0.16670900  0.83524200  0.19136500
   0.41703500  0.83214900  0.19205900
   0.83233100  0.91715000  0.09633700
   0.83619500  0.91808644  0.38404879
   0.66623900  0.83337000  0.19234100
   0.91705900  0.83319500  0.19216200
   0.16168500  0.08211500  0.19130600
   0.41607500  0.07807100  0.19177300
   0.24847831  0.49770106  0.28747502
   0.50571855  0.50185969  0.28942692
   0.33134100  0.41714300  0.09577600
   0.33500228  0.41456808  0.38712690
   0.41638400  0.33144300  0.19252200
   0.83354800  0.41839000  0.09448800
   0.83528266  0.41459369  0.38422909
   0.66732400  0.33240600  0.19435500
   0.91446400  0.32695500  0.19396500
   0.16914200  0.58833400  0.18947800
   0.66961600  0.58928900  0.18986000
   0.58310400  0.91651500  0.09583500
   0.57948112  0.91634506  0.38190519
   0.66542375  0.32564532  0.43553919
   0.16913959  0.83266963  0.43431944
   0.16188297  0.32968293  0.43727390
   0.66246770  0.83625428  0.43524218
   0.84506298  0.67296976  0.47045247
   0.95164106  0.72032598  0.48546100
 
 position of ions in cartesian coordinates  (Angst):
   5.00056774  8.67990899  6.09028584
   2.48979344  0.00196278  6.03909962
  -0.00953921  8.67267516  6.08264964
   2.49652596  8.66334421  6.06914147
   8.77177552  2.15147146  6.08271554
   1.25519645  2.18447619  6.08786091
  -0.00284760  1.44433353  2.02729599
  -0.00944579  1.38382646  8.15000771
   3.75160131  2.16429215  6.07009973
   2.50177938  1.44890102  2.02869447
   2.48700755  1.43149980  8.02337809
   6.25892186  2.18413503  6.10724982
   5.00041537  1.45187944  2.04905727
   5.00250106  1.36474551  8.11889493
   7.52679544  1.44773744  2.04371760
   7.51687996  1.41283092  8.03250489
   6.25724091  0.72120290  4.08067585
   8.77724896  0.71231106  4.06936083
  -2.49175651  4.34077076  6.06581525
  -1.27466818  3.61315231  2.03305944
  -1.29158285  3.60762214  8.12998989
  -0.00860297  2.89985133  4.06991175
   5.02439128  4.35953218  6.10112822
   3.76492179  3.61380357  2.03274160
   3.70143831  3.59517886  8.15704828
  -3.76171542  6.51626494  6.07194517
  -1.25964076  6.50257587  6.03858695
  -2.50964037  5.80143935  2.00867070
  -2.47420215  5.75113123  8.08979074
   1.26565881  6.50020294  6.07160891
  -0.00666279  5.79425815  2.00000432
  -0.00685922  5.76257468  8.01782802
   3.79131920  6.49042034  6.09267739
   2.50308286  5.78909151  2.00256821
   2.47133369  5.72371994  8.15060128
   1.25945255  5.05377802  4.04325576
   5.01444784  5.79798335  2.01252713
   5.01553718  5.76097235  8.16482403
   6.27137866  5.06451943  4.04276841
  -3.76517246  7.96147918  2.01691329
  -3.77338447  7.97704792  8.11013248
  -1.24653807  7.96318113  2.02106637
  -1.22013711  7.96352649  8.10236374
  -2.51583691  7.25277174  4.05486743
   0.00963071  7.22591387  4.06957272
   3.74756545  7.96401474  2.04130203
   3.78161414  7.97214626  8.13767893
   2.50222056  7.23651634  4.07554807
   5.01801235  7.23499674  4.07175521
   1.20950420  0.71304047  4.05361727
   3.78048835  0.67792465  4.06351262
  -0.00373217  4.32175608  6.09135994
   2.55470776  4.35786728  6.13271920
   1.23098154  3.62223519  2.02941490
   1.28060138  3.59987607  8.20290147
   2.51333524  2.87806459  4.07938331
   6.26024393  3.63306343  2.00212324
   6.29666934  3.60009841  8.14149928
   5.02462501  2.88642674  4.11822308
   7.52996891  2.83909332  4.10995930
  -1.25359692  5.10876154  4.01488345
   3.75975299  5.11705422  4.02297771
   1.25180714  7.95850076  2.03066507
   1.21633327  7.95702513  8.09225778
   5.03946549  2.82772081  9.22871835
  -2.47856964  7.23043475  9.20287271
  -0.02966420  2.86278115  9.26547527
   2.44994663  7.26156181  9.22242491
   5.09939567  5.84369090  9.96850196
   5.93061451  6.25490569 10.28652042
 


--------------------------------------------------------------------------------------------------------


 k-point  1 :   0.0000 0.0000 0.0000  plane waves:   49741
 k-point  2 :   0.2500 0.0000 0.0000  plane waves:   49710
 k-point  3 :   0.5000 0.0000 0.0000  plane waves:   49654
 k-point  4 :   0.0000 0.2500 0.0000  plane waves:   49710
 k-point  5 :   0.2500 0.2500 0.0000  plane waves:   49671
 k-point  6 :   0.5000 0.2500 0.0000  plane waves:   49671
 k-point  7 :  -0.2500 0.2500 0.0000  plane waves:   49710
 k-point  8 :   0.0000 0.5000 0.0000  plane waves:   49654
 k-point  9 :   0.2500 0.5000 0.0000  plane waves:   49671
 k-point 10 :   0.5000 0.5000 0.0000  plane waves:   49654
 k-point 11 :   0.0000 0.0000 0.5000  plane waves:   49782
 k-point 12 :   0.2500 0.0000 0.5000  plane waves:   49684
 k-point 13 :   0.5000 0.0000 0.5000  plane waves:   49664
 k-point 14 :   0.0000 0.2500 0.5000  plane waves:   49684
 k-point 15 :   0.2500 0.2500 0.5000  plane waves:   49684
 k-point 16 :   0.5000 0.2500 0.5000  plane waves:   49684
 k-point 17 :  -0.2500 0.2500 0.5000  plane waves:   49684
 k-point 18 :   0.0000 0.5000 0.5000  plane waves:   49664
 k-point 19 :   0.2500 0.5000 0.5000  plane waves:   49684
 k-point 20 :   0.5000 0.5000 0.5000  plane waves:   49664

 maximum and minimum number of plane-waves per node :      2119     2042

 maximum number of plane-waves:     49782
 maximum index in each direction: 
   IXMAX=   18   IYMAX=   18   IZMAX=   39
   IXMIN=  -19   IYMIN=  -19   IZMIN=  -39


 real space projection operators:
  total allocation   :      65322.00 KBytes
  max/ min on nodes  :       3295.28       2406.45


 parallel 3D FFT for wavefunctions:
    minimum data exchange during FFTs selected (reduces bandwidth)
 parallel 3D FFT for charge:
    minimum data exchange during FFTs selected (reduces bandwidth)


 total amount of memory used by VASP MPI-rank0   260576. kBytes
=======================================================================

   base      :      30000. kBytes
   nonlr-proj:      14036. kBytes
   fftplans  :       6403. kBytes
   grid      :      18928. kBytes
   one-center:         93. kBytes
   wavefun   :     191116. kBytes
 
     INWAV:  cpu time    0.0008: real time    0.0002
 initial charge density was supplied:
 number of electron     641.0000049 magnetization      74.1202577
 keeping initial charge density in first step


--------------------------------------------------------------------------------------------------------


 Maximum index for non-local projection operator          764
 Maximum index for augmentation-charges         1117 (set IRDMAX)


--------------------------------------------------------------------------------------------------------


 First call to EWALD:  gamma=   0.145
 Maximum number of real-space cells 4x 4x 2
 Maximum number of reciprocal cells 2x 2x 4

    FEWALD:  cpu time    0.0111: real time    0.0111


--------------------------------------- Iteration      1(   1)  ---------------------------------------


    POTLOK:  cpu time    0.4145: real time    0.4765
    SETDIJ:  cpu time    0.0250: real time    0.0261
     EDDAV:  cpu time  157.2497: real time  157.3826
 BZINTS: Fermi energy: 12.223893;641.000000 electrons
         Band energy:4050.439949;  BLOECHL correction: -0.013991
       DOS:  cpu time    0.2321: real time    0.2321
    --------------------------------------------
      LOOP:  cpu time  157.9215: real time  158.1173

 eigenvalue-minimisations  : 33600
 total energy-change (2. order) : 0.5162193E+04  (-0.2847837E+05)
 number of electron     641.0000049 magnetization      74.1202577
 augmentation part      641.0000049 magnetization      74.1202577

 DIPCOR: dipole corrections for dipol
 direction  3 min pos   239,
 dipolmoment           0.000000      0.000000      0.432606 electrons x Angstroem
 Tr[quadrupol]    -10403.861407

 energy correction for charged system         0.000000 eV
 dipol+quadrupol energy correction           -0.009179 eV
 added-field ion interaction         -3.561616 eV  (added to PSCEN)


 Free energy of the ion-electron system (eV)
  ---------------------------------------------------
  alpha Z        PSCENC =      1356.02708450
  Ewald energy   TEWEN  =    221787.86320486
  -Hartree energ DENC   =   -284132.57682350
  -exchange      EXHF   =         0.00000000
  -V(xc)+E(xc)   XCENC  =      1712.28581618
  PAW double counting   =     68571.19471167   -72077.88359676
  entropy T*S    EENTRO =         0.00000000
  eigenvalues    EBANDS =      4050.43994935
  atomic energy  EATOM  =     63894.84216477
  Solvation  Ediel_sol  =         0.00000000
  ---------------------------------------------------
  free energy    TOTEN  =      5162.19251107 eV

  energy without entropy =     5162.19251107  energy(sigma->0) =     5162.19251107


--------------------------------------------------------------------------------------------------------




--------------------------------------- Iteration      1(   2)  ---------------------------------------


     EDDAV:  cpu time  157.7790: real time  157.8575
 BZINTS: Fermi energy:  1.854339;641.000000 electrons
         Band energy:-869.554425;  BLOECHL correction: -0.016045
       DOS:  cpu time    0.2489: real time    0.2489
    --------------------------------------------
      LOOP:  cpu time  158.0278: real time  158.1064

 eigenvalue-minimisations  : 33600
 total energy-change (2. order) :-0.4919994E+04  (-0.4650349E+04)
 number of electron     641.0000049 magnetization      74.1202577
 augmentation part      641.0000049 magnetization      74.1202577

 DIPCOR: dipole corrections for dipol
 direction  3 min pos   239,
 dipolmoment           0.000000      0.000000      0.432606 electrons x Angstroem
 Tr[quadrupol]    -10403.861407

 energy correction for charged system         0.000000 eV
 dipol+quadrupol energy correction           -0.009179 eV
 added-field ion interaction         -3.561616 eV  (added to PSCEN)


 Free energy of the ion-electron system (eV)
  ---------------------------------------------------
  alpha Z        PSCENC =      1356.02708450
  Ewald energy   TEWEN  =    221787.86320486
  -Hartree energ DENC   =   -284132.57682350
  -exchange      EXHF   =         0.00000000
  -V(xc)+E(xc)   XCENC  =      1712.28581618
  PAW double counting   =     68571.19471167   -72077.88359676
  entropy T*S    EENTRO =         0.00000000
  eigenvalues    EBANDS =      -869.55442549
  atomic energy  EATOM  =     63894.84216477
  Solvation  Ediel_sol  =         0.00000000
  ---------------------------------------------------
  free energy    TOTEN  =       242.19813623 eV

  energy without entropy =      242.19813623  energy(sigma->0) =      242.19813623


--------------------------------------------------------------------------------------------------------




--------------------------------------- Iteration      1(   3)  ---------------------------------------


     EDDAV:  cpu time  164.2569: real time  164.3405
 BZINTS: Fermi energy:  0.410097;641.000000 electrons
         Band energy:***********;  BLOECHL correction: -0.013975
       DOS:  cpu time    0.2415: real time    0.2415
    --------------------------------------------
      LOOP:  cpu time  164.4984: real time  164.5820

 eigenvalue-minimisations  : 35415
 total energy-change (2. order) :-0.5781605E+03  (-0.5038637E+03)
 number of electron     641.0000049 magnetization      74.1202577
 augmentation part      641.0000049 magnetization      74.1202577

 DIPCOR: dipole corrections for dipol
 direction  3 min pos   239,
 dipolmoment           0.000000      0.000000      0.432606 electrons x Angstroem
 Tr[quadrupol]    -10403.861407

 energy correction for charged system         0.000000 eV
 dipol+quadrupol energy correction           -0.009179 eV
 added-field ion interaction         -3.561616 eV  (added to PSCEN)


 Free energy of the ion-electron system (eV)
  ---------------------------------------------------
  alpha Z        PSCENC =      1356.02708450
  Ewald energy   TEWEN  =    221787.86320486
  -Hartree energ DENC   =   -284132.57682350
  -exchange      EXHF   =         0.00000000
  -V(xc)+E(xc)   XCENC  =      1712.28581618
  PAW double counting   =     68571.19471167   -72077.88359676
  entropy T*S    EENTRO =         0.00000000
  eigenvalues    EBANDS =     -1447.71491610
  atomic energy  EATOM  =     63894.84216477
  Solvation  Ediel_sol  =         0.00000000
  ---------------------------------------------------
  free energy    TOTEN  =      -335.96235438 eV

  energy without entropy =     -335.96235438  energy(sigma->0) =     -335.96235438


--------------------------------------------------------------------------------------------------------




--------------------------------------- Iteration      1(   4)  ---------------------------------------


     EDDAV:  cpu time  202.4972: real time  202.5784
 BZINTS: Fermi energy:  0.253715;641.000000 electrons
         Band energy:***********;  BLOECHL correction: -0.027422
       DOS:  cpu time    0.2244: real time    0.2244
    --------------------------------------------
      LOOP:  cpu time  202.7215: real time  202.8028

 eigenvalue-minimisations  : 46302
 total energy-change (2. order) :-0.7360585E+02  (-0.6388720E+02)
 number of electron     641.0000049 magnetization      74.1202577
 augmentation part      641.0000049 magnetization      74.1202577

 DIPCOR: dipole corrections for dipol
 direction  3 min pos   239,
 dipolmoment           0.000000      0.000000      0.432606 electrons x Angstroem
 Tr[quadrupol]    -10403.861407

 energy correction for charged system         0.000000 eV
 dipol+quadrupol energy correction           -0.009179 eV
 added-field ion interaction         -3.561616 eV  (added to PSCEN)


 Free energy of the ion-electron system (eV)
  ---------------------------------------------------
  alpha Z        PSCENC =      1356.02708450
  Ewald energy   TEWEN  =    221787.86320486
  -Hartree energ DENC   =   -284132.57682350
  -exchange      EXHF   =         0.00000000
  -V(xc)+E(xc)   XCENC  =      1712.28581618
  PAW double counting   =     68571.19471167   -72077.88359676
  entropy T*S    EENTRO =         0.00000000
  eigenvalues    EBANDS =     -1521.32076389
  atomic energy  EATOM  =     63894.84216477
  Solvation  Ediel_sol  =         0.00000000
  ---------------------------------------------------
  free energy    TOTEN  =      -409.56820216 eV

  energy without entropy =     -409.56820216  energy(sigma->0) =     -409.56820216


--------------------------------------------------------------------------------------------------------




--------------------------------------- Iteration      1(   5)  ---------------------------------------


     EDDAV:  cpu time  164.7659: real time  164.8257
 BZINTS: Fermi energy:  0.247119;641.000000 electrons
         Band energy:***********;  BLOECHL correction: -0.033095
       DOS:  cpu time    0.2321: real time    0.2322
    --------------------------------------------
      LOOP:  cpu time  164.9980: real time  165.0579

 eigenvalue-minimisations  : 35538
 total energy-change (2. order) :-0.3217533E+01  (-0.3180065E+01)
 number of electron     641.0000049 magnetization      74.1202577
 augmentation part      641.0000049 magnetization      74.1202577

 DIPCOR: dipole corrections for dipol
 direction  3 min pos   239,
 dipolmoment           0.000000      0.000000      0.432606 electrons x Angstroem
 Tr[quadrupol]    -10403.861407

 energy correction for charged system         0.000000 eV
 dipol+quadrupol energy correction           -0.009179 eV
 added-field ion interaction         -3.561616 eV  (added to PSCEN)


 Free energy of the ion-electron system (eV)
  ---------------------------------------------------
  alpha Z        PSCENC =      1356.02708450
  Ewald energy   TEWEN  =    221787.86320486
  -Hartree energ DENC   =   -284132.57682350
  -exchange      EXHF   =         0.00000000
  -V(xc)+E(xc)   XCENC  =      1712.28581618
  PAW double counting   =     68571.19471167   -72077.88359676
  entropy T*S    EENTRO =         0.00000000
  eigenvalues    EBANDS =     -1524.53829641
  atomic energy  EATOM  =     63894.84216477
  Solvation  Ediel_sol  =         0.00000000
  ---------------------------------------------------
  free energy    TOTEN  =      -412.78573468 eV

  energy without entropy =     -412.78573468  energy(sigma->0) =     -412.78573468


--------------------------------------------------------------------------------------------------------




--------------------------------------- Iteration      1(   6)  ---------------------------------------


    EDDIAG:  cpu time   23.2978: real time   23.3135
  RMM-DIIS:  cpu time   84.4024: real time   84.4293
    ORTHCH:  cpu time    6.6123: real time    6.6139
 BZINTS: Fermi energy:  0.247005;641.000000 electrons
         Band energy:***********;  BLOECHL correction: -0.033188
       DOS:  cpu time    0.2367: real time    0.2368
    --------------------------------------------
      LOOP:  cpu time  114.5492: real time  114.5935

 eigenvalue-minimisations  : 34928
 total energy-change (2. order) :-0.6785724E-01  (-0.6782813E-01)
 number of electron     641.0000049 magnetization      74.1202577
 augmentation part      641.0000049 magnetization      74.1202577

 DIPCOR: dipole corrections for dipol
 direction  3 min pos   239,
 dipolmoment           0.000000      0.000000      0.432606 electrons x Angstroem
 Tr[quadrupol]    -10403.861407

 energy correction for charged system         0.000000 eV
 dipol+quadrupol energy correction           -0.009179 eV
 added-field ion interaction         -3.561616 eV  (added to PSCEN)


 Free energy of the ion-electron system (eV)
  ---------------------------------------------------
  alpha Z        PSCENC =      1356.02708450
  Ewald energy   TEWEN  =    221787.86320486
  -Hartree energ DENC   =   -284132.57682350
  -exchange      EXHF   =         0.00000000
  -V(xc)+E(xc)   XCENC  =      1712.28581618
  PAW double counting   =     68571.19471167   -72077.88359676
  entropy T*S    EENTRO =         0.00000000
  eigenvalues    EBANDS =     -1524.60615364
  atomic energy  EATOM  =     63894.84216477
  Solvation  Ediel_sol  =         0.00000000
  ---------------------------------------------------
  free energy    TOTEN  =      -412.85359192 eV

  energy without entropy =     -412.85359192  energy(sigma->0) =     -412.85359192


--------------------------------------------------------------------------------------------------------




--------------------------------------- Iteration      1(   7)  ---------------------------------------


    EDDIAG:  cpu time   23.2193: real time   23.2376
  RMM-DIIS:  cpu time  121.6454: real time  121.6887
    ORTHCH:  cpu time    6.6200: real time    6.6216
 BZINTS: Fermi energy:  0.246997;641.000000 electrons
         Band energy:***********;  BLOECHL correction: -0.033194
       DOS:  cpu time    0.2385: real time    0.2385
    --------------------------------------------
      LOOP:  cpu time  151.7232: real time  151.7864

 eigenvalue-minimisations  : 51443
 total energy-change (2. order) :-0.1878691E-01  (-0.1939894E-01)
 number of electron     641.0000049 magnetization      74.1202577
 augmentation part      641.0000049 magnetization      74.1202577

 DIPCOR: dipole corrections for dipol
 direction  3 min pos   239,
 dipolmoment           0.000000      0.000000      0.432606 electrons x Angstroem
 Tr[quadrupol]    -10403.861407

 energy correction for charged system         0.000000 eV
 dipol+quadrupol energy correction           -0.009179 eV
 added-field ion interaction         -3.561616 eV  (added to PSCEN)


 Free energy of the ion-electron system (eV)
  ---------------------------------------------------
  alpha Z        PSCENC =      1356.02708450
  Ewald energy   TEWEN  =    221787.86320486
  -Hartree energ DENC   =   -284132.57682350
  -exchange      EXHF   =         0.00000000
  -V(xc)+E(xc)   XCENC  =      1712.28581618
  PAW double counting   =     68571.19471167   -72077.88359676
  entropy T*S    EENTRO =         0.00000000
  eigenvalues    EBANDS =     -1524.62494055
  atomic energy  EATOM  =     63894.84216477
  Solvation  Ediel_sol  =         0.00000000
  ---------------------------------------------------
  free energy    TOTEN  =      -412.87237883 eV

  energy without entropy =     -412.87237883  energy(sigma->0) =     -412.87237883


--------------------------------------------------------------------------------------------------------




--------------------------------------- Iteration      1(   8)  ---------------------------------------


    EDDIAG:  cpu time   23.2242: real time   23.2399
  RMM-DIIS:  cpu time  145.5678: real time  145.6198
    ORTHCH:  cpu time    6.6045: real time    6.6061
 BZINTS: Fermi energy:  0.246999;641.000000 electrons
         Band energy:***********;  BLOECHL correction: -0.033194
       DOS:  cpu time    0.2376: real time    0.2377
    --------------------------------------------
      LOOP:  cpu time  175.6340: real time  175.7034

 eigenvalue-minimisations  : 61645
 total energy-change (2. order) :-0.3503410E-03  (-0.8093440E-03)
 number of electron     641.0000049 magnetization      74.1202577
 augmentation part      641.0000049 magnetization      74.1202577

 DIPCOR: dipole corrections for dipol
 direction  3 min pos   239,
 dipolmoment           0.000000      0.000000      0.432606 electrons x Angstroem
 Tr[quadrupol]    -10403.861407

 energy correction for charged system         0.000000 eV
 dipol+quadrupol energy correction           -0.009179 eV
 added-field ion interaction         -3.561616 eV  (added to PSCEN)


 Free energy of the ion-electron system (eV)
  ---------------------------------------------------
  alpha Z        PSCENC =      1356.02708450
  Ewald energy   TEWEN  =    221787.86320486
  -Hartree energ DENC   =   -284132.57682350
  -exchange      EXHF   =         0.00000000
  -V(xc)+E(xc)   XCENC  =      1712.28581618
  PAW double counting   =     68571.19471167   -72077.88359676
  entropy T*S    EENTRO =         0.00000000
  eigenvalues    EBANDS =     -1524.62529089
  atomic energy  EATOM  =     63894.84216477
  Solvation  Ediel_sol  =         0.00000000
  ---------------------------------------------------
  free energy    TOTEN  =      -412.87272917 eV

  energy without entropy =     -412.87272917  energy(sigma->0) =     -412.87272917


--------------------------------------------------------------------------------------------------------




--------------------------------------- Iteration      1(   9)  ---------------------------------------


    EDDIAG:  cpu time   23.2314: real time   23.2488
  RMM-DIIS:  cpu time  130.8349: real time  130.8809
    ORTHCH:  cpu time    6.6111: real time    6.6126
 BZINTS: Fermi energy:  0.246998;641.000000 electrons
         Band energy:***********;  BLOECHL correction: -0.033194
       DOS:  cpu time    0.2107: real time    0.2108
    --------------------------------------------
      LOOP:  cpu time  160.8881: real time  160.9531

 eigenvalue-minimisations  : 55215
 total energy-change (2. order) :-0.2765370E-03  (-0.2998812E-03)
 number of electron     641.0000049 magnetization      74.1202577
 augmentation part      641.0000049 magnetization      74.1202577

 DIPCOR: dipole corrections for dipol
 direction  3 min pos   239,
 dipolmoment           0.000000      0.000000      0.432606 electrons x Angstroem
 Tr[quadrupol]    -10403.861407

 energy correction for charged system         0.000000 eV
 dipol+quadrupol energy correction           -0.009179 eV
 added-field ion interaction         -3.561616 eV  (added to PSCEN)


 Free energy of the ion-electron system (eV)
  ---------------------------------------------------
  alpha Z        PSCENC =      1356.02708450
  Ewald energy   TEWEN  =    221787.86320486
  -Hartree energ DENC   =   -284132.57682350
  -exchange      EXHF   =         0.00000000
  -V(xc)+E(xc)   XCENC  =      1712.28581618
  PAW double counting   =     68571.19471167   -72077.88359676
  entropy T*S    EENTRO =         0.00000000
  eigenvalues    EBANDS =     -1524.62556743
  atomic energy  EATOM  =     63894.84216477
  Solvation  Ediel_sol  =         0.00000000
  ---------------------------------------------------
  free energy    TOTEN  =      -412.87300571 eV

  energy without entropy =     -412.87300571  energy(sigma->0) =     -412.87300571


--------------------------------------------------------------------------------------------------------




--------------------------------------- Iteration      1(  10)  ---------------------------------------


    EDDIAG:  cpu time   23.2412: real time   23.2577
  RMM-DIIS:  cpu time  100.9219: real time  100.9566
    ORTHCH:  cpu time    6.6224: real time    6.6238
 BZINTS: Fermi energy:  0.246998;641.000000 electrons
         Band energy:***********;  BLOECHL correction: -0.033194
       DOS:  cpu time    0.2312: real time    0.2313
    --------------------------------------------
      LOOP:  cpu time  131.0167: real time  131.0692

 eigenvalue-minimisations  : 42211
 total energy-change (2. order) :-0.3522728E-05  (-0.5467706E-04)
 number of electron     641.0000049 magnetization      74.1202577
 augmentation part      641.0000049 magnetization      74.1202577

 DIPCOR: dipole corrections for dipol
 direction  3 min pos   239,
 dipolmoment           0.000000      0.000000      0.432606 electrons x Angstroem
 Tr[quadrupol]    -10403.861407

 energy correction for charged system         0.000000 eV
 dipol+quadrupol energy correction           -0.009179 eV
 added-field ion interaction         -3.561616 eV  (added to PSCEN)


 Free energy of the ion-electron system (eV)
  ---------------------------------------------------
  alpha Z        PSCENC =      1356.02708450
  Ewald energy   TEWEN  =    221787.86320486
  -Hartree energ DENC   =   -284132.57682350
  -exchange      EXHF   =         0.00000000
  -V(xc)+E(xc)   XCENC  =      1712.28581618
  PAW double counting   =     68571.19471167   -72077.88359676
  entropy T*S    EENTRO =         0.00000000
  eigenvalues    EBANDS =     -1524.62557095
  atomic energy  EATOM  =     63894.84216477
  Solvation  Ediel_sol  =         0.00000000
  ---------------------------------------------------
  free energy    TOTEN  =      -412.87300923 eV

  energy without entropy =     -412.87300923  energy(sigma->0) =     -412.87300923


--------------------------------------------------------------------------------------------------------




--------------------------------------- Iteration      1(  11)  ---------------------------------------


    EDDIAG:  cpu time   23.2585: real time   23.2764
  RMM-DIIS:  cpu time   56.8464: real time   56.8674
    ORTHCH:  cpu time    6.6204: real time    6.6223
 BZINTS: Fermi energy:  0.246998;641.000000 electrons
         Band energy:***********;  BLOECHL correction: -0.033194
       DOS:  cpu time    0.2312: real time    0.2312
    --------------------------------------------
      LOOP:  cpu time   86.9565: real time   86.9973

 eigenvalue-minimisations  : 22613
 total energy-change (2. order) :-0.1018198E-04  (-0.1967286E-04)
 number of electron     641.0000049 magnetization      74.1202577
 augmentation part      641.0000049 magnetization      74.1202577

 DIPCOR: dipole corrections for dipol
 direction  3 min pos   239,
 dipolmoment           0.000000      0.000000      0.432606 electrons x Angstroem
 Tr[quadrupol]    -10403.861407

 energy correction for charged system         0.000000 eV
 dipol+quadrupol energy correction           -0.009179 eV
 added-field ion interaction         -3.561616 eV  (added to PSCEN)


 Free energy of the ion-electron system (eV)
  ---------------------------------------------------
  alpha Z        PSCENC =      1356.02708450
  Ewald energy   TEWEN  =    221787.86320486
  -Hartree energ DENC   =   -284132.57682350
  -exchange      EXHF   =         0.00000000
  -V(xc)+E(xc)   XCENC  =      1712.28581618
  PAW double counting   =     68571.19471167   -72077.88359676
  entropy T*S    EENTRO =         0.00000000
  eigenvalues    EBANDS =     -1524.62558114
  atomic energy  EATOM  =     63894.84216477
  Solvation  Ediel_sol  =         0.00000000
  ---------------------------------------------------
  free energy    TOTEN  =      -412.87301941 eV

  energy without entropy =     -412.87301941  energy(sigma->0) =     -412.87301941


--------------------------------------------------------------------------------------------------------




--------------------------------------- Iteration      1(  12)  ---------------------------------------


    EDDIAG:  cpu time   23.3065: real time   23.3119
  RMM-DIIS:  cpu time   52.9489: real time   52.9668
    ORTHCH:  cpu time    6.6224: real time    6.6237
 BZINTS: Fermi energy:  0.246998;641.000000 electrons
         Band energy:***********;  BLOECHL correction: -0.033194
       DOS:  cpu time    0.2366: real time    0.2367
    --------------------------------------------
      LOOP:  cpu time   83.1144: real time   83.1391

 eigenvalue-minimisations  : 20660
 total energy-change (2. order) :-0.7443014E-06  (-0.5102989E-05)
 number of electron     641.0000049 magnetization      74.1202577
 augmentation part      641.0000049 magnetization      74.1202577

 DIPCOR: dipole corrections for dipol
 direction  3 min pos   239,
 dipolmoment           0.000000      0.000000      0.432606 electrons x Angstroem
 Tr[quadrupol]    -10403.861407

 energy correction for charged system         0.000000 eV
 dipol+quadrupol energy correction           -0.009179 eV
 added-field ion interaction         -3.561616 eV  (added to PSCEN)


 Free energy of the ion-electron system (eV)
  ---------------------------------------------------
  alpha Z        PSCENC =      1356.02708450
  Ewald energy   TEWEN  =    221787.86320486
  -Hartree energ DENC   =   -284132.57682350
  -exchange      EXHF   =         0.00000000
  -V(xc)+E(xc)   XCENC  =      1712.28581618
  PAW double counting   =     68571.19471167   -72077.88359676
  entropy T*S    EENTRO =         0.00000000
  eigenvalues    EBANDS =     -1524.62558188
  atomic energy  EATOM  =     63894.84216477
  Solvation  Ediel_sol  =         0.00000000
  ---------------------------------------------------
  free energy    TOTEN  =      -412.87302016 eV

  energy without entropy =     -412.87302016  energy(sigma->0) =     -412.87302016


--------------------------------------------------------------------------------------------------------




--------------------------------------- Iteration      1(  13)  ---------------------------------------


    EDDIAG:  cpu time   23.2833: real time   23.3005
  RMM-DIIS:  cpu time   51.4013: real time   51.4167
    ORTHCH:  cpu time    6.6113: real time    6.6131
 BZINTS: Fermi energy:  0.246998;641.000000 electrons
         Band energy:***********;  BLOECHL correction: -0.033194
       DOS:  cpu time    0.2359: real time    0.2359
    --------------------------------------------
      LOOP:  cpu time   81.5319: real time   81.5663

 eigenvalue-minimisations  : 20020
 total energy-change (2. order) :-0.2162997E-06  (-0.1516391E-05)
 number of electron     641.0000049 magnetization      74.1202577
 augmentation part      641.0000049 magnetization      74.1202577

 DIPCOR: dipole corrections for dipol
 direction  3 min pos   239,
 dipolmoment           0.000000      0.000000      0.432606 electrons x Angstroem
 Tr[quadrupol]    -10403.861407

 energy correction for charged system         0.000000 eV
 dipol+quadrupol energy correction           -0.009179 eV
 added-field ion interaction         -3.561616 eV  (added to PSCEN)


 Free energy of the ion-electron system (eV)
  ---------------------------------------------------
  alpha Z        PSCENC =      1356.02708450
  Ewald energy   TEWEN  =    221787.86320486
  -Hartree energ DENC   =   -284132.57682350
  -exchange      EXHF   =         0.00000000
  -V(xc)+E(xc)   XCENC  =      1712.28581618
  PAW double counting   =     68571.19471167   -72077.88359676
  entropy T*S    EENTRO =         0.00000000
  eigenvalues    EBANDS =     -1524.62558210
  atomic energy  EATOM  =     63894.84216477
  Solvation  Ediel_sol  =         0.00000000
  ---------------------------------------------------
  free energy    TOTEN  =      -412.87302037 eV

  energy without entropy =     -412.87302037  energy(sigma->0) =     -412.87302037


--------------------------------------------------------------------------------------------------------




--------------------------------------- Iteration      1(  14)  ---------------------------------------


    EDDIAG:  cpu time   23.2362: real time   23.2506
  RMM-DIIS:  cpu time   50.2943: real time   50.3104
    ORTHCH:  cpu time    6.6263: real time    6.6277
 BZINTS: Fermi energy:  0.246998;641.000000 electrons
         Band energy:***********;  BLOECHL correction: -0.033194
       DOS:  cpu time    0.2371: real time    0.2372
    --------------------------------------------
      LOOP:  cpu time   80.3939: real time   80.4259

 eigenvalue-minimisations  : 19434
 total energy-change (2. order) :-0.1234584E-06  (-0.4062872E-06)
 number of electron     641.0000049 magnetization      74.1202577
 augmentation part      641.0000049 magnetization      74.1202577

 DIPCOR: dipole corrections for dipol
 direction  3 min pos   239,
 dipolmoment           0.000000      0.000000      0.432606 electrons x Angstroem
 Tr[quadrupol]    -10403.861407

 energy correction for charged system         0.000000 eV
 dipol+quadrupol energy correction           -0.009179 eV
 added-field ion interaction         -3.561616 eV  (added to PSCEN)


 Free energy of the ion-electron system (eV)
  ---------------------------------------------------
  alpha Z        PSCENC =      1356.02708450
  Ewald energy   TEWEN  =    221787.86320486
  -Hartree energ DENC   =   -284132.57682350
  -exchange      EXHF   =         0.00000000
  -V(xc)+E(xc)   XCENC  =      1712.28581618
  PAW double counting   =     68571.19471167   -72077.88359676
[...]
   0.549E+02 0.815E+02 -.717E+03   -.538E+02 -.813E+02 0.721E+03   -.510E+00 0.170E+00 0.948E-01   -.612E+00 -.379E+00 -.313E+01
   0.205E+02 0.521E+02 0.301E+04   -.201E+02 -.516E+02 -.301E+04   0.233E+00 0.975E-02 -.123E+01   -.486E+00 -.579E+00 0.122E+01
   0.893E+02 0.154E+03 -.265E+04   -.889E+02 -.156E+03 0.265E+04   0.314E+00 0.189E+01 0.856E+00   -.610E+00 -.526E+00 -.141E+01
   -.270E+02 0.103E+03 0.114E+04   0.275E+02 -.103E+03 -.113E+04   -.183E+00 0.150E+00 -.608E+00   -.334E+00 -.465E+00 -.612E+00
   0.109E+02 0.791E+02 0.301E+04   -.114E+02 -.787E+02 -.301E+04   -.100E+00 0.310E-01 -.114E+01   0.339E+00 -.482E+00 0.121E+01
   0.245E+02 0.664E+02 -.253E+04   -.243E+02 -.654E+02 0.254E+04   -.315E+00 -.318E+00 -.212E+01   0.144E+00 -.664E+00 -.147E+01
   0.774E+01 0.123E+03 0.120E+04   -.801E+01 -.123E+03 -.120E+04   -.107E+00 0.266E+00 -.312E+00   0.339E+00 -.604E+00 -.676E+00
   -.156E+02 -.319E+02 0.302E+04   0.150E+02 0.316E+02 -.302E+04   -.244E-01 -.431E-01 -.158E+01   0.601E+00 0.369E+00 0.118E+01
   0.683E+02 -.110E+03 -.264E+04   -.702E+02 0.111E+03 0.264E+04   0.112E+01 -.151E+01 0.108E+01   0.787E+00 0.490E+00 -.136E+01
   -.319E+02 -.354E+02 0.301E+04   0.321E+02 0.352E+02 -.301E+04   -.180E+00 0.326E-02 -.129E+01   -.611E-01 0.232E+00 0.161E+01
   -.157E+03 -.633E+02 -.267E+04   0.159E+03 0.639E+02 0.268E+04   -.172E+01 -.107E+01 0.260E+00   0.340E+00 0.399E+00 -.187E+01
   -.266E+02 -.154E+02 0.118E+04   0.260E+02 0.151E+02 -.118E+04   -.384E-01 -.506E-01 -.346E+00   0.616E+00 0.299E+00 -.587E+00
   0.396E+01 0.139E+02 0.118E+04   -.359E+01 -.142E+02 -.118E+04   -.857E-01 -.127E+00 -.422E+00   -.181E+00 0.367E+00 -.211E+00
   0.344E+02 0.345E+01 0.303E+04   -.346E+02 -.327E+01 -.303E+04   0.180E+00 -.650E-01 -.124E+01   0.591E-01 -.114E+00 0.992E+00
   -.282E+02 -.805E+02 -.267E+04   0.293E+02 0.817E+02 0.267E+04   -.106E+01 -.148E+01 0.123E+01   -.464E-01 0.256E+00 -.130E+01
   0.190E+02 0.567E+02 0.118E+04   -.180E+02 -.564E+02 -.117E+04   0.779E-01 -.140E+00 -.419E+00   -.977E+00 -.215E+00 -.524E+00
   0.269E+01 0.262E+02 0.117E+04   -.324E+01 -.262E+02 -.117E+04   -.260E-02 -.790E-01 -.158E+00   0.533E+00 0.106E-01 -.808E+00
   -.627E+02 -.773E+02 0.940E+03   0.621E+02 0.769E+02 -.940E+03   -.125E+00 -.117E+00 -.355E+00   0.658E+00 0.581E+00 -.502E+00
   0.257E+02 -.909E+02 0.942E+03   -.259E+02 0.910E+02 -.942E+03   0.144E+00 -.231E+00 -.440E+00   0.737E-01 0.219E+00 -.187E-01
   -.511E+02 0.163E+02 -.576E+03   0.514E+02 -.161E+02 0.579E+03   -.267E+00 -.582E-01 0.321E+00   -.538E-01 -.185E+00 -.241E+01
   0.464E+02 0.439E+02 -.567E+03   -.462E+02 -.433E+02 0.571E+03   0.321E-01 0.816E-02 -.796E+00   -.211E+00 -.620E+00 -.231E+01
   -.295E+02 0.126E+02 0.238E+04   0.293E+02 -.124E+02 -.237E+04   -.602E-02 -.321E-01 -.271E+01   0.219E+00 -.194E+00 0.118E+01
   -.687E+02 -.667E+02 -.214E+04   0.696E+02 0.674E+02 0.214E+04   -.746E+00 -.566E+00 0.147E+01   -.111E+00 -.734E-01 -.120E+01
   -.244E+02 -.252E+02 0.913E+03   0.248E+02 0.256E+02 -.912E+03   -.285E+00 0.628E-01 -.335E+00   -.108E+00 -.428E+00 -.486E+00
   0.117E+02 0.320E+02 0.238E+04   -.114E+02 -.322E+02 -.238E+04   -.700E-01 0.973E-01 -.292E+01   -.152E+00 0.152E+00 0.121E+01
   -.985E+02 -.102E+02 -.212E+04   0.993E+02 0.103E+02 0.212E+04   -.662E+00 0.352E+00 0.130E+01   -.109E+00 -.401E+00 -.136E+01
   0.365E+02 -.264E+02 0.926E+03   -.363E+02 0.267E+02 -.926E+03   -.103E-01 0.204E+00 -.365E+00   -.134E+00 -.370E+00 -.131E+00
   0.319E+02 -.628E+02 0.929E+03   -.320E+02 0.625E+02 -.929E+03   0.345E+00 -.269E-01 -.283E+00   -.214E+00 0.249E+00 -.914E-01
   -.131E+02 0.723E+02 0.940E+03   0.131E+02 -.722E+02 -.940E+03   0.313E-01 -.629E-01 -.410E+00   0.101E+00 -.123E-01 -.274E+00
   0.263E+02 0.115E+03 0.933E+03   -.264E+02 -.115E+03 -.933E+03   0.251E+00 0.278E+00 -.379E+00   -.114E+00 -.622E+00 -.538E+00
   0.103E+02 -.116E+02 0.243E+04   -.990E+01 0.118E+02 -.243E+04   0.139E-01 0.555E-01 -.271E+01   -.485E+00 -.112E+00 0.112E+01
   0.939E+02 -.358E+02 -.214E+04   -.939E+02 0.362E+02 0.214E+04   0.813E+00 -.483E+00 0.792E+00   -.852E+00 0.151E+00 -.140E+01
   -.229E+02 0.289E+02 -.214E+04   0.214E+02 -.281E+02 0.217E+04   0.163E+01 -.520E+00 -.276E+02   -.166E+00 -.415E+00 -.350E+00
   -.604E+02 -.214E+02 -.217E+04   0.597E+02 0.211E+02 0.220E+04   0.280E+00 0.183E+00 -.268E+02   0.367E+00 0.117E+00 -.188E+00
   -.242E+02 -.308E+02 -.215E+04   0.224E+02 0.298E+02 0.218E+04   0.170E+01 0.808E+00 -.277E+02   0.277E-01 0.183E+00 -.126E+00
   0.787E+02 -.268E+02 -.215E+04   -.760E+02 0.255E+02 0.217E+04   -.234E+01 0.145E+01 -.279E+02   -.329E+00 -.165E+00 0.165E+00
   0.416E+02 0.324E+02 -.212E+04   -.741E+02 -.476E+02 0.212E+04   0.326E+02 0.154E+02 -.805E+01   0.720E-01 -.130E+00 0.555E+00
   -.625E+02 -.283E+02 -.366E+03   0.691E+02 0.316E+02 0.369E+03   -.682E+01 -.339E+01 -.277E+01   0.111E+00 0.358E-01 0.962E-01
 -----------------------------------------------------------------------------------------------
   -.279E+02 -.148E+02 0.193E+03   0.171E-12 0.924E-12 0.585E-11   0.274E+02 0.146E+02 -.134E+03   0.502E+00 0.181E+00 -.581E+02
 
 
 POSITION                                       TOTAL-FORCE (eV/Angst)
 -----------------------------------------------------------------------------------
      5.00057      8.67991      6.09029        -0.005058     -0.001941      0.011569
      2.48979      0.00196      6.03910         0.004059     -0.007676      0.003241
     -0.00954      8.67268      6.08265        -0.014261      0.006523      0.018445
      2.49653      8.66334      6.06914        -0.009466      0.003258      0.040559
      8.77178      2.15147      6.08272         0.004262     -0.006248     -0.004457
      1.25520      2.18448      6.08786        -0.010516      0.012821      0.007453
     -0.00285      1.44433      2.02730        -0.069282      0.007457      0.151411
     -0.00945      1.38383      8.15001         0.003624      0.009210     -0.000947
      3.75160      2.16429      6.07010         0.026667     -0.000410     -0.018228
      2.50178      1.44890      2.02869         0.097927     -0.055889      0.178863
      2.48701      1.43150      8.02338        -0.004651     -0.013445      0.043576
      6.25892      2.18414      6.10725        -0.014097     -0.007950     -0.023494
      5.00042      1.45188      2.04906        -0.034952      0.047583      0.179547
      5.00250      1.36475      8.11889         0.018681      0.030631      0.011082
      7.52680      1.44774      2.04372        -0.028323      0.035325      0.271705
      7.51688      1.41283      8.03250        -0.012992     -0.005936      0.055222
      6.25724      0.72120      4.08068         0.048123     -0.051214     -0.228395
      8.77725      0.71231      4.06936        -0.035558     -0.055361     -0.143628
     -2.49176      4.34077      6.06582         0.002974      0.013243      0.007172
     -1.27467      3.61315      2.03306        -0.044643      0.141976      0.186780
     -1.29158      3.60762      8.12999        -0.008042      0.002567      0.009460
     -0.00860      2.89985      4.06991         0.085958     -0.005072     -0.192837
      5.02439      4.35953      6.10113         0.001818      0.005401      0.013530
      3.76492      3.61380      2.03274        -0.042447      0.101061      0.111258
      3.70144      3.59518      8.15705         0.002851      0.028050      0.040780
     -3.76172      6.51626      6.07195        -0.007924      0.007971      0.015779
     -1.25964      6.50258      6.03859         0.001076     -0.003167     -0.000186
     -2.50964      5.80144      2.00867         0.137742     -0.100930      0.323184
     -2.47420      5.75113      8.08979        -0.031266     -0.022795      0.026773
      1.26566      6.50020      6.07161         0.005333     -0.025938      0.046823
     -0.00666      5.79426      2.00000        -0.131920     -0.082419      0.214968
     -0.00686      5.76257      8.01783        -0.003382      0.019825      0.023768
      3.79132      6.49042      6.09268        -0.002199      0.000890      0.011114
      2.50308      5.78909      2.00257         0.204340     -0.082665      0.241171
      2.47133      5.72372      8.15060         0.014329     -0.007870      0.034832
      1.25945      5.05378      4.04326        -0.004443     -0.049411     -0.126302
      5.01445      5.79798      2.01253        -0.214296     -0.051862      0.251316
      5.01554      5.76097      8.16482         0.021383      0.023025     -0.001531
      6.27138      5.06452      4.04277        -0.032067     -0.075781     -0.067049
     -3.76517      7.96148      2.01691         0.023157      0.054364      0.256388
     -3.77338      7.97705      8.11013        -0.017461     -0.031601     -0.007286
     -1.24654      7.96318      2.02107        -0.022946      0.018622      0.175319
     -1.22014      7.96353      8.10236         0.015402     -0.010750     -0.000045
     -2.51584      7.25277      4.05487        -0.071177     -0.049351     -0.164490
      0.00963      7.22591      4.06957         0.109600     -0.022640     -0.249504
      3.74757      7.96401      2.04130         0.092250     -0.002668      0.182630
      3.78161      7.97215      8.13768        -0.029270     -0.015256     -0.003601
      2.50222      7.23652      4.07555         0.002654     -0.025076     -0.203207
      5.01801      7.23500      4.07176        -0.023445     -0.027079     -0.048741
      1.20950      0.71304      4.05362        -0.001298      0.046082     -0.277794
      3.78049      0.67792      4.06351        -0.056506      0.027604     -0.327272
     -0.00373      4.32176      6.09136        -0.001399      0.002984      0.006200
      2.55471      4.35787      6.13272        -0.007408      0.014352     -0.031536
      1.23098      3.62224      2.02941        -0.011788      0.054072      0.134722
      1.28060      3.59988      8.20290         0.034375      0.020899     -0.039723
      2.51334      2.87806      4.07938        -0.007988      0.002399     -0.174443
      6.26024      3.63306      2.00212         0.011338     -0.024899      0.186955
      6.29667      3.60010      8.14150         0.036594      0.031172     -0.021351
      5.02463      2.88643      4.11822         0.044835      0.099537     -0.403403
      7.52997      2.83909      4.10996        -0.009849     -0.032367     -0.319224
     -1.25360      5.10876      4.01488         0.056415     -0.032627     -0.332432
      3.75975      5.11705      4.02298        -0.011481      0.045002     -0.235742
      1.25181      7.95850      2.03067        -0.027924      0.065112      0.332758
      1.21633      7.95703      8.09226        -0.031068      0.042526     -0.046365
      5.03947      2.82772      9.22872        -0.035934     -0.036014     -0.023549
     -2.47857      7.23043      9.20287         0.016708      0.026392     -0.059340
     -0.02966      2.86278      9.26548        -0.051109     -0.006110     -0.021866
      2.44995      7.26156      9.22242         0.034338     -0.028162     -0.007865
      5.09940      5.84369      9.96850         0.095668      0.032464      0.037910
      5.93061      6.25491     10.28652        -0.074642     -0.021821     -0.038428
 -----------------------------------------------------------------------------------
    total drift:                                0.018804      0.001864      0.052641


--------------------------------------------------------------------------------------------------------



  FREE ENERGIE OF THE ION-ELECTRON SYSTEM (eV)
  ---------------------------------------------------
  free  energy   TOTEN  =      -429.82077936 eV

  energy  without entropy=     -429.82077936  energy(sigma->0) =     -429.82077936
 


--------------------------------------------------------------------------------------------------------


    POTLOK:  cpu time    0.4445: real time    0.4447


--------------------------------------------------------------------------------------------------------


 stress matrix after NEB project (eV)
    -26.01350      0.89366     -0.13090
      0.89366    -24.70832      0.25692
     -0.13090      0.25692     -5.78592
  FORCES: max atom, RMS     0.107905    0.031806
  FORCE total and by dimension    0.266109    0.095668
  Stress total and by dimension   36.365413   26.013495
     LOOP+:  cpu time 2048.0166: real time 2049.0209
    4ORBIT:  cpu time    0.0000: real time    0.0000
 


 total charge     
 
# of ion       s       p       d       tot
------------------------------------------
    1        0.501   0.498   8.335   9.334
    2        0.497   0.499   8.328   9.324
    3        0.508   0.510   8.319   9.338
    4        0.493   0.497   8.323   9.313
    5        0.497   0.501   8.328   9.326
    6        0.506   0.514   8.316   9.335
    7        0.488   0.380   8.324   9.192
    8        0.490   0.494   8.337   9.321
    9        0.505   0.511   8.322   9.338
   10        0.501   0.386   8.300   9.187
   11        0.480   0.384   8.368   9.232
   12        0.502   0.511   8.329   9.342
   13        0.497   0.393   8.319   9.210
   14        0.503   0.514   8.332   9.349
   15        0.497   0.387   8.330   9.214
   16        0.481   0.386   8.386   9.253
   17        0.506   0.509   8.326   9.341
   18        0.501   0.502   8.333   9.336
   19        0.509   0.514   8.325   9.349
   20        0.501   0.391   8.326   9.217
   21        0.499   0.505   8.337   9.341
   22        0.509   0.521   8.320   9.350
   23        0.502   0.505   8.322   9.329
   24        0.502   0.392   8.319   9.213
   25        0.494   0.490   8.337   9.320
   26        0.486   0.484   8.327   9.297
   27        0.496   0.501   8.330   9.327
   28        0.491   0.383   8.310   9.184
   29        0.490   0.498   8.336   9.323
   30        0.499   0.505   8.326   9.329
   31        0.499   0.384   8.323   9.206
   32        0.487   0.394   8.367   9.248
   33        0.497   0.496   8.327   9.319
   34        0.492   0.384   8.322   9.198
   35        0.492   0.493   8.333   9.319
   36        0.506   0.512   8.319   9.338
   37        0.495   0.380   8.319   9.194
   38        0.492   0.520   8.322   9.335
   39        0.503   0.507   8.309   9.319
   40        0.483   0.371   8.317   9.171
   41        0.484   0.487   8.333   9.304
   42        0.491   0.379   8.329   9.199
   43        0.505   0.516   8.337   9.357
   44        0.504   0.507   8.326   9.336
   45        0.503   0.509   8.321   9.333
   46        0.485   0.376   8.331   9.193
   47        0.478   0.476   8.353   9.307
   48        0.497   0.499   8.321   9.318
   49        0.499   0.499   8.326   9.324
   50        0.475   0.508   6.151   7.135
   51        0.478   0.513   6.173   7.164
   52        0.469   0.506   6.175   7.150
   53        0.482   0.519   6.187   7.188
   54        0.462   0.390   6.114   6.966
   55        0.475   0.515   6.176   7.167
   56        0.475   0.513   6.203   7.191
   57        0.462   0.387   6.117   6.966
   58        0.464   0.509   6.157   7.130
   59        0.477   0.510   6.198   7.185
   60        0.475   0.511   6.171   7.157
   61        0.474   0.505   6.149   7.127
   62        0.474   0.504   6.162   7.140
   63        0.461   0.391   6.097   6.948
   64        0.485   0.543   6.183   7.211
   65        1.583   3.353   0.000   4.936
   66        1.580   3.352   0.000   4.932
   67        1.581   3.353   0.000   4.935
   68        1.583   3.356   0.000   4.939
   69        1.575   3.458   0.000   5.033
   70        0.611   0.119   0.000   0.730
--------------------------------------------------
tot         39.923  47.069 500.517 587.509
 


 magnetization (x)
 
# of ion       s       p       d       tot
------------------------------------------
    1       -0.009  -0.026   0.569   0.534
    2       -0.013  -0.031   0.670   0.625
    3       -0.009  -0.028   0.581   0.543
    4       -0.012  -0.033   0.694   0.649
    5       -0.012  -0.032   0.686   0.642
    6       -0.022  -0.045   0.747   0.680
    7       -0.017  -0.034   0.642   0.591
    8       -0.004  -0.015   0.472   0.453
    9       -0.018  -0.037   0.702   0.647
   10       -0.015  -0.038   0.749   0.695
   11       -0.014  -0.019   0.734   0.701
   12       -0.018  -0.039   0.682   0.625
   13       -0.020  -0.040   0.703   0.643
   14       -0.008  -0.020   0.422   0.394
   15       -0.012  -0.038   0.688   0.637
   16       -0.017  -0.021   0.713   0.676
   17       -0.019  -0.039   0.650   0.591
   18       -0.015  -0.032   0.624   0.578
   19       -0.015  -0.035   0.637   0.587
   20       -0.023  -0.036   0.706   0.647
   21       -0.010  -0.021   0.526   0.495
   22       -0.023  -0.053   0.747   0.671
   23       -0.017  -0.038   0.713   0.657
   24       -0.025  -0.036   0.723   0.662
   25       -0.013  -0.023   0.524   0.488
   26       -0.007  -0.026   0.681   0.649
   27       -0.013  -0.032   0.673   0.628
   28       -0.014  -0.032   0.685   0.640
   29       -0.008  -0.016   0.547   0.523
   30       -0.016  -0.038   0.708   0.653
   31       -0.013  -0.036   0.694   0.645
   32       -0.019  -0.025   0.754   0.710
   33       -0.014  -0.031   0.687   0.642
   34       -0.019  -0.037   0.664   0.608
   35       -0.010  -0.022   0.587   0.555
   36       -0.025  -0.049   0.700   0.626
   37       -0.009  -0.032   0.692   0.651
   38       -0.011  -0.007   0.705   0.687
   39       -0.021  -0.046   0.730   0.662
   40       -0.012  -0.026   0.666   0.628
   41       -0.004  -0.011   0.518   0.503
   42       -0.017  -0.030   0.666   0.619
   43       -0.011  -0.016   0.441   0.414
   44       -0.016  -0.037   0.716   0.663
   45       -0.016  -0.041   0.676   0.619
   46       -0.013  -0.028   0.655   0.614
   47       -0.003  -0.008   0.477   0.466
   48       -0.014  -0.039   0.711   0.658
   49       -0.013  -0.032   0.675   0.630
   50        0.003  -0.012   2.773   2.765
   51        0.001  -0.018   2.707   2.690
   52        0.001  -0.021   2.762   2.742
   53        0.003  -0.019   2.671   2.655
   54        0.013  -0.010   2.886   2.889
   55        0.014  -0.001   2.684   2.697
   56       -0.007  -0.034   2.623   2.582
   57        0.011  -0.011   2.890   2.890
   58        0.021   0.009   2.778   2.809
   59       -0.004  -0.029   2.678   2.645
   60        0.002  -0.022   2.726   2.706
   61        0.004  -0.011   2.795   2.788
   62        0.001  -0.016   2.766   2.750
   63        0.018  -0.010   2.928   2.936
   64        0.021   0.008   2.682   2.710
   65        0.002   0.073   0.000   0.075
   66        0.002   0.091   0.000   0.093
   67        0.002   0.070   0.000   0.072
   68        0.002   0.100   0.000   0.102
   69        0.003   0.170   0.000   0.174
   70       -0.003   0.002   0.000  -0.001
--------------------------------------------------
tot         -0.589  -1.195  73.363  71.579
 
 BZINTS: Fermi energy:  0.246998;641.000000 electrons
         Band energy:***********;  BLOECHL correction: -0.033194

 total amount of memory used by VASP MPI-rank0   260576. kBytes
=======================================================================

   base      :      30000. kBytes
   nonlr-proj:      14036. kBytes
   fftplans  :       6403. kBytes
   grid      :      18928. kBytes
   one-center:         93. kBytes
   wavefun   :     191116. kBytes
 
  
  
 General timing and accounting informations for this job:
 ========================================================
  
                  Total CPU time used (sec):     2183.360
                            User time (sec):     2086.801
                          System time (sec):       96.559
                         Elapsed time (sec):     2187.479
  
                   Maximum memory used (kb):      516576.
                   Average memory used (kb):           0.
  
                          Minor page faults:     23729059
                          Major page faults:           15
                 Voluntary context switches:         3082
