  69  69   1   0
  0.2673732E+02  0.1002677E-08  0.1002677E-08  0.2118918E-08  0.5000000E-15
  1.000000000000000E-004
  CAR 
 SQS-NiFe                                
      9.25468411    -21.17374135  301      0.20426044      1.00000000
    -21.174  0.0000E+00  0.0000E+00  0.0000E+00  0.0000E+00
    -21.072  0.0000E+00  0.0000E+00  0.0000E+00  0.0000E+00
    -20.971  0.0000E+00  0.0000E+00  0.0000E+00  0.0000E+00
    -20.869 -0.1329E-31  0.0000E+00 -0.1348E-32  0.0000E+00
    -20.768 -0.5270E-28  0.0000E+00 -0.5346E-29  0.0000E+00
    -20.667 -0.1244E-24 -0.4694E-30 -0.1262E-25 -0.4761E-31
    -20.565 -0.1748E-21 -0.1495E-26 -0.1774E-22 -0.1517E-27
    -20.464 -0.1460E-18 -0.2834E-23 -0.1483E-19 -0.2876E-24
    -20.362 -0.7244E-16 -0.3197E-20 -0.7362E-17 -0.3245E-21
    -20.261 -0.2061E-13 -0.2143E-17 -0.2098E-14 -0.2177E-18
    -20.159 -0.3566E-11 -0.8264E-15 -0.3637E-12 -0.8404E-16
    -20.058 -0.3633E-09 -0.1939E-12 -0.3721E-10 -0.1976E-13
    -19.957 -0.2169E-07 -0.2684E-10 -0.2237E-08 -0.2742E-11
    -19.855 -0.7520E-06 -0.2184E-08 -0.7851E-07 -0.2242E-09
    -19.754 -0.1492E-04 -0.1038E-06 -0.1592E-05 -0.1075E-07
    -19.652 -0.1644E-03 -0.2848E-05 -0.1827E-04 -0.2996E-06
    -19.551 -0.9376E-03 -0.4430E-04 -0.1134E-03 -0.4793E-05
    -19.449 -0.2141E-02 -0.3746E-03 -0.3306E-03 -0.4279E-04
    -19.348  0.2125E-02 -0.1540E-02 -0.1150E-03 -0.1990E-03
    -19.247  0.1916E-01 -0.1666E-02  0.1828E-02 -0.3680E-03
    -19.145  0.3376E-01  0.7810E-02  0.5252E-02  0.4242E-03
    -19.044  0.3451E-01  0.2734E-01  0.8752E-02  0.3197E-02
    -18.942  0.6505E-01  0.3553E-01  0.1535E-01  0.6801E-02
    -18.841  0.1289E+00  0.4240E-01  0.2842E-01  0.1110E-01
    -18.739  0.1378E+00  0.9185E-01  0.4240E-01  0.2042E-01
    -18.638  0.7423E-01  0.1451E+00  0.4993E-01  0.3513E-01
    -18.537  0.1477E-01  0.1186E+00  0.5143E-01  0.4716E-01
    -18.435 -0.4537E-02  0.4235E-01  0.5097E-01  0.5145E-01
    -18.334 -0.3514E-02 -0.1217E-02  0.5061E-01  0.5133E-01
    -18.232 -0.9176E-03 -0.5879E-02  0.5052E-01  0.5073E-01
    -18.131 -0.1248E-03 -0.1923E-02  0.5051E-01  0.5054E-01
    -18.029 -0.9543E-05 -0.2942E-03  0.5051E-01  0.5051E-01
    -17.928 -0.4203E-06 -0.2455E-04  0.5051E-01  0.5051E-01
    -17.827 -0.1078E-07 -0.1172E-05  0.5051E-01  0.5051E-01
    -17.725 -0.1622E-09 -0.3262E-07  0.5051E-01  0.5051E-01
    -17.624 -0.1436E-11 -0.5351E-09  0.5051E-01  0.5051E-01
    -17.522 -0.7521E-14 -0.5198E-11  0.5051E-01  0.5051E-01
    -17.421 -0.2211E-16 -0.2997E-13  0.5051E-01  0.5051E-01
    -17.319  0.0000E+00 -0.1032E-15  0.5051E-01  0.5051E-01
    -17.218  0.0000E+00  0.0000E+00  0.5051E-01  0.5051E-01
    -17.117  0.0000E+00  0.0000E+00  0.5051E-01  0.5051E-01
    -17.015  0.0000E+00  0.0000E+00  0.5051E-01  0.5051E-01
    -16.914  0.0000E+00  0.0000E+00  0.5051E-01  0.5051E-01
    -16.812  0.0000E+00  0.0000E+00  0.5051E-01  0.5051E-01
    -16.711  0.0000E+00  0.0000E+00  0.5051E-01  0.5051E-01
    -16.609  0.0000E+00  0.0000E+00  0.5051E-01  0.5051E-01
    -16.508  0.0000E+00  0.0000E+00  0.5051E-01  0.5051E-01
    -16.407  0.0000E+00  0.0000E+00  0.5051E-01  0.5051E-01
    -16.305  0.0000E+00  0.0000E+00  0.5051E-01  0.5051E-01
    -16.204  0.0000E+00  0.0000E+00  0.5051E-01  0.5051E-01
    -16.102  0.0000E+00  0.0000E+00  0.5051E-01  0.5051E-01
    -16.001  0.0000E+00  0.0000E+00  0.5051E-01  0.5051E-01
    -15.899  0.0000E+00  0.0000E+00  0.5051E-01  0.5051E-01
    -15.798  0.0000E+00  0.0000E+00  0.5051E-01  0.5051E-01
    -15.697  0.0000E+00  0.0000E+00  0.5051E-01  0.5051E-01
    -15.595  0.0000E+00  0.0000E+00  0.5051E-01  0.5051E-01
    -15.494  0.0000E+00  0.0000E+00  0.5051E-01  0.5051E-01
    -15.392  0.0000E+00  0.0000E+00  0.5051E-01  0.5051E-01
    -15.291  0.0000E+00  0.0000E+00  0.5051E-01  0.5051E-01
    -15.189  0.0000E+00  0.0000E+00  0.5051E-01  0.5051E-01
    -15.088  0.0000E+00  0.0000E+00  0.5051E-01  0.5051E-01
    -14.987  0.0000E+00  0.0000E+00  0.5051E-01  0.5051E-01
    -14.885  0.0000E+00  0.0000E+00  0.5051E-01  0.5051E-01
    -14.784  0.0000E+00  0.0000E+00  0.5051E-01  0.5051E-01
    -14.682  0.0000E+00  0.0000E+00  0.5051E-01  0.5051E-01
    -14.581  0.0000E+00  0.0000E+00  0.5051E-01  0.5051E-01
    -14.479  0.0000E+00  0.0000E+00  0.5051E-01  0.5051E-01
    -14.378  0.0000E+00  0.0000E+00  0.5051E-01  0.5051E-01
    -14.277  0.0000E+00  0.0000E+00  0.5051E-01  0.5051E-01
    -14.175  0.0000E+00  0.0000E+00  0.5051E-01  0.5051E-01
    -14.074  0.0000E+00  0.0000E+00  0.5051E-01  0.5051E-01
    -13.972  0.0000E+00  0.0000E+00  0.5051E-01  0.5051E-01
    -13.871  0.0000E+00  0.0000E+00  0.5051E-01  0.5051E-01
    -13.769  0.0000E+00  0.0000E+00  0.5051E-01  0.5051E-01
    -13.668  0.0000E+00  0.0000E+00  0.5051E-01  0.5051E-01
    -13.567  0.0000E+00  0.0000E+00  0.5051E-01  0.5051E-01
    -13.465  0.0000E+00  0.0000E+00  0.5051E-01  0.5051E-01
    -13.364  0.0000E+00  0.0000E+00  0.5051E-01  0.5051E-01
    -13.262  0.0000E+00  0.0000E+00  0.5051E-01  0.5051E-01
    -13.161  0.0000E+00  0.0000E+00  0.5051E-01  0.5051E-01
    -13.059  0.0000E+00  0.0000E+00  0.5051E-01  0.5051E-01
    -12.958  0.0000E+00  0.0000E+00  0.5051E-01  0.5051E-01
    -12.857  0.0000E+00  0.0000E+00  0.5051E-01  0.5051E-01
    -12.755  0.0000E+00  0.0000E+00  0.5051E-01  0.5051E-01
    -12.654  0.0000E+00  0.0000E+00  0.5051E-01  0.5051E-01
    -12.552  0.0000E+00  0.0000E+00  0.5051E-01  0.5051E-01
    -12.451  0.0000E+00  0.0000E+00  0.5051E-01  0.5051E-01
    -12.349  0.0000E+00  0.0000E+00  0.5051E-01  0.5051E-01
    -12.248  0.0000E+00  0.0000E+00  0.5051E-01  0.5051E-01
    -12.147  0.0000E+00  0.0000E+00  0.5051E-01  0.5051E-01
    -12.045  0.0000E+00  0.0000E+00  0.5051E-01  0.5051E-01
    -11.944  0.0000E+00  0.0000E+00  0.5051E-01  0.5051E-01
    -11.842  0.0000E+00  0.0000E+00  0.5051E-01  0.5051E-01
    -11.741  0.0000E+00  0.0000E+00  0.5051E-01  0.5051E-01
    -11.640  0.0000E+00  0.0000E+00  0.5051E-01  0.5051E-01
    -11.538  0.0000E+00  0.0000E+00  0.5051E-01  0.5051E-01
    -11.437  0.0000E+00  0.0000E+00  0.5051E-01  0.5051E-01
    -11.335  0.0000E+00  0.0000E+00  0.5051E-01  0.5051E-01
    -11.234  0.0000E+00  0.0000E+00  0.5051E-01  0.5051E-01
    -11.132  0.0000E+00  0.0000E+00  0.5051E-01  0.5051E-01
    -11.031  0.0000E+00  0.0000E+00  0.5051E-01  0.5051E-01
    -10.930  0.0000E+00  0.0000E+00  0.5051E-01  0.5051E-01
    -10.828  0.0000E+00  0.0000E+00  0.5051E-01  0.5051E-01
    -10.727  0.0000E+00  0.0000E+00  0.5051E-01  0.5051E-01
    -10.625  0.0000E+00  0.0000E+00  0.5051E-01  0.5051E-01
    -10.524  0.0000E+00  0.0000E+00  0.5051E-01  0.5051E-01
    -10.422  0.0000E+00  0.0000E+00  0.5051E-01  0.5051E-01
    -10.321  0.0000E+00  0.0000E+00  0.5051E-01  0.5051E-01
    -10.220  0.0000E+00  0.0000E+00  0.5051E-01  0.5051E-01
    -10.118  0.0000E+00  0.0000E+00  0.5051E-01  0.5051E-01
    -10.017  0.0000E+00  0.0000E+00  0.5051E-01  0.5051E-01
     -9.915 -0.6326E-31  0.0000E+00  0.5051E-01  0.5051E-01
     -9.814 -0.1991E-27 -0.3775E-29  0.5051E-01  0.5051E-01
     -9.712 -0.3729E-24 -0.9167E-26  0.5051E-01  0.5051E-01
     -9.611 -0.4156E-21 -0.1325E-22  0.5051E-01  0.5051E-01
     -9.510 -0.2753E-18 -0.1139E-19  0.5051E-01  0.5051E-01
     -9.408 -0.1052E-15 -0.5813E-17  0.5051E-01  0.5051E-01
     -9.307 -0.2432E-13 -0.1702E-14  0.5051E-01  0.5051E-01
     -9.205 -0.3324E-11 -0.3032E-12  0.5051E-01  0.5051E-01
     -9.104 -0.2671E-09 -0.3180E-10  0.5051E-01  0.5051E-01
     -9.002 -0.1254E-07 -0.1956E-08  0.5051E-01  0.5051E-01
     -8.901 -0.3402E-06 -0.6992E-07  0.5051E-01  0.5051E-01
     -8.800 -0.5241E-05 -0.1434E-05  0.5050E-01  0.5050E-01
     -8.698 -0.4431E-04 -0.1647E-04  0.5050E-01  0.5050E-01
     -8.597 -0.1908E-03 -0.1008E-03  0.5048E-01  0.5049E-01
     -8.495 -0.3258E-03 -0.2904E-03  0.5045E-01  0.5046E-01
     -8.394  0.2285E-03 -0.1896E-03  0.5047E-01  0.5044E-01
     -8.292  0.2223E-02  0.9840E-03  0.5070E-01  0.5054E-01
     -8.191  0.7938E-02  0.4341E-02  0.5150E-01  0.5098E-01
     -8.090  0.2000E-01  0.1346E-01  0.5353E-01  0.5235E-01
     -7.988  0.2726E-01  0.2551E-01  0.5629E-01  0.5494E-01
     -7.887  0.1688E-01  0.2399E-01  0.5801E-01  0.5737E-01
     -7.785  0.4393E-02  0.9545E-02  0.5845E-01  0.5834E-01
     -7.684  0.9458E-02  0.5044E-02  0.5941E-01  0.5885E-01
     -7.582  0.2463E-01  0.1588E-01  0.6191E-01  0.6046E-01
     -7.481  0.3358E-01  0.2766E-01  0.6532E-01  0.6327E-01
     -7.380  0.3388E-01  0.3381E-01  0.6875E-01  0.6670E-01
     -7.278  0.2394E-01  0.3187E-01  0.7118E-01  0.6993E-01
     -7.177  0.6903E-02  0.1748E-01  0.7188E-01  0.7170E-01
     -7.075 -0.3721E-02  0.1362E-02  0.7150E-01  0.7184E-01
     -6.974  0.1745E-02 -0.4143E-02  0.7168E-01  0.7142E-01
     -6.872  0.3183E-01  0.7501E-02  0.7491E-01  0.7218E-01
     -6.771  0.7068E-01  0.4217E-01  0.8208E-01  0.7646E-01
     -6.670  0.7360E-01  0.7490E-01  0.8954E-01  0.8405E-01
     -6.568  0.4365E-01  0.6601E-01  0.9397E-01  0.9075E-01
     -6.467  0.3297E-01  0.3516E-01  0.9731E-01  0.9431E-01
     -6.365  0.5288E-01  0.3067E-01  0.1027E+00  0.9743E-01
     -6.264  0.7524E-01  0.4751E-01  0.1103E+00  0.1022E+00
     -6.162  0.8388E-01  0.5493E-01  0.1188E+00  0.1078E+00
     -6.061  0.7812E-01  0.5541E-01  0.1267E+00  0.1134E+00
     -5.960  0.7235E-01  0.6371E-01  0.1341E+00  0.1199E+00
     -5.858  0.8182E-01  0.7443E-01  0.1424E+00  0.1274E+00
     -5.757  0.1032E+00  0.8191E-01  0.1528E+00  0.1358E+00
     -5.655  0.1294E+00  0.8956E-01  0.1660E+00  0.1448E+00
     -5.554  0.1626E+00  0.9358E-01  0.1825E+00  0.1543E+00
     -5.452  0.2059E+00  0.8847E-01  0.2033E+00  0.1633E+00
     -5.351  0.2358E+00  0.9172E-01  0.2273E+00  0.1726E+00
     -5.250  0.2207E+00  0.1296E+00  0.2497E+00  0.1858E+00
     -5.148  0.1717E+00  0.1901E+00  0.2671E+00  0.2050E+00
     -5.047  0.1364E+00  0.2290E+00  0.2809E+00  0.2283E+00
     -4.945  0.1424E+00  0.2178E+00  0.2953E+00  0.2504E+00
     -4.844  0.1770E+00  0.1719E+00  0.3133E+00  0.2678E+00
     -4.742  0.2195E+00  0.1350E+00  0.3356E+00  0.2815E+00
     -4.641  0.2618E+00  0.1250E+00  0.3621E+00  0.2942E+00
     -4.540  0.2990E+00  0.1312E+00  0.3924E+00  0.3075E+00
     -4.438  0.3056E+00  0.1458E+00  0.4234E+00  0.3222E+00
     -4.337  0.2782E+00  0.1520E+00  0.4517E+00  0.3377E+00
     -4.235  0.2720E+00  0.1483E+00  0.4792E+00  0.3527E+00
     -4.134  0.3116E+00  0.1471E+00  0.5109E+00  0.3676E+00
     -4.032  0.3762E+00  0.1307E+00  0.5490E+00  0.3809E+00
     -3.931  0.4550E+00  0.1121E+00  0.5952E+00  0.3922E+00
     -3.830  0.5224E+00  0.1575E+00  0.6482E+00  0.4082E+00
     -3.728  0.5490E+00  0.2628E+00  0.7038E+00  0.4349E+00
     -3.627  0.5456E+00  0.3231E+00  0.7592E+00  0.4677E+00
     -3.525  0.5392E+00  0.2881E+00  0.8139E+00  0.4969E+00
     -3.424  0.5410E+00  0.2280E+00  0.8687E+00  0.5200E+00
     -3.322  0.5569E+00  0.2198E+00  0.9252E+00  0.5423E+00
     -3.221  0.5754E+00  0.2831E+00  0.9836E+00  0.5710E+00
     -3.120  0.5775E+00  0.4029E+00  0.1042E+01  0.6119E+00
     -3.018  0.5823E+00  0.5048E+00  0.1101E+01  0.6631E+00
     -2.917  0.5992E+00  0.5119E+00  0.1162E+01  0.7150E+00
     -2.815  0.6064E+00  0.4694E+00  0.1224E+01  0.7626E+00
     -2.714  0.6052E+00  0.4635E+00  0.1285E+01  0.8096E+00
     -2.612  0.6264E+00  0.4952E+00  0.1348E+01  0.8598E+00
     -2.511  0.6902E+00  0.5206E+00  0.1418E+01  0.9126E+00
     -2.410  0.7846E+00  0.5210E+00  0.1498E+01  0.9655E+00
     -2.308  0.8816E+00  0.5216E+00  0.1587E+01  0.1018E+01
     -2.207  0.9621E+00  0.5412E+00  0.1685E+01  0.1073E+01
     -2.105  0.1017E+01  0.5620E+00  0.1788E+01  0.1130E+01
     -2.004  0.1032E+01  0.5652E+00  0.1893E+01  0.1188E+01
     -1.902  0.9735E+00  0.5658E+00  0.1992E+01  0.1245E+01
     -1.801  0.8452E+00  0.5885E+00  0.2077E+01  0.1305E+01
     -1.700  0.7435E+00  0.6353E+00  0.2153E+01  0.1369E+01
     -1.598  0.7450E+00  0.6918E+00  0.2228E+01  0.1439E+01
     -1.497  0.8110E+00  0.7544E+00  0.2311E+01  0.1516E+01
     -1.395  0.8673E+00  0.8255E+00  0.2398E+01  0.1600E+01
     -1.294  0.8882E+00  0.9019E+00  0.2489E+01  0.1691E+01
     -1.192  0.8933E+00  0.9640E+00  0.2579E+01  0.1789E+01
     -1.091  0.9218E+00  0.9690E+00  0.2673E+01  0.1887E+01
     -0.990  0.9724E+00  0.9015E+00  0.2771E+01  0.1979E+01
     -0.888  0.9897E+00  0.8088E+00  0.2872E+01  0.2061E+01
     -0.787  0.9967E+00  0.7538E+00  0.2973E+01  0.2137E+01
     -0.685  0.1083E+01  0.7506E+00  0.3083E+01  0.2213E+01
     -0.584  0.1193E+01  0.7617E+00  0.3204E+01  0.2290E+01
     -0.482  0.1160E+01  0.7578E+00  0.3321E+01  0.2367E+01
     -0.381  0.9215E+00  0.7501E+00  0.3415E+01  0.2443E+01
     -0.280  0.5845E+00  0.7537E+00  0.3474E+01  0.2520E+01
     -0.178  0.3256E+00  0.7565E+00  0.3507E+01  0.2597E+01
     -0.077  0.2351E+00  0.7451E+00  0.3531E+01  0.2672E+01
      0.025  0.2532E+00  0.7225E+00  0.3557E+01  0.2745E+01
      0.126  0.2535E+00  0.6910E+00  0.3582E+01  0.2815E+01
      0.228  0.1883E+00  0.6539E+00  0.3602E+01  0.2882E+01
      0.329  0.1322E+00  0.6233E+00  0.3615E+01  0.2945E+01
      0.430  0.1352E+00  0.6068E+00  0.3629E+01  0.3007E+01
      0.532  0.1348E+00  0.5890E+00  0.3642E+01  0.3066E+01
      0.633  0.9837E-01  0.5526E+00  0.3652E+01  0.3122E+01
      0.735  0.8027E-01  0.5140E+00  0.3660E+01  0.3174E+01
      0.836  0.9979E-01  0.4974E+00  0.3671E+01  0.3225E+01
      0.938  0.1082E+00  0.5026E+00  0.3682E+01  0.3276E+01
      1.039  0.9504E-01  0.5135E+00  0.3691E+01  0.3328E+01
      1.140  0.1068E+00  0.5164E+00  0.3702E+01  0.3380E+01
      1.242  0.1466E+00  0.5081E+00  0.3717E+01  0.3432E+01
      1.343  0.1669E+00  0.4924E+00  0.3734E+01  0.3482E+01
      1.445  0.1441E+00  0.4700E+00  0.3748E+01  0.3530E+01
      1.546  0.9448E-01  0.4298E+00  0.3758E+01  0.3573E+01
      1.648  0.5077E-01  0.3645E+00  0.3763E+01  0.3610E+01
      1.749  0.3540E-01  0.2909E+00  0.3767E+01  0.3640E+01
      1.850  0.5374E-01  0.2381E+00  0.3772E+01  0.3664E+01
      1.952  0.1000E+00  0.2087E+00  0.3782E+01  0.3685E+01
      2.053  0.1396E+00  0.1774E+00  0.3796E+01  0.3703E+01
      2.155  0.1334E+00  0.1435E+00  0.3810E+01  0.3717E+01
      2.256  0.1038E+00  0.1264E+00  0.3821E+01  0.3730E+01
      2.358  0.9511E-01  0.1260E+00  0.3830E+01  0.3743E+01
      2.459  0.1071E+00  0.1238E+00  0.3841E+01  0.3756E+01
      2.560  0.1143E+00  0.1173E+00  0.3853E+01  0.3767E+01
      2.662  0.1020E+00  0.1235E+00  0.3863E+01  0.3780E+01
      2.763  0.7879E-01  0.1345E+00  0.3871E+01  0.3794E+01
      2.865  0.6974E-01  0.1343E+00  0.3878E+01  0.3807E+01
      2.966  0.8980E-01  0.1348E+00  0.3887E+01  0.3821E+01
      3.068  0.1036E+00  0.1400E+00  0.3898E+01  0.3835E+01
      3.169  0.7993E-01  0.1354E+00  0.3906E+01  0.3849E+01
      3.270  0.6127E-01  0.1204E+00  0.3912E+01  0.3861E+01
      3.372  0.8690E-01  0.1022E+00  0.3921E+01  0.3871E+01
      3.473  0.1194E+00  0.8575E-01  0.3933E+01  0.3880E+01
      3.575  0.1112E+00  0.7418E-01  0.3944E+01  0.3888E+01
      3.676  0.8435E-01  0.7052E-01  0.3953E+01  0.3895E+01
      3.778  0.8188E-01  0.7766E-01  0.3961E+01  0.3903E+01
      3.879  0.9742E-01  0.9336E-01  0.3971E+01  0.3912E+01
      3.980  0.1053E+00  0.1146E+00  0.3982E+01  0.3924E+01
      4.082  0.1024E+00  0.1262E+00  0.3992E+01  0.3937E+01
      4.183  0.9120E-01  0.1162E+00  0.4001E+01  0.3948E+01
      4.285  0.7247E-01  0.1067E+00  0.4009E+01  0.3959E+01
      4.386  0.6548E-01  0.1114E+00  0.4015E+01  0.3971E+01
      4.488  0.7338E-01  0.1141E+00  0.4023E+01  0.3982E+01
      4.589  0.7358E-01  0.1079E+00  0.4030E+01  0.3993E+01
      4.690  0.5495E-01  0.9901E-01  0.4036E+01  0.4003E+01
      4.792  0.3151E-01  0.8533E-01  0.4039E+01  0.4012E+01
      4.893  0.3433E-01  0.7363E-01  0.4042E+01  0.4019E+01
      4.995  0.7295E-01  0.7317E-01  0.4050E+01  0.4027E+01
      5.096  0.1159E+00  0.7099E-01  0.4062E+01  0.4034E+01
      5.198  0.1248E+00  0.6248E-01  0.4074E+01  0.4040E+01
      5.299  0.9792E-01  0.6354E-01  0.4084E+01  0.4047E+01
      5.400  0.7392E-01  0.7507E-01  0.4092E+01  0.4054E+01
      5.502  0.8189E-01  0.8774E-01  0.4100E+01  0.4063E+01
      5.603  0.1048E+00  0.1002E+00  0.4111E+01  0.4073E+01
      5.705  0.1059E+00  0.1094E+00  0.4121E+01  0.4084E+01
      5.806  0.8063E-01  0.1083E+00  0.4130E+01  0.4095E+01
      5.908  0.5696E-01  0.1020E+00  0.4135E+01  0.4106E+01
      6.009  0.5208E-01  0.1018E+00  0.4141E+01  0.4116E+01
      6.110  0.5901E-01  0.1012E+00  0.4147E+01  0.4126E+01
      6.212  0.7197E-01  0.8481E-01  0.4154E+01  0.4135E+01
      6.313  0.9895E-01  0.5831E-01  0.4164E+01  0.4141E+01
      6.415  0.1414E+00  0.5738E-01  0.4178E+01  0.4147E+01
      6.516  0.1693E+00  0.9684E-01  0.4195E+01  0.4156E+01
      6.618  0.1651E+00  0.1381E+00  0.4212E+01  0.4170E+01
      6.719  0.1463E+00  0.1346E+00  0.4227E+01  0.4184E+01
      6.820  0.1071E+00  0.9514E-01  0.4238E+01  0.4194E+01
      6.922  0.4748E-01  0.7182E-01  0.4243E+01  0.4201E+01
      7.023  0.5506E-02  0.9266E-01  0.4243E+01  0.4210E+01
      7.125 -0.4743E-02  0.1262E+00  0.4243E+01  0.4223E+01
      7.226 -0.2472E-02  0.1188E+00  0.4242E+01  0.4235E+01
      7.328 -0.5477E-03  0.6492E-01  0.4242E+01  0.4242E+01
      7.429 -0.6747E-04  0.1384E-01  0.4242E+01  0.4243E+01
      7.530 -0.4933E-05 -0.4113E-02  0.4242E+01  0.4243E+01
      7.632 -0.2182E-06 -0.3261E-02  0.4242E+01  0.4243E+01
      7.733 -0.5857E-08 -0.8344E-03  0.4242E+01  0.4242E+01
      7.835 -0.9518E-10 -0.1100E-03  0.4242E+01  0.4242E+01
      7.936 -0.9324E-12 -0.8180E-05  0.4242E+01  0.4242E+01
      8.038 -0.5486E-14 -0.3540E-06  0.4242E+01  0.4242E+01
      8.139 -0.1966E-16 -0.9042E-08  0.4242E+01  0.4242E+01
      8.240  0.0000E+00 -0.1373E-09  0.4242E+01  0.4242E+01
      8.342  0.0000E+00 -0.1244E-11  0.4242E+01  0.4242E+01
      8.443  0.0000E+00 -0.6742E-14  0.4242E+01  0.4242E+01
      8.545  0.0000E+00 -0.1966E-16  0.4242E+01  0.4242E+01
      8.646  0.0000E+00  0.0000E+00  0.4242E+01  0.4242E+01
      8.748  0.0000E+00  0.0000E+00  0.4242E+01  0.4242E+01
      8.849  0.0000E+00  0.0000E+00  0.4242E+01  0.4242E+01
      8.950  0.0000E+00  0.0000E+00  0.4242E+01  0.4242E+01
      9.052  0.0000E+00  0.0000E+00  0.4242E+01  0.4242E+01
      9.153  0.0000E+00  0.0000E+00  0.4242E+01  0.4242E+01
      9.255  0.0000E+00  0.0000E+00  0.4242E+01  0.4242E+01
      9.25468411    -21.17374135  301      0.20426044      1.00000000
    -21.174  0.0000E+00  0.0000E+00  0.0000E+00  0.0000E+00  0.0000E+00  0.0000E+00
    -21.072  0.0000E+00  0.0000E+00  0.0000E+00  0.0000E+00  0.0000E+00  0.0000E+00
    -20.971  0.0000E+00  0.0000E+00  0.0000E+00  0.0000E+00  0.0000E+00  0.0000E+00
    -20.869 -0.1906E-35  0.0000E+00 -0.1815E-35  0.0000E+00 -0.9605E-36  0.0000E+00
    -20.768 -0.7554E-32  0.0000E+00 -0.7195E-32  0.0000E+00 -0.3808E-32  0.0000E+00
    -20.667 -0.1783E-28 -0.7471E-34 -0.1699E-28 -0.7055E-34 -0.8990E-29 -0.3694E-34
    -20.565 -0.2505E-25 -0.2379E-30 -0.2386E-25 -0.2246E-30 -0.1263E-25 -0.1176E-30
    -20.464 -0.2092E-22 -0.4510E-27 -0.1993E-22 -0.4259E-27 -0.1055E-22 -0.2230E-27
    -20.362 -0.1038E-19 -0.5086E-24 -0.9889E-20 -0.4803E-24 -0.5234E-20 -0.2515E-24
    -20.261 -0.2953E-17 -0.3409E-21 -0.2813E-17 -0.3220E-21 -0.1489E-17 -0.1686E-21
    -20.159 -0.5109E-15 -0.1315E-18 -0.4867E-15 -0.1242E-18 -0.2576E-15 -0.6502E-19
    -20.058 -0.5205E-13 -0.3085E-16 -0.4959E-13 -0.2914E-16 -0.2625E-13 -0.1526E-16
    -19.957 -0.3107E-11 -0.4269E-14 -0.2960E-11 -0.4032E-14 -0.1567E-11 -0.2112E-14
    -19.855 -0.1077E-09 -0.3472E-12 -0.1026E-09 -0.3280E-12 -0.5434E-10 -0.1718E-12
    -19.754 -0.2137E-08 -0.1650E-10 -0.2036E-08 -0.1558E-10 -0.1078E-08 -0.8163E-11
    -19.652 -0.2356E-07 -0.4529E-09 -0.2245E-07 -0.4278E-09 -0.1189E-07 -0.2241E-09
    -19.551 -0.1348E-06 -0.7045E-08 -0.1285E-06 -0.6656E-08 -0.6815E-07 -0.3487E-08
    -19.449 -0.3165E-06 -0.5962E-07 -0.3037E-06 -0.5635E-07 -0.1631E-06 -0.2954E-07
    -19.348  0.1891E-06 -0.2466E-06  0.1547E-06 -0.2335E-06  0.5452E-07 -0.1228E-06
    -19.247  0.2039E-05 -0.2909E-06  0.1784E-05 -0.2820E-06  0.7737E-06 -0.1550E-06
    -19.145  0.3045E-05  0.1022E-05  0.2473E-05  0.9093E-06  0.8499E-06  0.4182E-06
    -19.044  0.6291E-05  0.3398E-05  0.6186E-05  0.2976E-05  0.3481E-05  0.1318E-05
    -18.942  0.2618E-04  0.4321E-05  0.2867E-04  0.3764E-05  0.1919E-04  0.1642E-05
    -18.841  0.5242E-04  0.1119E-04  0.5823E-04  0.1163E-04  0.3972E-04  0.7180E-05
    -18.739  0.4754E-04  0.3521E-04  0.5320E-04  0.3831E-04  0.3667E-04  0.2527E-04
    -18.638  0.1783E-04  0.5514E-04  0.2025E-04  0.6050E-04  0.1423E-04  0.4035E-04
    -18.537 -0.2529E-06  0.4111E-04 -0.1159E-06  0.4546E-04  0.8266E-07  0.3064E-04
    -18.435 -0.2288E-05  0.1196E-04 -0.2546E-05  0.1344E-04 -0.1740E-05  0.9259E-05
    -18.334 -0.7603E-06 -0.1647E-05 -0.8652E-06 -0.1731E-05 -0.6101E-06 -0.1083E-05
    -18.232 -0.1231E-06 -0.2000E-05 -0.1429E-06 -0.2215E-05 -0.1035E-06 -0.1496E-05
    -18.131 -0.1169E-07 -0.5372E-06 -0.1385E-07 -0.6026E-06 -0.1031E-07 -0.4142E-06
    -18.029 -0.6923E-09 -0.7078E-07 -0.8343E-09 -0.8019E-07 -0.6350E-09 -0.5589E-07
    -17.928 -0.2581E-10 -0.5167E-08 -0.3150E-10 -0.5908E-08 -0.2437E-10 -0.4169E-08
    -17.827 -0.5987E-12 -0.2182E-09 -0.7369E-12 -0.2517E-09 -0.5760E-12 -0.1797E-09
    -17.725 -0.8502E-14 -0.5441E-11 -0.1052E-13 -0.6325E-11 -0.8267E-14 -0.4565E-11
    -17.624 -0.7296E-16 -0.8091E-13 -0.9046E-16 -0.9472E-13 -0.7135E-16 -0.6905E-13
    -17.522 -0.3729E-18 -0.7214E-15 -0.4646E-18 -0.8499E-15 -0.3684E-18 -0.6250E-15
    -17.421 -0.1074E-20 -0.3864E-17 -0.1337E-20 -0.4578E-17 -0.1060E-20 -0.3392E-17
    -17.319  0.0000E+00 -0.9595E-20  0.0000E+00 -0.1163E-19  0.0000E+00 -0.8920E-20
    -17.218  0.0000E+00  0.0000E+00  0.0000E+00  0.0000E+00  0.0000E+00  0.0000E+00
    -17.117  0.0000E+00  0.0000E+00  0.0000E+00  0.0000E+00  0.0000E+00  0.0000E+00
    -17.015  0.0000E+00  0.0000E+00  0.0000E+00  0.0000E+00  0.0000E+00  0.0000E+00
    -16.914  0.0000E+00  0.0000E+00  0.0000E+00  0.0000E+00  0.0000E+00  0.0000E+00
    -16.812  0.0000E+00  0.0000E+00  0.0000E+00  0.0000E+00  0.0000E+00  0.0000E+00
    -16.711  0.0000E+00  0.0000E+00  0.0000E+00  0.0000E+00  0.0000E+00  0.0000E+00
    -16.609  0.0000E+00  0.0000E+00  0.0000E+00  0.0000E+00  0.0000E+00  0.0000E+00
    -16.508  0.0000E+00  0.0000E+00  0.0000E+00  0.0000E+00  0.0000E+00  0.0000E+00
    -16.407  0.0000E+00  0.0000E+00  0.0000E+00  0.0000E+00  0.0000E+00  0.0000E+00
    -16.305  0.0000E+00  0.0000E+00  0.0000E+00  0.0000E+00  0.0000E+00  0.0000E+00
    -16.204  0.0000E+00  0.0000E+00  0.0000E+00  0.0000E+00  0.0000E+00  0.0000E+00
    -16.102  0.0000E+00  0.0000E+00  0.0000E+00  0.0000E+00  0.0000E+00  0.0000E+00
    -16.001  0.0000E+00  0.0000E+00  0.0000E+00  0.0000E+00  0.0000E+00  0.0000E+00
    -15.899  0.0000E+00  0.0000E+00  0.0000E+00  0.0000E+00  0.0000E+00  0.0000E+00
    -15.798  0.0000E+00  0.0000E+00  0.0000E+00  0.0000E+00  0.0000E+00  0.0000E+00
    -15.697  0.0000E+00  0.0000E+00  0.0000E+00  0.0000E+00  0.0000E+00  0.0000E+00
    -15.595  0.0000E+00  0.0000E+00  0.0000E+00  0.0000E+00  0.0000E+00  0.0000E+00
    -15.494  0.0000E+00  0.0000E+00  0.0000E+00  0.0000E+00  0.0000E+00  0.0000E+00
    -15.392  0.0000E+00  0.0000E+00  0.0000E+00  0.0000E+00  0.0000E+00  0.0000E+00
    -15.291  0.0000E+00  0.0000E+00  0.0000E+00  0.0000E+00  0.0000E+00  0.0000E+00
    -15.189  0.0000E+00  0.0000E+00  0.0000E+00  0.0000E+00  0.0000E+00  0.0000E+00
    -15.088  0.0000E+00  0.0000E+00  0.0000E+00  0.0000E+00  0.0000E+00  0.0000E+00
    -14.987  0.0000E+00  0.0000E+00  0.0000E+00  0.0000E+00  0.0000E+00  0.0000E+00
    -14.885  0.0000E+00  0.0000E+00  0.0000E+00  0.0000E+00  0.0000E+00  0.0000E+00
    -14.784  0.0000E+00  0.0000E+00  0.0000E+00  0.0000E+00  0.0000E+00  0.0000E+00
    -14.682  0.0000E+00  0.0000E+00  0.0000E+00  0.0000E+00  0.0000E+00  0.0000E+00
    -14.581  0.0000E+00  0.0000E+00  0.0000E+00  0.0000E+00  0.0000E+00  0.0000E+00
    -14.479  0.0000E+00  0.0000E+00  0.0000E+00  0.0000E+00  0.0000E+00  0.0000E+00
    -14.378  0.0000E+00  0.0000E+00  0.0000E+00  0.0000E+00  0.0000E+00  0.0000E+00
    -14.277  0.0000E+00  0.0000E+00  0.0000E+00  0.0000E+00  0.0000E+00  0.0000E+00
    -14.175  0.0000E+00  0.0000E+00  0.0000E+00  0.0000E+00  0.0000E+00  0.0000E+00
    -14.074  0.0000E+00  0.0000E+00  0.0000E+00  0.0000E+00  0.0000E+00  0.0000E+00
    -13.972  0.0000E+00  0.0000E+00  0.0000E+00  0.0000E+00  0.0000E+00  0.0000E+00
    -13.871  0.0000E+00  0.0000E+00  0.0000E+00  0.0000E+00  0.0000E+00  0.0000E+00
    -13.769  0.0000E+00  0.0000E+00  0.0000E+00  0.0000E+00  0.0000E+00  0.0000E+00
    -13.668  0.0000E+00  0.0000E+00  0.0000E+00  0.0000E+00  0.0000E+00  0.0000E+00
    -13.567  0.0000E+00  0.0000E+00  0.0000E+00  0.0000E+00  0.0000E+00  0.0000E+00
    -13.465  0.0000E+00  0.0000E+00  0.0000E+00  0.0000E+00  0.0000E+00  0.0000E+00
    -13.364  0.0000E+00  0.0000E+00  0.0000E+00  0.0000E+00  0.0000E+00  0.0000E+00
    -13.262  0.0000E+00  0.0000E+00  0.0000E+00  0.0000E+00  0.0000E+00  0.0000E+00
    -13.161  0.0000E+00  0.0000E+00  0.0000E+00  0.0000E+00  0.0000E+00  0.0000E+00
    -13.059  0.0000E+00  0.0000E+00  0.0000E+00  0.0000E+00  0.0000E+00  0.0000E+00
    -12.958  0.0000E+00  0.0000E+00  0.0000E+00  0.0000E+00  0.0000E+00  0.0000E+00
    -12.857  0.0000E+00  0.0000E+00  0.0000E+00  0.0000E+00  0.0000E+00  0.0000E+00
    -12.755  0.0000E+00  0.0000E+00  0.0000E+00  0.0000E+00  0.0000E+00  0.0000E+00
    -12.654  0.0000E+00  0.0000E+00  0.0000E+00  0.0000E+00  0.0000E+00  0.0000E+00
    -12.552  0.0000E+00  0.0000E+00  0.0000E+00  0.0000E+00  0.0000E+00  0.0000E+00
    -12.451  0.0000E+00  0.0000E+00  0.0000E+00  0.0000E+00  0.0000E+00  0.0000E+00
    -12.349  0.0000E+00  0.0000E+00  0.0000E+00  0.0000E+00  0.0000E+00  0.0000E+00
    -12.248  0.0000E+00  0.0000E+00  0.0000E+00  0.0000E+00  0.0000E+00  0.0000E+00
    -12.147  0.0000E+00  0.0000E+00  0.0000E+00  0.0000E+00  0.0000E+00  0.0000E+00
    -12.045  0.0000E+00  0.0000E+00  0.0000E+00  0.0000E+00  0.0000E+00  0.0000E+00
    -11.944  0.0000E+00  0.0000E+00  0.0000E+00  0.0000E+00  0.0000E+00  0.0000E+00
    -11.842  0.0000E+00  0.0000E+00  0.0000E+00  0.0000E+00  0.0000E+00  0.0000E+00
    -11.741  0.0000E+00  0.0000E+00  0.0000E+00  0.0000E+00  0.0000E+00  0.0000E+00
    -11.640  0.0000E+00  0.0000E+00  0.0000E+00  0.0000E+00  0.0000E+00  0.0000E+00
    -11.538  0.0000E+00  0.0000E+00  0.0000E+00  0.0000E+00  0.0000E+00  0.0000E+00
    -11.437  0.0000E+00  0.0000E+00  0.0000E+00  0.0000E+00  0.0000E+00  0.0000E+00
    -11.335  0.0000E+00  0.0000E+00  0.0000E+00  0.0000E+00  0.0000E+00  0.0000E+00
    -11.234  0.0000E+00  0.0000E+00  0.0000E+00  0.0000E+00  0.0000E+00  0.0000E+00
    -11.132  0.0000E+00  0.0000E+00  0.0000E+00  0.0000E+00  0.0000E+00  0.0000E+00
    -11.031  0.0000E+00  0.0000E+00  0.0000E+00  0.0000E+00  0.0000E+00  0.0000E+00
    -10.930  0.0000E+00  0.0000E+00  0.0000E+00  0.0000E+00  0.0000E+00  0.0000E+00
    -10.828  0.0000E+00  0.0000E+00  0.0000E+00  0.0000E+00  0.0000E+00  0.0000E+00
    -10.727  0.0000E+00  0.0000E+00  0.0000E+00  0.0000E+00  0.0000E+00  0.0000E+00
    -10.625  0.0000E+00  0.0000E+00  0.0000E+00  0.0000E+00  0.0000E+00  0.0000E+00
    -10.524  0.0000E+00  0.0000E+00  0.0000E+00  0.0000E+00  0.0000E+00  0.0000E+00
    -10.422  0.0000E+00  0.0000E+00  0.0000E+00  0.0000E+00  0.0000E+00  0.0000E+00
    -10.321  0.0000E+00  0.0000E+00  0.0000E+00  0.0000E+00  0.0000E+00  0.0000E+00
    -10.220  0.0000E+00  0.0000E+00  0.0000E+00  0.0000E+00  0.0000E+00  0.0000E+00
    -10.118  0.0000E+00  0.0000E+00  0.0000E+00  0.0000E+00  0.0000E+00  0.0000E+00
    -10.017  0.0000E+00  0.0000E+00  0.0000E+00  0.0000E+00  0.0000E+00  0.0000E+00
     -9.915 -0.1028E-30  0.0000E+00 -0.1158E-32  0.0000E+00 -0.1649E-33  0.0000E+00
     -9.814 -0.3236E-27 -0.6694E-29 -0.3645E-29 -0.6796E-31 -0.5189E-30 -0.1048E-31
     -9.712 -0.6063E-24 -0.1626E-25 -0.6829E-26 -0.1650E-27 -0.9722E-27 -0.2544E-28
     -9.611 -0.6757E-21 -0.2350E-22 -0.7611E-23 -0.2385E-24 -0.1083E-23 -0.3677E-25
     -9.510 -0.4475E-18 -0.2019E-19 -0.5041E-20 -0.2050E-21 -0.7176E-21 -0.3160E-22
     -9.408 -0.1710E-15 -0.1031E-16 -0.1926E-17 -0.1047E-18 -0.2742E-18 -0.1613E-19
     -9.307 -0.3953E-13 -0.3019E-14 -0.4453E-15 -0.3065E-16 -0.6339E-16 -0.4724E-17
     -9.205 -0.5404E-11 -0.5376E-12 -0.6088E-13 -0.5458E-14 -0.8666E-14 -0.8413E-15
     -9.104 -0.4343E-09 -0.5639E-10 -0.4893E-11 -0.5726E-12 -0.6964E-12 -0.8825E-13
     -9.002 -0.2038E-07 -0.3468E-08 -0.2298E-09 -0.3522E-10 -0.3269E-10 -0.5427E-11
     -8.901 -0.5531E-06 -0.1240E-06 -0.6249E-08 -0.1261E-08 -0.8871E-09 -0.1940E-09
     -8.800 -0.8520E-05 -0.2543E-05 -0.9699E-07 -0.2597E-07 -0.1368E-07 -0.3980E-08
     -8.698 -0.7203E-04 -0.2921E-04 -0.8433E-06 -0.3029E-06 -0.1159E-06 -0.4574E-07
     -8.597 -0.3100E-03 -0.1789E-03 -0.4055E-05 -0.1966E-05 -0.5045E-06 -0.2808E-06
     -8.495 -0.5281E-03 -0.5165E-03 -0.1143E-04 -0.7214E-05 -0.9190E-06 -0.8189E-06
     -8.394  0.3793E-03 -0.3466E-03 -0.2257E-04 -0.1733E-04  0.2554E-06 -0.6166E-06
     -8.292  0.3628E-02  0.1712E-02 -0.3657E-05 -0.2619E-04  0.5233E-05  0.2447E-05
     -8.191  0.1287E-01  0.7695E-02  0.2591E-03  0.7462E-04  0.2211E-04  0.1202E-04
     -8.090  0.3233E-01  0.2410E-01  0.9443E-03  0.5773E-03  0.5904E-04  0.3943E-04
     -7.988  0.4401E-01  0.4571E-01  0.1363E-02  0.1286E-02  0.7932E-04  0.7521E-04
     -7.887  0.2729E-01  0.4289E-01  0.7920E-03  0.1209E-02  0.4246E-04  0.6769E-04
     -7.785  0.7598E-02  0.1802E-01  0.2317E-03  0.4250E-03  0.1137E-04  0.2160E-04
     -7.684  0.1631E-01  0.1317E-01  0.1078E-02  0.4380E-03  0.8044E-04  0.2481E-04
     -7.582  0.3927E-01  0.3256E-01  0.2860E-02  0.1811E-02  0.2324E-03  0.1169E-03
     -7.481  0.5070E-01  0.4488E-01  0.4230E-02  0.3636E-02  0.3990E-03  0.2592E-03
     -7.380  0.5058E-01  0.4824E-01  0.4683E-02  0.5131E-02  0.5097E-03  0.4098E-03
     -7.278  0.3664E-01  0.4742E-01  0.3453E-02  0.5166E-02  0.3956E-03  0.4420E-03