       N       E                     dE             d eps       ncg     rms          rms(c)
DAV:   1    -0.395700634441E+03   -0.39570E+03   -0.15672E+03  9024   0.472E+01    0.749E+00
RMM:   2    -0.409430356477E+03   -0.13730E+02   -0.13642E+02  8488   0.230E+01    0.122E+01
RMM:   3    -0.410304945514E+03   -0.87459E+00   -0.83279E+00  8470   0.590E+00    0.168E+01
RMM:   4    -0.409305807165E+03    0.99914E+00   -0.12614E+00  8549   0.273E+00    0.570E+00
RMM:   5    -0.409389328320E+03   -0.83521E-01   -0.28590E-01  8574   0.122E+00    0.709E+00
RMM:   6    -0.409499552387E+03   -0.11022E+00   -0.14299E-01  8486   0.868E-01    0.862E+00
RMM:   7    -0.409225148753E+03    0.27440E+00   -0.73779E-02  8468   0.677E-01    0.283E+00
RMM:   8    -0.409207459274E+03    0.17689E-01   -0.20323E-02  8465   0.352E-01    0.180E+00
RMM:   9    -0.409206646561E+03    0.81271E-03   -0.48256E-03  8581   0.154E-01    0.181E+00
RMM:  10    -0.409202875479E+03    0.37711E-02   -0.27294E-03  8494   0.127E-01    0.161E+00
RMM:  11    -0.409199278439E+03    0.35970E-02   -0.17103E-03  8472   0.997E-02    0.148E+00
RMM:  12    -0.409189058728E+03    0.10220E-01   -0.26713E-03  8478   0.125E-01    0.104E+00
RMM:  13    -0.409182740538E+03    0.63182E-02   -0.15784E-03  8483   0.974E-02    0.801E-01
RMM:  14    -0.409175776871E+03    0.69637E-02   -0.14929E-03  8485   0.902E-02    0.655E-01
RMM:  15    -0.409170947371E+03    0.48295E-02   -0.82004E-04  8467   0.706E-02    0.483E-01
RMM:  16    -0.409169608778E+03    0.13386E-02   -0.43308E-04  8435   0.509E-02    0.478E-01
RMM:  17    -0.409168357652E+03    0.12511E-02   -0.39285E-04  8425   0.497E-02    0.323E-01
RMM:  18    -0.409169271637E+03   -0.91399E-03   -0.25523E-04  8363   0.396E-02    0.209E-01
RMM:  19    -0.409173758987E+03   -0.44873E-02   -0.31298E-04  8404   0.412E-02    0.203E-01
RMM:  20    -0.409177876757E+03   -0.41178E-02   -0.23014E-04  8384   0.360E-02    0.129E-01
RMM:  21    -0.409184131714E+03   -0.62550E-02   -0.19410E-04  8352   0.287E-02    0.158E-01
RMM:  22    -0.409193621929E+03   -0.94902E-02   -0.31034E-04  8349   0.294E-02    0.125E-01
RMM:  23    -0.409197914305E+03   -0.42924E-02   -0.14590E-04  8241   0.229E-02    0.125E-01
RMM:  24    -0.409207127380E+03   -0.92131E-02   -0.45583E-04  8383   0.278E-02    0.107E-01
RMM:  25    -0.409210038385E+03   -0.29110E-02   -0.14288E-04  8066   0.204E-02    0.595E-02
RMM:  26    -0.409213194234E+03   -0.31558E-02   -0.13575E-04  7944   0.174E-02    0.689E-02
RMM:  27    -0.409215083346E+03   -0.18891E-02   -0.80154E-05  7442   0.143E-02    0.375E-02
RMM:  28    -0.409216045895E+03   -0.96255E-03   -0.36019E-05  5860   0.103E-02    0.421E-02
RMM:  29    -0.409217063386E+03   -0.10175E-02   -0.54180E-05  6694   0.109E-02    0.711E-02
RMM:  30    -0.409217233755E+03   -0.17037E-03   -0.87948E-06  5063   0.567E-03    0.738E-02
RMM:  31    -0.409217397314E+03   -0.16356E-03   -0.10084E-05  5190   0.500E-03    0.225E-02
RMM:  32    -0.409217451319E+03   -0.54005E-04   -0.54313E-06  4843   0.405E-03    0.410E-02
RMM:  33    -0.409217498432E+03   -0.47113E-04   -0.42674E-06  4876   0.371E-03    0.527E-02
RMM:  34    -0.409217508961E+03   -0.10529E-04   -0.24937E-06  4726   0.306E-03    0.487E-02
RMM:  35    -0.409217507043E+03    0.19181E-05   -0.79496E-07  4361   0.188E-03
   1 F= -.42606157E+03 E0= -.42607436E+03  d E =-.426062E+03  mag=    72.3451
       N       E                     dE             d eps       ncg     rms          rms(c)
DAV:   1    -0.409215541806E+03    0.19672E-02   -0.30956E-01  8637   0.888E-01    0.197E-01
RMM:   2    -0.409217081931E+03   -0.15401E-02   -0.89543E-03  8538   0.223E-01    0.402E-01
RMM:   3    -0.409217001944E+03    0.79987E-04   -0.19113E-03  8475   0.111E-01    0.390E-01
RMM:   4    -0.409217550108E+03   -0.54816E-03   -0.64542E-04  8459   0.641E-02    0.520E-01
RMM:   5    -0.409216658830E+03    0.89128E-03   -0.32576E-04  8333   0.448E-02    0.283E-01
RMM:   6    -0.409216441049E+03    0.21778E-03   -0.16723E-04  8337   0.323E-02    0.128E-01
RMM:   7    -0.409216432988E+03    0.80614E-05   -0.15981E-04  8364   0.307E-02    0.173E-01
RMM:   8    -0.409216251820E+03    0.18117E-03   -0.14380E-04  8351   0.308E-02    0.904E-02
RMM:   9    -0.409216243330E+03    0.84904E-05   -0.98996E-05  8151   0.249E-02
   2 F= -.42606224E+03 E0= -.42607510E+03  d E =-.670913E-03  mag=    72.3565
