 vasp.5.4.4.18Apr17-6-g9f103f2a35 (build Dec 15 2018 21:27:11) complex          
  
 executed on             LinuxIFC date 2022.03.10  18:27:33
 running on   72 total cores
 distrk:  each k-point on   72 cores,    1 groups
 distr:  one band on NCORES_PER_BAND=  24 cores,    3 groups


--------------------------------------------------------------------------------------------------------


 INCAR:
 POTCAR:    PAW_PBE Ni 02Aug2007                  
 POTCAR:    PAW_PBE Fe 06Sep2000                  
 POTCAR:    PAW_PBE O 08Apr2002                   

 ----------------------------------------------------------------------------- 
|                                                                             |
|           W    W    AA    RRRRR   N    N  II  N    N   GGGG   !!!           |
|           W    W   A  A   R    R  NN   N  II  NN   N  G    G  !!!           |
|           W    W  A    A  R    R  N N  N  II  N N  N  G       !!!           |
|           W WW W  AAAAAA  RRRRR   N  N N  II  N  N N  G  GGG   !            |
|           WW  WW  A    A  R   R   N   NN  II  N   NN  G    G                |
|           W    W  A    A  R    R  N    N  II  N    N   GGGG   !!!           |
|                                                                             |
|      For optimal performance we recommend to set                            |
|        NCORE= 4 - approx SQRT( number of cores)                             |
|      NCORE specifies how many cores store one orbital (NPAR=cpu/NCORE).     |
|      This setting can  greatly improve the performance of VASP for DFT.     |
|      The default,   NCORE=1            might be grossly inefficient         |
|      on modern multi-core architectures or massively parallel machines.     |
|      Do your own testing !!!!                                               |
|      Unfortunately you need to use the default for GW and RPA calculations. |
|      (for HF NCORE is supported but not extensively tested yet)             |
|                                                                             |
 ----------------------------------------------------------------------------- 

 POTCAR:    PAW_PBE Ni 02Aug2007                  
   VRHFIN =Ni:                                                                  
   LEXCH  = PE                                                                  
   EATOM  =  1077.6739 eV,   79.2068 Ry                                         
                                                                                
   TITEL  = PAW_PBE Ni 02Aug2007                                                
   LULTRA =        F    use ultrasoft PP ?                                      
   IUNSCR =        1    unscreen: 0-lin 1-nonlin 2-no                           
   RPACOR =    2.000    partial core radius                                     
   POMASS =   58.690; ZVAL   =   10.000    mass and valenz                      
   RCORE  =    2.300    outmost cutoff radius                                   
   RWIGS  =    2.430; RWIGS  =    1.286    wigner-seitz radius (au A)           
   ENMAX  =  269.532; ENMIN  =  202.149 eV                                      
   RCLOC  =    1.201    cutoff for local pot                                    
   LCOR   =        T    correct aug charges                                     
   LPAW   =        T    paw PP                                                  
   EAUG   =  544.565                                                            
   DEXC   =    0.000                                                            
   RMAX   =    2.357    core radius for proj-oper                               
   RAUG   =    1.300    factor for augmentation sphere                          
   RDEP   =    2.390    radius for radial grids                                 
   RDEPT  =    1.838    core radius for aug-charge                              
                                                                                
   Atomic configuration                                                         
    9 entries                                                                   
     n  l   j            E        occ.                                          
     1  0  0.50     -8206.4253   2.0000                                         
     2  0  0.50      -976.1748   2.0000                                         
     2  1  1.50      -839.0571   6.0000                                         
     3  0  0.50      -105.9991   2.0000                                         
     3  1  1.50       -66.4603   6.0000                                         
     3  2  2.50        -4.6458   9.0000                                         
     4  0  0.50        -4.4926   1.0000                                         
     4  1  1.50        -4.0817   0.0000                                         
     4  3  2.50        -1.3606   0.0000                                         
   Description                                                                  
     l       E           TYP  RCUT    TYP  RCUT                                 
     2     -4.6457903     23  2.300                                             
     2     -6.0063729     23  2.300                                             
     0     -4.4925590     23  2.300                                             
     0      5.0102601     23  2.300                                             
     1     -2.7211652     23  2.300                                             
     1     16.5183231     23  2.300                                             
  local pseudopotential read in
  partial core-charges read in
  partial kinetic energy density read in
  atomic valenz-charges read in
  non local Contribution for L=           2  read in
    real space projection operators read in
  non local Contribution for L=           2  read in
    real space projection operators read in
  non local Contribution for L=           0  read in
    real space projection operators read in
  non local Contribution for L=           0  read in
    real space projection operators read in
  non local Contribution for L=           1  read in
    real space projection operators read in
  non local Contribution for L=           1  read in
    real space projection operators read in
    PAW grid and wavefunctions read in
 
   number of l-projection  operators is LMAX  =           6
   number of lm-projection operators is LMMAX =          18
 
 POTCAR:    PAW_PBE Fe 06Sep2000                  
   VRHFIN =Fe:  d7 s1                                                           
   LEXCH  = PE                                                                  
   EATOM  =   594.3153 eV,   43.6809 Ry                                         
                                                                                
   TITEL  = PAW_PBE Fe 06Sep2000                                                
   LULTRA =        F    use ultrasoft PP ?                                      
   IUNSCR =        1    unscreen: 0-lin 1-nonlin 2-no                           
   RPACOR =    2.000    partial core radius                                     
   POMASS =   55.847; ZVAL   =    8.000    mass and valenz                      
   RCORE  =    2.300    outmost cutoff radius                                   
   RWIGS  =    2.460; RWIGS  =    1.302    wigner-seitz radius (au A)           
   ENMAX  =  267.882; ENMIN  =  200.911 eV                                      
   RCLOC  =    1.701    cutoff for local pot                                    
   LCOR   =        T    correct aug charges                                     
   LPAW   =        T    paw PP                                                  
   EAUG   =  511.368                                                            
   DEXC   =    0.000                                                            
   RMAX   =    2.356    core radius for proj-oper                               
   RAUG   =    1.300    factor for augmentation sphere                          
   RDEP   =    2.442    radius for radial grids                                 
   RDEPT  =    1.890    core radius for aug-charge                              
                                                                                
   Atomic configuration                                                         
    9 entries                                                                   
     n  l   j            E        occ.                                          
     1  0  0.50     -6993.8440   2.0000                                         
     2  0  0.50      -814.6047   2.0000                                         
     2  1  1.50      -693.3689   6.0000                                         
     3  0  0.50       -89.4732   2.0000                                         
     3  1  1.50       -55.6373   6.0000                                         
     3  2  2.50        -3.8151   7.0000                                         
     4  0  0.50        -4.2551   1.0000                                         
     4  1  1.50        -3.4015   0.0000                                         
     4  3  2.50        -1.3606   0.0000                                         
   Description                                                                  
     l       E           TYP  RCUT    TYP  RCUT                                 
     2     -3.8151135     23  2.300                                             
     2     -5.1756961     23  2.300                                             
     0     -4.2550963     23  2.300                                             
     0      7.2035603     23  2.300                                             
     1     -2.7211652     23  2.300                                             
     1     18.4316424     23  2.300                                             
  local pseudopotential read in
  partial core-charges read in
  partial kinetic energy density read in
  atomic valenz-charges read in
  non local Contribution for L=           2  read in
    real space projection operators read in
  non local Contribution for L=           2  read in
    real space projection operators read in
  non local Contribution for L=           0  read in
    real space projection operators read in
  non local Contribution for L=           0  read in
    real space projection operators read in
  non local Contribution for L=           1  read in
    real space projection operators read in
  non local Contribution for L=           1  read in
    real space projection operators read in
    PAW grid and wavefunctions read in
 
   number of l-projection  operators is LMAX  =           6
   number of lm-projection operators is LMMAX =          18
 
 POTCAR:    PAW_PBE O 08Apr2002                   
   VRHFIN =O: s2p4                                                              
   LEXCH  = PE                                                                  
   EATOM  =   432.3788 eV,   31.7789 Ry                                         
                                                                                
   TITEL  = PAW_PBE O 08Apr2002                                                 
   LULTRA =        F    use ultrasoft PP ?                                      
   IUNSCR =        1    unscreen: 0-lin 1-nonlin 2-no                           
   RPACOR =    1.200    partial core radius                                     
   POMASS =   16.000; ZVAL   =    6.000    mass and valenz                      
   RCORE  =    1.520    outmost cutoff radius                                   
   RWIGS  =    1.550; RWIGS  =    0.820    wigner-seitz radius (au A)           
   ENMAX  =  400.000; ENMIN  =  300.000 eV                                      
   ICORE  =        2    local potential                                         
   LCOR   =        T    correct aug charges                                     
   LPAW   =        T    paw PP                                                  
   EAUG   =  605.392                                                            
   DEXC   =    0.000                                                            
   RMAX   =    1.553    core radius for proj-oper                               
   RAUG   =    1.300    factor for augmentation sphere                          
   RDEP   =    1.550    radius for radial grids                                 
   RDEPT  =    1.329    core radius for aug-charge                              
                                                                                
   Atomic configuration                                                         
    4 entries                                                                   
     n  l   j            E        occ.                                          
     1  0  0.50      -514.6923   2.0000                                         
     2  0  0.50       -23.9615   2.0000                                         
     2  1  0.50        -9.0305   4.0000                                         
     3  2  1.50        -9.5241   0.0000                                         
   Description                                                                  
     l       E           TYP  RCUT    TYP  RCUT                                 
     0    -23.9615318     23  1.200                                             
     0     -9.5240782     23  1.200                                             
     1     -9.0304911     23  1.520                                             
     1      8.1634956     23  1.520                                             
     2     -9.5240782      7  1.500                                             
  local pseudopotential read in
  partial core-charges read in
  partial kinetic energy density read in
  kinetic energy density of atom read in
  atomic valenz-charges read in
  non local Contribution for L=           0  read in
    real space projection operators read in
  non local Contribution for L=           0  read in
    real space projection operators read in
  non local Contribution for L=           1  read in
    real space projection operators read in
  non local Contribution for L=           1  read in
    real space projection operators read in
    PAW grid and wavefunctions read in
 
   number of l-projection  operators is LMAX  =           4
   number of lm-projection operators is LMMAX =           8
 
 Optimization of the real space projectors (new method)

 maximal supplied QI-value         = 16.25
 optimisation between [QCUT,QGAM] = [ 11.54, 23.24] = [ 37.28,151.24] Ry 
 Optimized for a Real-space Cutoff    1.45 Angstroem

   l    n(q)    QCUT    max X(q) W(low)/X(q) W(high)/X(q)  e(spline) 
   2      9    11.539    60.317    0.19E-03    0.47E-04    0.16E-06
   2      9    11.539    55.921    0.19E-03    0.48E-04    0.16E-06
   0     10    11.539    51.690    0.80E-04    0.50E-04    0.24E-06
   0     10    11.539    30.015    0.73E-04    0.45E-04    0.22E-06
   1     10    11.539    18.849    0.87E-04    0.16E-03    0.71E-07
   1     10    11.539    14.624    0.73E-04    0.13E-03    0.64E-07
 Optimization of the real space projectors (new method)

 maximal supplied QI-value         = 16.25
 optimisation between [QCUT,QGAM] = [ 11.54, 23.24] = [ 37.28,151.24] Ry 
 Optimized for a Real-space Cutoff    1.53 Angstroem

   l    n(q)    QCUT    max X(q) W(low)/X(q) W(high)/X(q)  e(spline) 
   2     10    11.539    80.901    0.11E-03    0.14E-03    0.21E-06
   2     10    11.539    75.754    0.11E-03    0.14E-03    0.22E-06
   0     11    11.539    58.752    0.52E-04    0.18E-04    0.33E-06
   0     11    11.539    30.679    0.44E-04    0.16E-04    0.30E-06
   1     10    11.539    17.977    0.53E-04    0.29E-04    0.13E-06
   1     10    11.539    13.559    0.44E-04    0.25E-04    0.11E-06
 Optimization of the real space projectors (new method)

 maximal supplied QI-value         = 24.76
 optimisation between [QCUT,QGAM] = [ 11.64, 23.27] = [ 37.91,151.63] Ry 
 Optimized for a Real-space Cutoff    1.14 Angstroem

   l    n(q)    QCUT    max X(q) W(low)/X(q) W(high)/X(q)  e(spline) 
   0      8    11.635    20.381    0.10E-03    0.33E-03    0.24E-06
   0      8    11.635    15.268    0.11E-03    0.35E-03    0.26E-06
   1      7    11.635     5.964    0.24E-03    0.31E-03    0.30E-06
   1      7    11.635     5.382    0.22E-03    0.25E-03    0.26E-06
  PAW_PBE Ni 02Aug2007                  :
 energy of atom  1       EATOM=-1077.6739
 kinetic energy error for atom=    0.0030 (will be added to EATOM!!)
  PAW_PBE Fe 06Sep2000                  :
 energy of atom  2       EATOM= -594.3153
 kinetic energy error for atom=    0.0026 (will be added to EATOM!!)
  PAW_PBE O 08Apr2002                   :
 energy of atom  3       EATOM= -432.3788
 kinetic energy error for atom=    0.0208 (will be added to EATOM!!)
 
 
 POSCAR: POSCAR                                  
  positions in direct lattice
  velocities in cartesian coordinates
 exchange correlation table for  LEXCH =        8
   RHO(1)=    0.500       N(1)  =     2000
   RHO(2)=  100.500       N(2)  =     4000

 VTST: version 3.2, (02/03/18)

 CHAIN: initializing optimizer
 
 OPT: Using VASP Conjugate-Gradient optimizer
 CHAIN: Read ICHAIN            0
 
 POSCAR: POSCAR                                  
  positions in direct lattice
  velocities in cartesian coordinates
 


--------------------------------------------------------------------------------------------------------


 ion  position               nearest neighbor table
   1  0.999  0.001  0.287-  47 2.46  18 2.47  50 2.48  41 2.48   8 2.49  49 2.49   5 2.49   2 2.50
                            26 2.50  33 2.50   4 2.52   6 2.53
   2  0.250  0.002  0.285-  11 2.45  51 2.45  44 2.46  50 2.46   1 2.50   3 2.50   6 2.50  26 2.51
                             9 2.51  27 2.53  41 2.53  43 2.54
   3  0.497  0.999  0.287-  64 2.43  14 2.44  51 2.44  17 2.47  45 2.47  43 2.48  27 2.49   2 2.50
                             4 2.51   9 2.52  30 2.54  12 2.54
   4  0.748  0.999  0.286-  16 2.43  17 2.45  48 2.45  18 2.47  30 2.49  64 2.49   3 2.51   5 2.51
                             1 2.52  33 2.52  12 2.52  47 2.52
   5  0.999  0.249  0.287-  60 2.43  16 2.43  18 2.48  22 2.48   1 2.49  52 2.51  12 2.51   4 2.51
                            21 2.51   6 2.52  19 2.52   8 2.53
   6  0.252  0.253  0.287-  11 2.41  56 2.47  52 2.48  22 2.48   9 2.49   2 2.50   5 2.52  50 2.52
                             1 2.53  53 2.53  55 2.54   8 2.55
   7  0.083  0.166  0.096-  50 2.47  15 2.50  40 2.50  18 2.50  54 2.50  10 2.50  46 2.51  22 2.51
                            20 2.51
   8  0.080  0.161  0.385-  67 1.86  47 2.40  41 2.43   1 2.49  11 2.50  16 2.51  55 2.52   5 2.53
                             6 2.55  21 2.57
   9  0.500  0.252  0.287-  11 2.43  59 2.45  56 2.46  53 2.48   6 2.49  14 2.51  12 2.51   2 2.51
                            23 2.52   3 2.52  51 2.53  25 2.64
  10  0.333  0.167  0.096-  13 2.50  56 2.50   7 2.50  24 2.51  40 2.51  42 2.51  50 2.51  54 2.52
                            51 2.52
  11  0.332  0.167  0.379-   6 2.41   9 2.43   2 2.45  55 2.48  25 2.49  41 2.50   8 2.50  14 2.51
                            43 2.52
  12  0.750  0.252  0.287-  59 2.43  16 2.43  60 2.44  58 2.46  17 2.49  23 2.50   9 2.51   5 2.51
                            14 2.51  19 2.52   4 2.52   3 2.54
  13  0.582  0.167  0.097-  51 2.48  24 2.49  42 2.50  17 2.50  10 2.50  63 2.52  59 2.52  57 2.52
                            15 2.53
  14  0.576  0.155  0.382-  65 1.82  64 2.39  43 2.41   3 2.44   9 2.51  12 2.51  11 2.51  16 2.51
                            25 2.59  58 2.61
  15  0.834  0.167  0.096-  20 2.49  60 2.49  18 2.49  46 2.49   7 2.50  17 2.51  63 2.51  57 2.53
                            13 2.53
  16  0.831  0.164  0.379-  12 2.43   5 2.43   4 2.43  47 2.46  58 2.47   8 2.51  21 2.51  14 2.51
                            64 2.51
  17  0.666  0.083  0.193-   4 2.45   3 2.47  60 2.47  51 2.48  12 2.49  59 2.49  13 2.50  45 2.50
                            48 2.51  15 2.51  63 2.51  18 2.52
  18  0.916  0.082  0.192-  50 2.46  60 2.47   1 2.47   4 2.47   5 2.48  46 2.48  15 2.49  49 2.50
                            48 2.50   7 2.50  22 2.51  17 2.52
  19  0.003  0.502  0.286-  60 2.47  29 2.48  27 2.48  39 2.48  52 2.49  21 2.49  58 2.50  61 2.50
                            23 2.52   5 2.52  12 2.52  26 2.52
  20  0.081  0.416  0.096-  61 2.48  15 2.49  57 2.49  22 2.50  54 2.51  28 2.51   7 2.51  31 2.52
                            60 2.53
  21  0.079  0.417  0.383-  67 1.85  58 2.40  29 2.45  19 2.49  32 2.51   5 2.51  16 2.51  52 2.52
                            55 2.54   8 2.57
  22  0.166  0.334  0.192-  52 2.48   5 2.48   6 2.48  60 2.49  54 2.49  36 2.50  20 2.50  50 2.50
                             7 2.51  18 2.51  56 2.52  61 2.54
  23  0.752  0.502  0.288-  53 2.46  59 2.47  33 2.49  26 2.50  38 2.50  12 2.50  39 2.50  19 2.52
                            58 2.52   9 2.52  62 2.54  25 2.69
  24  0.584  0.416  0.096-  13 2.49  62 2.49  57 2.50  10 2.51  56 2.51  34 2.51  37 2.52  54 2.53
                            59 2.54
  25  0.579  0.414  0.393-  69 1.82  65 1.91  55 2.49  11 2.49  35 2.51  53 2.58  38 2.59  14 2.59
                            58 2.61   9 2.64  23 2.69
  26  0.000  0.752  0.287-  49 2.46  44 2.48  33 2.49  38 2.49  23 2.50   1 2.50  27 2.51   2 2.51
                            39 2.51  29 2.51  41 2.51  19 2.52
  27  0.249  0.749  0.285-  32 2.45  45 2.45  61 2.46  44 2.47  19 2.48   3 2.49  26 2.51  52 2.52
                            29 2.52  43 2.52   2 2.53  30 2.54
  28  0.084  0.668  0.095-  61 2.47  39 2.50  40 2.50  37 2.50  31 2.50  42 2.50  57 2.51  44 2.51
                            20 2.51
  29  0.081  0.663  0.382-  66 1.84  21 2.45  58 2.47  38 2.48  19 2.48  32 2.50  26 2.51  27 2.52
                            43 2.54  41 2.57
  30  0.502  0.748  0.288-  32 2.43  64 2.45  48 2.47   4 2.49  53 2.49  33 2.49  45 2.50  36 2.51
                            52 2.52   3 2.54  27 2.54  35 2.61
  31  0.333  0.667  0.094-  61 2.47  42 2.50  54 2.50  28 2.50  63 2.50  34 2.51  36 2.52  45 2.52
                            20 2.52
  32  0.332  0.664  0.378-  52 2.40  30 2.43  27 2.45  35 2.48  64 2.50  29 2.50  21 2.51  55 2.52
                            43 2.52
  33  0.751  0.750  0.287-  53 2.46  49 2.47  48 2.48  62 2.48  23 2.49  26 2.49  30 2.49   1 2.50
                            38 2.51   4 2.52  47 2.54  35 2.69
  34  0.583  0.667  0.095-  62 2.47  36 2.50  63 2.50  46 2.51  31 2.51  37 2.51  54 2.51  24 2.51
                            48 2.53
  35  0.577  0.663  0.392-  69 1.83  68 1.91  32 2.48  55 2.49  25 2.51  64 2.56  53 2.56  38 2.59
                            30 2.61  47 2.62  33 2.69
  36  0.417  0.582  0.191-  54 2.47  22 2.50  34 2.50  62 2.50  45 2.51  30 2.51  52 2.51  56 2.51
                            48 2.51  61 2.51  31 2.52  53 2.58
  37  0.834  0.668  0.095-  62 2.47  40 2.50  57 2.50  39 2.50  28 2.50  46 2.51  49 2.51  34 2.51
                            24 2.52
  38  0.838  0.669  0.384-  69 1.81  29 2.48  41 2.48  26 2.49  23 2.50  33 2.51  47 2.54  58 2.56
                            25 2.59  35 2.59
  39  0.917  0.583  0.191-  19 2.48  57 2.49  28 2.50  37 2.50  61 2.50  23 2.50  26 2.51  49 2.51
                            59 2.51  62 2.51  44 2.51  60 2.56
  40  0.083  0.917  0.095-  50 2.49  44 2.49  37 2.50  28 2.50   7 2.50  10 2.51  49 2.51  46 2.51
                            42 2.52
  41  0.082  0.920  0.383-  66 1.83   8 2.43  47 2.45   1 2.48  38 2.48  11 2.50  26 2.51   2 2.53
                            43 2.54  29 2.57
  42  0.334  0.917  0.095-  51 2.48  13 2.50  63 2.50  31 2.50  44 2.50  28 2.50  10 2.51  45 2.51
                            40 2.52
  43  0.334  0.917  0.383-  66 1.83  14 2.41  64 2.43   3 2.48  32 2.52  11 2.52  27 2.52   2 2.54
                            41 2.54  29 2.54
  44  0.167  0.835  0.191-   2 2.46  27 2.47  51 2.47  26 2.48  61 2.49  49 2.49  40 2.49  42 2.50
                            50 2.50  28 2.51  39 2.51  45 2.53
  45  0.417  0.832  0.192-  27 2.45  61 2.47  51 2.47   3 2.47  48 2.49  63 2.50  30 2.50  17 2.50
                            36 2.51  42 2.51  31 2.52  44 2.53
  46  0.832  0.917  0.096-  18 2.48  48 2.49  15 2.49  63 2.50  49 2.50   7 2.51  34 2.51  37 2.51
                            40 2.51
  47  0.839  0.923  0.383-  68 1.85   8 2.40  41 2.45  16 2.46   1 2.46   4 2.52  33 2.54  38 2.54
                            64 2.60  35 2.62
  48  0.666  0.833  0.192-   4 2.45  62 2.47  30 2.47  33 2.48  45 2.49  46 2.49  18 2.50  63 2.50
                            17 2.51  36 2.51  49 2.52  34 2.53
  49  0.917  0.833  0.192-  26 2.46  62 2.46  33 2.47  50 2.47   1 2.49  44 2.49  18 2.50  46 2.50
                            39 2.51  40 2.51  37 2.51  48 2.52
  50  0.162  0.082  0.191-  18 2.46   2 2.46   7 2.47  49 2.47   1 2.48  40 2.49  44 2.50  22 2.50
                            10 2.51   6 2.52  56 2.53  51 2.57
  51  0.416  0.078  0.192-   3 2.44   2 2.45  44 2.47  45 2.47  42 2.48  17 2.48  13 2.48  10 2.52
                             9 2.53  59 2.54  56 2.54  50 2.57
  52  0.249  0.499  0.287-  32 2.40  22 2.48   6 2.48  19 2.49   5 2.51  36 2.51  27 2.52  21 2.52
                            30 2.52  61 2.55  53 2.57  55 2.57
  53  0.507  0.503  0.291-  23 2.46  33 2.46   9 2.48  30 2.49   6 2.53  35 2.56  55 2.56  56 2.56
                            62 2.56  52 2.57  25 2.58  36 2.58
  54  0.331  0.417  0.096-  36 2.47  22 2.49  31 2.50   7 2.50  20 2.51  34 2.51  10 2.52  56 2.53
                            24 2.53
  55  0.330  0.413  0.388-  67 1.84  11 2.48  25 2.49  35 2.49   8 2.52  32 2.52   6 2.54  21 2.54
                            53 2.56  52 2.57
  56  0.416  0.331  0.193-   9 2.46   6 2.47  10 2.50  24 2.51  36 2.51  59 2.51  22 2.52  50 2.53
                            54 2.53  51 2.54  62 2.56  53 2.56
  57  0.834  0.418  0.094-  20 2.49  39 2.49  24 2.50  37 2.50  28 2.51  13 2.52  15 2.53  59 2.56
                            60 2.59
  58  0.838  0.413  0.383-  65 1.82  21 2.40  12 2.46  16 2.47  29 2.47  19 2.50  23 2.52  38 2.56
                            14 2.61  25 2.61
  59  0.667  0.332  0.194-  12 2.43   9 2.45  23 2.47  17 2.49  60 2.51  39 2.51  56 2.51  13 2.52
                            51 2.54  24 2.54  57 2.56  62 2.57
  60  0.914  0.327  0.194-   5 2.43  12 2.44  18 2.47  19 2.47  17 2.47  22 2.49  15 2.49  59 2.51
                            20 2.53  39 2.56  57 2.59  61 2.59
  61  0.169  0.588  0.189-  27 2.46  45 2.47  28 2.47  31 2.47  20 2.48  44 2.49  39 2.50  19 2.50
                            36 2.51  22 2.54  52 2.55  60 2.59
  62  0.670  0.589  0.190-  49 2.46  48 2.47  37 2.47  34 2.47  33 2.48  24 2.49  36 2.50  39 2.51
                            23 2.54  56 2.56  53 2.56  59 2.57
  63  0.583  0.917  0.096-  46 2.50  45 2.50  42 2.50  48 2.50  31 2.50  34 2.50  17 2.51  15 2.51
                            13 2.52
  64  0.577  0.917  0.380-  68 1.79  14 2.39   3 2.43  43 2.43  30 2.45   4 2.49  32 2.50  16 2.51
                            35 2.56  47 2.60
  65  0.675  0.316  0.436-  14 1.82  58 1.82  25 1.91
  66  0.165  0.832  0.434-  43 1.83  41 1.83  29 1.84
  67  0.158  0.330  0.438-  55 1.84  21 1.85   8 1.86
  68  0.670  0.856  0.436-  64 1.79  47 1.85  35 1.91
  69  0.680  0.590  0.439-  38 1.81  25 1.82  35 1.83
 

IMPORTANT INFORMATION: All symmetrisations will be switched off!
NOSYMM: (Re-)initialisation of all symmetry stuff for point group C_1.

 
 

Automatic generation of k-mesh.
 generate k-points for:    3    3    1
Space group operators:
 irot       det(A)        alpha          n_x          n_y          n_z        tau_x        tau_y        tau_z
    1     1.000000     0.000000     1.000000     0.000000     0.000000     0.000000     0.000000     0.000000
 
 Subroutine IBZKPT returns following result:
 ===========================================
 
 Found      5 irreducible k-points:
 
 Following reciprocal coordinates:
            Coordinates               Weight
  0.000000  0.000000  0.000000      1.000000
  0.333333  0.000000  0.000000      2.000000
  0.000000  0.333333  0.000000      2.000000
  0.333333  0.333333  0.000000      2.000000
 -0.333333  0.333333  0.000000      2.000000
 
 Following cartesian coordinates:
            Coordinates               Weight
  0.000000  0.000000  0.000000      1.000000
  0.033244  0.019194  0.000000      2.000000
  0.000000  0.038387  0.000000      2.000000
  0.033244  0.057581  0.000000      2.000000
 -0.033244  0.019194  0.000000      2.000000
 


--------------------------------------------------------------------------------------------------------




 Dimension of arrays:
   k-points           NKPTS =      5   k-points in BZ     NKDIM =      5   number of bands    NBANDS=    420
   number of dos      NEDOS =    301   number of ions     NIONS =     69
   non local maximal  LDIM  =      6   non local SUM 2l+1 LMDIM =     18
   total plane-waves  NPLWV = ******
   max r-space proj   IRMAX =   8439   max aug-charges    IRDMAX=  19969
   dimension x,y,z NGX =    80 NGY =   80 NGZ =  160
   dimension x,y,z NGXF=   160 NGYF=  160 NGZF=  320
   support grid    NGXF=   160 NGYF=  160 NGZF=  320
   ions per type =              49  15   5
   NGX,Y,Z   is equivalent  to a cutoff of  13.26, 13.26, 12.55 a.u.
   NGXF,Y,Z  is equivalent  to a cutoff of  26.53, 26.53, 25.11 a.u.

 SYSTEM =  SQS-NiFe                                
 POSCAR =  POSCAR                                  

 Startparameter for this run:
   NWRITE =      2    write-flag & timer
   PREC   = accura    normal or accurate (medium, high low for compatibility)
   ISTART =      1    job   : 0-new  1-cont  2-samecut
   ICHARG =      1    charge: 1-file 2-atom 10-const
   ISPIN  =      2    spin polarized calculation?
   LNONCOLLINEAR =      F non collinear calculations
   LSORBIT =      F    spin-orbit coupling
   INIWAV =      1    electr: 0-lowe 1-rand  2-diag
   LASPH  =      F    aspherical Exc in radial PAW
   METAGGA=      F    non-selfconsistent MetaGGA calc.

 Electronic Relaxation 1
   ENCUT  =  520.0 eV  38.22 Ry    6.18 a.u.  18.64 18.64 39.40*2*pi/ulx,y,z
   ENINI  =  520.0     initial cutoff
   ENAUG  =  605.4 eV  augmentation charge cutoff
   NELM   =    200;   NELMIN=  2; NELMDL=  0     # of ELM steps 
   EDIFF  = 0.1E-04   stopping-criterion for ELM
   LREAL  =      T    real-space projection
   NLSPLINE    = F    spline interpolate recip. space projectors
   LCOMPAT=      F    compatible to vasp.4.4
   GGA_COMPAT  = T    GGA compatible to vasp.4.4-vasp.4.6
   LMAXPAW     = -100 max onsite density
   LMAXMIX     =    2 max onsite mixed and CHGCAR
   VOSKOWN=      0    Vosko Wilk Nusair interpolation
   ROPT   =   -0.00025  -0.00025  -0.00025
 Ionic relaxation
   EDIFFG = -.5E-01   stopping-criterion for IOM
   NSW    =     99    number of steps for IOM
   NBLOCK =      1;   KBLOCK =     99    inner block; outer block 
   IBRION =      2    ionic relax: 0-MD 1-quasi-New 2-CG
   NFREE  =      1    steps in history (QN), initial steepest desc. (CG)
   ISIF   =      2    stress and relaxation
   IWAVPR =     11    prediction:  0-non 1-charg 2-wave 3-comb
   ISYM   =      0    0-nonsym 1-usesym 2-fastsym
   LCORR  =      T    Harris-Foulkes like correction to forces

   POTIM  = 0.5000    time-step for ionic-motion
   TEIN   =    0.0    initial temperature
   TEBEG  =    0.0;   TEEND  =   0.0 temperature during run
   SMASS  =  -3.00    Nose mass-parameter (am)
   estimated Nose-frequenzy (Omega)   =  0.10E-29 period in steps =****** mass=  -0.230E-26a.u.
   SCALEE = 1.0000    scale energy and forces
   NPACO  =    256;   APACO  = 16.0  distance and # of slots for P.C.
   PSTRESS=    0.0 pullay stress

  Mass of Ions in am
   POMASS =  58.69 55.85 16.00
  Ionic Valenz
   ZVAL   =  10.00  8.00  6.00
  Atomic Wigner-Seitz radii
   RWIGS  =  -1.00 -1.00 -1.00
  virtual crystal weights 
   VCA    =   1.00  1.00  1.00
   NELECT =     640.0000    total number of electrons
   NUPDOWN=      -1.0000    fix difference up-down

 DOS related values:
   EMIN   =  10.00;   EMAX   =-10.00  energy-range for DOS
   EFERMI =   0.00
   ISMEAR =     1;   SIGMA  =   0.20  broadening in eV -4-tet -1-fermi 0-gaus

 Electronic relaxation 2 (details)
   IALGO  =     68    algorithm
   LDIAG  =      T    sub-space diagonalisation (order eigenvalues)
   LSUBROT=      F    optimize rotation matrix (better conditioning)
   TURBO    =      0    0=normal 1=particle mesh
   IRESTART =      0    0=no restart 2=restart with 2 vectors
   NREBOOT  =      0    no. of reboots
   NMIN     =      0    reboot dimension
   EREF     =   0.00    reference energy to select bands
   IMIX   =      4    mixing-type and parameters
     AMIX     =   0.40;   BMIX     =  1.00
     AMIX_MAG =   1.60;   BMIX_MAG =  1.00
     AMIN     =   0.10
     WC   =   100.;   INIMIX=   1;  MIXPRE=   1;  MAXMIX= -45

 Intra band minimization:
   WEIMIN = 0.0010     energy-eigenvalue tresh-hold
   EBREAK =  0.60E-08  absolut break condition
   DEPER  =   0.30     relativ break condition  

   TIME   =   0.40     timestep for ELM

  volume/ion in A,a.u.               =      26.74       180.43
  Fermi-wavevector in a.u.,A,eV,Ry     =   1.150304  2.173759 18.003211  1.323199
  Thomas-Fermi vector in A             =   2.286968
 
 Write flags
   LWAVE        =      T    write WAVECAR
   LDOWNSAMPLE  =      F    k-point downsampling of WAVECAR
   LCHARG       =      T    write CHGCAR
   LVTOT        =      F    write LOCPOT, total local potential
   LVHAR        =      F    write LOCPOT, Hartree potential only
   LELF         =      F    write electronic localiz. function (ELF)
   LORBIT       =     10    0 simple, 1 ext, 2 COOP (PROOUT), +10 PAW based schemes


 Dipole corrections
   LMONO  =      F    monopole corrections only (constant potential shift)
   LDIPOL =      T    correct potential (dipole corrections)
   IDIPOL =      3    1-x, 2-y, 3-z, 4-all directions 
   EPSILON=  1.0000000 bulk dielectric constant

 Exchange correlation treatment:
   GGA     =    --    GGA type
   LEXCH   =     8    internal setting for exchange type
   VOSKOWN=      0    Vosko Wilk Nusair interpolation
   LHFCALC =     F    Hartree Fock is set to
   LHFONE  =     F    Hartree Fock one center treatment
   AEXX    =    0.0000 exact exchange contribution

 Linear response parameters
   LEPSILON=     F    determine dielectric tensor
   LRPA    =     F    only Hartree local field effects (RPA)
   LNABLA  =     F    use nabla operator in PAW spheres
   LVEL    =     F    velocity operator in full k-point grid
   LINTERFAST=   F  fast interpolation
   KINTER  =     0    interpolate to denser k-point grid
   CSHIFT  =0.1000    complex shift for real part using Kramers Kronig
   OMEGAMAX=  -1.0    maximum frequency
   DEG_THRESHOLD= 0.2000000E-02 threshold for treating states as degnerate
   RTIME   =   -0.100 relaxation time in fs
  (WPLASMAI=    0.000 imaginary part of plasma frequency in eV, 0.658/RTIME)
   DFIELD  = 0.0000000 0.0000000 0.0000000 field for delta impulse in time
 
 Orbital magnetization related:
   ORBITALMAG=     F  switch on orbital magnetization
   LCHIMAG   =     F  perturbation theory with respect to B field
   DQ        =  0.001000  dq finite difference perturbation B field
   LLRAUG    =     F  two centre corrections for induced B field



--------------------------------------------------------------------------------------------------------


 conjugate gradient relaxation of ions
   using selective dynamics as specified on POSCAR
 charge density and potential will be updated during run
 spin polarized calculation
 RMM-DIIS sequential band-by-band and
  variant of blocked Davidson during initial phase
 perform sub-space diagonalisation
    before iterative eigenvector-optimisation
 modified Broyden-mixing scheme, WC =      100.0
 initial mixing is a Kerker type mixing with AMIX =  0.4000 and BMIX =      1.0000
 Hartree-type preconditioning will be used
 using additional bands          100
 real space projection scheme for non local part
 use partial core corrections
 calculate Harris-corrections to forces 
   (improved forces if not selfconsistent)
 use gradient corrections 
 use of overlap-Matrix (Vanderbilt PP)
 Methfessel and Paxton  Order N= 1 SIGMA  =   0.20


--------------------------------------------------------------------------------------------------------


  energy-cutoff  :      520.00
  volume of cell :     1844.87
      direct lattice vectors                 reciprocal lattice vectors
    10.026770000  0.000000000  0.000000000     0.099733015  0.057580883  0.000000000
    -5.013385000  8.683437540  0.000000000     0.000000000  0.115161766  0.000000000
     0.000000000  0.000000000 21.189180000     0.000000000  0.000000000  0.047193898

  length of vectors
    10.026770000 10.026770002 21.189180000     0.115161766  0.115161766  0.047193898


 
 old parameters found on file WAVECAR:
  energy-cutoff  :      520.00
  volume of cell :     1844.87
      direct lattice vectors                 reciprocal lattice vectors
    10.026770000  0.000000000  0.000000000     0.099733015  0.057580883  0.000000000
    -5.013385000  8.683437540  0.000000000     0.000000000  0.115161766  0.000000000
     0.000000000  0.000000000 21.189180000     0.000000000  0.000000000  0.047193898

  length of vectors

 
 k-points in units of 2pi/SCALE and weight: read from INCAR                         
   0.00000000  0.00000000  0.00000000       0.111
   0.03324434  0.01919363  0.00000000       0.222
   0.00000000  0.03838726  0.00000000       0.222
   0.03324434  0.05758088  0.00000000       0.222
  -0.03324434  0.01919363  0.00000000       0.222
 
 k-points in reciprocal lattice and weights: read from INCAR                         
   0.00000000  0.00000000  0.00000000       0.111
   0.33333333  0.00000000  0.00000000       0.222
   0.00000000  0.33333333  0.00000000       0.222
   0.33333333  0.33333333  0.00000000       0.222
  -0.33333333  0.33333333  0.00000000       0.222
 
 position of ions in fractional coordinates (direct lattice) 
   0.99935476  0.00079402  0.28735783
   0.24952353  0.00238573  0.28514211
   0.49716289  0.99883335  0.28657107
   0.74750717  0.99895845  0.28606850
   0.99893966  0.24870712  0.28702981
   0.25197077  0.25312537  0.28737725
   0.08288200  0.16633200  0.09567600
   0.07962338  0.16106938  0.38453385
   0.50003019  0.25192840  0.28748380
   0.33293900  0.16685800  0.09574200
   0.33186462  0.16737946  0.37891332
   0.74996240  0.25181984  0.28741687
   0.58230700  0.16720100  0.09670300
   0.57621397  0.15532607  0.38211778
   0.83403200  0.16672400  0.09645100
   0.83105368  0.16394845  0.37891283
   0.66558100  0.08305500  0.19258300
   0.91639700  0.08203100  0.19204900
   0.00265588  0.50150021  0.28589361
   0.08092200  0.41609700  0.09594800
   0.07879941  0.41701919  0.38348805
   0.16611800  0.33395200  0.19207500
   0.75216488  0.50221758  0.28772150
   0.58357300  0.41617200  0.09593300
   0.57887661  0.41386104  0.39311714
   0.00041686  0.75176966  0.28678074
   0.24908120  0.74941067  0.28520124
   0.08375800  0.66810400  0.09479700
   0.08142213  0.66261054  0.38226935
   0.50212249  0.74847662  0.28758355
   0.33297400  0.66727700  0.09438800
   0.33165303  0.66429837  0.37838444
   0.75122175  0.74962882  0.28695267
   0.58298100  0.66668200  0.09450900
   0.57710782  0.66330845  0.39199522
   0.41661000  0.58200200  0.19081700
   0.83395900  0.66770600  0.09497900
   0.83790451  0.66908971  0.38372630
   0.91708300  0.58323900  0.19079400
   0.08291700  0.91685800  0.09518600
   0.08214475  0.91956004  0.38313869
   0.33420600  0.91705400  0.09538200
   0.33405522  0.91685358  0.38261556
   0.16670900  0.83524200  0.19136500
   0.41703500  0.83214900  0.19205900
   0.83233100  0.91715000  0.09633700
   0.83931571  0.92283041  0.38326113
   0.66623900  0.83337000  0.19234100
   0.91705900  0.83319500  0.19216200
   0.16168500  0.08211500  0.19130600
   0.41607500  0.07807100  0.19177300
   0.24931551  0.49872601  0.28741192
   0.50731557  0.50308080  0.29091875
   0.33134100  0.41714300  0.09577600
   0.33021722  0.41294404  0.38754497
   0.41638400  0.33144300  0.19252200
   0.83354800  0.41839000  0.09448800
   0.83812861  0.41345847  0.38253767
   0.66732400  0.33240600  0.19435500
   0.91446400  0.32695500  0.19396500
   0.16914200  0.58833400  0.18947800
   0.66961600  0.58928900  0.18986000
   0.58310400  0.91651500  0.09583500
   0.57677015  0.91684744  0.38030904
   0.67468213  0.31637400  0.43612165
   0.16504915  0.83206214  0.43416261
   0.15817448  0.32988015  0.43811179
   0.67037980  0.85603285  0.43569376
   0.67965260  0.59021824  0.43946692
 
 position of ions in cartesian coordinates  (Angst):
  10.01631962  0.00689479  6.08887682
   2.48995448  0.02071636  6.04192743
  -0.02259818  8.67330701  6.07220606
   2.48691910  8.67439335  6.06155696
   8.76927370  2.15963274  6.08192641
   1.25743802  2.19799830  6.08928836
  -0.00284760  1.44433353  2.02729599
  -0.00913750  1.39863590  8.14795701
   3.75067367  2.18760448  6.09154597
   2.50177938  1.44890102  2.02869447
   2.48839253  1.45342908  8.02886257
   6.25723064  2.18666187  6.09012782
   5.00041537  1.45187944  2.04905727
   4.99885560  1.34876419  8.09676250
   7.52679544  1.44773744  2.04371760
   7.51084740  1.42363612  8.02885225
   6.25724091  0.72120290  4.08067585
   8.77724896  0.71231106  4.06936083
  -2.48758378  4.35474579  6.05785125
  -1.27466818  3.61315231  2.03305944
  -1.30057417  3.62116012  8.12579730
  -0.00860297  2.89985133  4.06991175
   5.02397418  4.36097501  6.09658268
   3.76492179  3.61380357  2.03274160
   3.72941789  3.59373653  8.32982977
  -3.76473094  6.52794490  6.07664872
  -1.25960433  6.50746071  6.04318047
  -2.50964037  5.80143935  2.00867070
  -2.50552075  5.75373726  8.09997396
   1.28226527  6.49934997  6.09365971
  -0.00666279  5.79425815  2.00000432
  -0.00497488  5.76839342  8.01765599
   3.77414984  6.50935503  6.08029182
   2.50308286  5.78909151  2.00256821
   2.46110672  5.75979754  8.30605732
   1.25945255  5.05377802  4.04325576
   5.01444784  5.79798335  2.01252713
   5.04707151  5.80999871  8.13084558
   6.27137866  5.06451943  4.04276841
  -3.76517246  7.96147918  2.01691329
  -3.78646201  7.98494221  8.11839458
  -1.24653807  7.96318113  2.02106637
  -1.24704511  7.96144083  8.10730992
  -2.51583691  7.25277174  4.05486743
   0.00963071  7.22591387  4.06957272
   3.74756545  7.96401474  2.04130203
   3.78912142  8.01334020  8.12098901
   2.50222056  7.23651634  4.07554807
   5.01801235  7.23499674  4.07175521
   1.20950420  0.71304047  4.05361727
   3.78048835  0.67792465  4.06351262
  -0.00047622  4.33065615  6.09002293
   2.56459886  4.36847068  6.16432975
   1.23098154  3.62223519  2.02941490
   1.24076462  3.58577380  8.21176003
   2.51333524  2.87806459  4.07938331
   6.26024393  3.63306343  2.00212324
   6.33089630  3.59024079  8.10565948
   5.02462501  2.88642674  4.11822308
   7.52996891  2.83909332  4.10995930
  -1.25359692  5.10876154  4.01488345
   3.75975299  5.11705422  4.02297771
   1.25180714  7.95850076  2.03066507
   1.18663242  7.96138748  8.05843672
   5.17877793  2.74721385  9.24106005
  -2.51653796  7.22515961  9.19954967
  -0.06783702  2.86449367  9.28322957
   2.43012181  7.43330780  9.23199342
   3.85572907  5.12512319  9.31194372
 


--------------------------------------------------------------------------------------------------------


 k-point  1 :   0.0000 0.0000 0.0000  plane waves:   49741
 k-point  2 :   0.3333 0.0000 0.0000  plane waves:   49680
 k-point  3 :   0.0000 0.3333 0.0000  plane waves:   49680
 k-point  4 :   0.3333 0.3333 0.0000  plane waves:   49662
 k-point  5 :  -0.3333 0.3333 0.0000  plane waves:   49680

 maximum and minimum number of plane-waves per node :      2099     2053

 maximum number of plane-waves:     49741
 maximum index in each direction: 
   IXMAX=   18   IYMAX=   18   IZMAX=   39
   IXMIN=  -18   IYMIN=  -18   IZMIN=  -39


 real space projection operators:
  total allocation   :      65145.72 KBytes
  max/ min on nodes  :       3294.17       2405.41


 parallel 3D FFT for wavefunctions:
    minimum data exchange during FFTs selected (reduces bandwidth)
 parallel 3D FFT for charge:
    minimum data exchange during FFTs selected (reduces bandwidth)


 total amount of memory used by VASP MPI-rank0   115777. kBytes
=======================================================================

   base      :      30000. kBytes
   nonlr-proj:      13878. kBytes
   fftplans  :       6402. kBytes
   grid      :      17692. kBytes
   one-center:         93. kBytes
   wavefun   :      47712. kBytes
 
     INWAV:  cpu time   11.0156: real time   11.3825
 Broyden mixing: mesh for mixing (old mesh)
   NGX = 37   NGY = 37   NGZ = 79
  (NGX  =160   NGY  =160   NGZ  =320)
  gives a total of 108151 points

 initial charge density was supplied:
 number of electron     640.0000054 magnetization      72.2176428
 keeping initial charge density in first step


--------------------------------------------------------------------------------------------------------


 Maximum index for non-local projection operator          764
 Maximum index for augmentation-charges         1117 (set IRDMAX)


--------------------------------------------------------------------------------------------------------


 First call to EWALD:  gamma=   0.145
 Maximum number of real-space cells 4x 4x 2
 Maximum number of reciprocal cells 2x 2x 4

    FEWALD:  cpu time    0.0034: real time    0.0034


--------------------------------------- Iteration      1(   1)  ---------------------------------------


    POTLOK:  cpu time    0.4129: real time    0.4261
    SETDIJ:  cpu time    0.0248: real time    0.0248
     EDDAV:  cpu time   42.5615: real time   42.5830
       DOS:  cpu time    0.0092: real time    0.0092
    CHARGE:  cpu time    1.3743: real time    1.3754
    MIXING:  cpu time    0.0062: real time    0.0062
    --------------------------------------------
      LOOP:  cpu time   44.3891: real time   44.4249

 eigenvalue-minimisations  :  9024
 total energy-change (2. order) :-0.3957006E+03  (-0.1567193E+03)
 number of electron     640.0000054 magnetization      72.1010724
 augmentation part      369.4324417 magnetization      62.2515642

 DIPCOR: dipole corrections for dipol
 direction  3 min pos   244,
 dipolmoment           0.000000      0.000000      0.414940 electrons x Angstroem
 Tr[quadrupol]    -10447.389836

 energy correction for charged system         0.000000 eV
 dipol+quadrupol energy correction           -0.008444 eV
 added-field ion interaction          5.468326 eV  (added to PSCEN)


 Broyden mixing:
  rms(total) = 0.74862E+00    rms(broyden)= 0.74857E+00
  rms(prec ) = 0.75507E+00
  weight for this iteration     100.00

 Free energy of the ion-electron system (eV)
  ---------------------------------------------------
  alpha Z        PSCENC =      1362.09157940
  Ewald energy   TEWEN  =    222454.10662894
  -Hartree energ DENC   =   -284759.73022796
  -exchange      EXHF   =         0.00000000
  -V(xc)+E(xc)   XCENC  =      1709.04359837
  PAW double counting   =     68628.93461687   -72135.75217805
  entropy T*S    EENTRO =         0.04626428
  eigenvalues    EBANDS =     -1536.79611018
  atomic energy  EATOM  =     63882.35519389
  Solvation  Ediel_sol  =         0.00000000
  ---------------------------------------------------
  free energy    TOTEN  =      -395.70063444 eV

  energy without entropy =     -395.74689872  energy(sigma->0) =     -395.71605587


--------------------------------------------------------------------------------------------------------




--------------------------------------- Iteration      1(   2)  ---------------------------------------


    POTLOK:  cpu time    0.4133: real time    0.4299
    SETDIJ:  cpu time    0.0248: real time    0.0248
    EDDIAG:  cpu time    5.7908: real time    5.7928
  RMM-DIIS:  cpu time   20.5141: real time   20.5309
    ORTHCH:  cpu time    1.6330: real time    1.6335
       DOS:  cpu time    0.0090: real time    0.0090
    CHARGE:  cpu time    1.3649: real time    1.3660
    MIXING:  cpu time    0.0065: real time    0.0065
    --------------------------------------------
      LOOP:  cpu time   29.7563: real time   29.7933

 eigenvalue-minimisations  :  8488
 total energy-change (2. order) :-0.1372972E+02  (-0.1364199E+02)
 number of electron     640.0000053 magnetization      72.1587245
 augmentation part      365.0770553 magnetization      61.8835260

 DIPCOR: dipole corrections for dipol
 direction  3 min pos   249,
 dipolmoment           0.000000      0.000000      0.422751 electrons x Angstroem
 Tr[quadrupol]    -10447.800992

 energy correction for charged system         0.000000 eV
 dipol+quadrupol energy correction           -0.008765 eV
 added-field ion interaction         14.357776 eV  (added to PSCEN)


 Broyden mixing:
  rms(total) = 0.12205E+01    rms(broyden)= 0.12204E+01
  rms(prec ) = 0.13181E+01
  weight for this iteration     100.00

 eigenvalues of (default mixing * dielectric matrix)
  average eigenvalue GAMMA=   0.3233
  0.3233

 Free energy of the ion-electron system (eV)
  ---------------------------------------------------
  alpha Z        PSCENC =      1370.98070880
  Ewald energy   TEWEN  =    222454.10662894
  -Hartree energ DENC   =   -284796.50582753
  -exchange      EXHF   =         0.00000000
  -V(xc)+E(xc)   XCENC  =      1710.67785206
  PAW double counting   =     69087.64519598   -72623.29562608
  entropy T*S    EENTRO =         0.02615748
  eigenvalues    EBANDS =     -1495.42064001
  atomic energy  EATOM  =     63882.35519389
  Solvation  Ediel_sol  =         0.00000000
  ---------------------------------------------------
  free energy    TOTEN  =      -409.43035648 eV

  energy without entropy =     -409.45651396  energy(sigma->0) =     -409.43907564


--------------------------------------------------------------------------------------------------------




--------------------------------------- Iteration      1(   3)  ---------------------------------------


    POTLOK:  cpu time    0.4176: real time    0.4331
    SETDIJ:  cpu time    0.0248: real time    0.0248
    EDDIAG:  cpu time    5.8154: real time    5.8174
  RMM-DIIS:  cpu time   20.4498: real time   20.4627
    ORTHCH:  cpu time    1.6313: real time    1.6319
       DOS:  cpu time    0.0092: real time    0.0092
    CHARGE:  cpu time    1.3576: real time    1.3587
    MIXING:  cpu time    0.0065: real time    0.0065
    --------------------------------------------
      LOOP:  cpu time   29.7123: real time   29.7442

 eigenvalue-minimisations  :  8470
 total energy-change (2. order) :-0.8745890E+00  (-0.8327858E+00)
 number of electron     640.0000055 magnetization      72.1494745
 augmentation part      368.1114208 magnetization      61.5240400

 DIPCOR: dipole corrections for dipol
 direction  3 min pos   239,
 dipolmoment           0.000000      0.000000      0.396543 electrons x Angstroem
 Tr[quadrupol]    -10446.659131

 energy correction for charged system         0.000000 eV
 dipol+quadrupol energy correction           -0.007712 eV
 added-field ion interaction         -3.015904 eV  (added to PSCEN)


 Broyden mixing:
  rms(total) = 0.16751E+01    rms(broyden)= 0.16751E+01
  rms(prec ) = 0.18537E+01
  weight for this iteration     100.00

 eigenvalues of (default mixing * dielectric matrix)
  average eigenvalue GAMMA=   0.2739
  0.4152  0.1326

 Free energy of the ion-electron system (eV)
  ---------------------------------------------------
  alpha Z        PSCENC =      1353.60808222
  Ewald energy   TEWEN  =    222454.10662894
  -Hartree energ DENC   =   -284734.56703937
  -exchange      EXHF   =         0.00000000
  -V(xc)+E(xc)   XCENC  =      1708.49728025
  PAW double counting   =     69026.89008336   -72547.99807868
  entropy T*S    EENTRO =         0.01817720
  eigenvalues    EBANDS =     -1553.21527333
  atomic energy  EATOM  =     63882.35519389
  Solvation  Ediel_sol  =         0.00000000
  ---------------------------------------------------
  free energy    TOTEN  =      -410.30494551 eV

  energy without entropy =     -410.32312271  energy(sigma->0) =     -410.31100458


--------------------------------------------------------------------------------------------------------




--------------------------------------- Iteration      1(   4)  ---------------------------------------


    POTLOK:  cpu time    0.4168: real time    0.4347
    SETDIJ:  cpu time    0.0247: real time    0.0247
    EDDIAG:  cpu time    5.8164: real time    5.8183
  RMM-DIIS:  cpu time   20.6717: real time   20.6865
    ORTHCH:  cpu time    1.6334: real time    1.6339
       DOS:  cpu time    0.0085: real time    0.0085
    CHARGE:  cpu time    1.3540: real time    1.3550
    MIXING:  cpu time    0.0067: real time    0.0067
    --------------------------------------------
      LOOP:  cpu time   29.9322: real time   29.9683

 eigenvalue-minimisations  :  8549
 total energy-change (2. order) : 0.9991383E+00  (-0.1261382E+00)
 number of electron     640.0000054 magnetization      72.1460349
 augmentation part      367.5664938 magnetization      61.9405913

 DIPCOR: dipole corrections for dipol
 direction  3 min pos   240,
 dipolmoment           0.000000      0.000000      0.458076 electrons x Angstroem
 Tr[quadrupol]    -10446.861567

 energy correction for charged system         0.000000 eV
 dipol+quadrupol energy correction           -0.010291 eV
 added-field ion interaction         -1.579757 eV  (added to PSCEN)


 Broyden mixing:
  rms(total) = 0.57024E+00    rms(broyden)= 0.57014E+00
  rms(prec ) = 0.64305E+00
  weight for this iteration     100.00

 eigenvalues of (default mixing * dielectric matrix)
  average eigenvalue GAMMA=   0.2426
  0.3021  0.3021  0.1235

 Free energy of the ion-electron system (eV)
  ---------------------------------------------------
  alpha Z        PSCENC =      1355.04164967
  Ewald energy   TEWEN  =    222454.10662894
  -Hartree energ DENC   =   -284740.49948661
  -exchange      EXHF   =         0.00000000
  -V(xc)+E(xc)   XCENC  =      1708.78835706
  PAW double counting   =     69016.00336349   -72534.67071367
  entropy T*S    EENTRO =         0.03283168
  eigenvalues    EBANDS =     -1550.46363161
  atomic energy  EATOM  =     63882.35519389
  Solvation  Ediel_sol  =         0.00000000
  ---------------------------------------------------
  free energy    TOTEN  =      -409.30580716 eV

  energy without entropy =     -409.33863884  energy(sigma->0) =     -409.31675106


--------------------------------------------------------------------------------------------------------




--------------------------------------- Iteration      1(   5)  ---------------------------------------


    POTLOK:  cpu time    0.4155: real time    0.4313
    SETDIJ:  cpu time    0.0248: real time    0.0248
    EDDIAG:  cpu time    5.8141: real time    5.8160
  RMM-DIIS:  cpu time   20.6800: real time   20.6925
    ORTHCH:  cpu time    1.6317: real time    1.6323
       DOS:  cpu time    0.0092: real time    0.0092
    CHARGE:  cpu time    1.3591: real time    1.3602
    MIXING:  cpu time    0.0066: real time    0.0066
    --------------------------------------------
      LOOP:  cpu time   29.9421: real time   29.9729

 eigenvalue-minimisations  :  8574
 total energy-change (2. order) :-0.8352115E-01  (-0.2858964E-01)
 number of electron     640.0000054 magnetization      72.1521983
 augmentation part      367.5821415 magnetization      61.8679661

 DIPCOR: dipole corrections for dipol
 direction  3 min pos   237,
 dipolmoment           0.000000      0.000000      0.368478 electrons x Angstroem
 Tr[quadrupol]    -10446.665365

 energy correction for charged system         0.000000 eV
 dipol+quadrupol energy correction           -0.006659 eV
 added-field ion interaction         -5.865856 eV  (added to PSCEN)


 Broyden mixing:
  rms(total) = 0.70921E+00    rms(broyden)= 0.70915E+00
  rms(prec ) = 0.91306E+00
  weight for this iteration     100.00

 eigenvalues of (default mixing * dielectric matrix)
  average eigenvalue GAMMA=   0.2767
  0.4437  0.4437  0.1324  0.0870

 Free energy of the ion-electron system (eV)
  ---------------------------------------------------
  alpha Z        PSCENC =      1350.75918260
  Ewald energy   TEWEN  =    222454.10662894
  -Hartree energ DENC   =   -284740.66708436
  -exchange      EXHF   =         0.00000000
  -V(xc)+E(xc)   XCENC  =      1708.96322422
  PAW double counting   =     68998.96144708   -72517.29541744
  entropy T*S    EENTRO =         0.04253185
  eigenvalues    EBANDS =     -1546.61503510
  atomic energy  EATOM  =     63882.35519389
  Solvation  Ediel_sol  =         0.00000000
  ---------------------------------------------------
  free energy    TOTEN  =      -409.38932832 eV

  energy without entropy =     -409.43186017  energy(sigma->0) =     -409.40350560


--------------------------------------------------------------------------------------------------------




--------------------------------------- Iteration      1(   6)  ---------------------------------------


    POTLOK:  cpu time    0.4166: real time    0.4329
    SETDIJ:  cpu time    0.0248: real time    0.0248
    EDDIAG:  cpu time    5.8080: real time    5.8100
  RMM-DIIS:  cpu time   20.5694: real time   20.5832
    ORTHCH:  cpu time    1.6371: real time    1.6376
       DOS:  cpu time    0.0093: real time    0.0093
    CHARGE:  cpu time    1.3520: real time    1.3524
    MIXING:  cpu time    0.0068: real time    0.0068
    --------------------------------------------
      LOOP:  cpu time   29.8241: real time   29.8570

 eigenvalue-minimisations  :  8486
 total energy-change (2. order) :-0.1102241E+00  (-0.1429853E-01)
 number of electron     640.0000054 magnetization      72.1420900
 augmentation part      367.4091513 magnetization      62.2392503

 DIPCOR: dipole corrections for dipol
 direction  3 min pos   241,
 dipolmoment           0.000000      0.000000      0.520763 electrons x Angstroem
 Tr[quadrupol]    -10446.955956

 energy correction for charged system         0.000000 eV
 dipol+quadrupol energy correction           -0.013301 eV
 added-field ion interaction          0.368776 eV  (added to PSCEN)


 Broyden mixing:
  rms(total) = 0.86222E+00    rms(broyden)= 0.86213E+00
  rms(prec ) = 0.11353E+01
  weight for this iteration     100.00

 eigenvalues of (default mixing * dielectric matrix)
  average eigenvalue GAMMA=   0.2849
  0.5593  0.5593  0.1490  0.1121  0.0450

 Free energy of the ion-electron system (eV)
  ---------------------------------------------------
  alpha Z        PSCENC =      1356.98717283
  Ewald energy   TEWEN  =    222454.10662894
  -Hartree energ DENC   =   -284746.18567134
  -exchange      EXHF   =         0.00000000
  -V(xc)+E(xc)   XCENC  =      1709.07273332
  PAW double counting   =     68976.10566512   -72493.78569903
  entropy T*S    EENTRO =         0.03699701
  eigenvalues    EBANDS =     -1548.19257312
  atomic energy  EATOM  =     63882.35519389
  Solvation  Ediel_sol  =         0.00000000
  ---------------------------------------------------
  free energy    TOTEN  =      -409.49955239 eV

  energy without entropy =     -409.53654940  energy(sigma->0) =     -409.51188472


--------------------------------------------------------------------------------------------------------




--------------------------------------- Iteration      1(   7)  ---------------------------------------


    POTLOK:  cpu time    0.4146: real time    0.4312
    SETDIJ:  cpu time    0.0248: real time    0.0248
    EDDIAG:  cpu time    5.8364: real time    5.8382
  RMM-DIIS:  cpu time   20.4399: real time   20.4545
    ORTHCH:  cpu time    1.6392: real time    1.6397
       DOS:  cpu time    0.0093: real time    0.0093
    CHARGE:  cpu time    1.3627: real time    1.3630
    MIXING:  cpu time    0.0069: real time    0.0069
    --------------------------------------------
      LOOP:  cpu time   29.7330: real time   29.7677

 eigenvalue-minimisations  :  8468
 total energy-change (2. order) : 0.2744036E+00  (-0.7377866E-02)
 number of electron     640.0000054 magnetization      72.1420388
 augmentation part      367.5592671 magnetization      61.9559780

 DIPCOR: dipole corrections for dipol
 direction  3 min pos   239,
 dipolmoment           0.000000      0.000000      0.430407 electrons x Angstroem
 Tr[quadrupol]    -10446.942271

 energy correction for charged system         0.000000 eV
 dipol+quadrupol energy correction           -0.009085 eV
 added-field ion interaction         -3.273459 eV  (added to PSCEN)


 Broyden mixing:
  rms(total) = 0.28321E+00    rms(broyden)= 0.28315E+00
  rms(prec ) = 0.30350E+00
  weight for this iteration     100.00

 eigenvalues of (default mixing * dielectric matrix)
  average eigenvalue GAMMA=   0.2631
  0.5692  0.5692  0.1647  0.1279  0.0992  0.0487

 Free energy of the ion-electron system (eV)
  ---------------------------------------------------
  alpha Z        PSCENC =      1353.34915376
  Ewald energy   TEWEN  =    222454.10662894
  -Hartree energ DENC   =   -284749.68618064
  -exchange      EXHF   =         0.00000000
  -V(xc)+E(xc)   XCENC  =      1708.97797867
  PAW double counting   =     68936.13155482   -72452.49908916
  entropy T*S    EENTRO =         0.03812012
  eigenvalues    EBANDS =     -1541.99850914
  atomic energy  EATOM  =     63882.35519389
  Solvation  Ediel_sol  =         0.00000000
  ---------------------------------------------------
  free energy    TOTEN  =      -409.22514875 eV

  energy without entropy =     -409.26326887  energy(sigma->0) =     -409.23785546


--------------------------------------------------------------------------------------------------------




--------------------------------------- Iteration      1(   8)  ---------------------------------------


    POTLOK:  cpu time    0.4131: real time    0.4327
    SETDIJ:  cpu time    0.0249: real time    0.0249
    EDDIAG:  cpu time    5.8326: real time    5.8345
  RMM-DIIS:  cpu time   20.5275: real time   20.5392
    ORTHCH:  cpu time    1.6363: real time    1.6367
       DOS:  cpu time    0.0095: real time    0.0095
    CHARGE:  cpu time    1.3614: real time    1.3618
    MIXING:  cpu time    0.0072: real time    0.0072
    --------------------------------------------
      LOOP:  cpu time   29.8126: real time   29.8466

 eigenvalue-minimisations  :  8465
 total energy-change (2. order) : 0.1768948E-01  (-0.2032321E-02)
 number of electron     640.0000054 magnetization      72.1439872
 augmentation part      367.5587925 magnetization      61.9575433

 DIPCOR: dipole corrections for dipol
 direction  3 min pos   238,
 dipolmoment           0.000000      0.000000      0.435457 electrons x Angstroem
 Tr[quadrupol]    -10446.875305

 energy correction for charged system         0.000000 eV
 dipol+quadrupol energy correction           -0.009300 eV
 added-field ion interaction         -5.121979 eV  (added to PSCEN)


 Broyden mixing:
  rms(total) = 0.17986E+00    rms(broyden)= 0.17985E+00
  rms(prec ) = 0.18900E+00
  weight for this iteration     100.00

 eigenvalues of (default mixing * dielectric matrix)
  average eigenvalue GAMMA=   0.2788
  0.6151  0.6151  0.2923  0.1543  0.1218  0.1061  0.0468

 Free energy of the ion-electron system (eV)
  ---------------------------------------------------
  alpha Z        PSCENC =      1351.50041877
  Ewald energy   TEWEN  =    222454.10662894
  -Hartree energ DENC   =   -284749.95141756
  -exchange      EXHF   =         0.00000000
  -V(xc)+E(xc)   XCENC  =      1708.98747777
  PAW double counting   =     68921.55754311   -72437.48280818
  entropy T*S    EENTRO =         0.03490143
  eigenvalues    EBANDS =     -1540.31539744
  atomic energy  EATOM  =     63882.35519389
  Solvation  Ediel_sol  =         0.00000000
  ---------------------------------------------------
  free energy    TOTEN  =      -409.20745927 eV

  energy without entropy =     -409.24236070  energy(sigma->0) =     -409.21909308


--------------------------------------------------------------------------------------------------------




--------------------------------------- Iteration      1(   9)  ---------------------------------------


    POTLOK:  cpu time    0.4143: real time    0.4326
    SETDIJ:  cpu time    0.0245: real time    0.0253
    EDDIAG:  cpu time    5.8397: real time    5.8417
  RMM-DIIS:  cpu time   20.7239: real time   20.7342
    ORTHCH:  cpu time    1.6400: real time    1.6404
       DOS:  cpu time    0.0092: real time    0.0092
    CHARGE:  cpu time    1.3557: real time    1.3561
    MIXING:  cpu time    0.0072: real time    0.0072
    --------------------------------------------
      LOOP:  cpu time   30.0155: real time   30.0467

 eigenvalue-minimisations  :  8581
 total energy-change (2. order) : 0.8127128E-03  (-0.4825577E-03)
 number of electron     640.0000054 magnetization      72.1464560
 augmentation part      367.5726127 magnetization      61.9751765

 DIPCOR: dipole corrections for dipol
 direction  3 min pos   242,
 dipolmoment           0.000000      0.000000      0.438235 electrons x Angstroem
 Tr[quadrupol]    -10447.134557

 energy correction for charged system         0.000000 eV
 dipol+quadrupol energy correction           -0.009419 eV
 added-field ion interaction          2.131998 eV  (added to PSCEN)


 Broyden mixing:
  rms(total) = 0.18052E+00    rms(broyden)= 0.18051E+00
  rms(prec ) = 0.19484E+00
  weight for this iteration     100.00

 eigenvalues of (default mixing * dielectric matrix)
  average eigenvalue GAMMA=   0.2908
  0.6994  0.6994  0.3268  0.1882  0.1445  0.1230  0.0983  0.0472

 Free energy of the ion-electron system (eV)
  ---------------------------------------------------
  alpha Z        PSCENC =      1358.75427647
  Ewald energy   TEWEN  =    222454.10662894
  -Hartree energ DENC   =   -284751.95959386
  -exchange      EXHF   =         0.00000000
  -V(xc)+E(xc)   XCENC  =      1709.03732027
  PAW double counting   =     68888.83926809   -72403.90300050
  entropy T*S    EENTRO =         0.03614942
  eigenvalues    EBANDS =     -1546.47288928
  atomic energy  EATOM  =     63882.35519389
  Solvation  Ediel_sol  =         0.00000000
  ---------------------------------------------------
  free energy    TOTEN  =      -409.20664656 eV

  energy without entropy =     -409.24279598  energy(sigma->0) =     -409.21869637


--------------------------------------------------------------------------------------------------------




--------------------------------------- Iteration      1(  10)  ---------------------------------------


    POTLOK:  cpu time    0.4143: real time    0.4324
    SETDIJ:  cpu time    0.0248: real time    0.0247
    EDDIAG:  cpu time    5.8231: real time    5.8253
  RMM-DIIS:  cpu time   20.5111: real time   20.5261
    ORTHCH:  cpu time    1.6336: real time    1.6340
       DOS:  cpu time    0.0097: real time    0.0097
    CHARGE:  cpu time    1.3583: real time    1.3588
    MIXING:  cpu time    0.0076: real time    0.0076
    --------------------------------------------
      LOOP:  cpu time   29.7816: real time   29.8187

 eigenvalue-minimisations  :  8494
 total energy-change (2. order) : 0.3771082E-02  (-0.2729426E-03)
 number of electron     640.0000054 magnetization      72.1503017
 augmentation part      367.5800566 magnetization      61.9923987

 DIPCOR: dipole corrections for dipol
 direction  3 min pos   244,
 dipolmoment           0.000000      0.000000      0.441020 electrons x Angstroem
 Tr[quadrupol]    -10447.281522

 energy correction for charged system         0.000000 eV
 dipol+quadrupol energy correction           -0.009539 eV
 added-field ion interaction          5.812026 eV  (added to PSCEN)


 Broyden mixing:
  rms(total) = 0.16106E+00    rms(broyden)= 0.16106E+00
  rms(prec ) = 0.17981E+00
  weight for this iteration     100.00

 eigenvalues of (default mixing * dielectric matrix)
  average eigenvalue GAMMA=   0.3378
  0.8495  0.8495  0.3974  0.3974  0.0471  0.1545  0.1325  0.1013  0.1114

 Free energy of the ion-electron system (eV)
  ---------------------------------------------------
  alpha Z        PSCENC =      1362.43418440
  Ewald energy   TEWEN  =    222454.10662894
  -Hartree energ DENC   =   -284753.91278435
  -exchange      EXHF   =         0.00000000
  -V(xc)+E(xc)   XCENC  =      1709.08990459
  PAW double counting   =     68855.13551673   -72369.33004424
  entropy T*S    EENTRO =         0.03596412
  eigenvalues    EBANDS =     -1549.11743955
  atomic energy  EATOM  =     63882.35519389
  Solvation  Ediel_sol  =         0.00000000
  ---------------------------------------------------
  free energy    TOTEN  =      -409.20287548 eV

  energy without entropy =     -409.23883960  energy(sigma->0) =     -409.21486352


--------------------------------------------------------------------------------------------------------




--------------------------------------- Iteration      1(  11)  ---------------------------------------


    POTLOK:  cpu time    0.4147: real time    0.4310
    SETDIJ:  cpu time    0.0248: real time    0.0248
    EDDIAG:  cpu time    5.8443: real time    5.8469
  RMM-DIIS:  cpu time   20.4837: real time   20.4954
    ORTHCH:  cpu time    1.6376: real time    1.6380
       DOS:  cpu time    0.0092: real time    0.0092
    CHARGE:  cpu time    1.3574: real time    1.3578
    MIXING:  cpu time    0.0077: real time    0.0077
    --------------------------------------------
      LOOP:  cpu time   29.7794: real time   29.8107

 eigenvalue-minimisations  :  8472
 total energy-change (2. order) : 0.3597040E-02  (-0.1710339E-03)
 number of electron     640.0000054 magnetization      72.1586872
 augmentation part      367.5947588 magnetization      62.0180095

 DIPCOR: dipole corrections for dipol
 direction  3 min pos   245,
 dipolmoment           0.000000      0.000000      0.439792 electrons x Angstroem
 Tr[quadrupol]    -10447.351148

 energy correction for charged system         0.000000 eV
 dipol+quadrupol energy correction           -0.009486 eV
 added-field ion interaction          7.623989 eV  (added to PSCEN)


 Broyden mixing:
  rms(total) = 0.14827E+00    rms(broyden)= 0.14827E+00
  rms(prec ) = 0.16621E+00
  weight for this iteration     100.00

 eigenvalues of (default mixing * dielectric matrix)
  average eigenvalue GAMMA=   0.4032
  1.1639  1.1639  0.5112  0.5112  0.0471  0.1532  0.1532  0.0987  0.1149  0.1149

 Free energy of the ion-electron system (eV)
  ---------------------------------------------------
  alpha Z        PSCENC =      1364.24620115
  Ewald energy   TEWEN  =    222454.10662894
  -Hartree energ DENC   =   -284754.99510220
  -exchange      EXHF   =         0.00000000
  -V(xc)+E(xc)   XCENC  =      1709.12283357
  PAW double counting   =     68824.11787521   -72337.46144800
  entropy T*S    EENTRO =         0.03653473
  eigenvalues    EBANDS =     -1550.72799572
  atomic energy  EATOM  =     63882.35519389
  Solvation  Ediel_sol  =         0.00000000
  ---------------------------------------------------
  free energy    TOTEN  =      -409.19927844 eV

  energy without entropy =     -409.23581317  energy(sigma->0) =     -409.21145668


--------------------------------------------------------------------------------------------------------




--------------------------------------- Iteration      1(  12)  ---------------------------------------


    POTLOK:  cpu time    0.4170: real time    0.4331
    SETDIJ:  cpu time    0.0261: real time    0.0261
    EDDIAG:  cpu time    5.8292: real time    5.8320
  RMM-DIIS:  cpu time   20.4932: real time   20.5042
    ORTHCH:  cpu time    1.6375: real time    1.6379
       DOS:  cpu time    0.0095: real time    0.0095
    CHARGE:  cpu time    1.3575: real time    1.3578
    MIXING:  cpu time    0.0083: real time    0.0083
    --------------------------------------------
      LOOP:  cpu time   29.7784: real time   29.8090

 eigenvalue-minimisations  :  8478
 total energy-change (2. order) : 0.1021971E-01  (-0.2671283E-03)
 number of electron     640.0000054 magnetization      72.1656074
 augmentation part      367.6518300 magnetization      62.0182356

 DIPCOR: dipole corrections for dipol
 direction  3 min pos   245,
 dipolmoment           0.000000      0.000000      0.434761 electrons x Angstroem
 Tr[quadrupol]    -10447.412394

 energy correction for charged system         0.000000 eV
 dipol+quadrupol energy correction           -0.009270 eV
 added-field ion interaction          7.536774 eV  (added to PSCEN)


 Broyden mixing:
  rms(total) = 0.10407E+00    rms(broyden)= 0.10407E+00
  rms(prec ) = 0.11259E+00
  weight for this iteration     100.00

 eigenvalues of (default mixing * dielectric matrix)
  average eigenvalue GAMMA=   0.4151
  1.3098  1.3098  0.5334  0.5334  0.2013  0.1764  0.0471  0.1262  0.1262  0.1032
  0.0986

 Free energy of the ion-electron system (eV)
  ---------------------------------------------------
  alpha Z        PSCENC =      1364.15920114
  Ewald energy   TEWEN  =    222454.10662894
  -Hartree energ DENC   =   -284758.19762848
  -exchange      EXHF   =         0.00000000
  -V(xc)+E(xc)   XCENC  =      1709.14635707
  PAW double counting   =     68762.03741847   -72273.56660605
  entropy T*S    EENTRO =         0.03675796
  eigenvalues    EBANDS =     -1549.26638166
  atomic energy  EATOM  =     63882.35519389
  Solvation  Ediel_sol  =         0.00000000
  ---------------------------------------------------
  free energy    TOTEN  =      -409.18905873 eV

  energy without entropy =     -409.22581669  energy(sigma->0) =     -409.20131138


--------------------------------------------------------------------------------------------------------




--------------------------------------- Iteration      1(  13)  ---------------------------------------


    POTLOK:  cpu time    0.4145: real time    0.4307
    SETDIJ:  cpu time    0.0262: real time    0.0262
    EDDIAG:  cpu time    5.8141: real time    5.8175
  RMM-DIIS:  cpu time   20.5441: real time   20.5618
    ORTHCH:  cpu time    1.6328: real time    1.6333
       DOS:  cpu time    0.0098: real time    0.0098
    CHARGE:  cpu time    1.3586: real time    1.3590
    MIXING:  cpu time    0.0082: real time    0.0082
    --------------------------------------------
      LOOP:  cpu time   29.8091: real time   29.8465

 eigenvalue-minimisations  :  8483
 total energy-change (2. order) : 0.6318190E-02  (-0.1578439E-03)
 number of electron     640.0000054 magnetization      72.1774366
 augmentation part      367.6781039 magnetization      62.0444465

 DIPCOR: dipole corrections for dipol
 direction  3 min pos   245,
 dipolmoment           0.000000      0.000000      0.434809 electrons x Angstroem
 Tr[quadrupol]    -10447.439251

 energy correction for charged system         0.000000 eV
 dipol+quadrupol energy correction           -0.009272 eV
 added-field ion interaction          7.537593 eV  (added to PSCEN)


 Broyden mixing:
  rms(total) = 0.80123E-01    rms(broyden)= 0.80122E-01
  rms(prec ) = 0.88219E-01
  weight for this iteration     100.00

 eigenvalues of (default mixing * dielectric matrix)
  average eigenvalue GAMMA=   0.4600
  1.5123  1.5123  0.6216  0.6216  0.4431  0.0471  0.1715  0.1400  0.1362  0.1139
  0.1036  0.0968

 Free energy of the ion-electron system (eV)
  ---------------------------------------------------
  alpha Z        PSCENC =      1364.16001839
  Ewald energy   TEWEN  =    222454.10662894
  -Hartree energ DENC   =   -284759.76923271
  -exchange      EXHF   =         0.00000000
  -V(xc)+E(xc)   XCENC  =      1709.16970949
  PAW double counting   =     68727.88477162   -72238.37148670
  entropy T*S    EENTRO =         0.03695448
  eigenvalues    EBANDS =     -1548.75529793
  atomic energy  EATOM  =     63882.35519389
  Solvation  Ediel_sol  =         0.00000000
  ---------------------------------------------------
  free energy    TOTEN  =      -409.18274054 eV

  energy without entropy =     -409.21969501  energy(sigma->0) =     -409.19505870


--------------------------------------------------------------------------------------------------------




--------------------------------------- Iteration      1(  14)  ---------------------------------------


    POTLOK:  cpu time    0.4175: real time    0.4339
    SETDIJ:  cpu time    0.0261: real time    0.0261
    EDDIAG:  cpu time    5.8251: real time    5.8281
  RMM-DIIS:  cpu time   20.5253: real time   20.5400
    ORTHCH:  cpu time    1.6379: real time    1.6383
       DOS:  cpu time    0.0099: real time    0.0100
    CHARGE:  cpu time    1.3570: real time    1.3574
    MIXING:  cpu time    0.0087: real time    0.0087
    --------------------------------------------
      LOOP:  cpu time   29.8067: real time   29.8425

 eigenvalue-minimisations  :  8485
 total energy-change (2. order) : 0.6963667E-02  (-0.1492903E-03)
 number of electron     640.0000054 magnetization      72.1857306
 augmentation part      367.7184435 magnetization      62.0616462

 DIPCOR: dipole corrections for dipol
 direction  3 min pos   247,
 dipolmoment           0.000000      0.000000      0.436357 electrons x Angstroem
 Tr[quadrupol]    -10447.594371

 energy correction for charged system         0.000000 eV
 dipol+quadrupol energy correction           -0.009338 eV
 added-field ion interaction         11.192149 eV  (added to PSCEN)


 Broyden mixing:
  rms(total) = 0.65453E-01    rms(broyden)= 0.65452E-01
  rms(prec ) = 0.76161E-01
  weight for this iteration     100.00

 eigenvalues of (default mixing * dielectric matrix)
  average eigenvalue GAMMA=   0.4666
  1.6323  1.6323  0.6775  0.6775  0.4832  0.0471  0.1820  0.1496  0.1496  0.1180
  0.1180  0.1024  0.0969

 Free energy of the ion-electron system (eV)
  ---------------------------------------------------
  alpha Z        PSCENC =      1367.81450819
  Ewald energy   TEWEN  =    222454.10662894
  -Hartree energ DENC   =   -284761.66362885
  -exchange      EXHF   =         0.00000000
  -V(xc)+E(xc)   XCENC  =      1709.18691193
  PAW double counting   =     68692.93336374   -72202.22794532
  entropy T*S    EENTRO =         0.03702634
  eigenvalues    EBANDS =     -1551.71783574
  atomic energy  EATOM  =     63882.35519389
  Solvation  Ediel_sol  =         0.00000000
  ---------------------------------------------------
  free energy    TOTEN  =      -409.17577687 eV

  energy without entropy =     -409.21280321  energy(sigma->0) =     -409.18811899


--------------------------------------------------------------------------------------------------------




--------------------------------------- Iteration      1(  15)  ---------------------------------------


    POTLOK:  cpu time    0.4141: real time    0.4312
    SETDIJ:  cpu time    0.0260: real time    0.0261
    EDDIAG:  cpu time    5.8277: real time    5.8307
  RMM-DIIS:  cpu time   20.5483: real time   20.5640
    ORTHCH:  cpu time    1.6340: real time    1.6344
       DOS:  cpu time    0.0094: real time    0.0094
    CHARGE:  cpu time    1.3587: real time    1.3591
    MIXING:  cpu time    0.0086: real time    0.0086
    --------------------------------------------
      LOOP:  cpu time   29.8277: real time   29.8635

 eigenvalue-minimisations  :  8467
 total energy-change (2. order) : 0.4829500E-02  (-0.8200396E-04)
 number of electron     640.0000054 magnetization      72.1947651
 augmentation part      367.7463625 magnetization      62.0680563

 DIPCOR: dipole corrections for dipol
 direction  3 min pos   247,
[...]
   -.302E+02 0.103E+03 0.113E+04   0.303E+02 -.103E+03 -.113E+04   -.131E+00 0.130E+00 -.558E+00   -.386E-01 -.650E-01 0.123E-01
   0.114E+02 0.787E+02 0.301E+04   -.115E+02 -.788E+02 -.301E+04   -.497E-01 0.945E-01 -.119E+01   -.382E-01 -.809E-02 -.131E+00
   -.120E+03 -.150E+02 -.261E+04   0.121E+03 0.156E+02 0.261E+04   -.822E+00 -.627E+00 0.839E+00   -.976E-01 0.312E-01 0.205E+00
   0.943E+01 0.119E+03 0.120E+04   -.942E+01 -.119E+03 -.120E+04   -.120E+00 0.205E+00 -.354E+00   0.642E-01 -.140E+00 -.922E-01
   -.154E+02 -.315E+02 0.302E+04   0.155E+02 0.314E+02 -.302E+04   -.513E-01 -.287E-01 -.160E+01   -.424E-01 0.110E+00 -.122E+00
   0.715E+02 -.844E+02 -.269E+04   -.732E+02 0.852E+02 0.269E+04   0.176E+01 -.104E+01 0.711E+00   -.871E-01 0.194E+00 0.236E+00
   -.316E+02 -.349E+02 0.301E+04   0.317E+02 0.349E+02 -.301E+04   -.157E+00 0.755E-02 -.113E+01   0.569E-01 0.211E-01 -.111E+00
   -.138E+03 -.505E+02 -.269E+04   0.139E+03 0.514E+02 0.269E+04   -.167E+01 -.102E+01 0.546E+00   0.954E-01 0.106E+00 0.177E+00
   -.258E+02 -.153E+02 0.118E+04   0.257E+02 0.152E+02 -.118E+04   -.525E-02 -.161E-01 -.457E+00   0.871E-01 0.376E-01 -.136E+00
   0.284E+01 0.194E+02 0.118E+04   -.282E+01 -.193E+02 -.118E+04   -.659E-01 -.917E-01 -.395E+00   0.146E+00 -.344E-01 -.248E-01
   0.341E+02 0.403E+01 0.303E+04   -.341E+02 -.409E+01 -.303E+04   0.179E+00 -.362E-01 -.130E+01   -.524E-01 0.887E-01 -.457E-01
   -.577E+02 -.594E+02 -.268E+04   0.594E+02 0.606E+02 0.268E+04   -.164E+01 -.143E+01 0.101E+01   -.989E-01 0.171E+00 0.122E+00
   0.215E+02 0.611E+02 0.117E+04   -.216E+02 -.610E+02 -.117E+04   0.108E+00 -.155E+00 -.374E+00   -.726E-01 0.666E-01 0.724E-02
   0.287E+00 0.278E+02 0.116E+04   -.422E-01 -.279E+02 -.116E+04   -.616E-01 -.500E-01 -.174E+00   -.162E+00 0.155E+00 -.918E-01
   -.639E+02 -.769E+02 0.937E+03   0.641E+02 0.769E+02 -.937E+03   -.181E+00 -.112E+00 -.365E+00   -.857E-01 0.158E+00 -.183E-01
   0.288E+02 -.933E+02 0.939E+03   -.290E+02 0.935E+02 -.940E+03   0.167E+00 -.214E+00 -.337E+00   0.310E-01 0.682E-01 0.145E-01
   -.538E+02 0.127E+02 -.577E+03   0.540E+02 -.126E+02 0.577E+03   -.284E+00 -.332E-01 0.302E+00   0.447E-01 -.114E+00 0.633E-01
   0.423E+02 0.426E+02 -.603E+03   -.424E+02 -.426E+02 0.603E+03   0.201E+00 0.673E-01 0.154E+00   -.825E-01 -.715E-01 0.793E-01
   -.298E+02 0.122E+02 0.238E+04   0.299E+02 -.120E+02 -.237E+04   -.124E-01 -.373E-01 -.273E+01   -.276E-01 -.224E-01 0.304E-02
   -.646E+02 -.638E+02 -.212E+04   0.647E+02 0.641E+02 0.212E+04   -.726E-01 -.166E+00 0.167E+01   -.405E-01 -.622E-01 0.271E-01
   -.259E+02 -.278E+02 0.906E+03   0.263E+02 0.277E+02 -.906E+03   -.243E+00 0.886E-01 -.307E+00   -.101E+00 0.167E-01 0.395E-01
   0.120E+02 0.315E+02 0.238E+04   -.119E+02 -.316E+02 -.238E+04   -.466E-01 0.584E-01 -.301E+01   0.304E-01 -.451E-01 -.842E-01
   -.865E+02 -.441E+02 -.211E+04   0.876E+02 0.442E+02 0.211E+04   -.118E+01 0.230E-01 0.107E+01   0.579E-01 -.163E+00 0.762E-01
   0.422E+02 -.280E+02 0.925E+03   -.422E+02 0.280E+02 -.925E+03   -.262E-01 0.187E+00 -.410E+00   -.591E-02 -.688E-01 0.477E-01
   0.302E+02 -.651E+02 0.931E+03   -.307E+02 0.652E+02 -.931E+03   0.356E+00 -.399E-01 -.290E+00   0.939E-01 -.761E-01 0.514E-01
   -.147E+02 0.697E+02 0.938E+03   0.147E+02 -.695E+02 -.938E+03   0.195E-01 -.846E-01 -.425E+00   0.117E+00 -.108E+00 -.306E-01
   0.285E+02 0.117E+03 0.928E+03   -.287E+02 -.117E+03 -.927E+03   0.212E+00 0.266E+00 -.470E+00   -.137E+00 -.320E-01 -.158E-02
   0.102E+02 -.108E+02 0.243E+04   -.103E+02 0.108E+02 -.243E+04   0.109E-01 0.530E-01 -.275E+01   0.302E-01 0.423E-02 -.229E-01
   0.965E+02 -.258E+02 -.211E+04   -.976E+02 0.262E+02 0.211E+04   0.992E+00 -.429E+00 0.832E+00   0.695E-01 0.858E-01 0.799E-01
   -.631E+02 0.325E+02 -.214E+04   0.633E+02 -.331E+02 0.217E+04   -.237E+00 0.623E+00 -.277E+02   0.172E-01 -.845E-01 -.369E-02
   -.229E+02 0.188E+01 -.220E+04   0.226E+02 -.228E+01 0.222E+04   0.283E+00 0.369E+00 -.281E+02   0.175E-01 0.366E-01 0.579E-01
   -.120E+02 -.244E+02 -.216E+04   0.985E+01 0.235E+02 0.219E+04   0.217E+01 0.923E+00 -.280E+02   -.270E-01 -.425E-01 -.522E-01
   0.664E+02 -.638E+02 -.215E+04   -.642E+02 0.643E+02 0.218E+04   -.225E+01 -.579E+00 -.280E+02   0.215E-01 0.813E-01 -.445E-01
   -.156E+02 -.255E+01 -.218E+04   0.184E+02 0.468E+01 0.221E+04   -.264E+01 -.212E+01 -.290E+02   -.592E-01 -.772E-02 0.646E-01
 -----------------------------------------------------------------------------------------------
   0.167E+01 -.629E+00 0.149E+03   0.348E-12 -.448E-12 0.637E-11   -.166E+01 0.537E+00 -.152E+03   -.113E-01 0.984E-01 0.310E+01
 
 
 POSITION                                       TOTAL-FORCE (eV/Angst)
 -----------------------------------------------------------------------------------
     10.01618      0.00618      6.08877         0.001227     -0.010798     -0.006597
      2.49065      0.02010      6.04092         0.006602     -0.007991     -0.011942
     -0.02306      8.67403      6.07176        -0.004044      0.003848     -0.014103
      2.48701      8.67464      6.05996        -0.000095     -0.000449     -0.020061
      8.76932      2.15910      6.08044        -0.001616     -0.010699     -0.016179
      1.25646      2.19824      6.08790        -0.008335     -0.001072     -0.017132
     -0.00285      1.44433      2.02730        -0.083916     -0.012243      0.198172
     -0.00907      1.39861      8.14792        -0.000785      0.001909     -0.003507
      3.75185      2.18755      6.09035         0.012204     -0.000590     -0.014984
      2.50178      1.44890      2.02869         0.113461     -0.068360      0.209595
      2.48820      1.45370      8.02860        -0.002513      0.007293     -0.014198
      6.25781      2.18623      6.08847         0.009840     -0.007170     -0.019136
      5.00042      1.45188      2.04906        -0.040616      0.043296      0.226204
      4.99862      1.34640      8.09569        -0.000542      0.013590      0.011847
      7.52680      1.44774      2.04372        -0.007030      0.019584      0.314600
      7.50999      1.42276      8.02929        -0.013918     -0.012372     -0.000540
      6.25724      0.72120      4.08068         0.015138     -0.071859     -0.285270
      8.77725      0.71231      4.06936        -0.005821     -0.025846     -0.162677
     -2.48775      4.35483      6.05798        -0.002342      0.003156     -0.006457
     -1.27467      3.61315      2.03306        -0.051178      0.137788      0.212521
     -1.30110      3.62118      8.12506         0.003449     -0.007952     -0.009927
     -0.00860      2.89985      4.06991         0.083865      0.016356     -0.188401
      5.02424      4.36045      6.09452         0.002898     -0.005762     -0.032732
      3.76492      3.61380      2.03274        -0.064982      0.112508      0.137597
      3.72952      3.59496      8.32953         0.016814      0.000689     -0.002260
     -3.76497      6.52809      6.07575        -0.001044     -0.000005     -0.009010
     -1.25909      6.50732      6.04272         0.005544     -0.002715     -0.005071
     -2.50964      5.80144      2.00867         0.161198     -0.076560      0.353160
     -2.50477      5.75225      8.09995         0.008521      0.005060      0.011471
      1.28192      6.49853      6.09293        -0.005541     -0.010025     -0.010699
     -0.00666      5.79426      2.00000        -0.134303     -0.095406      0.265738
     -0.00476      5.76844      8.01729         0.004640     -0.000131     -0.007167
      3.77379      6.50955      6.07883        -0.004773      0.001097     -0.021434
      2.50308      5.78909      2.00257         0.205230     -0.098205      0.276117
      2.46207      5.75913      8.30624         0.010237      0.002651      0.004884
      1.25945      5.05378      4.04326         0.010716     -0.033377     -0.073263
      5.01445      5.79798      2.01253        -0.222750     -0.054179      0.269199
      5.04607      5.80865      8.12938        -0.001451     -0.013886     -0.039133
      6.27138      5.06452      4.04277        -0.039357     -0.048276     -0.095892
     -3.76517      7.96148      2.01691         0.041606      0.062309      0.280355
     -3.78728      7.98489      8.11769         0.004978     -0.015252     -0.001451
     -1.24654      7.96318      2.02107        -0.058713      0.008380      0.201010
     -1.24713      7.96174      8.10699        -0.012243     -0.005204     -0.004572
     -2.51584      7.25277      4.05487        -0.027388     -0.003459     -0.202690
      0.00963      7.22591      4.06957         0.105167     -0.027622     -0.231144
      3.74757      7.96401      2.04130         0.099949     -0.002658      0.214733
      3.78897      8.01345      8.11989        -0.016538     -0.005229     -0.011475
      2.50222      7.23652      4.07555        -0.043467     -0.046569     -0.177716
      5.01801      7.23500      4.07176         0.020952     -0.009645     -0.065071
      1.20950      0.71304      4.05362         0.005631      0.051912     -0.287100
      3.78049      0.67792      4.06351        -0.065939      0.045296     -0.323427
     -0.00094      4.32979      6.08970        -0.007781     -0.011615     -0.003754
      2.56471      4.36878      6.16367         0.001846      0.002162     -0.010345
      1.23098      3.62224      2.02941         0.005280      0.069226      0.142324
      1.24147      3.58652      8.21197        -0.001823      0.005569      0.010897
      2.51334      2.87806      4.07938         0.005765      0.042837     -0.116525
      6.26024      3.63306      2.00212        -0.000096     -0.021619      0.203668
      6.33193      3.59076      8.10391        -0.022275     -0.019271      0.000505
      5.02463      2.88643      4.11822         0.005035      0.103062     -0.385338
      7.52997      2.83909      4.10996         0.018769     -0.017879     -0.338724
     -1.25360      5.10876      4.01488         0.058410      0.013754     -0.376293
      3.75975      5.11705      4.02298        -0.064909      0.031229     -0.203601
      1.25181      7.95850      2.03067        -0.043578      0.077113      0.331049
      1.18628      7.96209      8.05778         0.014859     -0.006125      0.002790
      5.17826      2.74669      9.24332         0.004125     -0.019784     -0.025035
     -2.51543      7.22584      9.20053         0.009185      0.003916     -0.012346
     -0.06887      2.86412      9.28299        -0.013683     -0.001710     -0.017081
      2.42996      7.43318      9.23309        -0.007830      0.002593     -0.009236
      3.85631      5.12513      9.31198         0.010072      0.001384      0.012265
 -----------------------------------------------------------------------------------
    total drift:                                0.000325      0.007282     -0.011259


--------------------------------------------------------------------------------------------------------



  FREE ENERGIE OF THE ION-ELECTRON SYSTEM (eV)
  ---------------------------------------------------
  free  energy   TOTEN  =      -426.06224276 eV

  energy  without entropy=     -426.10080247  energy(sigma->0) =     -426.07509599
 
 d Force = 0.9149856E-03[ 0.388E-03, 0.144E-02]  d Energy = 0.6709131E-03 0.244E-03
 d Force =-0.2117554E+02[-0.212E+02,-0.212E+02]  d Ewald  =-0.2117555E+02 0.464E-05


--------------------------------------------------------------------------------------------------------


    POTLOK:  cpu time    0.4367: real time    0.4369


--------------------------------------------------------------------------------------------------------


 stress matrix after NEB project (eV)
    -28.55075      0.42460      0.16618
      0.42460    -28.12313     -0.58463
      0.16618     -0.58463     -9.18817
  FORCES: max atom, RMS     0.041549    0.013713
  FORCE total and by dimension    0.113910    0.039133
  Stress total and by dimension   41.128792   28.550745
 Steepest descent step on ions:
 trial-energy change:   -0.000671  1 .order   -0.000915   -0.001442   -0.000388
  (g-gl).g = 0.144E-02      g.g   = 0.144E-02  gl.gl    = 0.000E+00
 g(Force)  = 0.144E-02   g(Stress)= 0.000E+00 ortho     = 0.000E+00
 gamma     =   0.00000
 trial     =   1.00000
 opt step  =   1.36848  (harmonic =   1.36848) maximal distance =0.00309329
 next E    =  -426.062558   (d E  =  -0.00099)


--------------------------------------------------------------------------------------------------------


  
 reached required accuracy - stopping structural energy minimisation
 writing wavefunctions
     LOOP+:  cpu time  332.5260: real time  379.1374
    4ORBIT:  cpu time    0.0000: real time    0.0000
 


 total charge     
 
# of ion       s       p       d       tot
------------------------------------------
    1        0.502   0.501   8.329   9.332
    2        0.497   0.498   8.331   9.326
    3        0.512   0.515   8.337   9.364
    4        0.496   0.501   8.321   9.318
    5        0.498   0.503   8.325   9.325
    6        0.509   0.516   8.321   9.345
    7        0.490   0.382   8.318   9.189
    8        0.492   0.498   8.331   9.321
    9        0.506   0.507   8.323   9.337
   10        0.501   0.389   8.305   9.195
   11        0.481   0.386   8.348   9.215
   12        0.507   0.517   8.335   9.359
   13        0.497   0.396   8.314   9.207
   14        0.510   0.533   8.340   9.382
   15        0.498   0.388   8.312   9.198
   16        0.475   0.382   8.366   9.223
   17        0.510   0.516   8.336   9.361
   18        0.504   0.505   8.329   9.338
   19        0.511   0.519   8.330   9.360
   20        0.502   0.393   8.312   9.206
   21        0.503   0.514   8.336   9.353
   22        0.512   0.525   8.326   9.363
   23        0.499   0.494   8.327   9.320
   24        0.504   0.393   8.310   9.207
   25        0.471   0.564   8.332   9.367
   26        0.488   0.487   8.323   9.298
   27        0.496   0.499   8.329   9.324
   28        0.492   0.385   8.313   9.190
   29        0.497   0.509   8.325   9.331
   30        0.501   0.505   8.321   9.328
   31        0.498   0.386   8.317   9.202
   32        0.488   0.396   8.358   9.242
   33        0.495   0.487   8.324   9.305
   34        0.494   0.386   8.318   9.197
   35        0.471   0.566   8.328   9.365
   36        0.507   0.513   8.323   9.343
   37        0.496   0.381   8.313   9.190
   38        0.482   0.487   8.352   9.321
   39        0.505   0.511   8.318   9.335
   40        0.485   0.372   8.311   9.168
   41        0.494   0.503   8.324   9.321
   42        0.493   0.381   8.311   9.185
   43        0.502   0.509   8.341   9.352
   44        0.506   0.508   8.331   9.345
   45        0.504   0.510   8.330   9.345
   46        0.486   0.378   8.307   9.171
   47        0.487   0.484   8.345   9.316
   48        0.501   0.505   8.319   9.325
   49        0.501   0.503   8.325   9.330
   50        0.478   0.513   6.162   7.152
   51        0.481   0.516   6.184   7.181
   52        0.472   0.508   6.177   7.158
   53        0.468   0.496   6.160   7.124
   54        0.464   0.392   6.113   6.969
   55        0.467   0.509   6.169   7.144
   56        0.475   0.514   6.207   7.196
   57        0.463   0.389   6.109   6.962
   58        0.477   0.519   6.163   7.159
   59        0.479   0.516   6.211   7.206
   60        0.479   0.517   6.179   7.175
   61        0.477   0.509   6.154   7.140
   62        0.476   0.508   6.163   7.147
   63        0.462   0.394   6.094   6.950
   64        0.494   0.564   6.189   7.248
   65        1.584   3.351   0.000   4.935
   66        1.583   3.338   0.000   4.921
   67        1.582   3.353   0.000   4.935
   68        1.585   3.349   0.000   4.934
   69        1.587   3.340   0.000   4.927
--------------------------------------------------
tot         39.387  47.083 500.435 586.905
 


 magnetization (x)
 
# of ion       s       p       d       tot
------------------------------------------
    1       -0.008  -0.024   0.602   0.570
    2       -0.012  -0.028   0.693   0.653
    3       -0.008  -0.026   0.565   0.531
    4       -0.011  -0.030   0.725   0.684
    5       -0.011  -0.029   0.724   0.684
    6       -0.021  -0.043   0.770   0.706
    7       -0.015  -0.031   0.685   0.640
    8       -0.005  -0.015   0.510   0.490
    9       -0.014  -0.034   0.723   0.675
   10       -0.015  -0.035   0.773   0.722
   11       -0.011  -0.018   0.760   0.730
   12       -0.016  -0.036   0.711   0.659
   13       -0.019  -0.037   0.726   0.670
   14       -0.009  -0.018   0.297   0.271
   15       -0.010  -0.035   0.730   0.684
   16       -0.015  -0.019   0.737   0.703
   17       -0.016  -0.035   0.689   0.638
   18       -0.011  -0.029   0.682   0.642
   19       -0.014  -0.033   0.657   0.610
   20       -0.021  -0.034   0.743   0.688
   21       -0.011  -0.023   0.570   0.536
   22       -0.020  -0.048   0.775   0.707
   23       -0.016  -0.037   0.752   0.700
   24       -0.022  -0.034   0.756   0.700
   25       -0.011  -0.013   0.322   0.299
   26       -0.005  -0.023   0.675   0.647
   27       -0.012  -0.029   0.699   0.658
   28       -0.012  -0.030   0.716   0.674
   29       -0.007  -0.017   0.554   0.530
   30       -0.013  -0.036   0.734   0.685
   31       -0.013  -0.034   0.723   0.675
   32       -0.017  -0.024   0.754   0.713
   33       -0.011  -0.029   0.731   0.690
   34       -0.017  -0.035   0.701   0.649
   35       -0.011  -0.012   0.381   0.358
   36       -0.022  -0.044   0.738   0.671
   37       -0.008  -0.031   0.731   0.691
   38       -0.007  -0.009   0.545   0.529
   39       -0.019  -0.042   0.756   0.695
   40       -0.010  -0.024   0.706   0.672
   41       -0.004  -0.011   0.508   0.494
   42       -0.013  -0.027   0.716   0.677
   43       -0.010  -0.014   0.437   0.413
   44       -0.013  -0.032   0.737   0.692
   45       -0.012  -0.036   0.698   0.649
   46       -0.011  -0.026   0.712   0.674
   47       -0.004  -0.009   0.372   0.359
   48       -0.012  -0.036   0.758   0.711
   49       -0.011  -0.028   0.714   0.676
   50        0.006  -0.008   2.798   2.796
   51        0.005  -0.014   2.738   2.729
   52        0.003  -0.018   2.781   2.766
   53        0.004  -0.012   2.782   2.774
   54        0.015  -0.008   2.914   2.921
   55        0.015   0.006   2.755   2.777
   56       -0.004  -0.029   2.665   2.633
   57        0.012  -0.009   2.917   2.920
   58        0.019   0.008   2.731   2.757
   59       -0.002  -0.025   2.698   2.672
   60        0.005  -0.018   2.755   2.742
   61        0.007  -0.007   2.822   2.822
   62        0.004  -0.011   2.809   2.802
   63        0.019  -0.006   2.948   2.961
   64        0.018   0.009   2.551   2.579
   65        0.002   0.037   0.000   0.039
   66        0.002   0.097   0.000   0.098
   67        0.002   0.096   0.000   0.098
   68        0.002   0.065   0.000   0.067
   69        0.002   0.099   0.000   0.101
--------------------------------------------------
tot         -0.479  -1.130  74.139  72.530
 

 total amount of memory used by VASP MPI-rank0   115777. kBytes
=======================================================================

   base      :      30000. kBytes
   nonlr-proj:      13878. kBytes
   fftplans  :       6402. kBytes
   grid      :      17692. kBytes
   one-center:         93. kBytes
   wavefun   :      47712. kBytes
 
  
  
 General timing and accounting informations for this job:
 ========================================================
  
                  Total CPU time used (sec):     1490.526
                            User time (sec):     1371.468
                          System time (sec):      119.058
                         Elapsed time (sec):     1541.961
  
                   Maximum memory used (kb):      350144.
                   Average memory used (kb):           0.
  
                          Minor page faults:     19649441
                          Major page faults:            0
                 Voluntary context switches:         4011
