SQS-NiFe                                
           1
    10.026770    0.000000    0.000000
    -5.013385    8.683438    0.000000
     0.000000    0.000000   21.189180
   Ni   Fe   O 
  49  15   5
Direct configuration=     1
   0.99935476  0.00079402  0.28735783
   0.24952353  0.00238573  0.28514211
   0.49716289  0.99883335  0.28657107
   0.74750717  0.99895845  0.28606850
   0.99893966  0.24870712  0.28702981
   0.25197077  0.25312537  0.28737725
   0.08288200  0.16633200  0.09567600
   0.07962338  0.16106938  0.38453385
   0.50003019  0.25192840  0.28748380
   0.33293900  0.16685800  0.09574200
   0.33186462  0.16737946  0.37891332
   0.74996240  0.25181984  0.28741687
   0.58230700  0.16720100  0.09670300
   0.57621397  0.15532607  0.38211778
   0.83403200  0.16672400  0.09645100
   0.83105368  0.16394845  0.37891283
   0.66558100  0.08305500  0.19258300
   0.91639700  0.08203100  0.19204900
   0.00265588  0.50150021  0.28589361
   0.08092200  0.41609700  0.09594800
   0.07879941  0.41701919  0.38348805
   0.16611800  0.33395200  0.19207500
   0.75216488  0.50221758  0.28772150
   0.58357300  0.41617200  0.09593300
   0.57887661  0.41386104  0.39311714
   0.00041686  0.75176966  0.28678074
   0.24908120  0.74941067  0.28520124
   0.08375800  0.66810400  0.09479700
   0.08142213  0.66261054  0.38226935
   0.50212249  0.74847662  0.28758355
   0.33297400  0.66727700  0.09438800
   0.33165303  0.66429837  0.37838444
   0.75122175  0.74962882  0.28695267
   0.58298100  0.66668200  0.09450900
   0.57710782  0.66330845  0.39199522
   0.41661000  0.58200200  0.19081700
   0.83395900  0.66770600  0.09497900
   0.83790451  0.66908971  0.38372630
   0.91708300  0.58323900  0.19079400
   0.08291700  0.91685800  0.09518600
   0.08214475  0.91956004  0.38313869
   0.33420600  0.91705400  0.09538200
   0.33405522  0.91685358  0.38261556
   0.16670900  0.83524200  0.19136500
   0.41703500  0.83214900  0.19205900
   0.83233100  0.91715000  0.09633700
   0.83931571  0.92283041  0.38326113
   0.66623900  0.83337000  0.19234100
   0.91705900  0.83319500  0.19216200
   0.16168500  0.08211500  0.19130600
   0.41607500  0.07807100  0.19177300
   0.24931551  0.49872601  0.28741192
   0.50731557  0.50308080  0.29091875
   0.33134100  0.41714300  0.09577600
   0.33021722  0.41294404  0.38754497
   0.41638400  0.33144300  0.19252200
   0.83354800  0.41839000  0.09448800
   0.83812861  0.41345847  0.38253767
   0.66732400  0.33240600  0.19435500
   0.91446400  0.32695500  0.19396500
   0.16914200  0.58833400  0.18947800
   0.66961600  0.58928900  0.18986000
   0.58310400  0.91651500  0.09583500
   0.57677015  0.91684744  0.38030904
   0.67468213  0.31637400  0.43612165
   0.16504915  0.83206214  0.43416261
   0.15817448  0.32988015  0.43811179
   0.67037980  0.85603285  0.43569376
   0.67965260  0.59021824  0.43946692
Direct configuration=     2
   0.99929909  0.00071134  0.28735298
   0.24955745  0.00231494  0.28509468
   0.49715880  0.99891699  0.28655024
   0.74753058  0.99898702  0.28599311
   0.99891318  0.24864550  0.28695946
   0.25188766  0.25315347  0.28731185
   0.08288200  0.16633200  0.09567600
   0.07962878  0.16106689  0.38453232
   0.50014492  0.25192249  0.28742720
   0.33293900  0.16685800  0.09574200
   0.33186111  0.16741013  0.37890080
   0.74999470  0.25176969  0.28733873
   0.58230700  0.16720100  0.09670300
   0.57605376  0.15505327  0.38206717
   0.83403200  0.16672400  0.09645100
   0.83091760  0.16384787  0.37893373
   0.66558100  0.08305500  0.19258300
   0.91639700  0.08203100  0.19204900
   0.00264460  0.50151041  0.28589976
   0.08092200  0.41609700  0.09594800
   0.07874845  0.41702167  0.38345305
   0.16611800  0.33395200  0.19207500
   0.75216180  0.50215761  0.28762418
   0.58357300  0.41617200  0.09593300
   0.57895766  0.41400240  0.39310302
   0.00040186  0.75178651  0.28673842
   0.24912474  0.74939490  0.28517936
   0.08375800  0.66810400  0.09479700
   0.08141163  0.66243934  0.38226824
   0.50204067  0.74838249  0.28754903
   0.33297400  0.66727700  0.09438800
   0.33167732  0.66430417  0.37836731
   0.75119702  0.74965139  0.28688358
   0.58298100  0.66668200  0.09450900
   0.57716562  0.66323198  0.39200385
   0.41661000  0.58200200  0.19081700
   0.83395900  0.66770600  0.09497900
   0.83772653  0.66893419  0.38365737
   0.91708300  0.58323900  0.19079400
   0.08291700  0.91685800  0.09518600
   0.08205984  0.91955408  0.38310539
   0.33420600  0.91705400  0.09538200
   0.33406443  0.91688852  0.38260056
   0.16670900  0.83524200  0.19136500
   0.41703500  0.83214900  0.19205900
   0.83233100  0.91715000  0.09633700
   0.83930735  0.92284330  0.38320941
   0.66623900  0.83337000  0.19234100
   0.91705900  0.83319500  0.19216200
   0.16168500  0.08211500  0.19130600
   0.41607500  0.07807100  0.19177300
   0.24921880  0.49862604  0.28739685
   0.50734475  0.50311692  0.29088780
   0.33134100  0.41714300  0.09577600
   0.33033062  0.41303037  0.38755489
   0.41638400  0.33144300  0.19252200
   0.83354800  0.41839000  0.09448800
   0.83826147  0.41351791  0.38245519
   0.66732400  0.33240600  0.19435500
   0.91446400  0.32695500  0.19396500
   0.16914200  0.58833400  0.18947800
   0.66961600  0.58928900  0.18986000
   0.58310400  0.91651500  0.09583500
   0.57677516  0.91692791  0.38027784
   0.67460071  0.31631361  0.43622832
   0.16519927  0.83214090  0.43420884
   0.15805011  0.32983683  0.43810047
   0.67035662  0.85601797  0.43574564
   0.67971075  0.59021910  0.43946870
