ESCALE ; pCOHP file generated by LOBSTER. Energy is shifted such that the Fermi level lies at 0 eV.
         4          2        521  -2.01774e+01   5.87268e+00  -1.38879e-01 
Average
No.1:Fe24->O69(1.9569134270572486)
No.2:Ni54->O69(2.0427265487296626)
No.3:Ni56->O69(2.0228299859230763)
-20.03854   0.00000  -0.31327   0.00000  -0.39412   0.00000  -0.26558   0.00000  -0.28011   0.00000  -0.31484   0.00000  -0.39525   0.00000  -0.26666   0.00000  -0.28260
-19.98844   0.00000  -0.31327   0.00000  -0.39412   0.00000  -0.26558   0.00000  -0.28011   0.00000  -0.31484   0.00000  -0.39525   0.00000  -0.26666   0.00000  -0.28260
-19.93834   0.00000  -0.31327   0.00000  -0.39412   0.00000  -0.26558   0.00000  -0.28011   0.00000  -0.31484   0.00000  -0.39525   0.00000  -0.26666   0.00000  -0.28260
-19.88825   0.00000  -0.31327   0.00000  -0.39412   0.00000  -0.26558   0.00000  -0.28011   0.00000  -0.31484   0.00000  -0.39525   0.00000  -0.26666   0.00000  -0.28260
-19.83815   0.00000  -0.31327   0.00000  -0.39412   0.00000  -0.26558   0.00000  -0.28011   0.00000  -0.31484   0.00000  -0.39525   0.00000  -0.26666   0.00000  -0.28260
-19.78805   0.00000  -0.31327   0.00000  -0.39412   0.00000  -0.26558   0.00000  -0.28011   0.00000  -0.31484   0.00000  -0.39525   0.00000  -0.26666   0.00000  -0.28260
-19.73796   0.00000  -0.31327   0.00000  -0.39412   0.00000  -0.26558   0.00000  -0.28011   0.00000  -0.31484   0.00000  -0.39525   0.00000  -0.26666   0.00000  -0.28260
-19.68786   0.00000  -0.31327   0.00000  -0.39412   0.00000  -0.26558   0.00000  -0.28011   0.00000  -0.31484   0.00000  -0.39525   0.00000  -0.26666   0.00000  -0.28260
-19.63776   0.00000  -0.31327   0.00000  -0.39412   0.00000  -0.26558   0.00000  -0.28011   0.00000  -0.31484   0.00000  -0.39525   0.00000  -0.26666   0.00000  -0.28260
-19.58767   0.00000  -0.31327   0.00000  -0.39412   0.00000  -0.26558   0.00000  -0.28011   0.00000  -0.31484   0.00000  -0.39525   0.00000  -0.26666   0.00000  -0.28260
-19.53757   0.00000  -0.31327   0.00000  -0.39412   0.00000  -0.26558   0.00000  -0.28011   0.00000  -0.31484   0.00000  -0.39525   0.00000  -0.26666   0.00000  -0.28260
-19.48748   0.00000  -0.31327   0.00000  -0.39412   0.00000  -0.26558   0.00000  -0.28011   0.00000  -0.31484   0.00000  -0.39525   0.00000  -0.26666   0.00000  -0.28260
-19.43738   0.00000  -0.31327   0.00000  -0.39412   0.00000  -0.26558   0.00000  -0.28011   0.00000  -0.31484   0.00000  -0.39525   0.00000  -0.26666   0.00000  -0.28260
-19.38728   0.00000  -0.31327   0.00000  -0.39412   0.00000  -0.26558   0.00000  -0.28011   0.00000  -0.31484   0.00000  -0.39525   0.00000  -0.26666   0.00000  -0.28260
-19.33719   0.00000  -0.31327   0.00000  -0.39412   0.00000  -0.26558   0.00000  -0.28011   0.00000  -0.31484   0.00000  -0.39525   0.00000  -0.26666   0.00000  -0.28260
-19.28709   0.08032  -0.30925   0.28262  -0.37996  -0.02019  -0.26659  -0.02146  -0.28118   0.00000  -0.31484   0.00000  -0.39525   0.00000  -0.26666   0.00000  -0.28260
-19.23699   0.00008  -0.30924   0.00020  -0.37995   0.00002  -0.26659   0.00002  -0.28118   0.00000  -0.31484   0.00000  -0.39525   0.00000  -0.26666   0.00000  -0.28260
-19.18690   0.00000  -0.30924   0.00000  -0.37995   0.00000  -0.26659   0.00000  -0.28118   0.00000  -0.31484   0.00000  -0.39525   0.00000  -0.26666   0.00000  -0.28260
-19.13680   0.00000  -0.30924   0.00000  -0.37995   0.00000  -0.26659   0.00000  -0.28118   0.00000  -0.31484   0.00000  -0.39525   0.00000  -0.26666   0.00000  -0.28260
-19.08671   0.00000  -0.30924   0.00000  -0.37995   0.00000  -0.26659   0.00000  -0.28118   0.08103  -0.31078   0.28513  -0.38097  -0.02024  -0.26768  -0.02180  -0.28370
-19.03661   0.00000  -0.30924   0.00000  -0.37995   0.00000  -0.26659   0.00000  -0.28118   0.00000  -0.31078   0.00000  -0.38097   0.00000  -0.26768   0.00000  -0.28370
-18.98651   0.04947  -0.30676  -0.00935  -0.38042   0.17172  -0.25799  -0.01395  -0.28188   0.00005  -0.31078   0.00003  -0.38097   0.00006  -0.26768   0.00005  -0.28369
-18.93642   0.00000  -0.30676   0.00000  -0.38042   0.00000  -0.25799   0.00000  -0.28188   0.00000  -0.31078   0.00000  -0.38097   0.00000  -0.26768   0.00000  -0.28369
-18.88632   0.05474  -0.30402  -0.01161  -0.38100  -0.00973  -0.25848   0.18556  -0.27258   0.00000  -0.31078   0.00000  -0.38097   0.00000  -0.26768   0.00000  -0.28369
-18.83622   0.00000  -0.30402   0.00000  -0.38100   0.00000  -0.25848   0.00000  -0.27258   0.00000  -0.31078   0.00000  -0.38097   0.00000  -0.26768   0.00000  -0.28369
-18.78613   0.00000  -0.30402   0.00000  -0.38100   0.00000  -0.25848   0.00000  -0.27258   0.05192  -0.30818  -0.00952  -0.38144   0.18023  -0.25865  -0.01495  -0.28444
-18.73603   0.00000  -0.30402   0.00000  -0.38100   0.00000  -0.25848   0.00000  -0.27258   0.00000  -0.30818   0.00000  -0.38144   0.00000  -0.25865   0.00000  -0.28444
-18.68593   0.00000  -0.30402   0.00000  -0.38100   0.00000  -0.25848   0.00000  -0.27258   0.05726  -0.30531  -0.01239  -0.38206  -0.00982  -0.25914   0.19400  -0.27472
-18.63584   0.00000  -0.30402   0.00000  -0.38100   0.00000  -0.25848   0.00000  -0.27258   0.00000  -0.30531   0.00000  -0.38206   0.00000  -0.25914   0.00000  -0.27472
-18.58574   0.00000  -0.30402   0.00000  -0.38100   0.00000  -0.25848   0.00000  -0.27258   0.00000  -0.30531   0.00000  -0.38206   0.00000  -0.25914   0.00000  -0.27472
-18.53565   0.00000  -0.30402   0.00000  -0.38100   0.00000  -0.25848   0.00000  -0.27258   0.00000  -0.30531   0.00000  -0.38206   0.00000  -0.25914   0.00000  -0.27472
-18.48555   0.00000  -0.30402   0.00000  -0.38100   0.00000  -0.25848   0.00000  -0.27258   0.00000  -0.30531   0.00000  -0.38206   0.00000  -0.25914   0.00000  -0.27472
-18.43545   0.00000  -0.30402   0.00000  -0.38100   0.00000  -0.25848   0.00000  -0.27258   0.00000  -0.30531   0.00000  -0.38206   0.00000  -0.25914   0.00000  -0.27472
-18.38536   0.00000  -0.30402   0.00000  -0.38100   0.00000  -0.25848   0.00000  -0.27258   0.00000  -0.30531   0.00000  -0.38206   0.00000  -0.25914   0.00000  -0.27472
-18.33526   0.00000  -0.30402   0.00000  -0.38100   0.00000  -0.25848   0.00000  -0.27258   0.00000  -0.30531   0.00000  -0.38206   0.00000  -0.25914   0.00000  -0.27472
-18.28516   0.00000  -0.30402   0.00000  -0.38100   0.00000  -0.25848   0.00000  -0.27258   0.00000  -0.30531   0.00000  -0.38206   0.00000  -0.25914   0.00000  -0.27472
-18.23507   0.00000  -0.30402   0.00000  -0.38100   0.00000  -0.25848   0.00000  -0.27258   0.00000  -0.30531   0.00000  -0.38206   0.00000  -0.25914   0.00000  -0.27472
-18.18497   0.00000  -0.30402   0.00000  -0.38100   0.00000  -0.25848   0.00000  -0.27258   0.00000  -0.30531   0.00000  -0.38206   0.00000  -0.25914   0.00000  -0.27472
-18.13487   0.00000  -0.30402   0.00000  -0.38100   0.00000  -0.25848   0.00000  -0.27258   0.00000  -0.30531   0.00000  -0.38206   0.00000  -0.25914   0.00000  -0.27472
-18.08478   0.00000  -0.30402   0.00000  -0.38100   0.00000  -0.25848   0.00000  -0.27258   0.00000  -0.30531   0.00000  -0.38206   0.00000  -0.25914   0.00000  -0.27472
-18.03468   0.00000  -0.30402   0.00000  -0.38100   0.00000  -0.25848   0.00000  -0.27258   0.00000  -0.30531   0.00000  -0.38206   0.00000  -0.25914   0.00000  -0.27472
-17.98459   0.00000  -0.30402   0.00000  -0.38100   0.00000  -0.25848   0.00000  -0.27258   0.00000  -0.30531   0.00000  -0.38206   0.00000  -0.25914   0.00000  -0.27472
-17.93449   0.00000  -0.30402   0.00000  -0.38100   0.00000  -0.25848   0.00000  -0.27258   0.00000  -0.30531   0.00000  -0.38206   0.00000  -0.25914   0.00000  -0.27472
-17.88439   0.00000  -0.30402   0.00000  -0.38100   0.00000  -0.25848   0.00000  -0.27258   0.00000  -0.30531   0.00000  -0.38206   0.00000  -0.25914   0.00000  -0.27472
-17.83430   0.00000  -0.30402   0.00000  -0.38100   0.00000  -0.25848   0.00000  -0.27258   0.00000  -0.30531   0.00000  -0.38206   0.00000  -0.25914   0.00000  -0.27472
-17.78420   0.00000  -0.30402   0.00000  -0.38100   0.00000  -0.25848   0.00000  -0.27258   0.00000  -0.30531   0.00000  -0.38206   0.00000  -0.25914   0.00000  -0.27472
-17.73410   0.00000  -0.30402   0.00000  -0.38100   0.00000  -0.25848   0.00000  -0.27258   0.00000  -0.30531   0.00000  -0.38206   0.00000  -0.25914   0.00000  -0.27472
-17.68401   0.00000  -0.30402   0.00000  -0.38100   0.00000  -0.25848   0.00000  -0.27258   0.00000  -0.30531   0.00000  -0.38206   0.00000  -0.25914   0.00000  -0.27472
-17.63391   0.00000  -0.30402   0.00000  -0.38100   0.00000  -0.25848   0.00000  -0.27258   0.00000  -0.30531   0.00000  -0.38206   0.00000  -0.25914   0.00000  -0.27472
-17.58382   0.00000  -0.30402   0.00000  -0.38100   0.00000  -0.25848   0.00000  -0.27258   0.00000  -0.30531   0.00000  -0.38206   0.00000  -0.25914   0.00000  -0.27472
-17.53372   0.00000  -0.30402   0.00000  -0.38100   0.00000  -0.25848   0.00000  -0.27258   0.00000  -0.30531   0.00000  -0.38206   0.00000  -0.25914   0.00000  -0.27472
-17.48362   0.00000  -0.30402   0.00000  -0.38100   0.00000  -0.25848   0.00000  -0.27258   0.00000  -0.30531   0.00000  -0.38206   0.00000  -0.25914   0.00000  -0.27472
-17.43353   0.00000  -0.30402   0.00000  -0.38100   0.00000  -0.25848   0.00000  -0.27258   0.00000  -0.30531   0.00000  -0.38206   0.00000  -0.25914   0.00000  -0.27472
-17.38343   0.00000  -0.30402   0.00000  -0.38100   0.00000  -0.25848   0.00000  -0.27258   0.00000  -0.30531   0.00000  -0.38206   0.00000  -0.25914   0.00000  -0.27472
-17.33333   0.00000  -0.30402   0.00000  -0.38100   0.00000  -0.25848   0.00000  -0.27258   0.00000  -0.30531   0.00000  -0.38206   0.00000  -0.25914   0.00000  -0.27472
-17.28324   0.00000  -0.30402   0.00000  -0.38100   0.00000  -0.25848   0.00000  -0.27258   0.00000  -0.30531   0.00000  -0.38206   0.00000  -0.25914   0.00000  -0.27472
-17.23314   0.00000  -0.30402   0.00000  -0.38100   0.00000  -0.25848   0.00000  -0.27258   0.00000  -0.30531   0.00000  -0.38206   0.00000  -0.25914   0.00000  -0.27472
-17.18304   0.00000  -0.30402   0.00000  -0.38100   0.00000  -0.25848   0.00000  -0.27258   0.00000  -0.30531   0.00000  -0.38206   0.00000  -0.25914   0.00000  -0.27472
-17.13295   0.00000  -0.30402   0.00000  -0.38100   0.00000  -0.25848   0.00000  -0.27258   0.00000  -0.30531   0.00000  -0.38206   0.00000  -0.25914   0.00000  -0.27472
-17.08285   0.00000  -0.30402   0.00000  -0.38100   0.00000  -0.25848   0.00000  -0.27258   0.00000  -0.30531   0.00000  -0.38206   0.00000  -0.25914   0.00000  -0.27472
-17.03276   0.00000  -0.30402   0.00000  -0.38100   0.00000  -0.25848   0.00000  -0.27258   0.00000  -0.30531   0.00000  -0.38206   0.00000  -0.25914   0.00000  -0.27472
-16.98266   0.00000  -0.30402   0.00000  -0.38100   0.00000  -0.25848   0.00000  -0.27258   0.00000  -0.30531   0.00000  -0.38206   0.00000  -0.25914   0.00000  -0.27472
-16.93256   0.00000  -0.30402   0.00000  -0.38100   0.00000  -0.25848   0.00000  -0.27258   0.00000  -0.30531   0.00000  -0.38206   0.00000  -0.25914   0.00000  -0.27472
-16.88247   0.00000  -0.30402   0.00000  -0.38100   0.00000  -0.25848   0.00000  -0.27258   0.00000  -0.30531   0.00000  -0.38206   0.00000  -0.25914   0.00000  -0.27472
-16.83237   0.00000  -0.30402   0.00000  -0.38100   0.00000  -0.25848   0.00000  -0.27258   0.00000  -0.30531   0.00000  -0.38206   0.00000  -0.25914   0.00000  -0.27472
-16.78227   0.00000  -0.30402   0.00000  -0.38100   0.00000  -0.25848   0.00000  -0.27258   0.00000  -0.30531   0.00000  -0.38206   0.00000  -0.25914   0.00000  -0.27472
-16.73218   0.00000  -0.30402   0.00000  -0.38100   0.00000  -0.25848   0.00000  -0.27258   0.00000  -0.30531   0.00000  -0.38206   0.00000  -0.25914   0.00000  -0.27472
-16.68208   0.00000  -0.30402   0.00000  -0.38100   0.00000  -0.25848   0.00000  -0.27258   0.00000  -0.30531   0.00000  -0.38206   0.00000  -0.25914   0.00000  -0.27472
-16.63198   0.00000  -0.30402   0.00000  -0.38100   0.00000  -0.25848   0.00000  -0.27258   0.00000  -0.30531   0.00000  -0.38206   0.00000  -0.25914   0.00000  -0.27472
-16.58189   0.00000  -0.30402   0.00000  -0.38100   0.00000  -0.25848   0.00000  -0.27258   0.00000  -0.30531   0.00000  -0.38206   0.00000  -0.25914   0.00000  -0.27472
-16.53179   0.00000  -0.30402   0.00000  -0.38100   0.00000  -0.25848   0.00000  -0.27258   0.00000  -0.30531   0.00000  -0.38206   0.00000  -0.25914   0.00000  -0.27472
-16.48170   0.00000  -0.30402   0.00000  -0.38100   0.00000  -0.25848   0.00000  -0.27258   0.00000  -0.30531   0.00000  -0.38206   0.00000  -0.25914   0.00000  -0.27472
-16.43160   0.00000  -0.30402   0.00000  -0.38100   0.00000  -0.25848   0.00000  -0.27258   0.00000  -0.30531   0.00000  -0.38206   0.00000  -0.25914   0.00000  -0.27472
-16.38150   0.00000  -0.30402   0.00000  -0.38100   0.00000  -0.25848   0.00000  -0.27258   0.00000  -0.30531   0.00000  -0.38206   0.00000  -0.25914   0.00000  -0.27472
-16.33141   0.00000  -0.30402   0.00000  -0.38100   0.00000  -0.25848   0.00000  -0.27258   0.00000  -0.30531   0.00000  -0.38206   0.00000  -0.25914   0.00000  -0.27472
-16.28131   0.00000  -0.30402   0.00000  -0.38100   0.00000  -0.25848   0.00000  -0.27258   0.00000  -0.30531   0.00000  -0.38206   0.00000  -0.25914   0.00000  -0.27472
-16.23121   0.00000  -0.30402   0.00000  -0.38100   0.00000  -0.25848   0.00000  -0.27258   0.00000  -0.30531   0.00000  -0.38206   0.00000  -0.25914   0.00000  -0.27472
-16.18112   0.00000  -0.30402   0.00000  -0.38100   0.00000  -0.25848   0.00000  -0.27258   0.00000  -0.30531   0.00000  -0.38206   0.00000  -0.25914   0.00000  -0.27472
-16.13102   0.00000  -0.30402   0.00000  -0.38100   0.00000  -0.25848   0.00000  -0.27258   0.00000  -0.30531   0.00000  -0.38206   0.00000  -0.25914   0.00000  -0.27472
-16.08092   0.00000  -0.30402   0.00000  -0.38100   0.00000  -0.25848   0.00000  -0.27258   0.00000  -0.30531   0.00000  -0.38206   0.00000  -0.25914   0.00000  -0.27472
-16.03083   0.00000  -0.30402   0.00000  -0.38100   0.00000  -0.25848   0.00000  -0.27258   0.00000  -0.30531   0.00000  -0.38206   0.00000  -0.25914   0.00000  -0.27472
-15.98073   0.00000  -0.30402   0.00000  -0.38100   0.00000  -0.25848   0.00000  -0.27258   0.00000  -0.30531   0.00000  -0.38206   0.00000  -0.25914   0.00000  -0.27472
-15.93064   0.00000  -0.30402   0.00000  -0.38100   0.00000  -0.25848   0.00000  -0.27258   0.00000  -0.30531   0.00000  -0.38206   0.00000  -0.25914   0.00000  -0.27472
-15.88054   0.00000  -0.30402   0.00000  -0.38100   0.00000  -0.25848   0.00000  -0.27258   0.00000  -0.30531   0.00000  -0.38206   0.00000  -0.25914   0.00000  -0.27472
-15.83044   0.00000  -0.30402   0.00000  -0.38100   0.00000  -0.25848   0.00000  -0.27258   0.00000  -0.30531   0.00000  -0.38206   0.00000  -0.25914   0.00000  -0.27472
-15.78035   0.00000  -0.30402   0.00000  -0.38100   0.00000  -0.25848   0.00000  -0.27258   0.00000  -0.30531   0.00000  -0.38206   0.00000  -0.25914   0.00000  -0.27472
-15.73025   0.00000  -0.30402   0.00000  -0.38100   0.00000  -0.25848   0.00000  -0.27258   0.00000  -0.30531   0.00000  -0.38206   0.00000  -0.25914   0.00000  -0.27472
-15.68015   0.00000  -0.30402   0.00000  -0.38100   0.00000  -0.25848   0.00000  -0.27258   0.00000  -0.30531   0.00000  -0.38206   0.00000  -0.25914   0.00000  -0.27472
-15.63006   0.00000  -0.30402   0.00000  -0.38100   0.00000  -0.25848   0.00000  -0.27258   0.00000  -0.30531   0.00000  -0.38206   0.00000  -0.25914   0.00000  -0.27472
-15.57996   0.00000  -0.30402   0.00000  -0.38100   0.00000  -0.25848   0.00000  -0.27258   0.00000  -0.30531   0.00000  -0.38206   0.00000  -0.25914   0.00000  -0.27472
-15.52987   0.00000  -0.30402   0.00000  -0.38100   0.00000  -0.25848   0.00000  -0.27258   0.00000  -0.30531   0.00000  -0.38206   0.00000  -0.25914   0.00000  -0.27472
-15.47977   0.00000  -0.30402   0.00000  -0.38100   0.00000  -0.25848   0.00000  -0.27258   0.00000  -0.30531   0.00000  -0.38206   0.00000  -0.25914   0.00000  -0.27472
-15.42967   0.00000  -0.30402   0.00000  -0.38100   0.00000  -0.25848   0.00000  -0.27258   0.00000  -0.30531   0.00000  -0.38206   0.00000  -0.25914   0.00000  -0.27472
-15.37958   0.00000  -0.30402   0.00000  -0.38100   0.00000  -0.25848   0.00000  -0.27258   0.00000  -0.30531   0.00000  -0.38206   0.00000  -0.25914   0.00000  -0.27472
-15.32948   0.00000  -0.30402   0.00000  -0.38100   0.00000  -0.25848   0.00000  -0.27258   0.00000  -0.30531   0.00000  -0.38206   0.00000  -0.25914   0.00000  -0.27472
-15.27938   0.00000  -0.30402   0.00000  -0.38100   0.00000  -0.25848   0.00000  -0.27258   0.00000  -0.30531   0.00000  -0.38206   0.00000  -0.25914   0.00000  -0.27472
-15.22929   0.00000  -0.30402   0.00000  -0.38100   0.00000  -0.25848   0.00000  -0.27258   0.00000  -0.30531   0.00000  -0.38206   0.00000  -0.25914   0.00000  -0.27472
-15.17919   0.00000  -0.30402   0.00000  -0.38100   0.00000  -0.25848   0.00000  -0.27258   0.00000  -0.30531   0.00000  -0.38206   0.00000  -0.25914   0.00000  -0.27472
-15.12909   0.00000  -0.30402   0.00000  -0.38100   0.00000  -0.25848   0.00000  -0.27258   0.00000  -0.30531   0.00000  -0.38206   0.00000  -0.25914   0.00000  -0.27472
-15.07900   0.00000  -0.30402   0.00000  -0.38100   0.00000  -0.25848   0.00000  -0.27258   0.00000  -0.30531   0.00000  -0.38206   0.00000  -0.25914   0.00000  -0.27472
-15.02890   0.00000  -0.30402   0.00000  -0.38100   0.00000  -0.25848   0.00000  -0.27258   0.00000  -0.30531   0.00000  -0.38206   0.00000  -0.25914   0.00000  -0.27472
-14.97881   0.00000  -0.30402   0.00000  -0.38100   0.00000  -0.25848   0.00000  -0.27258   0.00000  -0.30531   0.00000  -0.38206   0.00000  -0.25914   0.00000  -0.27472
-14.92871   0.00000  -0.30402   0.00000  -0.38100   0.00000  -0.25848   0.00000  -0.27258   0.00000  -0.30531   0.00000  -0.38206   0.00000  -0.25914   0.00000  -0.27472
-14.87861   0.00000  -0.30402   0.00000  -0.38100   0.00000  -0.25848   0.00000  -0.27258   0.00000  -0.30531   0.00000  -0.38206   0.00000  -0.25914   0.00000  -0.27472
-14.82852   0.00000  -0.30402   0.00000  -0.38100   0.00000  -0.25848   0.00000  -0.27258   0.00000  -0.30531   0.00000  -0.38206   0.00000  -0.25914   0.00000  -0.27472
-14.77842   0.00000  -0.30402   0.00000  -0.38100   0.00000  -0.25848   0.00000  -0.27258   0.00000  -0.30531   0.00000  -0.38206   0.00000  -0.25914   0.00000  -0.27472
-14.72832   0.00000  -0.30402   0.00000  -0.38100   0.00000  -0.25848   0.00000  -0.27258   0.00000  -0.30531   0.00000  -0.38206   0.00000  -0.25914   0.00000  -0.27472
-14.67823   0.00000  -0.30402   0.00000  -0.38100   0.00000  -0.25848   0.00000  -0.27258   0.00000  -0.30531   0.00000  -0.38206   0.00000  -0.25914   0.00000  -0.27472
-14.62813   0.00000  -0.30402   0.00000  -0.38100   0.00000  -0.25848   0.00000  -0.27258   0.00000  -0.30531   0.00000  -0.38206   0.00000  -0.25914   0.00000  -0.27472
-14.57803   0.00000  -0.30402   0.00000  -0.38100   0.00000  -0.25848   0.00000  -0.27258   0.00000  -0.30531   0.00000  -0.38206   0.00000  -0.25914   0.00000  -0.27472
-14.52794   0.00000  -0.30402   0.00000  -0.38100   0.00000  -0.25848   0.00000  -0.27258   0.00000  -0.30531   0.00000  -0.38206   0.00000  -0.25914   0.00000  -0.27472
-14.47784   0.00000  -0.30402   0.00000  -0.38100   0.00000  -0.25848   0.00000  -0.27258   0.00000  -0.30531   0.00000  -0.38206   0.00000  -0.25914   0.00000  -0.27472
-14.42775   0.00000  -0.30402   0.00000  -0.38100   0.00000  -0.25848   0.00000  -0.27258   0.00000  -0.30531   0.00000  -0.38206   0.00000  -0.25914   0.00000  -0.27472
-14.37765   0.00000  -0.30402   0.00000  -0.38100   0.00000  -0.25848   0.00000  -0.27258   0.00000  -0.30531   0.00000  -0.38206   0.00000  -0.25914   0.00000  -0.27472
-14.32755   0.00000  -0.30402   0.00000  -0.38100   0.00000  -0.25848   0.00000  -0.27258   0.00000  -0.30531   0.00000  -0.38206   0.00000  -0.25914   0.00000  -0.27472
-14.27746   0.00000  -0.30402   0.00000  -0.38100   0.00000  -0.25848   0.00000  -0.27258   0.00000  -0.30531   0.00000  -0.38206   0.00000  -0.25914   0.00000  -0.27472
-14.22736   0.00000  -0.30402   0.00000  -0.38100   0.00000  -0.25848   0.00000  -0.27258   0.00000  -0.30531   0.00000  -0.38206   0.00000  -0.25914   0.00000  -0.27472
-14.17726   0.00000  -0.30402   0.00000  -0.38100   0.00000  -0.25848   0.00000  -0.27258   0.00000  -0.30531   0.00000  -0.38206   0.00000  -0.25914   0.00000  -0.27472
-14.12717   0.00000  -0.30402   0.00000  -0.38100   0.00000  -0.25848   0.00000  -0.27258   0.00000  -0.30531   0.00000  -0.38206   0.00000  -0.25914   0.00000  -0.27472
-14.07707   0.00000  -0.30402   0.00000  -0.38100   0.00000  -0.25848   0.00000  -0.27258   0.00000  -0.30531   0.00000  -0.38206   0.00000  -0.25914   0.00000  -0.27472
-14.02697   0.00000  -0.30402   0.00000  -0.38100   0.00000  -0.25848   0.00000  -0.27258   0.00000  -0.30531   0.00000  -0.38206   0.00000  -0.25914   0.00000  -0.27472
-13.97688   0.00000  -0.30402   0.00000  -0.38100   0.00000  -0.25848   0.00000  -0.27258   0.00000  -0.30531   0.00000  -0.38206   0.00000  -0.25914   0.00000  -0.27472
-13.92678   0.00000  -0.30402   0.00000  -0.38100   0.00000  -0.25848   0.00000  -0.27258   0.00000  -0.30531   0.00000  -0.38206   0.00000  -0.25914   0.00000  -0.27472
-13.87669   0.00000  -0.30402   0.00000  -0.38100   0.00000  -0.25848   0.00000  -0.27258   0.00000  -0.30531   0.00000  -0.38206   0.00000  -0.25914   0.00000  -0.27472
-13.82659   0.00000  -0.30402   0.00000  -0.38100   0.00000  -0.25848   0.00000  -0.27258   0.00000  -0.30531   0.00000  -0.38206   0.00000  -0.25914   0.00000  -0.27472
-13.77649   0.00000  -0.30402   0.00000  -0.38100   0.00000  -0.25848   0.00000  -0.27258   0.00000  -0.30531   0.00000  -0.38206   0.00000  -0.25914   0.00000  -0.27472
-13.72640   0.00000  -0.30402   0.00000  -0.38100   0.00000  -0.25848   0.00000  -0.27258   0.00000  -0.30531   0.00000  -0.38206   0.00000  -0.25914   0.00000  -0.27472
-13.67630   0.00000  -0.30402   0.00000  -0.38100   0.00000  -0.25848   0.00000  -0.27258   0.00000  -0.30531   0.00000  -0.38206   0.00000  -0.25914   0.00000  -0.27472
-13.62620   0.00000  -0.30402   0.00000  -0.38100   0.00000  -0.25848   0.00000  -0.27258   0.00000  -0.30531   0.00000  -0.38206   0.00000  -0.25914   0.00000  -0.27472
-13.57611   0.00000  -0.30402   0.00000  -0.38100   0.00000  -0.25848   0.00000  -0.27258   0.00000  -0.30531   0.00000  -0.38206   0.00000  -0.25914   0.00000  -0.27472
-13.52601   0.00000  -0.30402   0.00000  -0.38100   0.00000  -0.25848   0.00000  -0.27258   0.00000  -0.30531   0.00000  -0.38206   0.00000  -0.25914   0.00000  -0.27472
-13.47592   0.00000  -0.30402   0.00000  -0.38100   0.00000  -0.25848   0.00000  -0.27258   0.00000  -0.30531   0.00000  -0.38206   0.00000  -0.25914   0.00000  -0.27472
-13.42582   0.00000  -0.30402   0.00000  -0.38100   0.00000  -0.25848   0.00000  -0.27258   0.00000  -0.30531   0.00000  -0.38206   0.00000  -0.25914   0.00000  -0.27472
-13.37572   0.00000  -0.30402   0.00000  -0.38100   0.00000  -0.25848   0.00000  -0.27258   0.00000  -0.30531   0.00000  -0.38206   0.00000  -0.25914   0.00000  -0.27472
-13.32563   0.00000  -0.30402   0.00000  -0.38100   0.00000  -0.25848   0.00000  -0.27258   0.00000  -0.30531   0.00000  -0.38206   0.00000  -0.25914   0.00000  -0.27472
-13.27553   0.00000  -0.30402   0.00000  -0.38100   0.00000  -0.25848   0.00000  -0.27258   0.00000  -0.30531   0.00000  -0.38206   0.00000  -0.25914   0.00000  -0.27472
-13.22543   0.00000  -0.30402   0.00000  -0.38100   0.00000  -0.25848   0.00000  -0.27258   0.00000  -0.30531   0.00000  -0.38206   0.00000  -0.25914   0.00000  -0.27472
-13.17534   0.00000  -0.30402   0.00000  -0.38100   0.00000  -0.25848   0.00000  -0.27258   0.00000  -0.30531   0.00000  -0.38206   0.00000  -0.25914   0.00000  -0.27472
-13.12524   0.00000  -0.30402   0.00000  -0.38100   0.00000  -0.25848   0.00000  -0.27258   0.00000  -0.30531   0.00000  -0.38206   0.00000  -0.25914   0.00000  -0.27472
-13.07514   0.00000  -0.30402   0.00000  -0.38100   0.00000  -0.25848   0.00000  -0.27258   0.00000  -0.30531   0.00000  -0.38206   0.00000  -0.25914   0.00000  -0.27472
-13.02505   0.00000  -0.30402   0.00000  -0.38100   0.00000  -0.25848   0.00000  -0.27258   0.00000  -0.30531   0.00000  -0.38206   0.00000  -0.25914   0.00000  -0.27472
-12.97495   0.00000  -0.30402   0.00000  -0.38100   0.00000  -0.25848   0.00000  -0.27258   0.00000  -0.30531   0.00000  -0.38206   0.00000  -0.25914   0.00000  -0.27472
-12.92486   0.00000  -0.30402   0.00000  -0.38100   0.00000  -0.25848   0.00000  -0.27258   0.00000  -0.30531   0.00000  -0.38206   0.00000  -0.25914   0.00000  -0.27472
-12.87476   0.00000  -0.30402   0.00000  -0.38100   0.00000  -0.25848   0.00000  -0.27258   0.00000  -0.30531   0.00000  -0.38206   0.00000  -0.25914   0.00000  -0.27472
-12.82466   0.00000  -0.30402   0.00000  -0.38100   0.00000  -0.25848   0.00000  -0.27258   0.00000  -0.30531   0.00000  -0.38206   0.00000  -0.25914   0.00000  -0.27472
-12.77457   0.00000  -0.30402   0.00000  -0.38100   0.00000  -0.25848   0.00000  -0.27258   0.00000  -0.30531   0.00000  -0.38206   0.00000  -0.25914   0.00000  -0.27472
-12.72447   0.00000  -0.30402   0.00000  -0.38100   0.00000  -0.25848   0.00000  -0.27258   0.00000  -0.30531   0.00000  -0.38206   0.00000  -0.25914   0.00000  -0.27472
-12.67437   0.00000  -0.30402   0.00000  -0.38100   0.00000  -0.25848   0.00000  -0.27258   0.00000  -0.30531   0.00000  -0.38206   0.00000  -0.25914   0.00000  -0.27472
-12.62428   0.00000  -0.30402   0.00000  -0.38100   0.00000  -0.25848   0.00000  -0.27258   0.00000  -0.30531   0.00000  -0.38206   0.00000  -0.25914   0.00000  -0.27472
-12.57418   0.00000  -0.30402   0.00000  -0.38100   0.00000  -0.25848   0.00000  -0.27258   0.00000  -0.30531   0.00000  -0.38206   0.00000  -0.25914   0.00000  -0.27472
-12.52408   0.00000  -0.30402   0.00000  -0.38100   0.00000  -0.25848   0.00000  -0.27258   0.00000  -0.30531   0.00000  -0.38206   0.00000  -0.25914   0.00000  -0.27472
-12.47399   0.00000  -0.30402   0.00000  -0.38100   0.00000  -0.25848   0.00000  -0.27258   0.00000  -0.30531   0.00000  -0.38206   0.00000  -0.25914   0.00000  -0.27472
-12.42389   0.00000  -0.30402   0.00000  -0.38100   0.00000  -0.25848   0.00000  -0.27258   0.00000  -0.30531   0.00000  -0.38206   0.00000  -0.25914   0.00000  -0.27472
-12.37380   0.00000  -0.30402   0.00000  -0.38100   0.00000  -0.25848   0.00000  -0.27258   0.00000  -0.30531   0.00000  -0.38206   0.00000  -0.25914   0.00000  -0.27472
-12.32370   0.00000  -0.30402   0.00000  -0.38100   0.00000  -0.25848   0.00000  -0.27258   0.00000  -0.30531   0.00000  -0.38206   0.00000  -0.25914   0.00000  -0.27472
-12.27360   0.00000  -0.30402   0.00000  -0.38100   0.00000  -0.25848   0.00000  -0.27258   0.00000  -0.30531   0.00000  -0.38206   0.00000  -0.25914   0.00000  -0.27472
-12.22351   0.00000  -0.30402   0.00000  -0.38100   0.00000  -0.25848   0.00000  -0.27258   0.00000  -0.30531   0.00000  -0.38206   0.00000  -0.25914   0.00000  -0.27472
-12.17341   0.00000  -0.30402   0.00000  -0.38100   0.00000  -0.25848   0.00000  -0.27258   0.00000  -0.30531   0.00000  -0.38206   0.00000  -0.25914   0.00000  -0.27472
-12.12331   0.00000  -0.30402   0.00000  -0.38100   0.00000  -0.25848   0.00000  -0.27258   0.00000  -0.30531   0.00000  -0.38206   0.00000  -0.25914   0.00000  -0.27472
-12.07322   0.00000  -0.30402   0.00000  -0.38100   0.00000  -0.25848   0.00000  -0.27258   0.00000  -0.30531   0.00000  -0.38206   0.00000  -0.25914   0.00000  -0.27472
-12.02312   0.00000  -0.30402   0.00000  -0.38100   0.00000  -0.25848   0.00000  -0.27258   0.00000  -0.30531   0.00000  -0.38206   0.00000  -0.25914   0.00000  -0.27472
-11.97303   0.00000  -0.30402   0.00000  -0.38100   0.00000  -0.25848   0.00000  -0.27258   0.00000  -0.30531   0.00000  -0.38206   0.00000  -0.25914   0.00000  -0.27472
-11.92293   0.00000  -0.30402   0.00000  -0.38100   0.00000  -0.25848   0.00000  -0.27258   0.00000  -0.30531   0.00000  -0.38206   0.00000  -0.25914   0.00000  -0.27472
-11.87283   0.00000  -0.30402   0.00000  -0.38100   0.00000  -0.25848   0.00000  -0.27258   0.00000  -0.30531   0.00000  -0.38206   0.00000  -0.25914   0.00000  -0.27472
-11.82274   0.00000  -0.30402   0.00000  -0.38100   0.00000  -0.25848   0.00000  -0.27258   0.00000  -0.30531   0.00000  -0.38206   0.00000  -0.25914   0.00000  -0.27472
-11.77264   0.00000  -0.30402   0.00000  -0.38100   0.00000  -0.25848   0.00000  -0.27258   0.00000  -0.30531   0.00000  -0.38206   0.00000  -0.25914   0.00000  -0.27472
-11.72254   0.00000  -0.30402   0.00000  -0.38100   0.00000  -0.25848   0.00000  -0.27258   0.00000  -0.30531   0.00000  -0.38206   0.00000  -0.25914   0.00000  -0.27472
-11.67245   0.00000  -0.30402   0.00000  -0.38100   0.00000  -0.25848   0.00000  -0.27258   0.00000  -0.30531   0.00000  -0.38206   0.00000  -0.25914   0.00000  -0.27472
-11.62235   0.00000  -0.30402   0.00000  -0.38100   0.00000  -0.25848   0.00000  -0.27258   0.00000  -0.30531   0.00000  -0.38206   0.00000  -0.25914   0.00000  -0.27472
-11.57225   0.00000  -0.30402   0.00000  -0.38100   0.00000  -0.25848   0.00000  -0.27258   0.00000  -0.30531   0.00000  -0.38206   0.00000  -0.25914   0.00000  -0.27472
-11.52216   0.00000  -0.30402   0.00000  -0.38100   0.00000  -0.25848   0.00000  -0.27258   0.00000  -0.30531   0.00000  -0.38206   0.00000  -0.25914   0.00000  -0.27472
-11.47206   0.00000  -0.30402   0.00000  -0.38100   0.00000  -0.25848   0.00000  -0.27258   0.00000  -0.30531   0.00000  -0.38206   0.00000  -0.25914   0.00000  -0.27472
-11.42197   0.00000  -0.30402   0.00000  -0.38100   0.00000  -0.25848   0.00000  -0.27258   0.00000  -0.30531   0.00000  -0.38206   0.00000  -0.25914   0.00000  -0.27472
-11.37187   0.00000  -0.30402   0.00000  -0.38100   0.00000  -0.25848   0.00000  -0.27258   0.00000  -0.30531   0.00000  -0.38206   0.00000  -0.25914   0.00000  -0.27472