ESCALE ; pCOOP file generated by LOBSTER. Energy is shifted such that the Fermi level lies at 0 eV.
         4          2        521  -2.01774e+01   5.87268e+00  -1.38879e-01 
Average
No.1:Fe24->O69(1.9569134270572486)
No.2:Ni54->O69(2.0427265487296626)
No.3:Ni56->O69(2.0228299859230763)
-20.03854   0.00000   0.00742   0.00000   0.00916   0.00000   0.00647   0.00000   0.00663   0.00000   0.00743   0.00000   0.00870   0.00000   0.00665   0.00000   0.00695
-19.98844   0.00000   0.00742   0.00000   0.00916   0.00000   0.00647   0.00000   0.00663   0.00000   0.00743   0.00000   0.00870   0.00000   0.00665   0.00000   0.00695
-19.93834   0.00000   0.00742   0.00000   0.00916   0.00000   0.00647   0.00000   0.00663   0.00000   0.00743   0.00000   0.00870   0.00000   0.00665   0.00000   0.00695
-19.88825   0.00000   0.00742   0.00000   0.00916   0.00000   0.00647   0.00000   0.00663   0.00000   0.00743   0.00000   0.00870   0.00000   0.00665   0.00000   0.00695
-19.83815   0.00000   0.00742   0.00000   0.00916   0.00000   0.00647   0.00000   0.00663   0.00000   0.00743   0.00000   0.00870   0.00000   0.00665   0.00000   0.00695
-19.78805   0.00000   0.00742   0.00000   0.00916   0.00000   0.00647   0.00000   0.00663   0.00000   0.00743   0.00000   0.00870   0.00000   0.00665   0.00000   0.00695
-19.73796   0.00000   0.00742   0.00000   0.00916   0.00000   0.00647   0.00000   0.00663   0.00000   0.00743   0.00000   0.00870   0.00000   0.00665   0.00000   0.00695
-19.68786   0.00000   0.00742   0.00000   0.00916   0.00000   0.00647   0.00000   0.00663   0.00000   0.00743   0.00000   0.00870   0.00000   0.00665   0.00000   0.00695
-19.63776   0.00000   0.00742   0.00000   0.00916   0.00000   0.00647   0.00000   0.00663   0.00000   0.00743   0.00000   0.00870   0.00000   0.00665   0.00000   0.00695
-19.58767   0.00000   0.00742   0.00000   0.00916   0.00000   0.00647   0.00000   0.00663   0.00000   0.00743   0.00000   0.00870   0.00000   0.00665   0.00000   0.00695
-19.53757   0.00000   0.00742   0.00000   0.00916   0.00000   0.00647   0.00000   0.00663   0.00000   0.00743   0.00000   0.00870   0.00000   0.00665   0.00000   0.00695
-19.48748   0.00000   0.00742   0.00000   0.00916   0.00000   0.00647   0.00000   0.00663   0.00000   0.00743   0.00000   0.00870   0.00000   0.00665   0.00000   0.00695
-19.43738   0.00000   0.00742   0.00000   0.00916   0.00000   0.00647   0.00000   0.00663   0.00000   0.00743   0.00000   0.00870   0.00000   0.00665   0.00000   0.00695
-19.38728   0.00000   0.00742   0.00000   0.00916   0.00000   0.00647   0.00000   0.00663   0.00000   0.00743   0.00000   0.00870   0.00000   0.00665   0.00000   0.00695
-19.33719   0.00000   0.00742   0.00000   0.00916   0.00000   0.00647   0.00000   0.00663   0.00000   0.00743   0.00000   0.00870   0.00000   0.00665   0.00000   0.00695
-19.28709  -0.00144   0.00735  -0.00883   0.00872   0.00224   0.00658   0.00225   0.00674   0.00000   0.00743   0.00000   0.00870   0.00000   0.00665   0.00000   0.00695
-19.23699  -0.00002   0.00735   0.00002   0.00872  -0.00003   0.00658  -0.00004   0.00674   0.00000   0.00743   0.00000   0.00870   0.00000   0.00665   0.00000   0.00695
-19.18690   0.00000   0.00735   0.00000   0.00872   0.00000   0.00658   0.00000   0.00674   0.00000   0.00743   0.00000   0.00870   0.00000   0.00665   0.00000   0.00695
-19.13680   0.00000   0.00735   0.00000   0.00872   0.00000   0.00658   0.00000   0.00674   0.00000   0.00743   0.00000   0.00870   0.00000   0.00665   0.00000   0.00695
-19.08671   0.00000   0.00735   0.00000   0.00872   0.00000   0.00658   0.00000   0.00674  -0.00150   0.00736  -0.00877   0.00826   0.00209   0.00675   0.00218   0.00706
-19.03661   0.00000   0.00735   0.00000   0.00872   0.00000   0.00658   0.00000   0.00674   0.00000   0.00736   0.00000   0.00826   0.00000   0.00675   0.00000   0.00706
-18.98651  -0.00069   0.00731   0.00144   0.00879  -0.00489   0.00634   0.00137   0.00681  -0.00003   0.00736   0.00001   0.00826  -0.00004   0.00675  -0.00005   0.00706
-18.93642   0.00000   0.00731   0.00000   0.00879   0.00000   0.00634   0.00000   0.00681   0.00000   0.00736   0.00000   0.00826   0.00000   0.00675   0.00000   0.00706
-18.88632  -0.00079   0.00727   0.00173   0.00888   0.00122   0.00640  -0.00533   0.00654   0.00000   0.00736   0.00000   0.00826   0.00000   0.00675   0.00000   0.00706
-18.83622   0.00000   0.00727   0.00000   0.00888   0.00000   0.00640   0.00000   0.00654   0.00000   0.00736   0.00000   0.00826   0.00000   0.00675   0.00000   0.00706
-18.78613   0.00000   0.00727   0.00000   0.00888   0.00000   0.00640   0.00000   0.00654  -0.00082   0.00731   0.00141   0.00833  -0.00534   0.00648   0.00148   0.00713
-18.73603   0.00000   0.00727   0.00000   0.00888   0.00000   0.00640   0.00000   0.00654   0.00000   0.00731   0.00000   0.00833   0.00000   0.00648   0.00000   0.00713
-18.68593   0.00000   0.00727   0.00000   0.00888   0.00000   0.00640   0.00000   0.00654  -0.00092   0.00727   0.00187   0.00842   0.00111   0.00654  -0.00575   0.00684
-18.63584   0.00000   0.00727   0.00000   0.00888   0.00000   0.00640   0.00000   0.00654   0.00000   0.00727   0.00000   0.00842   0.00000   0.00654   0.00000   0.00684
-18.58574   0.00000   0.00727   0.00000   0.00888   0.00000   0.00640   0.00000   0.00654   0.00000   0.00727   0.00000   0.00842   0.00000   0.00654   0.00000   0.00684
-18.53565   0.00000   0.00727   0.00000   0.00888   0.00000   0.00640   0.00000   0.00654   0.00000   0.00727   0.00000   0.00842   0.00000   0.00654   0.00000   0.00684
-18.48555   0.00000   0.00727   0.00000   0.00888   0.00000   0.00640   0.00000   0.00654   0.00000   0.00727   0.00000   0.00842   0.00000   0.00654   0.00000   0.00684
-18.43545   0.00000   0.00727   0.00000   0.00888   0.00000   0.00640   0.00000   0.00654   0.00000   0.00727   0.00000   0.00842   0.00000   0.00654   0.00000   0.00684
-18.38536   0.00000   0.00727   0.00000   0.00888   0.00000   0.00640   0.00000   0.00654   0.00000   0.00727   0.00000   0.00842   0.00000   0.00654   0.00000   0.00684
-18.33526   0.00000   0.00727   0.00000   0.00888   0.00000   0.00640   0.00000   0.00654   0.00000   0.00727   0.00000   0.00842   0.00000   0.00654   0.00000   0.00684
-18.28516   0.00000   0.00727   0.00000   0.00888   0.00000   0.00640   0.00000   0.00654   0.00000   0.00727   0.00000   0.00842   0.00000   0.00654   0.00000   0.00684
-18.23507   0.00000   0.00727   0.00000   0.00888   0.00000   0.00640   0.00000   0.00654   0.00000   0.00727   0.00000   0.00842   0.00000   0.00654   0.00000   0.00684
-18.18497   0.00000   0.00727   0.00000   0.00888   0.00000   0.00640   0.00000   0.00654   0.00000   0.00727   0.00000   0.00842   0.00000   0.00654   0.00000   0.00684
-18.13487   0.00000   0.00727   0.00000   0.00888   0.00000   0.00640   0.00000   0.00654   0.00000   0.00727   0.00000   0.00842   0.00000   0.00654   0.00000   0.00684
-18.08478   0.00000   0.00727   0.00000   0.00888   0.00000   0.00640   0.00000   0.00654   0.00000   0.00727   0.00000   0.00842   0.00000   0.00654   0.00000   0.00684
-18.03468   0.00000   0.00727   0.00000   0.00888   0.00000   0.00640   0.00000   0.00654   0.00000   0.00727   0.00000   0.00842   0.00000   0.00654   0.00000   0.00684
-17.98459   0.00000   0.00727   0.00000   0.00888   0.00000   0.00640   0.00000   0.00654   0.00000   0.00727   0.00000   0.00842   0.00000   0.00654   0.00000   0.00684
-17.93449   0.00000   0.00727   0.00000   0.00888   0.00000   0.00640   0.00000   0.00654   0.00000   0.00727   0.00000   0.00842   0.00000   0.00654   0.00000   0.00684
-17.88439   0.00000   0.00727   0.00000   0.00888   0.00000   0.00640   0.00000   0.00654   0.00000   0.00727   0.00000   0.00842   0.00000   0.00654   0.00000   0.00684
-17.83430   0.00000   0.00727   0.00000   0.00888   0.00000   0.00640   0.00000   0.00654   0.00000   0.00727   0.00000   0.00842   0.00000   0.00654   0.00000   0.00684
-17.78420   0.00000   0.00727   0.00000   0.00888   0.00000   0.00640   0.00000   0.00654   0.00000   0.00727   0.00000   0.00842   0.00000   0.00654   0.00000   0.00684
-17.73410   0.00000   0.00727   0.00000   0.00888   0.00000   0.00640   0.00000   0.00654   0.00000   0.00727   0.00000   0.00842   0.00000   0.00654   0.00000   0.00684
-17.68401   0.00000   0.00727   0.00000   0.00888   0.00000   0.00640   0.00000   0.00654   0.00000   0.00727   0.00000   0.00842   0.00000   0.00654   0.00000   0.00684
-17.63391   0.00000   0.00727   0.00000   0.00888   0.00000   0.00640   0.00000   0.00654   0.00000   0.00727   0.00000   0.00842   0.00000   0.00654   0.00000   0.00684
-17.58382   0.00000   0.00727   0.00000   0.00888   0.00000   0.00640   0.00000   0.00654   0.00000   0.00727   0.00000   0.00842   0.00000   0.00654   0.00000   0.00684
-17.53372   0.00000   0.00727   0.00000   0.00888   0.00000   0.00640   0.00000   0.00654   0.00000   0.00727   0.00000   0.00842   0.00000   0.00654   0.00000   0.00684
-17.48362   0.00000   0.00727   0.00000   0.00888   0.00000   0.00640   0.00000   0.00654   0.00000   0.00727   0.00000   0.00842   0.00000   0.00654   0.00000   0.00684
-17.43353   0.00000   0.00727   0.00000   0.00888   0.00000   0.00640   0.00000   0.00654   0.00000   0.00727   0.00000   0.00842   0.00000   0.00654   0.00000   0.00684
-17.38343   0.00000   0.00727   0.00000   0.00888   0.00000   0.00640   0.00000   0.00654   0.00000   0.00727   0.00000   0.00842   0.00000   0.00654   0.00000   0.00684
-17.33333   0.00000   0.00727   0.00000   0.00888   0.00000   0.00640   0.00000   0.00654   0.00000   0.00727   0.00000   0.00842   0.00000   0.00654   0.00000   0.00684
-17.28324   0.00000   0.00727   0.00000   0.00888   0.00000   0.00640   0.00000   0.00654   0.00000   0.00727   0.00000   0.00842   0.00000   0.00654   0.00000   0.00684
-17.23314   0.00000   0.00727   0.00000   0.00888   0.00000   0.00640   0.00000   0.00654   0.00000   0.00727   0.00000   0.00842   0.00000   0.00654   0.00000   0.00684
-17.18304   0.00000   0.00727   0.00000   0.00888   0.00000   0.00640   0.00000   0.00654   0.00000   0.00727   0.00000   0.00842   0.00000   0.00654   0.00000   0.00684
-17.13295   0.00000   0.00727   0.00000   0.00888   0.00000   0.00640   0.00000   0.00654   0.00000   0.00727   0.00000   0.00842   0.00000   0.00654   0.00000   0.00684
-17.08285   0.00000   0.00727   0.00000   0.00888   0.00000   0.00640   0.00000   0.00654   0.00000   0.00727   0.00000   0.00842   0.00000   0.00654   0.00000   0.00684
-17.03276   0.00000   0.00727   0.00000   0.00888   0.00000   0.00640   0.00000   0.00654   0.00000   0.00727   0.00000   0.00842   0.00000   0.00654   0.00000   0.00684
-16.98266   0.00000   0.00727   0.00000   0.00888   0.00000   0.00640   0.00000   0.00654   0.00000   0.00727   0.00000   0.00842   0.00000   0.00654   0.00000   0.00684
-16.93256   0.00000   0.00727   0.00000   0.00888   0.00000   0.00640   0.00000   0.00654   0.00000   0.00727   0.00000   0.00842   0.00000   0.00654   0.00000   0.00684
-16.88247   0.00000   0.00727   0.00000   0.00888   0.00000   0.00640   0.00000   0.00654   0.00000   0.00727   0.00000   0.00842   0.00000   0.00654   0.00000   0.00684
-16.83237   0.00000   0.00727   0.00000   0.00888   0.00000   0.00640   0.00000   0.00654   0.00000   0.00727   0.00000   0.00842   0.00000   0.00654   0.00000   0.00684
-16.78227   0.00000   0.00727   0.00000   0.00888   0.00000   0.00640   0.00000   0.00654   0.00000   0.00727   0.00000   0.00842   0.00000   0.00654   0.00000   0.00684
-16.73218   0.00000   0.00727   0.00000   0.00888   0.00000   0.00640   0.00000   0.00654   0.00000   0.00727   0.00000   0.00842   0.00000   0.00654   0.00000   0.00684
-16.68208   0.00000   0.00727   0.00000   0.00888   0.00000   0.00640   0.00000   0.00654   0.00000   0.00727   0.00000   0.00842   0.00000   0.00654   0.00000   0.00684
-16.63198   0.00000   0.00727   0.00000   0.00888   0.00000   0.00640   0.00000   0.00654   0.00000   0.00727   0.00000   0.00842   0.00000   0.00654   0.00000   0.00684
-16.58189   0.00000   0.00727   0.00000   0.00888   0.00000   0.00640   0.00000   0.00654   0.00000   0.00727   0.00000   0.00842   0.00000   0.00654   0.00000   0.00684
-16.53179   0.00000   0.00727   0.00000   0.00888   0.00000   0.00640   0.00000   0.00654   0.00000   0.00727   0.00000   0.00842   0.00000   0.00654   0.00000   0.00684
-16.48170   0.00000   0.00727   0.00000   0.00888   0.00000   0.00640   0.00000   0.00654   0.00000   0.00727   0.00000   0.00842   0.00000   0.00654   0.00000   0.00684
-16.43160   0.00000   0.00727   0.00000   0.00888   0.00000   0.00640   0.00000   0.00654   0.00000   0.00727   0.00000   0.00842   0.00000   0.00654   0.00000   0.00684
-16.38150   0.00000   0.00727   0.00000   0.00888   0.00000   0.00640   0.00000   0.00654   0.00000   0.00727   0.00000   0.00842   0.00000   0.00654   0.00000   0.00684
-16.33141   0.00000   0.00727   0.00000   0.00888   0.00000   0.00640   0.00000   0.00654   0.00000   0.00727   0.00000   0.00842   0.00000   0.00654   0.00000   0.00684
-16.28131   0.00000   0.00727   0.00000   0.00888   0.00000   0.00640   0.00000   0.00654   0.00000   0.00727   0.00000   0.00842   0.00000   0.00654   0.00000   0.00684
-16.23121   0.00000   0.00727   0.00000   0.00888   0.00000   0.00640   0.00000   0.00654   0.00000   0.00727   0.00000   0.00842   0.00000   0.00654   0.00000   0.00684
-16.18112   0.00000   0.00727   0.00000   0.00888   0.00000   0.00640   0.00000   0.00654   0.00000   0.00727   0.00000   0.00842   0.00000   0.00654   0.00000   0.00684
-16.13102   0.00000   0.00727   0.00000   0.00888   0.00000   0.00640   0.00000   0.00654   0.00000   0.00727   0.00000   0.00842   0.00000   0.00654   0.00000   0.00684
-16.08092   0.00000   0.00727   0.00000   0.00888   0.00000   0.00640   0.00000   0.00654   0.00000   0.00727   0.00000   0.00842   0.00000   0.00654   0.00000   0.00684
-16.03083   0.00000   0.00727   0.00000   0.00888   0.00000   0.00640   0.00000   0.00654   0.00000   0.00727   0.00000   0.00842   0.00000   0.00654   0.00000   0.00684
-15.98073   0.00000   0.00727   0.00000   0.00888   0.00000   0.00640   0.00000   0.00654   0.00000   0.00727   0.00000   0.00842   0.00000   0.00654   0.00000   0.00684
-15.93064   0.00000   0.00727   0.00000   0.00888   0.00000   0.00640   0.00000   0.00654   0.00000   0.00727   0.00000   0.00842   0.00000   0.00654   0.00000   0.00684
-15.88054   0.00000   0.00727   0.00000   0.00888   0.00000   0.00640   0.00000   0.00654   0.00000   0.00727   0.00000   0.00842   0.00000   0.00654   0.00000   0.00684
-15.83044   0.00000   0.00727   0.00000   0.00888   0.00000   0.00640   0.00000   0.00654   0.00000   0.00727   0.00000   0.00842   0.00000   0.00654   0.00000   0.00684
-15.78035   0.00000   0.00727   0.00000   0.00888   0.00000   0.00640   0.00000   0.00654   0.00000   0.00727   0.00000   0.00842   0.00000   0.00654   0.00000   0.00684
-15.73025   0.00000   0.00727   0.00000   0.00888   0.00000   0.00640   0.00000   0.00654   0.00000   0.00727   0.00000   0.00842   0.00000   0.00654   0.00000   0.00684
-15.68015   0.00000   0.00727   0.00000   0.00888   0.00000   0.00640   0.00000   0.00654   0.00000   0.00727   0.00000   0.00842   0.00000   0.00654   0.00000   0.00684
-15.63006   0.00000   0.00727   0.00000   0.00888   0.00000   0.00640   0.00000   0.00654   0.00000   0.00727   0.00000   0.00842   0.00000   0.00654   0.00000   0.00684
-15.57996   0.00000   0.00727   0.00000   0.00888   0.00000   0.00640   0.00000   0.00654   0.00000   0.00727   0.00000   0.00842   0.00000   0.00654   0.00000   0.00684
-15.52987   0.00000   0.00727   0.00000   0.00888   0.00000   0.00640   0.00000   0.00654   0.00000   0.00727   0.00000   0.00842   0.00000   0.00654   0.00000   0.00684
-15.47977   0.00000   0.00727   0.00000   0.00888   0.00000   0.00640   0.00000   0.00654   0.00000   0.00727   0.00000   0.00842   0.00000   0.00654   0.00000   0.00684
-15.42967   0.00000   0.00727   0.00000   0.00888   0.00000   0.00640   0.00000   0.00654   0.00000   0.00727   0.00000   0.00842   0.00000   0.00654   0.00000   0.00684
-15.37958   0.00000   0.00727   0.00000   0.00888   0.00000   0.00640   0.00000   0.00654   0.00000   0.00727   0.00000   0.00842   0.00000   0.00654   0.00000   0.00684
-15.32948   0.00000   0.00727   0.00000   0.00888   0.00000   0.00640   0.00000   0.00654   0.00000   0.00727   0.00000   0.00842   0.00000   0.00654   0.00000   0.00684
-15.27938   0.00000   0.00727   0.00000   0.00888   0.00000   0.00640   0.00000   0.00654   0.00000   0.00727   0.00000   0.00842   0.00000   0.00654   0.00000   0.00684
-15.22929   0.00000   0.00727   0.00000   0.00888   0.00000   0.00640   0.00000   0.00654   0.00000   0.00727   0.00000   0.00842   0.00000   0.00654   0.00000   0.00684
-15.17919   0.00000   0.00727   0.00000   0.00888   0.00000   0.00640   0.00000   0.00654   0.00000   0.00727   0.00000   0.00842   0.00000   0.00654   0.00000   0.00684
-15.12909   0.00000   0.00727   0.00000   0.00888   0.00000   0.00640   0.00000   0.00654   0.00000   0.00727   0.00000   0.00842   0.00000   0.00654   0.00000   0.00684
-15.07900   0.00000   0.00727   0.00000   0.00888   0.00000   0.00640   0.00000   0.00654   0.00000   0.00727   0.00000   0.00842   0.00000   0.00654   0.00000   0.00684
-15.02890   0.00000   0.00727   0.00000   0.00888   0.00000   0.00640   0.00000   0.00654   0.00000   0.00727   0.00000   0.00842   0.00000   0.00654   0.00000   0.00684
-14.97881   0.00000   0.00727   0.00000   0.00888   0.00000   0.00640   0.00000   0.00654   0.00000   0.00727   0.00000   0.00842   0.00000   0.00654   0.00000   0.00684
-14.92871   0.00000   0.00727   0.00000   0.00888   0.00000   0.00640   0.00000   0.00654   0.00000   0.00727   0.00000   0.00842   0.00000   0.00654   0.00000   0.00684
-14.87861   0.00000   0.00727   0.00000   0.00888   0.00000   0.00640   0.00000   0.00654   0.00000   0.00727   0.00000   0.00842   0.00000   0.00654   0.00000   0.00684
-14.82852   0.00000   0.00727   0.00000   0.00888   0.00000   0.00640   0.00000   0.00654   0.00000   0.00727   0.00000   0.00842   0.00000   0.00654   0.00000   0.00684
-14.77842   0.00000   0.00727   0.00000   0.00888   0.00000   0.00640   0.00000   0.00654   0.00000   0.00727   0.00000   0.00842   0.00000   0.00654   0.00000   0.00684
-14.72832   0.00000   0.00727   0.00000   0.00888   0.00000   0.00640   0.00000   0.00654   0.00000   0.00727   0.00000   0.00842   0.00000   0.00654   0.00000   0.00684
-14.67823   0.00000   0.00727   0.00000   0.00888   0.00000   0.00640   0.00000   0.00654   0.00000   0.00727   0.00000   0.00842   0.00000   0.00654   0.00000   0.00684
-14.62813   0.00000   0.00727   0.00000   0.00888   0.00000   0.00640   0.00000   0.00654   0.00000   0.00727   0.00000   0.00842   0.00000   0.00654   0.00000   0.00684
-14.57803   0.00000   0.00727   0.00000   0.00888   0.00000   0.00640   0.00000   0.00654   0.00000   0.00727   0.00000   0.00842   0.00000   0.00654   0.00000   0.00684
-14.52794   0.00000   0.00727   0.00000   0.00888   0.00000   0.00640   0.00000   0.00654   0.00000   0.00727   0.00000   0.00842   0.00000   0.00654   0.00000   0.00684
-14.47784   0.00000   0.00727   0.00000   0.00888   0.00000   0.00640   0.00000   0.00654   0.00000   0.00727   0.00000   0.00842   0.00000   0.00654   0.00000   0.00684
-14.42775   0.00000   0.00727   0.00000   0.00888   0.00000   0.00640   0.00000   0.00654   0.00000   0.00727   0.00000   0.00842   0.00000   0.00654   0.00000   0.00684
-14.37765   0.00000   0.00727   0.00000   0.00888   0.00000   0.00640   0.00000   0.00654   0.00000   0.00727   0.00000   0.00842   0.00000   0.00654   0.00000   0.00684
-14.32755   0.00000   0.00727   0.00000   0.00888   0.00000   0.00640   0.00000   0.00654   0.00000   0.00727   0.00000   0.00842   0.00000   0.00654   0.00000   0.00684
-14.27746   0.00000   0.00727   0.00000   0.00888   0.00000   0.00640   0.00000   0.00654   0.00000   0.00727   0.00000   0.00842   0.00000   0.00654   0.00000   0.00684
-14.22736   0.00000   0.00727   0.00000   0.00888   0.00000   0.00640   0.00000   0.00654   0.00000   0.00727   0.00000   0.00842   0.00000   0.00654   0.00000   0.00684
-14.17726   0.00000   0.00727   0.00000   0.00888   0.00000   0.00640   0.00000   0.00654   0.00000   0.00727   0.00000   0.00842   0.00000   0.00654   0.00000   0.00684
-14.12717   0.00000   0.00727   0.00000   0.00888   0.00000   0.00640   0.00000   0.00654   0.00000   0.00727   0.00000   0.00842   0.00000   0.00654   0.00000   0.00684
-14.07707   0.00000   0.00727   0.00000   0.00888   0.00000   0.00640   0.00000   0.00654   0.00000   0.00727   0.00000   0.00842   0.00000   0.00654   0.00000   0.00684
-14.02697   0.00000   0.00727   0.00000   0.00888   0.00000   0.00640   0.00000   0.00654   0.00000   0.00727   0.00000   0.00842   0.00000   0.00654   0.00000   0.00684
-13.97688   0.00000   0.00727   0.00000   0.00888   0.00000   0.00640   0.00000   0.00654   0.00000   0.00727   0.00000   0.00842   0.00000   0.00654   0.00000   0.00684
-13.92678   0.00000   0.00727   0.00000   0.00888   0.00000   0.00640   0.00000   0.00654   0.00000   0.00727   0.00000   0.00842   0.00000   0.00654   0.00000   0.00684
-13.87669   0.00000   0.00727   0.00000   0.00888   0.00000   0.00640   0.00000   0.00654   0.00000   0.00727   0.00000   0.00842   0.00000   0.00654   0.00000   0.00684
-13.82659   0.00000   0.00727   0.00000   0.00888   0.00000   0.00640   0.00000   0.00654   0.00000   0.00727   0.00000   0.00842   0.00000   0.00654   0.00000   0.00684
-13.77649   0.00000   0.00727   0.00000   0.00888   0.00000   0.00640   0.00000   0.00654   0.00000   0.00727   0.00000   0.00842   0.00000   0.00654   0.00000   0.00684
-13.72640   0.00000   0.00727   0.00000   0.00888   0.00000   0.00640   0.00000   0.00654   0.00000   0.00727   0.00000   0.00842   0.00000   0.00654   0.00000   0.00684
-13.67630   0.00000   0.00727   0.00000   0.00888   0.00000   0.00640   0.00000   0.00654   0.00000   0.00727   0.00000   0.00842   0.00000   0.00654   0.00000   0.00684
-13.62620   0.00000   0.00727   0.00000   0.00888   0.00000   0.00640   0.00000   0.00654   0.00000   0.00727   0.00000   0.00842   0.00000   0.00654   0.00000   0.00684
-13.57611   0.00000   0.00727   0.00000   0.00888   0.00000   0.00640   0.00000   0.00654   0.00000   0.00727   0.00000   0.00842   0.00000   0.00654   0.00000   0.00684
-13.52601   0.00000   0.00727   0.00000   0.00888   0.00000   0.00640   0.00000   0.00654   0.00000   0.00727   0.00000   0.00842   0.00000   0.00654   0.00000   0.00684
-13.47592   0.00000   0.00727   0.00000   0.00888   0.00000   0.00640   0.00000   0.00654   0.00000   0.00727   0.00000   0.00842   0.00000   0.00654   0.00000   0.00684
-13.42582   0.00000   0.00727   0.00000   0.00888   0.00000   0.00640   0.00000   0.00654   0.00000   0.00727   0.00000   0.00842   0.00000   0.00654   0.00000   0.00684
-13.37572   0.00000   0.00727   0.00000   0.00888   0.00000   0.00640   0.00000   0.00654   0.00000   0.00727   0.00000   0.00842   0.00000   0.00654   0.00000   0.00684
-13.32563   0.00000   0.00727   0.00000   0.00888   0.00000   0.00640   0.00000   0.00654   0.00000   0.00727   0.00000   0.00842   0.00000   0.00654   0.00000   0.00684
-13.27553   0.00000   0.00727   0.00000   0.00888   0.00000   0.00640   0.00000   0.00654   0.00000   0.00727   0.00000   0.00842   0.00000   0.00654   0.00000   0.00684
-13.22543   0.00000   0.00727   0.00000   0.00888   0.00000   0.00640   0.00000   0.00654   0.00000   0.00727   0.00000   0.00842   0.00000   0.00654   0.00000   0.00684
-13.17534   0.00000   0.00727   0.00000   0.00888   0.00000   0.00640   0.00000   0.00654   0.00000   0.00727   0.00000   0.00842   0.00000   0.00654   0.00000   0.00684
-13.12524   0.00000   0.00727   0.00000   0.00888   0.00000   0.00640   0.00000   0.00654   0.00000   0.00727   0.00000   0.00842   0.00000   0.00654   0.00000   0.00684
-13.07514   0.00000   0.00727   0.00000   0.00888   0.00000   0.00640   0.00000   0.00654   0.00000   0.00727   0.00000   0.00842   0.00000   0.00654   0.00000   0.00684
-13.02505   0.00000   0.00727   0.00000   0.00888   0.00000   0.00640   0.00000   0.00654   0.00000   0.00727   0.00000   0.00842   0.00000   0.00654   0.00000   0.00684
-12.97495   0.00000   0.00727   0.00000   0.00888   0.00000   0.00640   0.00000   0.00654   0.00000   0.00727   0.00000   0.00842   0.00000   0.00654   0.00000   0.00684
-12.92486   0.00000   0.00727   0.00000   0.00888   0.00000   0.00640   0.00000   0.00654   0.00000   0.00727   0.00000   0.00842   0.00000   0.00654   0.00000   0.00684
-12.87476   0.00000   0.00727   0.00000   0.00888   0.00000   0.00640   0.00000   0.00654   0.00000   0.00727   0.00000   0.00842   0.00000   0.00654   0.00000   0.00684
-12.82466   0.00000   0.00727   0.00000   0.00888   0.00000   0.00640   0.00000   0.00654   0.00000   0.00727   0.00000   0.00842   0.00000   0.00654   0.00000   0.00684
-12.77457   0.00000   0.00727   0.00000   0.00888   0.00000   0.00640   0.00000   0.00654   0.00000   0.00727   0.00000   0.00842   0.00000   0.00654   0.00000   0.00684
-12.72447   0.00000   0.00727   0.00000   0.00888   0.00000   0.00640   0.00000   0.00654   0.00000   0.00727   0.00000   0.00842   0.00000   0.00654   0.00000   0.00684
-12.67437   0.00000   0.00727   0.00000   0.00888   0.00000   0.00640   0.00000   0.00654   0.00000   0.00727   0.00000   0.00842   0.00000   0.00654   0.00000   0.00684
-12.62428   0.00000   0.00727   0.00000   0.00888   0.00000   0.00640   0.00000   0.00654   0.00000   0.00727   0.00000   0.00842   0.00000   0.00654   0.00000   0.00684
-12.57418   0.00000   0.00727   0.00000   0.00888   0.00000   0.00640   0.00000   0.00654   0.00000   0.00727   0.00000   0.00842   0.00000   0.00654   0.00000   0.00684
-12.52408   0.00000   0.00727   0.00000   0.00888   0.00000   0.00640   0.00000   0.00654   0.00000   0.00727   0.00000   0.00842   0.00000   0.00654   0.00000   0.00684
-12.47399   0.00000   0.00727   0.00000   0.00888   0.00000   0.00640   0.00000   0.00654   0.00000   0.00727   0.00000   0.00842   0.00000   0.00654   0.00000   0.00684
-12.42389   0.00000   0.00727   0.00000   0.00888   0.00000   0.00640   0.00000   0.00654   0.00000   0.00727   0.00000   0.00842   0.00000   0.00654   0.00000   0.00684
-12.37380   0.00000   0.00727   0.00000   0.00888   0.00000   0.00640   0.00000   0.00654   0.00000   0.00727   0.00000   0.00842   0.00000   0.00654   0.00000   0.00684
-12.32370   0.00000   0.00727   0.00000   0.00888   0.00000   0.00640   0.00000   0.00654   0.00000   0.00727   0.00000   0.00842   0.00000   0.00654   0.00000   0.00684
-12.27360   0.00000   0.00727   0.00000   0.00888   0.00000   0.00640   0.00000   0.00654   0.00000   0.00727   0.00000   0.00842   0.00000   0.00654   0.00000   0.00684
-12.22351   0.00000   0.00727   0.00000   0.00888   0.00000   0.00640   0.00000   0.00654   0.00000   0.00727   0.00000   0.00842   0.00000   0.00654   0.00000   0.00684
-12.17341   0.00000   0.00727   0.00000   0.00888   0.00000   0.00640   0.00000   0.00654   0.00000   0.00727   0.00000   0.00842   0.00000   0.00654   0.00000   0.00684
-12.12331   0.00000   0.00727   0.00000   0.00888   0.00000   0.00640   0.00000   0.00654   0.00000   0.00727   0.00000   0.00842   0.00000   0.00654   0.00000   0.00684
-12.07322   0.00000   0.00727   0.00000   0.00888   0.00000   0.00640   0.00000   0.00654   0.00000   0.00727   0.00000   0.00842   0.00000   0.00654   0.00000   0.00684
-12.02312   0.00000   0.00727   0.00000   0.00888   0.00000   0.00640   0.00000   0.00654   0.00000   0.00727   0.00000   0.00842   0.00000   0.00654   0.00000   0.00684
-11.97303   0.00000   0.00727   0.00000   0.00888   0.00000   0.00640   0.00000   0.00654   0.00000   0.00727   0.00000   0.00842   0.00000   0.00654   0.00000   0.00684
-11.92293   0.00000   0.00727   0.00000   0.00888   0.00000   0.00640   0.00000   0.00654   0.00000   0.00727   0.00000   0.00842   0.00000   0.00654   0.00000   0.00684
-11.87283   0.00000   0.00727   0.00000   0.00888   0.00000   0.00640   0.00000   0.00654   0.00000   0.00727   0.00000   0.00842   0.00000   0.00654   0.00000   0.00684
-11.82274   0.00000   0.00727   0.00000   0.00888   0.00000   0.00640   0.00000   0.00654   0.00000   0.00727   0.00000   0.00842   0.00000   0.00654   0.00000   0.00684
-11.77264   0.00000   0.00727   0.00000   0.00888   0.00000   0.00640   0.00000   0.00654   0.00000   0.00727   0.00000   0.00842   0.00000   0.00654   0.00000   0.00684
-11.72254   0.00000   0.00727   0.00000   0.00888   0.00000   0.00640   0.00000   0.00654   0.00000   0.00727   0.00000   0.00842   0.00000   0.00654   0.00000   0.00684
-11.67245   0.00000   0.00727   0.00000   0.00888   0.00000   0.00640   0.00000   0.00654   0.00000   0.00727   0.00000   0.00842   0.00000   0.00654   0.00000   0.00684
-11.62235   0.00000   0.00727   0.00000   0.00888   0.00000   0.00640   0.00000   0.00654   0.00000   0.00727   0.00000   0.00842   0.00000   0.00654   0.00000   0.00684
-11.57225   0.00000   0.00727   0.00000   0.00888   0.00000   0.00640   0.00000   0.00654   0.00000   0.00727   0.00000   0.00842   0.00000   0.00654   0.00000   0.00684
-11.52216   0.00000   0.00727   0.00000   0.00888   0.00000   0.00640   0.00000   0.00654   0.00000   0.00727   0.00000   0.00842   0.00000   0.00654   0.00000   0.00684
-11.47206   0.00000   0.00727   0.00000   0.00888   0.00000   0.00640   0.00000   0.00654   0.00000   0.00727   0.00000   0.00842   0.00000   0.00654   0.00000   0.00684
-11.42197   0.00000   0.00727   0.00000   0.00888   0.00000   0.00640   0.00000   0.00654   0.00000   0.00727   0.00000   0.00842   0.00000   0.00654   0.00000   0.00684
-11.37187   0.00000   0.00727   0.00000   0.00888   0.00000   0.00640   0.00000   0.00654   0.00000   0.00727   0.00000   0.00842   0.00000   0.00654   0.00000   0.00684