       N       E                     dE             d eps       ncg     rms          rms(c)
DAV:   1     0.433438733098E+04    0.43344E+04   -0.22974E+05  8160   0.140E+03
DAV:   2    -0.642953056605E+02   -0.43987E+04   -0.40910E+04  8160   0.328E+02
DAV:   3    -0.437838132750E+03   -0.37354E+03   -0.31795E+03  8529   0.135E+02
DAV:   4    -0.452930274771E+03   -0.15092E+02   -0.14716E+02  8697   0.293E+01
DAV:   5    -0.453193593207E+03   -0.26332E+00   -0.26300E+00  9228   0.333E+00    0.343E-01
RMM:   6    -0.453305651978E+03   -0.11206E+00   -0.14203E-01  8417   0.945E-01    0.762E-01
RMM:   7    -0.453309108833E+03   -0.34569E-02   -0.30586E-02 11425   0.285E-01    0.637E-01
RMM:   8    -0.453311898455E+03   -0.27896E-02   -0.42180E-03  9043   0.126E-01    0.753E-01
RMM:   9    -0.453308439230E+03    0.34592E-02   -0.14263E-03  8714   0.708E-02    0.217E-01
RMM:  10    -0.453308654890E+03   -0.21566E-03   -0.57149E-04  8478   0.527E-02    0.228E-01
RMM:  11    -0.453308507808E+03    0.14708E-03   -0.23157E-04  8614   0.354E-02    0.983E-02
RMM:  12    -0.453308529622E+03   -0.21814E-04   -0.67689E-05  9453   0.153E-02    0.893E-02
RMM:  13    -0.453308592830E+03   -0.63208E-04   -0.21719E-05  9074   0.886E-03    0.706E-02
RMM:  14    -0.453308607361E+03   -0.14530E-04   -0.62617E-06  7903   0.529E-03    0.641E-02
RMM:  15    -0.453308683112E+03   -0.75751E-04   -0.63270E-06  7496   0.547E-03    0.512E-02
RMM:  16    -0.453308708576E+03   -0.25464E-04   -0.21815E-06  5812   0.366E-03    0.449E-02
RMM:  17    -0.453308767024E+03   -0.58448E-04   -0.37734E-06  6694   0.410E-03    0.346E-02
RMM:  18    -0.453308793977E+03   -0.26953E-04   -0.15662E-06  5528   0.329E-03    0.286E-02
RMM:  19    -0.453308819017E+03   -0.25040E-04   -0.15973E-06  5788   0.257E-03    0.227E-02
RMM:  20    -0.453308833272E+03   -0.14255E-04   -0.80460E-07  5232   0.220E-03    0.186E-02
RMM:  21    -0.453308837894E+03   -0.46219E-05   -0.11843E-06  5600   0.220E-03    0.135E-02
RMM:  22    -0.453308833606E+03    0.42883E-05   -0.47553E-07  5038   0.159E-03    0.111E-02
RMM:  23    -0.453308821788E+03    0.11817E-04   -0.50988E-07  4968   0.160E-03    0.770E-03
RMM:  24    -0.453308817446E+03    0.43425E-05   -0.18518E-07  4950   0.102E-03    0.651E-03
RMM:  25    -0.453308814888E+03    0.25582E-05   -0.11341E-07  4737   0.844E-04    0.506E-03
RMM:  26    -0.453308815181E+03   -0.29346E-06   -0.44444E-08  4674   0.508E-04
   1 F= -.46736892E+03 E0= -.46736892E+03  d E =0.000000E+00  mag=   134.8132
