 vasp.5.4.4.18Apr17-6-g9f103f2a35 (build Sep 06 2021 19:49:22) complex          
  
 executed on             LinuxIFC date 2022.01.05  17:31:27
 running on   72 total cores
 distrk:  each k-point on   72 cores,    1 groups
 distr:  one band on NCORES_PER_BAND=  24 cores,    3 groups


--------------------------------------------------------------------------------------------------------


 INCAR:
 POTCAR:    PAW_PBE Fe 06Sep2000                  
 POTCAR:    PAW_PBE Ni 02Aug2007                  

 ----------------------------------------------------------------------------- 
|                                                                             |
|           W    W    AA    RRRRR   N    N  II  N    N   GGGG   !!!           |
|           W    W   A  A   R    R  NN   N  II  NN   N  G    G  !!!           |
|           W    W  A    A  R    R  N N  N  II  N N  N  G       !!!           |
|           W WW W  AAAAAA  RRRRR   N  N N  II  N  N N  G  GGG   !            |
|           WW  WW  A    A  R   R   N   NN  II  N   NN  G    G                |
|           W    W  A    A  R    R  N    N  II  N    N   GGGG   !!!           |
|                                                                             |
|      For optimal performance we recommend to set                            |
|        NCORE= 4 - approx SQRT( number of cores)                             |
|      NCORE specifies how many cores store one orbital (NPAR=cpu/NCORE).     |
|      This setting can  greatly improve the performance of VASP for DFT.     |
|      The default,   NCORE=1            might be grossly inefficient         |
|      on modern multi-core architectures or massively parallel machines.     |
|      Do your own testing !!!!                                               |
|      Unfortunately you need to use the default for GW and RPA calculations. |
|      (for HF NCORE is supported but not extensively tested yet)             |
|                                                                             |
 ----------------------------------------------------------------------------- 

 POTCAR:    PAW_PBE Fe 06Sep2000                  
   VRHFIN =Fe:  d7 s1                                                           
   LEXCH  = PE                                                                  
   EATOM  =   594.3153 eV,   43.6809 Ry                                         
                                                                                
   TITEL  = PAW_PBE Fe 06Sep2000                                                
   LULTRA =        F    use ultrasoft PP ?                                      
   IUNSCR =        1    unscreen: 0-lin 1-nonlin 2-no                           
   RPACOR =    2.000    partial core radius                                     
   POMASS =   55.847; ZVAL   =    8.000    mass and valenz                      
   RCORE  =    2.300    outmost cutoff radius                                   
   RWIGS  =    2.460; RWIGS  =    1.302    wigner-seitz radius (au A)           
   ENMAX  =  267.882; ENMIN  =  200.911 eV                                      
   RCLOC  =    1.701    cutoff for local pot                                    
   LCOR   =        T    correct aug charges                                     
   LPAW   =        T    paw PP                                                  
   EAUG   =  511.368                                                            
   DEXC   =    0.000                                                            
   RMAX   =    2.356    core radius for proj-oper                               
   RAUG   =    1.300    factor for augmentation sphere                          
   RDEP   =    2.442    radius for radial grids                                 
   RDEPT  =    1.890    core radius for aug-charge                              
                                                                                
   Atomic configuration                                                         
    9 entries                                                                   
     n  l   j            E        occ.                                          
     1  0  0.50     -6993.8440   2.0000                                         
     2  0  0.50      -814.6047   2.0000                                         
     2  1  1.50      -693.3689   6.0000                                         
     3  0  0.50       -89.4732   2.0000                                         
     3  1  1.50       -55.6373   6.0000                                         
     3  2  2.50        -3.8151   7.0000                                         
     4  0  0.50        -4.2551   1.0000                                         
     4  1  1.50        -3.4015   0.0000                                         
     4  3  2.50        -1.3606   0.0000                                         
   Description                                                                  
     l       E           TYP  RCUT    TYP  RCUT                                 
     2     -3.8151135     23  2.300                                             
     2     -5.1756961     23  2.300                                             
     0     -4.2550963     23  2.300                                             
     0      7.2035603     23  2.300                                             
     1     -2.7211652     23  2.300                                             
     1     18.4316424     23  2.300                                             
  local pseudopotential read in
  partial core-charges read in
  partial kinetic energy density read in
  atomic valenz-charges read in
  non local Contribution for L=           2  read in
    real space projection operators read in
  non local Contribution for L=           2  read in
    real space projection operators read in
  non local Contribution for L=           0  read in
    real space projection operators read in
  non local Contribution for L=           0  read in
    real space projection operators read in
  non local Contribution for L=           1  read in
    real space projection operators read in
  non local Contribution for L=           1  read in
    real space projection operators read in
    PAW grid and wavefunctions read in
 
   number of l-projection  operators is LMAX  =           6
   number of lm-projection operators is LMMAX =          18
 
 POTCAR:    PAW_PBE Ni 02Aug2007                  
   VRHFIN =Ni:                                                                  
   LEXCH  = PE                                                                  
   EATOM  =  1077.6739 eV,   79.2068 Ry                                         
                                                                                
   TITEL  = PAW_PBE Ni 02Aug2007                                                
   LULTRA =        F    use ultrasoft PP ?                                      
   IUNSCR =        1    unscreen: 0-lin 1-nonlin 2-no                           
   RPACOR =    2.000    partial core radius                                     
   POMASS =   58.690; ZVAL   =   10.000    mass and valenz                      
   RCORE  =    2.300    outmost cutoff radius                                   
   RWIGS  =    2.430; RWIGS  =    1.286    wigner-seitz radius (au A)           
   ENMAX  =  269.532; ENMIN  =  202.149 eV                                      
   RCLOC  =    1.201    cutoff for local pot                                    
   LCOR   =        T    correct aug charges                                     
   LPAW   =        T    paw PP                                                  
   EAUG   =  544.565                                                            
   DEXC   =    0.000                                                            
   RMAX   =    2.357    core radius for proj-oper                               
   RAUG   =    1.300    factor for augmentation sphere                          
   RDEP   =    2.390    radius for radial grids                                 
   RDEPT  =    1.838    core radius for aug-charge                              
                                                                                
   Atomic configuration                                                         
    9 entries                                                                   
     n  l   j            E        occ.                                          
     1  0  0.50     -8206.4253   2.0000                                         
     2  0  0.50      -976.1748   2.0000                                         
     2  1  1.50      -839.0571   6.0000                                         
     3  0  0.50      -105.9991   2.0000                                         
     3  1  1.50       -66.4603   6.0000                                         
     3  2  2.50        -4.6458   9.0000                                         
     4  0  0.50        -4.4926   1.0000                                         
     4  1  1.50        -4.0817   0.0000                                         
     4  3  2.50        -1.3606   0.0000                                         
   Description                                                                  
     l       E           TYP  RCUT    TYP  RCUT                                 
     2     -4.6457903     23  2.300                                             
     2     -6.0063729     23  2.300                                             
     0     -4.4925590     23  2.300                                             
     0      5.0102601     23  2.300                                             
     1     -2.7211652     23  2.300                                             
     1     16.5183231     23  2.300                                             
  local pseudopotential read in
  partial core-charges read in
  partial kinetic energy density read in
  atomic valenz-charges read in
  non local Contribution for L=           2  read in
    real space projection operators read in
  non local Contribution for L=           2  read in
    real space projection operators read in
  non local Contribution for L=           0  read in
    real space projection operators read in
  non local Contribution for L=           0  read in
    real space projection operators read in
  non local Contribution for L=           1  read in
    real space projection operators read in
  non local Contribution for L=           1  read in
    real space projection operators read in
    PAW grid and wavefunctions read in
 
   number of l-projection  operators is LMAX  =           6
   number of lm-projection operators is LMMAX =          18
 
 Optimization of the real space projectors (new method)

 maximal supplied QI-value         = 16.25
 optimisation between [QCUT,QGAM] = [ 11.54, 23.24] = [ 37.28,151.24] Ry 
 Optimized for a Real-space Cutoff    1.53 Angstroem

   l    n(q)    QCUT    max X(q) W(low)/X(q) W(high)/X(q)  e(spline) 
   2     10    11.539    80.901    0.11E-03    0.14E-03    0.21E-06
   2     10    11.539    75.754    0.11E-03    0.14E-03    0.22E-06
   0     11    11.539    58.752    0.52E-04    0.18E-04    0.33E-06
   0     11    11.539    30.679    0.44E-04    0.16E-04    0.30E-06
   1     10    11.539    17.977    0.53E-04    0.29E-04    0.13E-06
   1     10    11.539    13.559    0.44E-04    0.25E-04    0.11E-06
 Optimization of the real space projectors (new method)

 maximal supplied QI-value         = 16.25
 optimisation between [QCUT,QGAM] = [ 11.54, 23.24] = [ 37.28,151.24] Ry 
 Optimized for a Real-space Cutoff    1.45 Angstroem

   l    n(q)    QCUT    max X(q) W(low)/X(q) W(high)/X(q)  e(spline) 
   2      9    11.539    60.317    0.19E-03    0.47E-04    0.16E-06
   2      9    11.539    55.921    0.19E-03    0.48E-04    0.16E-06
   0     10    11.539    51.690    0.80E-04    0.50E-04    0.24E-06
   0     10    11.539    30.015    0.73E-04    0.45E-04    0.22E-06
   1     10    11.539    18.849    0.87E-04    0.16E-03    0.71E-07
   1     10    11.539    14.624    0.73E-04    0.13E-03    0.64E-07
  PAW_PBE Fe 06Sep2000                  :
 energy of atom  1       EATOM= -594.3153
 kinetic energy error for atom=    0.0026 (will be added to EATOM!!)
  PAW_PBE Ni 02Aug2007                  :
 energy of atom  2       EATOM=-1077.6739
 kinetic energy error for atom=    0.0030 (will be added to EATOM!!)
 
 
 POSCAR: POSCAR                                  
  positions in direct lattice
  velocities in cartesian coordinates
 exchange correlation table for  LEXCH =        8
   RHO(1)=    0.500       N(1)  =     2000
   RHO(2)=  100.500       N(2)  =     4000
 


--------------------------------------------------------------------------------------------------------


 ion  position               nearest neighbor table
   1  0.002  0.999  0.195-  26 2.50  48 2.51  40 2.52   4 2.53  64 2.54  49 2.54  33 2.55  52 2.56
                            46 2.56   5 2.56   7 2.58   3 2.60
   2  0.499  0.996  0.194-   3 2.47  41 2.50  62 2.51  29 2.52  27 2.52  48 2.53   9 2.55  13 2.55
                            51 2.55  61 2.57  50 2.58  10 2.59
   3  0.743  0.996  0.193-  44 2.46   2 2.47  29 2.47  13 2.49  33 2.53  52 2.53  51 2.54  61 2.55
                            12 2.55  64 2.57  49 2.59   1 2.60
   4  0.249  0.253  0.195-  49 2.49  55 2.51  16 2.52  17 2.53   1 2.53  50 2.54   6 2.54   5 2.55
                            48 2.58  18 2.60  21 2.60   7 2.62
   5  0.083  0.168  0.293-  56 2.45  12 2.48  53 2.49  64 2.51  54 2.52  40 2.54  18 2.54  49 2.54
                             4 2.55   6 2.56   1 2.56   8 2.57
   6  0.335  0.167  0.291-  20 2.51  40 2.52  50 2.52  11 2.53   4 2.54  48 2.54  41 2.55   5 2.56
                            18 2.56   9 2.58   8 2.63  22 2.65
   7  0.168  0.081  0.095-  42 2.50  21 2.52  10 2.54  46 2.54  55 2.55  52 2.55  48 2.55   1 2.58
                             4 2.62
   8  0.165  0.082  0.393-  56 2.51  11 2.51  47 2.51  22 2.53  43 2.54  53 2.55   5 2.57  40 2.58
                             6 2.63
   9  0.592  0.170  0.290-  51 2.47  12 2.50  61 2.50  23 2.51  20 2.54  14 2.54   2 2.55  41 2.55
                            50 2.56   6 2.58  25 2.58  11 2.62
  10  0.422  0.087  0.095-  21 2.43  24 2.47  13 2.50  62 2.52   7 2.54  50 2.55   2 2.59  48 2.60
                            42 2.61
  11  0.415  0.086  0.390-  25 2.49   8 2.51  22 2.52   6 2.53  14 2.54  63 2.55  41 2.56  43 2.58
                             9 2.62
  12  0.837  0.166  0.290-  64 2.47   5 2.48  49 2.49  53 2.50  61 2.50   9 2.50  58 2.51  54 2.52
                            51 2.54   3 2.55  23 2.56  14 2.60
  13  0.667  0.083  0.097-   3 2.49  10 2.50  52 2.52  57 2.54  62 2.54  51 2.54   2 2.55  44 2.56
                            24 2.58
  14  0.668  0.089  0.390-  25 2.48  58 2.50  53 2.51  45 2.52  61 2.53   9 2.54  11 2.54  63 2.57
                            12 2.60
  15  0.003  0.511  0.193-  27 2.44  26 2.45  31 2.45  38 2.46  19 2.48  28 2.55  57 2.56  23 2.57
                            54 2.57  16 2.58  51 2.60  49 2.63
  16  0.256  0.506  0.196-  27 2.45  29 2.47  17 2.48  54 2.51   4 2.52  59 2.54  30 2.57  31 2.57
                            18 2.57  49 2.58  15 2.58  55 2.58
  17  0.500  0.503  0.196-  29 2.48  16 2.48  33 2.50   4 2.53  59 2.53  50 2.54  20 2.57  34 2.57
                            19 2.58  18 2.58  36 2.61  21 2.64
  18  0.333  0.419  0.296-  56 2.45  60 2.48  30 2.50  54 2.51   5 2.54  20 2.54  22 2.55   6 2.56
                            34 2.57  16 2.57  17 2.58   4 2.60
  19  0.757  0.508  0.195-  26 2.40  15 2.48  33 2.48  38 2.50  36 2.53  23 2.56  35 2.56  51 2.57
                            17 2.58  50 2.60  20 2.61  24 2.63
  20  0.583  0.416  0.294-   6 2.51  25 2.52   9 2.54  34 2.54  18 2.54  35 2.56  23 2.56  17 2.57
                            50 2.58  22 2.61  19 2.61  37 2.62
  21  0.420  0.327  0.095-  24 2.41  10 2.43  50 2.49   7 2.52  55 2.56  36 2.58   4 2.60  59 2.61
                            17 2.64
  22  0.413  0.334  0.395-  60 2.50  56 2.50  11 2.52   8 2.53  25 2.54  18 2.55  37 2.56  20 2.61
                             6 2.65
  23  0.838  0.420  0.292-  58 2.45  54 2.50  28 2.51   9 2.51  35 2.55  19 2.56  12 2.56  20 2.56
                            51 2.57  15 2.57  39 2.60  25 2.61
  24  0.662  0.335  0.094-  21 2.41  10 2.47  36 2.48  57 2.56  50 2.56  38 2.57  13 2.58  51 2.61
                            19 2.63
  25  0.663  0.332  0.391-  14 2.48  11 2.49  20 2.52  37 2.54  22 2.54  58 2.55  39 2.57   9 2.58
                            23 2.61
  26  0.992  0.747  0.194-  19 2.40  46 2.45  15 2.45  33 2.48  38 2.48   1 2.50  35 2.55  48 2.57
                            40 2.58  42 2.59  27 2.63  28 2.63
  27  0.251  0.746  0.195-  15 2.44  16 2.45  31 2.48  29 2.52   2 2.52  62 2.53  28 2.55  41 2.55
                            48 2.56  30 2.57  26 2.63  42 2.63
  28  0.087  0.667  0.294-  23 2.51  54 2.51  32 2.52  43 2.52  41 2.54  27 2.55  40 2.55  30 2.55
                            15 2.55  35 2.57  39 2.59  26 2.63
  29  0.502  0.749  0.196-  16 2.47   3 2.47  17 2.48  33 2.49  27 2.52   2 2.52  44 2.52  30 2.54
                            59 2.55  34 2.57  61 2.58  62 2.58
  30  0.342  0.671  0.295-  63 2.44  60 2.49  41 2.50  18 2.50  61 2.51  34 2.51  32 2.52  29 2.54
                            28 2.55  16 2.57  27 2.57  54 2.59
  31  0.164  0.589  0.099-  15 2.45  42 2.46  38 2.47  27 2.48  62 2.51  57 2.53  16 2.57  59 2.60
                            55 2.61
  32  0.167  0.576  0.389-  56 2.48  60 2.48  58 2.49  28 2.52  30 2.52  54 2.53  63 2.55  39 2.56
                            43 2.59
  33  0.748  0.749  0.192-  44 2.43  26 2.48  19 2.48  29 2.49  17 2.50  36 2.50  46 2.50   3 2.53
                             1 2.55  34 2.59  64 2.60  35 2.62
  34  0.590  0.671  0.295-  35 2.47  45 2.48  64 2.49  30 2.51  20 2.54  61 2.54  60 2.55  18 2.57
                            29 2.57  37 2.57  17 2.57  33 2.59
  35  0.835  0.670  0.295-  34 2.47  47 2.50  40 2.53  64 2.53  23 2.55  26 2.55  20 2.56  19 2.56
                            28 2.57  39 2.59  37 2.60  33 2.62
  36  0.672  0.585  0.096-  46 2.47  24 2.48  38 2.49  33 2.50  44 2.50  19 2.53  59 2.55  21 2.58
                            17 2.61
  37  0.667  0.585  0.395-  47 2.52  60 2.53  25 2.54  39 2.54  22 2.56  34 2.57  45 2.58  35 2.60
                            20 2.62
  38  0.919  0.587  0.098-  46 2.43  15 2.46  42 2.47  31 2.47  26 2.48  36 2.49  19 2.50  57 2.52
                            24 2.57
  39  0.918  0.584  0.394-  43 2.47  58 2.52  37 2.54  32 2.56  25 2.57  47 2.58  35 2.59  28 2.59
                            23 2.60
  40  0.086  0.919  0.292-   6 2.52   1 2.52  35 2.53  48 2.53   5 2.54  28 2.55  43 2.56  64 2.57
                            47 2.57  41 2.57   8 2.58  26 2.58
  41  0.340  0.917  0.292-  63 2.47  61 2.49  30 2.50   2 2.50  28 2.54   9 2.55  27 2.55   6 2.55
                            11 2.56  40 2.57  48 2.58  43 2.64
  42  0.163  0.832  0.095-  46 2.45  31 2.46  38 2.47   7 2.50  62 2.53  48 2.57  26 2.59  10 2.61
                            27 2.63
  43  0.162  0.830  0.392-  39 2.47  28 2.52   8 2.54  63 2.54  47 2.54  40 2.56  11 2.58  32 2.59
                            41 2.64
  44  0.669  0.831  0.100-  33 2.43   3 2.46  52 2.50  36 2.50  59 2.51  29 2.52  46 2.54  13 2.56
                            62 2.59
  45  0.662  0.837  0.389-  61 2.45  34 2.48  63 2.48  14 2.52  60 2.53  53 2.53  47 2.55  64 2.56
                            37 2.58
  46  0.919  0.827  0.098-  38 2.43  26 2.45  42 2.45  36 2.47  33 2.50   7 2.54  44 2.54   1 2.56
                            52 2.57
  47  0.914  0.836  0.390-  35 2.50   8 2.51  53 2.52  37 2.52  64 2.54  43 2.54  45 2.55  40 2.57
                            39 2.58
  48  0.249  0.998  0.194-   1 2.51   2 2.53  40 2.53   6 2.54  50 2.55   7 2.55  27 2.56  42 2.57
                            26 2.57  41 2.58   4 2.58  10 2.60
  49  0.001  0.250  0.195-  12 2.49   4 2.49  54 2.50   1 2.54   5 2.54  51 2.55  55 2.56  52 2.57
                            16 2.58  57 2.58   3 2.59  15 2.63
  50  0.499  0.252  0.194-  21 2.49   6 2.52  51 2.53   4 2.54  17 2.54  48 2.55  10 2.55   9 2.56
                            24 2.56   2 2.58  20 2.58  19 2.60
  51  0.749  0.251  0.194-   9 2.47  50 2.53  57 2.54  13 2.54  12 2.54   3 2.54  49 2.55   2 2.55
                            19 2.57  23 2.57  15 2.60  24 2.61
  52  0.914  0.079  0.097-  44 2.50  13 2.52   3 2.53   7 2.55   1 2.56  49 2.57  46 2.57  55 2.59
                            57 2.59
  53  0.914  0.086  0.387-   5 2.49  12 2.50  56 2.50  64 2.50  58 2.50  14 2.51  47 2.52  45 2.53
                             8 2.55
  54  0.084  0.417  0.290-  23 2.50  49 2.50  58 2.51  28 2.51  18 2.51  16 2.51   5 2.52  12 2.52
                            32 2.53  56 2.54  15 2.57  30 2.59
  55  0.171  0.334  0.097-   4 2.51  59 2.52   7 2.55  49 2.56  21 2.56  16 2.58  52 2.59  57 2.59
                            31 2.61
  56  0.164  0.329  0.387-  18 2.45   5 2.45  32 2.48  53 2.50  22 2.50   8 2.51  58 2.52  54 2.54
                            60 2.56
  57  0.916  0.336  0.096-  38 2.52  31 2.53  13 2.54  51 2.54  24 2.56  15 2.56  49 2.58  55 2.59
                            52 2.59
  58  0.917  0.334  0.385-  23 2.45  32 2.49  14 2.50  53 2.50  54 2.51  12 2.51  39 2.52  56 2.52
                            25 2.55
  59  0.419  0.585  0.097-  44 2.51  55 2.52  17 2.53  16 2.54  29 2.55  62 2.55  36 2.55  31 2.60
                            21 2.61
  60  0.416  0.583  0.391-  18 2.48  32 2.48  30 2.49  22 2.50  45 2.53  37 2.53  63 2.54  34 2.55
                            56 2.56
  61  0.589  0.921  0.294-  45 2.45  64 2.48  41 2.49  12 2.50   9 2.50  30 2.51  63 2.52  14 2.53
                            34 2.54   3 2.55   2 2.57  29 2.58
  62  0.415  0.834  0.097-   2 2.51  31 2.51  10 2.52  27 2.53  42 2.53  13 2.54  59 2.55  29 2.58
                            44 2.59
  63  0.415  0.833  0.388-  30 2.44  41 2.47  45 2.48  61 2.52  43 2.54  60 2.54  32 2.55  11 2.55
                            14 2.57
  64  0.833  0.920  0.292-  12 2.47  61 2.48  34 2.49  53 2.50   5 2.51  35 2.53   1 2.54  47 2.54
                            45 2.56  40 2.57   3 2.57  33 2.60
 

IMPORTANT INFORMATION: All symmetrisations will be switched off!
NOSYMM: (Re-)initialisation of all symmetry stuff for point group C_1.

 
 

Automatic generation of k-mesh.
 generate k-points for:    3    3    1
Space group operators:
 irot       det(A)        alpha          n_x          n_y          n_z        tau_x        tau_y        tau_z
    1     1.000000     0.000000     1.000000     0.000000     0.000000     0.000000     0.000000     0.000000
 
 Subroutine IBZKPT returns following result:
 ===========================================
 
 Found      5 irreducible k-points:
 
 Following reciprocal coordinates:
            Coordinates               Weight
  0.000000  0.000000  0.000000      1.000000
  0.333333  0.000000  0.000000      2.000000
  0.000000  0.333333  0.000000      2.000000
  0.333333  0.333333  0.000000      2.000000
 -0.333333  0.333333  0.000000      2.000000
 
 Following cartesian coordinates:
            Coordinates               Weight
  0.000000  0.000000  0.000000      1.000000
  0.032965  0.019033  0.000000      2.000000
  0.000000  0.038065  0.000000      2.000000
  0.032965  0.057098  0.000000      2.000000
 -0.032965  0.019033  0.000000      2.000000
 
 TETIRR: Found     24 inequivalent tetrahedra from       54


--------------------------------------------------------------------------------------------------------




 Dimension of arrays:
   k-points           NKPTS =      5   k-points in BZ     NKDIM =      5   number of bands    NBANDS=    408
   number of dos      NEDOS =    301   number of ions     NIONS =     64
   non local maximal  LDIM  =      6   non local SUM 2l+1 LMDIM =     18
   total plane-waves  NPLWV = ******
   max r-space proj   IRMAX =   8251   max aug-charges    IRDMAX=  19525
   dimension x,y,z NGX =    80 NGY =   80 NGZ =  160
   dimension x,y,z NGXF=   160 NGYF=  160 NGZF=  320
   support grid    NGXF=   160 NGYF=  160 NGZF=  320
   ions per type =              47  17
   NGX,Y,Z   is equivalent  to a cutoff of  13.15, 13.15, 12.48 a.u.
   NGXF,Y,Z  is equivalent  to a cutoff of  26.31, 26.31, 24.96 a.u.

 SYSTEM =  SQS-NiFe                                
 POSCAR =  POSCAR                                  

 Startparameter for this run:
   NWRITE =      2    write-flag & timer
   PREC   = accura    normal or accurate (medium, high low for compatibility)
   ISTART =      0    job   : 0-new  1-cont  2-samecut
   ICHARG =      1    charge: 1-file 2-atom 10-const
   ISPIN  =      2    spin polarized calculation?
   LNONCOLLINEAR =      F non collinear calculations
   LSORBIT =      F    spin-orbit coupling
   INIWAV =      1    electr: 0-lowe 1-rand  2-diag
   LASPH  =      F    aspherical Exc in radial PAW
   METAGGA=      F    non-selfconsistent MetaGGA calc.

 Electronic Relaxation 1
   ENCUT  =  520.0 eV  38.22 Ry    6.18 a.u.  18.80 18.80 39.63*2*pi/ulx,y,z
   ENINI  =  520.0     initial cutoff
   ENAUG  =  544.6 eV  augmentation charge cutoff
   NELM   =    200;   NELMIN=  2; NELMDL= -5     # of ELM steps 
   EDIFF  = 0.1E-05   stopping-criterion for ELM
   LREAL  =      T    real-space projection
   NLSPLINE    = F    spline interpolate recip. space projectors
   LCOMPAT=      F    compatible to vasp.4.4
   GGA_COMPAT  = T    GGA compatible to vasp.4.4-vasp.4.6
   LMAXPAW     = -100 max onsite density
   LMAXMIX     =    2 max onsite mixed and CHGCAR
   VOSKOWN=      0    Vosko Wilk Nusair interpolation
   ROPT   =   -0.00025  -0.00025
 Ionic relaxation
   EDIFFG = -.2E-01   stopping-criterion for IOM
   NSW    =      0    number of steps for IOM
   NBLOCK =      1;   KBLOCK =      1    inner block; outer block 
   IBRION =     -1    ionic relax: 0-MD 1-quasi-New 2-CG
   NFREE  =      0    steps in history (QN), initial steepest desc. (CG)
   ISIF   =      2    stress and relaxation
   IWAVPR =     10    prediction:  0-non 1-charg 2-wave 3-comb
   ISYM   =      0    0-nonsym 1-usesym 2-fastsym
   LCORR  =      T    Harris-Foulkes like correction to forces

   POTIM  = 0.5000    time-step for ionic-motion
   TEIN   =    0.0    initial temperature
   TEBEG  =    0.0;   TEEND  =   0.0 temperature during run
   SMASS  =  -3.00    Nose mass-parameter (am)
   estimated Nose-frequenzy (Omega)   =  0.10E-29 period in steps =****** mass=  -0.234E-26a.u.
   SCALEE = 1.0000    scale energy and forces
   NPACO  =    256;   APACO  = 16.0  distance and # of slots for P.C.
   PSTRESS=    0.0 pullay stress

  Mass of Ions in am
   POMASS =  55.85 58.69
  Ionic Valenz
   ZVAL   =   8.00 10.00
  Atomic Wigner-Seitz radii
   RWIGS  =  -1.00 -1.00
  virtual crystal weights 
   VCA    =   1.00  1.00
   NELECT =     546.0000    total number of electrons
   NUPDOWN=      -1.0000    fix difference up-down

 DOS related values:
   EMIN   =  10.00;   EMAX   =-10.00  energy-range for DOS
   EFERMI =   0.00
   ISMEAR =    -5;   SIGMA  =   0.20  broadening in eV -4-tet -1-fermi 0-gaus

 Electronic relaxation 2 (details)
   IALGO  =     68    algorithm
   LDIAG  =      T    sub-space diagonalisation (order eigenvalues)
   LSUBROT=      F    optimize rotation matrix (better conditioning)
   TURBO    =      0    0=normal 1=particle mesh
   IRESTART =      0    0=no restart 2=restart with 2 vectors
   NREBOOT  =      0    no. of reboots
   NMIN     =      0    reboot dimension
   EREF     =   0.00    reference energy to select bands
   IMIX   =      4    mixing-type and parameters
     AMIX     =   0.40;   BMIX     =  1.00
     AMIX_MAG =   1.60;   BMIX_MAG =  1.00
     AMIN     =   0.10
     WC   =   100.;   INIMIX=   1;  MIXPRE=   1;  MAXMIX= -45

 Intra band minimization:
   WEIMIN = 0.0000     energy-eigenvalue tresh-hold
   EBREAK =  0.61E-09  absolut break condition
   DEPER  =   0.30     relativ break condition  

   TIME   =   0.40     timestep for ELM

  volume/ion in A,a.u.               =      29.49       199.00
  Fermi-wavevector in a.u.,A,eV,Ry     =   1.082752  2.046105 15.950816  1.172352
  Thomas-Fermi vector in A             =   2.218801
 
 Write flags
   LWAVE        =      F    write WAVECAR
   LDOWNSAMPLE  =      F    k-point downsampling of WAVECAR
   LCHARG       =      F    write CHGCAR
   LVTOT        =      F    write LOCPOT, total local potential
   LVHAR        =      F    write LOCPOT, Hartree potential only
   LELF         =      F    write electronic localiz. function (ELF)
   LORBIT       =     11    0 simple, 1 ext, 2 COOP (PROOUT), +10 PAW based schemes


 Dipole corrections
   LMONO  =      F    monopole corrections only (constant potential shift)
   LDIPOL =      T    correct potential (dipole corrections)
   IDIPOL =      3    1-x, 2-y, 3-z, 4-all directions 
   EPSILON=  1.0000000 bulk dielectric constant

 Exchange correlation treatment:
   GGA     =    --    GGA type
   LEXCH   =     8    internal setting for exchange type
   VOSKOWN=      0    Vosko Wilk Nusair interpolation
   LHFCALC =     F    Hartree Fock is set to
   LHFONE  =     F    Hartree Fock one center treatment
   AEXX    =    0.0000 exact exchange contribution

 Linear response parameters
   LEPSILON=     F    determine dielectric tensor
   LRPA    =     F    only Hartree local field effects (RPA)
   LNABLA  =     F    use nabla operator in PAW spheres
   LVEL    =     F    velocity operator in full k-point grid
   LINTERFAST=   F  fast interpolation
   KINTER  =     0    interpolate to denser k-point grid
   CSHIFT  =0.1000    complex shift for real part using Kramers Kronig
   OMEGAMAX=  -1.0    maximum frequency
   DEG_THRESHOLD= 0.2000000E-02 threshold for treating states as degnerate
   RTIME   =   -0.100 relaxation time in fs
  (WPLASMAI=    0.000 imaginary part of plasma frequency in eV, 0.658/RTIME)
   DFIELD  = 0.0000000 0.0000000 0.0000000 field for delta impulse in time
 
 Orbital magnetization related:
   ORBITALMAG=     F  switch on orbital magnetization
   LCHIMAG   =     F  perturbation theory with respect to B field
   DQ        =  0.001000  dq finite difference perturbation B field
   LLRAUG    =     F  two centre corrections for induced B field



--------------------------------------------------------------------------------------------------------


 Static calculation
 charge density and potential will be updated during run
 spin polarized calculation
 RMM-DIIS sequential band-by-band and
  variant of blocked Davidson during initial phase
 perform sub-space diagonalisation
    before iterative eigenvector-optimisation
 modified Broyden-mixing scheme, WC =      100.0
 initial mixing is a Kerker type mixing with AMIX =  0.4000 and BMIX =      1.0000
 Hartree-type preconditioning will be used
 using additional bands          135
 real space projection scheme for non local part
 use partial core corrections
 calculate Harris-corrections to forces 
   (improved forces if not selfconsistent)
 use gradient corrections 
 use of overlap-Matrix (Vanderbilt PP)
 Fermi weights with tetrahedron method with Bloechl corrections


--------------------------------------------------------------------------------------------------------


  energy-cutoff  :      520.00
  volume of cell :     1887.25
      direct lattice vectors                 reciprocal lattice vectors
    10.111630000  0.000000000  0.000000000     0.098896024  0.057097646  0.000000000
    -5.055815000  8.756928450  0.000000000     0.000000000  0.114195292  0.000000000
     0.000000000  0.000000000 21.313618150     0.000000000  0.000000000  0.046918360

  length of vectors
    10.111630000 10.111629997 21.313618150     0.114195292  0.114195292  0.046918360


 
 k-points in units of 2pi/SCALE and weight: read from INCAR                         
   0.00000000  0.00000000  0.00000000       0.111
   0.03296534  0.01903255  0.00000000       0.222
   0.00000000  0.03806510  0.00000000       0.222
   0.03296534  0.05709765  0.00000000       0.222
  -0.03296534  0.01903255  0.00000000       0.222
 
 k-points in reciprocal lattice and weights: read from INCAR                         
   0.00000000  0.00000000  0.00000000       0.111
   0.33333333  0.00000000  0.00000000       0.222
   0.00000000  0.33333333  0.00000000       0.222
   0.33333333  0.33333333  0.00000000       0.222
  -0.33333333  0.33333333  0.00000000       0.222
 
 position of ions in fractional coordinates (direct lattice) 
   0.00194700  0.99920000  0.19504711
   0.49880600  0.99647600  0.19436468
   0.74316000  0.99645900  0.19265379
   0.24913600  0.25322600  0.19502823
   0.08272449  0.16774674  0.29339966
   0.33531437  0.16735577  0.29088626
   0.16766300  0.08094400  0.09476087
   0.16493434  0.08233413  0.39265750
   0.59152171  0.16986182  0.29019656
   0.42207800  0.08742500  0.09459963
   0.41540814  0.08641663  0.38963823
   0.83695021  0.16636832  0.28994309
   0.66737600  0.08327700  0.09665914
   0.66778368  0.08873198  0.39023189
   0.00320800  0.51090900  0.19273630
   0.25586900  0.50577700  0.19556308
   0.49960200  0.50304900  0.19575715
   0.33316951  0.41947420  0.29589146
   0.75679100  0.50804300  0.19452824
   0.58278318  0.41605103  0.29403079
   0.42032800  0.32671800  0.09530328
   0.41289162  0.33406473  0.39458799
   0.83821311  0.42007972  0.29224465
   0.66249300  0.33542400  0.09383672
   0.66313604  0.33207732  0.39119879
   0.99180600  0.74702800  0.19393325
   0.25104600  0.74563900  0.19525367
   0.08731166  0.66699607  0.29395879
   0.50153700  0.74905700  0.19574495
   0.34189891  0.67116886  0.29502427
   0.16407000  0.58904200  0.09862191
   0.16726943  0.57603288  0.38888129
   0.74777500  0.74863100  0.19226885
   0.59007253  0.67051867  0.29495862
   0.83459116  0.67007801  0.29467697
   0.67214400  0.58529400  0.09617600
   0.66742481  0.58513840  0.39545387
   0.91907500  0.58733100  0.09791739
   0.91841290  0.58412047  0.39396727
   0.08644653  0.91880587  0.29216034
   0.34025398  0.91719920  0.29200775
   0.16274300  0.83153600  0.09454501
   0.16166734  0.82961935  0.39169686
   0.66878300  0.83083000  0.09953909
   0.66184460  0.83682111  0.38886378
   0.91852300  0.82706000  0.09806963
   0.91382838  0.83647976  0.38989718
   0.24916500  0.99813100  0.19381878
   0.00129700  0.24974200  0.19480424
   0.49933100  0.25162700  0.19359363
   0.74944200  0.25071300  0.19395097
   0.91424100  0.07929400  0.09685844
   0.91429312  0.08552795  0.38732131
   0.08409159  0.41736363  0.28993421
   0.17077300  0.33437100  0.09693223
   0.16380647  0.32948078  0.38734897
   0.91567000  0.33646400  0.09645316
   0.91652895  0.33416464  0.38531459
   0.41923600  0.58471500  0.09724687
   0.41628744  0.58288618  0.39087148
   0.58870570  0.92088247  0.29386585
   0.41467000  0.83428900  0.09748597
   0.41467461  0.83348278  0.38805031
   0.83327574  0.91981444  0.29170636
 
 position of ions in cartesian coordinates  (Angst):
  -5.03208300  8.74992291  4.15715962
   0.00574341  8.72606903  4.14261457
   2.47664659  8.72592017  4.10614932
   1.23890724  2.21748196  4.15675722
  -0.01161702  1.46894622  6.25340836
   2.54445504  1.46552254  6.19983871
   1.28610833  0.70882082  2.01969700
   1.25148893  0.72099409  8.36895195
   5.12245877  1.48746778  6.18513866
   3.82589194  0.76557447  2.01626039
   3.76354689  0.75674425  8.30460038
   7.62180344  1.45687547  6.17973640
   6.32722608  0.72925073  2.06015600
   6.30376902  0.77701956  8.31725347
  -2.55062328  4.47399356  4.10790790
   0.03013771  4.42905300  4.16815681
   2.50846789  4.40516410  4.17229315
   1.24810283  3.67330552  6.30651763
   5.08381916  4.44889620  4.14610063
   3.78941085  3.64332908  6.26686002
   2.59837545  2.86104615  2.03125772
   2.48603780  2.92538093  8.41009771
   6.35185550  3.67860801  6.22879085
   5.00304240  2.93728397  2.00000002
   5.02646479  2.90797737  8.33786154
   6.25193994  6.54167075  4.13341924
  -1.23132858  6.52950737  4.16156216
  -2.48934551  5.84083688  6.26532532
   1.28426296  6.55943855  4.17203312
   0.06384965  5.87737771  6.28803461
  -1.31907225  5.15819865  2.10198973
  -1.22094907  5.04427872  8.28846741
   3.77628428  6.55570810  4.09794485
   2.57657672  5.87168401  6.28663544
   5.05128656  5.86782516  6.28063238
   3.83733325  5.12537768  2.04985854
   3.79040128  5.12401507  8.42855269
   6.32390946  5.14321554  2.08697386
   6.33344641  5.11510115  8.39686798
  -3.77119720  8.04591723  6.22699388
  -1.19666707  8.03184774  6.22374172
  -2.55849518  7.28170126  2.01509624
  -2.55968165  7.26491728  8.34847720
   2.56196347  7.27551886  2.12153816
   2.46151503  7.32798258  8.28809404
   5.10630237  7.24250524  2.09021865
   5.01120754  7.32499339  8.31011952
  -2.52690139  8.74056175  4.13097947
  -1.24953457  2.18697282  4.15198319
   3.77687076  2.20347964  4.12618071
   6.31052166  2.19547580  4.13379691
   8.84357093  0.69437188  2.06440380
   8.81258022  0.74896211  8.25521842
  -1.25981024  3.65482341  6.17954704
   0.03627547  2.92806292  2.06597654
  -0.00944350  2.88523963  8.25580807
   7.55781650  2.94639117  2.05576582
   7.57812697  2.92625586  8.21244805
   1.28294845  5.12030742  2.07268265
   1.26237982  5.10429260  8.33088537
   1.29696282  8.06410189  6.26334461
  -0.02502123  7.30580908  2.07777874
  -0.02089844  7.29874903  8.27075619
   3.77536439  8.05474920  6.21731796
 


--------------------------------------------------------------------------------------------------------


 k-point  1 :   0.0000 0.0000 0.0000  plane waves:   50797
 k-point  2 :   0.3333 0.0000 0.0000  plane waves:   50810
 k-point  3 :   0.0000 0.3333 0.0000  plane waves:   50810
 k-point  4 :   0.3333 0.3333 0.0000  plane waves:   50829
 k-point  5 :  -0.3333 0.3333 0.0000  plane waves:   50810

 maximum and minimum number of plane-waves per node :      2135     2096

 maximum number of plane-waves:     50829
 maximum index in each direction: 
   IXMAX=   19   IYMAX=   18   IZMAX=   39
   IXMIN=  -19   IYMIN=  -19   IZMIN=  -39


 real space projection operators:
  total allocation   :      68531.91 KBytes
  max/ min on nodes  :       3466.83       2507.91


 parallel 3D FFT for wavefunctions:
    minimum data exchange during FFTs selected (reduces bandwidth)
 parallel 3D FFT for charge:
    minimum data exchange during FFTs selected (reduces bandwidth)


 total amount of memory used by VASP MPI-rank0   113567. kBytes
=======================================================================

   base      :      30000. kBytes
   nonlr-proj:      13158. kBytes
   fftplans  :       6403. kBytes
   grid      :      16455. kBytes
   one-center:         93. kBytes
   wavefun   :      47458. kBytes
 
     INWAV:  cpu time    0.0000: real time    0.0001
 Broyden mixing: mesh for mixing (old mesh)
   NGX = 37   NGY = 37   NGZ = 79
  (NGX  =160   NGY  =160   NGZ  =320)
  gives a total of 108151 points

 initial charge density was supplied:
 number of electron     545.9999927 magnetization     134.8113350
 keeping initial charge density in first step


--------------------------------------------------------------------------------------------------------


 Maximum index for non-local projection operator          764
 Maximum index for augmentation-charges         1127 (set IRDMAX)


--------------------------------------------------------------------------------------------------------


 First call to EWALD:  gamma=   0.143
 Maximum number of real-space cells 4x 4x 2
 Maximum number of reciprocal cells 2x 2x 4

    FEWALD:  cpu time    0.0040: real time    0.0037


--------------------------------------- Iteration      1(   1)  ---------------------------------------


    POTLOK:  cpu time    0.2460: real time    0.2532
    SETDIJ:  cpu time    0.0190: real time    0.0215
     EDDAV:  cpu time   24.7092: real time   25.0430
 BZINTS: Fermi energy: 10.445550;546.000000 electrons
         Band energy:3428.111490;  BLOECHL correction: -0.007717
       DOS:  cpu time    0.0430: real time    0.0432
    --------------------------------------------
      LOOP:  cpu time   25.0172: real time   25.3609

 eigenvalue-minimisations  :  8160
 total energy-change (2. order) : 0.4334387E+04  (-0.2297423E+05)
 number of electron     545.9999927 magnetization     134.8113350
 augmentation part      545.9999927 magnetization     134.8113350

 DIPCOR: dipole corrections for dipol
 direction  3 min pos   234,
 dipolmoment           0.000000      0.000000      0.004830 electrons x Angstroem
 Tr[quadrupol]     -9240.372736

 energy correction for charged system         0.000000 eV
 dipol+quadrupol energy correction           -0.000001 eV
 added-field ion interaction         -0.081678 eV  (added to PSCEN)


 Free energy of the ion-electron system (eV)
  ---------------------------------------------------
  alpha Z        PSCENC =      1425.46827110
  Ewald energy   TEWEN  =    164298.40388444
  -Hartree energ DENC   =   -210206.23524425
  -exchange      EXHF   =         0.00000000
  -V(xc)+E(xc)   XCENC  =       726.29441589
  PAW double counting   =     51735.95201809   -53326.70912699
  entropy T*S    EENTRO =         0.00000000
  eigenvalues    EBANDS =      3428.11148981
  atomic energy  EATOM  =     46253.10162290
  Solvation  Ediel_sol  =         0.00000000
  ---------------------------------------------------
  free energy    TOTEN  =      4334.38733098 eV

  energy without entropy =     4334.38733098  energy(sigma->0) =     4334.38733098


--------------------------------------------------------------------------------------------------------




--------------------------------------- Iteration      1(   2)  ---------------------------------------


     EDDAV:  cpu time   24.0473: real time   24.3765
 BZINTS: Fermi energy:  0.823673;546.000000 electrons
         Band energy:-970.571147;  BLOECHL correction: -0.005660
       DOS:  cpu time    0.0410: real time    0.0406
    --------------------------------------------
      LOOP:  cpu time   24.0883: real time   24.4171

 eigenvalue-minimisations  :  8160
 total energy-change (2. order) :-0.4398683E+04  (-0.4090996E+04)
 number of electron     545.9999927 magnetization     134.8113350
 augmentation part      545.9999927 magnetization     134.8113350

 DIPCOR: dipole corrections for dipol
 direction  3 min pos   234,
 dipolmoment           0.000000      0.000000      0.004830 electrons x Angstroem
 Tr[quadrupol]     -9240.372736

 energy correction for charged system         0.000000 eV
 dipol+quadrupol energy correction           -0.000001 eV
 added-field ion interaction         -0.081678 eV  (added to PSCEN)


 Free energy of the ion-electron system (eV)
  ---------------------------------------------------
  alpha Z        PSCENC =      1425.46827110
  Ewald energy   TEWEN  =    164298.40388444
  -Hartree energ DENC   =   -210206.23524425
  -exchange      EXHF   =         0.00000000
  -V(xc)+E(xc)   XCENC  =       726.29441589
  PAW double counting   =     51735.95201809   -53326.70912699
  entropy T*S    EENTRO =         0.00000000
  eigenvalues    EBANDS =      -970.57114683
  atomic energy  EATOM  =     46253.10162290
  Solvation  Ediel_sol  =         0.00000000
  ---------------------------------------------------
  free energy    TOTEN  =       -64.29530566 eV

  energy without entropy =      -64.29530566  energy(sigma->0) =      -64.29530566


--------------------------------------------------------------------------------------------------------




--------------------------------------- Iteration      1(   3)  ---------------------------------------


     EDDAV:  cpu time   25.1332: real time   25.4560
 BZINTS: Fermi energy: -0.226906;546.000000 electrons
         Band energy:***********;  BLOECHL correction: -0.020399
       DOS:  cpu time    0.0380: real time    0.0383
    --------------------------------------------
      LOOP:  cpu time   25.1712: real time   25.4943

 eigenvalue-minimisations  :  8529
 total energy-change (2. order) :-0.3735428E+03  (-0.3179522E+03)
 number of electron     545.9999927 magnetization     134.8113350
 augmentation part      545.9999927 magnetization     134.8113350

 DIPCOR: dipole corrections for dipol
 direction  3 min pos   234,
 dipolmoment           0.000000      0.000000      0.004830 electrons x Angstroem
 Tr[quadrupol]     -9240.372736

 energy correction for charged system         0.000000 eV
 dipol+quadrupol energy correction           -0.000001 eV
 added-field ion interaction         -0.081678 eV  (added to PSCEN)


 Free energy of the ion-electron system (eV)
  ---------------------------------------------------
  alpha Z        PSCENC =      1425.46827110
  Ewald energy   TEWEN  =    164298.40388444
  -Hartree energ DENC   =   -210206.23524425
  -exchange      EXHF   =         0.00000000
  -V(xc)+E(xc)   XCENC  =       726.29441589
  PAW double counting   =     51735.95201809   -53326.70912699
  entropy T*S    EENTRO =         0.00000000
  eigenvalues    EBANDS =     -1344.11397392
  atomic energy  EATOM  =     46253.10162290
  Solvation  Ediel_sol  =         0.00000000
  ---------------------------------------------------
  free energy    TOTEN  =      -437.83813275 eV

  energy without entropy =     -437.83813275  energy(sigma->0) =     -437.83813275


--------------------------------------------------------------------------------------------------------




--------------------------------------- Iteration      1(   4)  ---------------------------------------


     EDDAV:  cpu time   25.2742: real time   25.5814
 BZINTS: Fermi energy: -0.263373;546.000000 electrons
         Band energy:***********;  BLOECHL correction: -0.021966
       DOS:  cpu time    0.0380: real time    0.0384
    --------------------------------------------
      LOOP:  cpu time   25.3122: real time   25.6198

 eigenvalue-minimisations  :  8697
 total energy-change (2. order) :-0.1509214E+02  (-0.1471559E+02)
 number of electron     545.9999927 magnetization     134.8113350
 augmentation part      545.9999927 magnetization     134.8113350

 DIPCOR: dipole corrections for dipol
 direction  3 min pos   234,
 dipolmoment           0.000000      0.000000      0.004830 electrons x Angstroem
 Tr[quadrupol]     -9240.372736

 energy correction for charged system         0.000000 eV
 dipol+quadrupol energy correction           -0.000001 eV
 added-field ion interaction         -0.081678 eV  (added to PSCEN)


 Free energy of the ion-electron system (eV)
  ---------------------------------------------------
  alpha Z        PSCENC =      1425.46827110
  Ewald energy   TEWEN  =    164298.40388444
  -Hartree energ DENC   =   -210206.23524425
  -exchange      EXHF   =         0.00000000
  -V(xc)+E(xc)   XCENC  =       726.29441589
  PAW double counting   =     51735.95201809   -53326.70912699
  entropy T*S    EENTRO =         0.00000000
  eigenvalues    EBANDS =     -1359.20611594
  atomic energy  EATOM  =     46253.10162290
  Solvation  Ediel_sol  =         0.00000000
  ---------------------------------------------------
  free energy    TOTEN  =      -452.93027477 eV

  energy without entropy =     -452.93027477  energy(sigma->0) =     -452.93027477


--------------------------------------------------------------------------------------------------------




--------------------------------------- Iteration      1(   5)  ---------------------------------------


     EDDAV:  cpu time   26.4000: real time   26.8680
 BZINTS: Fermi energy: -0.264125;546.000000 electrons
         Band energy:***********;  BLOECHL correction: -0.021987
       DOS:  cpu time    0.0400: real time    0.0398
    CHARGE:  cpu time    0.6949: real time    0.6947
    MIXING:  cpu time    0.0050: real time    0.0046
    --------------------------------------------
      LOOP:  cpu time   27.1399: real time   27.6072

 eigenvalue-minimisations  :  9228
 total energy-change (2. order) :-0.2633184E+00  (-0.2629995E+00)
 number of electron     545.9999927 magnetization     134.8166664
 augmentation part      301.0324494 magnetization     109.2545766

 DIPCOR: dipole corrections for dipol
 direction  3 min pos   234,
 dipolmoment           0.000000      0.000000      0.004830 electrons x Angstroem
 Tr[quadrupol]     -9240.372736

 energy correction for charged system         0.000000 eV
 dipol+quadrupol energy correction           -0.000001 eV
 added-field ion interaction         -0.081678 eV  (added to PSCEN)


 Broyden mixing:
  rms(total) = 0.34306E-01    rms(broyden)= 0.34218E-01
  rms(prec ) = 0.34742E-01
  weight for this iteration     100.00

 Free energy of the ion-electron system (eV)
  ---------------------------------------------------
  alpha Z        PSCENC =      1425.46827110
  Ewald energy   TEWEN  =    164298.40388444
  -Hartree energ DENC   =   -210206.23524425
  -exchange      EXHF   =         0.00000000
  -V(xc)+E(xc)   XCENC  =       726.29441589
  PAW double counting   =     51735.95201809   -53326.70912699
  entropy T*S    EENTRO =         0.00000000
  eigenvalues    EBANDS =     -1359.46943438
  atomic energy  EATOM  =     46253.10162290
  Solvation  Ediel_sol  =         0.00000000
  ---------------------------------------------------
  free energy    TOTEN  =      -453.19359321 eV

  energy without entropy =     -453.19359321  energy(sigma->0) =     -453.19359321


--------------------------------------------------------------------------------------------------------




--------------------------------------- Iteration      1(   6)  ---------------------------------------


    POTLOK:  cpu time    0.2440: real time    0.2446
    SETDIJ:  cpu time    0.0180: real time    0.0183
    EDDIAG:  cpu time    3.5675: real time    3.6142
  RMM-DIIS:  cpu time   15.0297: real time   15.2065
    ORTHCH:  cpu time    0.6119: real time    0.6353
 BZINTS: Fermi energy: -0.258988;546.000000 electrons
         Band energy:***********;  BLOECHL correction: -0.022175
       DOS:  cpu time    0.0400: real time    0.0400
    CHARGE:  cpu time    0.7059: real time    0.7060
    MIXING:  cpu time    0.0050: real time    0.0046
    --------------------------------------------
      LOOP:  cpu time   20.2219: real time   20.4695

 eigenvalue-minimisations  :  8417
 total energy-change (2. order) :-0.1120588E+00  (-0.1420343E-01)
 number of electron     545.9999927 magnetization     134.8161406
 augmentation part      300.9455969 magnetization     109.2417252

 DIPCOR: dipole corrections for dipol
 direction  3 min pos   231,
 dipolmoment           0.000000      0.000000      0.006219 electrons x Angstroem
 Tr[quadrupol]     -9240.401011

 energy correction for charged system         0.000000 eV
 dipol+quadrupol energy correction           -0.000002 eV
 added-field ion interaction         -0.170211 eV  (added to PSCEN)


 Broyden mixing:
  rms(total) = 0.76216E-01    rms(broyden)= 0.76198E-01
  rms(prec ) = 0.86669E-01
  weight for this iteration     100.00

 eigenvalues of (default mixing * dielectric matrix)
  average eigenvalue GAMMA=   0.3111
  0.3111

 Free energy of the ion-electron system (eV)
  ---------------------------------------------------
  alpha Z        PSCENC =      1425.37973708
  Ewald energy   TEWEN  =    164298.40388444
  -Hartree energ DENC   =   -210207.97844212
  -exchange      EXHF   =         0.00000000
  -V(xc)+E(xc)   XCENC  =       726.44403072
  PAW double counting   =     51769.68836392   -53360.53877808
  entropy T*S    EENTRO =         0.00000000
  eigenvalues    EBANDS =     -1357.80607084
  atomic energy  EATOM  =     46253.10162290
  Solvation  Ediel_sol  =         0.00000000
  ---------------------------------------------------
  free energy    TOTEN  =      -453.30565198 eV

  energy without entropy =     -453.30565198  energy(sigma->0) =     -453.30565198


--------------------------------------------------------------------------------------------------------




--------------------------------------- Iteration      1(   7)  ---------------------------------------


    POTLOK:  cpu time    0.2420: real time    0.2426
    SETDIJ:  cpu time    0.0180: real time    0.0182
    EDDIAG:  cpu time    3.5455: real time    3.5892
  RMM-DIIS:  cpu time   20.3109: real time   20.4326
    ORTHCH:  cpu time    0.6559: real time    0.6563
 BZINTS: Fermi energy: -0.263795;546.000000 electrons
         Band energy:***********;  BLOECHL correction: -0.022431
       DOS:  cpu time    0.0420: real time    0.0418
    CHARGE:  cpu time    0.7199: real time    0.7211
    MIXING:  cpu time    0.0050: real time    0.0045
    --------------------------------------------
      LOOP:  cpu time   25.5391: real time   25.7063

 eigenvalue-minimisations  : 11425
 total energy-change (2. order) :-0.3456855E-02  (-0.3058558E-02)
 number of electron     545.9999927 magnetization     134.8170167
 augmentation part      300.9312302 magnetization     109.2402564

 DIPCOR: dipole corrections for dipol
 direction  3 min pos   233,
 dipolmoment           0.000000      0.000000      0.000141 electrons x Angstroem
 Tr[quadrupol]     -9240.346431

 energy correction for charged system         0.000000 eV
 dipol+quadrupol energy correction           -0.000000 eV
 added-field ion interaction         -0.002875 eV  (added to PSCEN)


 Broyden mixing:
  rms(total) = 0.63692E-01    rms(broyden)= 0.63686E-01
  rms(prec ) = 0.76175E-01
  weight for this iteration     100.00

 eigenvalues of (default mixing * dielectric matrix)
  average eigenvalue GAMMA=   0.2724
  0.4009  0.1439

 Free energy of the ion-electron system (eV)
  ---------------------------------------------------
  alpha Z        PSCENC =      1425.54707567
  Ewald energy   TEWEN  =    164298.40388444
  -Hartree energ DENC   =   -210206.32908870
  -exchange      EXHF   =         0.00000000
  -V(xc)+E(xc)   XCENC  =       726.43393623
  PAW double counting   =     51772.26557176   -53363.11151286
  entropy T*S    EENTRO =         0.00000000
  eigenvalues    EBANDS =     -1359.62059827
  atomic energy  EATOM  =     46253.10162290
  Solvation  Ediel_sol  =         0.00000000
  ---------------------------------------------------
  free energy    TOTEN  =      -453.30910883 eV

  energy without entropy =     -453.30910883  energy(sigma->0) =     -453.30910883


--------------------------------------------------------------------------------------------------------




--------------------------------------- Iteration      1(   8)  ---------------------------------------


    POTLOK:  cpu time    0.2430: real time    0.2431
    SETDIJ:  cpu time    0.0180: real time    0.0182
    EDDIAG:  cpu time    3.5895: real time    3.5915
  RMM-DIIS:  cpu time   16.3085: real time   16.3934
    ORTHCH:  cpu time    0.6199: real time    0.6234
 BZINTS: Fermi energy: -0.263169;546.000000 electrons
         Band energy:***********;  BLOECHL correction: -0.022420
       DOS:  cpu time    0.0430: real time    0.0425
    CHARGE:  cpu time    0.7509: real time    0.7525
    MIXING:  cpu time    0.0060: real time    0.0046
    --------------------------------------------
      LOOP:  cpu time   21.5787: real time   21.6692

 eigenvalue-minimisations  :  9043
 total energy-change (2. order) :-0.2789622E-02  (-0.4217956E-03)
 number of electron     545.9999927 magnetization     134.8171987
 augmentation part      300.9508991 magnetization     109.2406623

 DIPCOR: dipole corrections for dipol
 direction  3 min pos   236,
 dipolmoment           0.000000      0.000000      0.017121 electrons x Angstroem
 Tr[quadrupol]     -9240.365087

 energy correction for charged system         0.000000 eV
 dipol+quadrupol energy correction           -0.000014 eV
 added-field ion interaction         -0.170113 eV  (added to PSCEN)


 Broyden mixing:
  rms(total) = 0.75272E-01    rms(broyden)= 0.75266E-01
  rms(prec ) = 0.11078E+00
  weight for this iteration     100.00

 eigenvalues of (default mixing * dielectric matrix)
  average eigenvalue GAMMA=   0.2084
  0.3799  0.1774  0.0680

 Free energy of the ion-electron system (eV)
  ---------------------------------------------------
  alpha Z        PSCENC =      1425.37982274
  Ewald energy   TEWEN  =    164298.40388444
  -Hartree energ DENC   =   -210206.52383572
  -exchange      EXHF   =         0.00000000
  -V(xc)+E(xc)   XCENC  =       726.38490902
  PAW double counting   =     51771.49968202   -53362.20537559
  entropy T*S    EENTRO =         0.00000000
  eigenvalues    EBANDS =     -1359.35260826
  atomic energy  EATOM  =     46253.10162290
  Solvation  Ediel_sol  =         0.00000000
  ---------------------------------------------------
  free energy    TOTEN  =      -453.31189845 eV

  energy without entropy =     -453.31189845  energy(sigma->0) =     -453.31189845


--------------------------------------------------------------------------------------------------------




--------------------------------------- Iteration      1(   9)  ---------------------------------------


    POTLOK:  cpu time    0.2590: real time    0.2595
    SETDIJ:  cpu time    0.0180: real time    0.0182
    EDDIAG:  cpu time    3.5475: real time    3.5505
  RMM-DIIS:  cpu time   15.8596: real time   15.8888
    ORTHCH:  cpu time    0.6639: real time    0.6636
 BZINTS: Fermi energy: -0.263038;546.000000 electrons
         Band energy:***********;  BLOECHL correction: -0.022263
       DOS:  cpu time    0.0400: real time    0.0399
    CHARGE:  cpu time    0.7009: real time    0.7038
    MIXING:  cpu time    0.0070: real time    0.0063
    --------------------------------------------
      LOOP:  cpu time   21.0958: real time   21.1306

 eigenvalue-minimisations  :  8714
 total energy-change (2. order) : 0.3459225E-02  (-0.1426302E-03)
 number of electron     545.9999927 magnetization     134.8171904
 augmentation part      300.9514070 magnetization     109.2410301

 DIPCOR: dipole corrections for dipol
 direction  3 min pos   238,
 dipolmoment           0.000000      0.000000      0.002668 electrons x Angstroem
 Tr[quadrupol]     -9240.376825

 energy correction for charged system         0.000000 eV
 dipol+quadrupol energy correction           -0.000000 eV
 added-field ion interaction         -0.007902 eV  (added to PSCEN)


 Broyden mixing:
  rms(total) = 0.21725E-01    rms(broyden)= 0.21716E-01
  rms(prec ) = 0.26889E-01
  weight for this iteration     100.00

 eigenvalues of (default mixing * dielectric matrix)
  average eigenvalue GAMMA=   0.2619
  0.4297  0.4297  0.1305  0.0577

 Free energy of the ion-electron system (eV)
  ---------------------------------------------------
  alpha Z        PSCENC =      1425.54204807
  Ewald energy   TEWEN  =    164298.40388444
  -Hartree energ DENC   =   -210206.57829697
  -exchange      EXHF   =         0.00000000
  -V(xc)+E(xc)   XCENC  =       726.37231571
  PAW double counting   =     51770.59174047   -53361.26180349
  entropy T*S    EENTRO =         0.00000000
  eigenvalues    EBANDS =     -1359.47995036
  atomic energy  EATOM  =     46253.10162290
  Solvation  Ediel_sol  =         0.00000000
  ---------------------------------------------------
  free energy    TOTEN  =      -453.30843923 eV

  energy without entropy =     -453.30843923  energy(sigma->0) =     -453.30843923


--------------------------------------------------------------------------------------------------------




--------------------------------------- Iteration      1(  10)  ---------------------------------------


    POTLOK:  cpu time    0.2470: real time    0.2471
    SETDIJ:  cpu time    0.0180: real time    0.0181
    EDDIAG:  cpu time    3.5565: real time    3.5633
  RMM-DIIS:  cpu time   15.3977: real time   15.4685
    ORTHCH:  cpu time    0.6229: real time    0.6241
 BZINTS: Fermi energy: -0.263649;546.000000 electrons
         Band energy:***********;  BLOECHL correction: -0.022276
       DOS:  cpu time    0.0410: real time    0.0416
    CHARGE:  cpu time    0.7029: real time    0.7050
    MIXING:  cpu time    0.0060: real time    0.0053
    --------------------------------------------
      LOOP:  cpu time   20.5919: real time   20.6728

 eigenvalue-minimisations  :  8478
 total energy-change (2. order) :-0.2156607E-03  (-0.5714920E-04)
 number of electron     545.9999927 magnetization     134.8172592
 augmentation part      300.9600062 magnetization     109.2342464

 DIPCOR: dipole corrections for dipol
 direction  3 min pos   238,
 dipolmoment           0.000000      0.000000      0.005242 electrons x Angstroem
 Tr[quadrupol]     -9240.369634

 energy correction for charged system         0.000000 eV
 dipol+quadrupol energy correction           -0.000001 eV
 added-field ion interaction         -0.015525 eV  (added to PSCEN)


 Broyden mixing:
  rms(total) = 0.22834E-01    rms(broyden)= 0.22833E-01
  rms(prec ) = 0.25161E-01
  weight for this iteration     100.00

 eigenvalues of (default mixing * dielectric matrix)
  average eigenvalue GAMMA=   0.2867
  0.5476  0.5476  0.1532  0.1280  0.0569

 Free energy of the ion-electron system (eV)
  ---------------------------------------------------
  alpha Z        PSCENC =      1425.53442343
  Ewald energy   TEWEN  =    164298.40388444
  -Hartree energ DENC   =   -210206.25137723
  -exchange      EXHF   =         0.00000000
  -V(xc)+E(xc)   XCENC  =       726.35291375
  PAW double counting   =     51765.96553668   -53356.60796513
  entropy T*S    EENTRO =         0.00000000
  eigenvalues    EBANDS =     -1359.80769373
  atomic energy  EATOM  =     46253.10162290
  Solvation  Ediel_sol  =         0.00000000
  ---------------------------------------------------
  free energy    TOTEN  =      -453.30865489 eV

  energy without entropy =     -453.30865489  energy(sigma->0) =     -453.30865489


--------------------------------------------------------------------------------------------------------




--------------------------------------- Iteration      1(  11)  ---------------------------------------


    POTLOK:  cpu time    0.2410: real time    0.2430
    SETDIJ:  cpu time    0.0190: real time    0.0181
    EDDIAG:  cpu time    3.6404: real time    3.6506
  RMM-DIIS:  cpu time   15.6326: real time   15.6633
    ORTHCH:  cpu time    0.6199: real time    0.6194
 BZINTS: Fermi energy: -0.263590;546.000000 electrons
         Band energy:***********;  BLOECHL correction: -0.022244
       DOS:  cpu time    0.0390: real time    0.0388
    CHARGE:  cpu time    0.7369: real time    0.7377
    MIXING:  cpu time    0.0050: real time    0.0049
    --------------------------------------------
      LOOP:  cpu time   20.9338: real time   20.9757

 eigenvalue-minimisations  :  8614
 total energy-change (2. order) : 0.1470821E-03  (-0.2315666E-04)
 number of electron     545.9999927 magnetization     134.8172153
 augmentation part      300.9566512 magnetization     109.2361467

 DIPCOR: dipole corrections for dipol
 direction  3 min pos   238,
 dipolmoment           0.000000      0.000000      0.004747 electrons x Angstroem
 Tr[quadrupol]     -9240.372718

 energy correction for charged system         0.000000 eV
 dipol+quadrupol energy correction           -0.000001 eV
 added-field ion interaction         -0.014060 eV  (added to PSCEN)


 Broyden mixing:
  rms(total) = 0.98282E-02    rms(broyden)= 0.98276E-02
  rms(prec ) = 0.10139E-01
  weight for this iteration     100.00

 eigenvalues of (default mixing * dielectric matrix)
  average eigenvalue GAMMA=   0.2990
  0.5944  0.5944  0.2707  0.0569  0.1524  0.1251

 Free energy of the ion-electron system (eV)
  ---------------------------------------------------
  alpha Z        PSCENC =      1425.53588962
  Ewald energy   TEWEN  =    164298.40388444
  -Hartree energ DENC   =   -210206.35431520
  -exchange      EXHF   =         0.00000000
  -V(xc)+E(xc)   XCENC  =       726.34414885
  PAW double counting   =     51761.32097454   -53351.97289202
  entropy T*S    EENTRO =         0.00000000
  eigenvalues    EBANDS =     -1359.68782094
  atomic energy  EATOM  =     46253.10162290
  Solvation  Ediel_sol  =         0.00000000
  ---------------------------------------------------
  free energy    TOTEN  =      -453.30850781 eV

  energy without entropy =     -453.30850781  energy(sigma->0) =     -453.30850781


--------------------------------------------------------------------------------------------------------




--------------------------------------- Iteration      1(  12)  ---------------------------------------


    POTLOK:  cpu time    0.2450: real time    0.2446
    SETDIJ:  cpu time    0.0180: real time    0.0181
    EDDIAG:  cpu time    3.5995: real time    3.6030
  RMM-DIIS:  cpu time   17.0854: real time   17.1046
    ORTHCH:  cpu time    0.6509: real time    0.6517
 BZINTS: Fermi energy: -0.263463;546.000000 electrons
         Band energy:***********;  BLOECHL correction: -0.022247
       DOS:  cpu time    0.0380: real time    0.0377
    CHARGE:  cpu time    0.7729: real time    0.7729
    MIXING:  cpu time    0.0060: real time    0.0053
    --------------------------------------------
      LOOP:  cpu time   22.4156: real time   22.4378

 eigenvalue-minimisations  :  9453
 total energy-change (2. order) :-0.2181403E-04  (-0.6768851E-05)
 number of electron     545.9999927 magnetization     134.8170540
 augmentation part      300.9548266 magnetization     109.2373477

 DIPCOR: dipole corrections for dipol
 direction  3 min pos   236,
 dipolmoment           0.000000      0.000000      0.004728 electrons x Angstroem
 Tr[quadrupol]     -9240.372234

 energy correction for charged system         0.000000 eV
 dipol+quadrupol energy correction           -0.000001 eV
 added-field ion interaction         -0.046973 eV  (added to PSCEN)


 Broyden mixing:
  rms(total) = 0.89324E-02    rms(broyden)= 0.89322E-02
  rms(prec ) = 0.92079E-02
  weight for this iteration     100.00

 eigenvalues of (default mixing * dielectric matrix)
  average eigenvalue GAMMA=   0.3317
  0.7282  0.7282  0.3884  0.0569  0.1656  0.1271  0.1271

 Free energy of the ion-electron system (eV)
  ---------------------------------------------------
  alpha Z        PSCENC =      1425.50297572
  Ewald energy   TEWEN  =    164298.40388444
  -Hartree energ DENC   =   -210206.40885281
  -exchange      EXHF   =         0.00000000
  -V(xc)+E(xc)   XCENC  =       726.34166567
  PAW double counting   =     51759.35354978   -53350.01066705
  entropy T*S    EENTRO =         0.00000000
  eigenvalues    EBANDS =     -1359.59270828
  atomic energy  EATOM  =     46253.10162290
  Solvation  Ediel_sol  =         0.00000000
  ---------------------------------------------------
  free energy    TOTEN  =      -453.30852962 eV

  energy without entropy =     -453.30852962  energy(sigma->0) =     -453.30852962


--------------------------------------------------------------------------------------------------------




--------------------------------------- Iteration      1(  13)  ---------------------------------------


    POTLOK:  cpu time    0.2430: real time    0.2445
    SETDIJ:  cpu time    0.0190: real time    0.0183
    EDDIAG:  cpu time    3.6184: real time    3.6225
  RMM-DIIS:  cpu time   16.4425: real time   16.5028
    ORTHCH:  cpu time    0.6709: real time    0.6715
 BZINTS: Fermi energy: -0.263524;546.000000 electrons
         Band energy:***********;  BLOECHL correction: -0.022244
       DOS:  cpu time    0.0400: real time    0.0398
    CHARGE:  cpu time    0.7169: real time    0.7170
    MIXING:  cpu time    0.0060: real time    0.0053
    --------------------------------------------
      LOOP:  cpu time   21.7567: real time   21.8216

 eigenvalue-minimisations  :  9074
 total energy-change (2. order) :-0.6320798E-04  (-0.2171917E-05)
 number of electron     545.9999927 magnetization     134.8169902
 augmentation part      300.9578616 magnetization     109.2349052

 DIPCOR: dipole corrections for dipol
 direction  3 min pos   235,
 dipolmoment           0.000000      0.000000      0.004619 electrons x Angstroem
 Tr[quadrupol]     -9240.371408

 energy correction for charged system         0.000000 eV
 dipol+quadrupol energy correction           -0.000001 eV
 added-field ion interaction         -0.062001 eV  (added to PSCEN)


 Broyden mixing:
  rms(total) = 0.70594E-02    rms(broyden)= 0.70593E-02
  rms(prec ) = 0.71885E-02
  weight for this iteration     100.00

 eigenvalues of (default mixing * dielectric matrix)
  average eigenvalue GAMMA=   0.3210
  0.7636  0.7636  0.3086  0.2739  0.0569  0.1412  0.1412  0.1190

 Free energy of the ion-electron system (eV)
  ---------------------------------------------------
  alpha Z        PSCENC =      1425.48794819
  Ewald energy   TEWEN  =    164298.40388444
  -Hartree energ DENC   =   -210206.34720941
  -exchange      EXHF   =         0.00000000
  -V(xc)+E(xc)   XCENC  =       726.33184831
  PAW double counting   =     51755.23669135   -53345.88351551
  entropy T*S    EENTRO =         0.00000000
  eigenvalues    EBANDS =     -1359.63986311
  atomic energy  EATOM  =     46253.10162290
  Solvation  Ediel_sol  =         0.00000000
  ---------------------------------------------------
  free energy    TOTEN  =      -453.30859283 eV

  energy without entropy =     -453.30859283  energy(sigma->0) =     -453.30859283


--------------------------------------------------------------------------------------------------------




--------------------------------------- Iteration      1(  14)  ---------------------------------------


    POTLOK:  cpu time    0.2640: real time    0.2646
    SETDIJ:  cpu time    0.0190: real time    0.0184
    EDDIAG:  cpu time    3.5465: real time    3.5552
  RMM-DIIS:  cpu time   14.4878: real time   14.5024
    ORTHCH:  cpu time    0.6379: real time    0.6389
 BZINTS: Fermi energy: -0.263491;546.000000 electrons
         Band energy:***********;  BLOECHL correction: -0.022234
       DOS:  cpu time    0.0400: real time    0.0400
    CHARGE:  cpu time    0.7359: real time    0.7358
    MIXING:  cpu time    0.0070: real time    0.0064
    --------------------------------------------
      LOOP:  cpu time   19.7380: real time   19.7617

 eigenvalue-minimisations  :  7903
 total energy-change (2. order) :-0.1453033E-04  (-0.6261704E-06)
 number of electron     545.9999927 magnetization     134.8166989
 augmentation part      300.9573783 magnetization     109.2352619

 DIPCOR: dipole corrections for dipol
 direction  3 min pos   234,
 dipolmoment           0.000000      0.000000      0.004665 electrons x Angstroem
 Tr[quadrupol]     -9240.371482

 energy correction for charged system         0.000000 eV
 dipol+quadrupol energy correction           -0.000001 eV
 added-field ion interaction         -0.078892 eV  (added to PSCEN)


 Broyden mixing:
  rms(total) = 0.64140E-02    rms(broyden)= 0.64140E-02
  rms(prec ) = 0.65072E-02
  weight for this iteration     100.00

 eigenvalues of (default mixing * dielectric matrix)
  average eigenvalue GAMMA=   0.3810
  0.9521  0.9521  0.4560  0.4560  0.0569  0.1553  0.1553  0.1228  0.1228

 Free energy of the ion-electron system (eV)
  ---------------------------------------------------
  alpha Z        PSCENC =      1425.47105749
  Ewald energy   TEWEN  =    164298.40388444
  -Hartree energ DENC   =   -210206.35998629
  -exchange      EXHF   =         0.00000000
  -V(xc)+E(xc)   XCENC  =       726.32982483
  PAW double counting   =     51753.80407414   -53344.45116294
  entropy T*S    EENTRO =         0.00000000
  eigenvalues    EBANDS =     -1359.60792193
  atomic energy  EATOM  =     46253.10162290
  Solvation  Ediel_sol  =         0.00000000
  ---------------------------------------------------
  free energy    TOTEN  =      -453.30860736 eV

  energy without entropy =     -453.30860736  energy(sigma->0) =     -453.30860736


--------------------------------------------------------------------------------------------------------




--------------------------------------- Iteration      1(  15)  ---------------------------------------


    POTLOK:  cpu time    0.2510: real time    0.2520
    SETDIJ:  cpu time    0.0190: real time    0.0185
    EDDIAG:  cpu time    3.5725: real time    3.5756
  RMM-DIIS:  cpu time   13.8259: real time   13.8401
    ORTHCH:  cpu time    0.6209: real time    0.6217
 BZINTS: Fermi energy: -0.263565;546.000000 electrons
         Band energy:***********;  BLOECHL correction: -0.022230
       DOS:  cpu time    0.0400: real time    0.0395
    CHARGE:  cpu time    0.7349: real time    0.7351
    MIXING:  cpu time    0.0100: real time    0.0096
    --------------------------------------------
      LOOP:  cpu time   19.0741: real time   19.0920

 eigenvalue-minimisations  :  7496
 total energy-change (2. order) :-0.7575094E-04  (-0.6327002E-06)
 number of electron     545.9999927 magnetization     134.8165650
 augmentation part      300.9591863 magnetization     109.2341367

 DIPCOR: dipole corrections for dipol
 direction  3 min pos   234,
 dipolmoment           0.000000      0.000000      0.004698 electrons x Angstroem
 Tr[quadrupol]     -9240.371729

 energy correction for charged system         0.000000 eV
 dipol+quadrupol energy correction           -0.000001 eV
 added-field ion interaction         -0.079440 eV  (added to PSCEN)


 Broyden mixing:
  rms(total) = 0.51158E-02    rms(broyden)= 0.51158E-02
  rms(prec ) = 0.52233E-02
  weight for this iteration     100.00

 eigenvalues of (default mixing * dielectric matrix)
  average eigenvalue GAMMA=   0.3752
  1.0152  1.0152  0.4658  0.4658  0.0569  0.1765  0.1765  0.1314  0.1314  0.1174

 Free energy of the ion-electron system (eV)
  ---------------------------------------------------
  alpha Z        PSCENC =      1425.47050871
  Ewald energy   TEWEN  =    164298.40388444
  -Hartree energ DENC   =   -210206.32359358
  -exchange      EXHF   =         0.00000000
  -V(xc)+E(xc)   XCENC  =       726.32192216
  PAW double counting   =     51749.39480980   -53340.03590411
  entropy T*S    EENTRO =         0.00000000
  eigenvalues    EBANDS =     -1359.64193343
  atomic energy  EATOM  =     46253.10162290
  Solvation  Ediel_sol  =         0.00000000
  ---------------------------------------------------
  free energy    TOTEN  =      -453.30868311 eV

  energy without entropy =     -453.30868311  energy(sigma->0) =     -453.30868311


--------------------------------------------------------------------------------------------------------




--------------------------------------- Iteration      1(  16)  ---------------------------------------


    POTLOK:  cpu time    0.2650: real time    0.2657
    SETDIJ:  cpu time    0.0190: real time    0.0185
    EDDIAG:  cpu time    3.5245: real time    3.5263
  RMM-DIIS:  cpu time   10.9143: real time   10.9843
    ORTHCH:  cpu time    0.6249: real time    0.6255
 BZINTS: Fermi energy: -0.263581;546.000000 electrons
         Band energy:***********;  BLOECHL correction: -0.022228
       DOS:  cpu time    0.0420: real time    0.0417
    CHARGE:  cpu time    0.6949: real time    0.6948
    MIXING:  cpu time    0.0060: real time    0.0057
    --------------------------------------------
      LOOP:  cpu time   16.0906: real time   16.1625

 eigenvalue-minimisations  :  5812
 total energy-change (2. order) :-0.2546420E-04  (-0.2181517E-06)
 number of electron     545.9999927 magnetization     134.8161806
 augmentation part      300.9594673 magnetization     109.2335992

 DIPCOR: dipole corrections for dipol
 direction  3 min pos   234,
 dipolmoment           0.000000      0.000000      0.004710 electrons x Angstroem
 Tr[quadrupol]     -9240.371913

 energy correction for charged system         0.000000 eV
 dipol+quadrupol energy correction           -0.000001 eV
 added-field ion interaction         -0.079639 eV  (added to PSCEN)


 Broyden mixing:
  rms(total) = 0.44948E-02    rms(broyden)= 0.44947E-02
  rms(prec ) = 0.45802E-02
  weight for this iteration     100.00

 eigenvalues of (default mixing * dielectric matrix)
  average eigenvalue GAMMA=   0.4325
  1.2240  1.2240  0.5705  0.5705  0.4144  0.0569  0.1728  0.1411  0.1411  0.1209
  0.1209

 Free energy of the ion-electron system (eV)
  ---------------------------------------------------
  alpha Z        PSCENC =      1425.47030978
  Ewald energy   TEWEN  =    164298.40388444
  -Hartree energ DENC   =   -210206.31913321
  -exchange      EXHF   =         0.00000000
  -V(xc)+E(xc)   XCENC  =       726.31932238
  PAW double counting   =     51747.75490147   -53338.39483682
  entropy T*S    EENTRO =         0.00000000
  eigenvalues    EBANDS =     -1359.64477952
  atomic energy  EATOM  =     46253.10162290
  Solvation  Ediel_sol  =         0.00000000
  ---------------------------------------------------
  free energy    TOTEN  =      -453.30870858 eV

  energy without entropy =     -453.30870858  energy(sigma->0) =     -453.30870858


--------------------------------------------------------------------------------------------------------




--------------------------------------- Iteration      1(  17)  ---------------------------------------


    POTLOK:  cpu time    0.2840: real time    0.2848
    SETDIJ:  cpu time    0.0190: real time    0.0184
    EDDIAG:  cpu time    3.5665: real time    3.5692
  RMM-DIIS:  cpu time   12.5631: real time   12.5865
    ORTHCH:  cpu time    0.6289: real time    0.6292
 BZINTS: Fermi energy: -0.263623;546.000000 electrons
         Band energy:***********;  BLOECHL correction: -0.022223
       DOS:  cpu time    0.0410: real time    0.0407
    CHARGE:  cpu time    0.7159: real time    0.7163
    MIXING:  cpu time    0.0070: real time    0.0063
    --------------------------------------------
      LOOP:  cpu time   17.8253: real time   17.8514

 eigenvalue-minimisations  :  6694
 total energy-change (2. order) :-0.5844847E-04  (-0.3773394E-06)
 number of electron     545.9999927 magnetization     134.8159613
 augmentation part      300.9603374 magnetization     109.2329399

 DIPCOR: dipole corrections for dipol
 direction  3 min pos   234,
 dipolmoment           0.000000      0.000000      0.004666 electrons x Angstroem
 Tr[quadrupol]     -9240.372265

 energy correction for charged system         0.000000 eV
 dipol+quadrupol energy correction           -0.000001 eV
 added-field ion interaction         -0.078894 eV  (added to PSCEN)


 Broyden mixing:
  rms(total) = 0.34610E-02    rms(broyden)= 0.34609E-02
  rms(prec ) = 0.35405E-02
  weight for this iteration     100.00

 eigenvalues of (default mixing * dielectric matrix)
  average eigenvalue GAMMA=   0.4332
  1.3237  1.3237  0.6041  0.6041  0.4169  0.0569  0.1906  0.1541  0.1541  0.1171
  0.1267  0.1267

 Free energy of the ion-electron system (eV)
  ---------------------------------------------------
  alpha Z        PSCENC =      1425.47105541
  Ewald energy   TEWEN  =    164298.40388444
  -Hartree energ DENC   =   -210206.30261125
  -exchange      EXHF   =         0.00000000
  -V(xc)+E(xc)   XCENC  =       726.31335449
  PAW double counting   =     51744.47568050   -53335.11202675
  entropy T*S    EENTRO =         0.00000000
  eigenvalues    EBANDS =     -1359.65972677
  atomic energy  EATOM  =     46253.10162290
  Solvation  Ediel_sol  =         0.00000000
  ---------------------------------------------------
  free energy    TOTEN  =      -453.30876702 eV

  energy without entropy =     -453.30876702  energy(sigma->0) =     -453.30876702


--------------------------------------------------------------------------------------------------------




--------------------------------------- Iteration      1(  18)  ---------------------------------------


    POTLOK:  cpu time    0.2450: real time    0.2457
    SETDIJ:  cpu time    0.0190: real time    0.0185
    EDDIAG:  cpu time    3.5895: real time    3.5924
[...]
   -.369E+02 0.432E+01 0.626E+03   0.369E+02 -.474E+01 -.625E+03   0.147E+00 -.728E-01 -.722E+00   -.387E-03 0.475E-03 0.100E-02
   -.921E+02 0.112E+02 -.666E+03   0.926E+02 -.113E+02 0.665E+03   -.482E+00 0.943E-01 0.917E+00   -.231E-04 0.231E-04 -.149E-02
   0.348E+02 -.170E+02 0.639E+03   -.352E+02 0.165E+02 -.639E+03   -.227E+00 -.867E+00 -.208E+00   0.234E-03 0.978E-03 0.127E-03
   -.880E+01 -.188E+02 -.714E+03   0.880E+01 0.189E+02 0.714E+03   -.118E-01 -.708E-01 0.242E-01   -.759E-03 0.404E-03 -.780E-03
   -.231E+01 -.190E+02 0.202E+04   0.250E+01 0.188E+02 -.202E+04   -.949E+00 0.726E+00 -.240E+01   -.149E-03 0.541E-03 0.832E-03
   -.727E+02 0.321E+02 -.203E+04   0.732E+02 -.324E+02 0.202E+04   -.532E+00 0.258E+00 0.293E+01   0.442E-03 -.248E-03 -.138E-02
   0.896E+02 -.626E+02 -.678E+03   -.902E+02 0.628E+02 0.677E+03   0.584E+00 -.221E+00 0.368E+00   -.488E-03 0.101E-02 -.179E-02
   0.104E+02 -.291E+02 0.205E+04   -.108E+02 0.290E+02 -.205E+04   0.853E+00 0.329E-01 -.194E+01   0.549E-03 0.895E-03 0.602E-03
   0.387E+02 -.212E+02 -.200E+04   -.392E+02 0.208E+02 0.200E+04   0.551E+00 0.395E+00 0.235E+01   -.167E-02 0.732E-03 -.741E-03
   -.976E+01 -.483E+01 0.640E+03   0.100E+02 0.552E+01 -.639E+03   0.582E+00 0.262E+00 -.174E+00   0.246E-03 -.453E-04 0.717E-04
   0.367E+02 -.108E+02 0.633E+03   -.369E+02 0.109E+02 -.633E+03   -.241E+00 0.660E+00 -.732E+00   -.483E-03 -.836E-03 0.669E-03
   0.539E+02 -.523E+02 -.692E+03   -.539E+02 0.527E+02 0.692E+03   0.465E-01 -.440E+00 0.197E+00   0.312E-03 0.583E-03 -.202E-02
   -.941E+01 0.209E+02 0.641E+03   0.954E+01 -.207E+02 -.640E+03   -.383E+00 -.215E-01 -.686E+00   -.283E-03 -.100E-02 0.108E-02
   0.252E+02 0.404E+01 -.651E+03   -.255E+02 -.421E+01 0.650E+03   0.379E+00 0.154E+00 0.793E+00   -.282E-03 -.872E-03 -.235E-02
   0.112E+02 -.177E+02 0.200E+04   -.113E+02 0.178E+02 -.199E+04   0.856E+00 -.547E+00 -.285E+01   -.816E-03 -.829E-04 0.153E-02
   0.645E+02 -.656E+02 -.202E+04   -.649E+02 0.661E+02 0.202E+04   0.401E+00 -.508E+00 0.260E+01   -.122E-03 0.265E-03 -.175E-02
   -.229E+02 0.351E+02 0.685E+03   0.227E+02 -.348E+02 -.684E+03   0.171E+00 0.200E+00 0.383E+00   0.565E-03 -.429E-03 0.280E-03
   -.514E+02 0.707E+02 -.675E+03   0.515E+02 -.709E+02 0.675E+03   -.136E+00 0.198E+00 0.448E+00   -.160E-03 -.986E-03 -.181E-02
   -.242E+02 0.363E+02 -.711E+03   0.244E+02 -.364E+02 0.711E+03   -.195E+00 0.126E+00 0.227E+00   0.696E-04 0.129E-04 -.137E-02
   -.626E+01 0.834E+01 0.201E+04   0.653E+01 -.850E+01 -.200E+04   -.644E+00 -.126E+00 -.272E+01   0.659E-03 0.681E-03 0.901E-03
   -.487E+02 0.169E+02 -.203E+04   0.493E+02 -.167E+02 0.203E+04   -.544E+00 -.151E+00 0.306E+01   0.220E-03 -.576E-03 -.131E-02
   0.263E+02 -.130E+02 0.200E+04   -.264E+02 0.131E+02 -.200E+04   0.113E-01 -.525E+00 -.202E+01   0.286E-03 0.572E-03 0.125E-02
   0.378E+02 -.298E+02 -.203E+04   -.379E+02 0.304E+02 0.202E+04   0.387E-01 -.627E+00 0.285E+01   -.690E-03 0.876E-03 -.822E-03
   -.381E+02 0.310E+02 -.694E+03   0.381E+02 -.313E+02 0.694E+03   0.552E-02 0.241E+00 0.126E-01   0.263E-03 -.199E-03 -.132E-02
   0.771E+02 -.132E+02 -.675E+03   -.774E+02 0.134E+02 0.674E+03   0.354E+00 -.215E+00 0.528E+00   -.736E-03 -.253E-03 -.183E-02
   0.136E+02 -.740E+01 0.203E+04   -.140E+02 0.745E+01 -.202E+04   0.498E+00 0.355E+00 -.234E+01   -.643E-03 -.100E-02 0.123E-02
   0.274E+02 -.152E+02 -.200E+04   -.280E+02 0.151E+02 0.200E+04   0.596E+00 0.486E-01 0.254E+01   -.646E-03 0.207E-03 -.114E-02
   -.184E+02 0.157E+02 0.200E+04   0.186E+02 -.157E+02 -.200E+04   -.510E+00 0.225E-01 -.270E+01   0.101E-02 -.423E-03 0.666E-03
   -.466E+02 0.295E+02 -.205E+04   0.470E+02 -.297E+02 0.205E+04   -.403E+00 0.221E+00 0.249E+01   0.700E-03 -.125E-02 -.131E-02
   -.105E+01 0.546E+01 0.200E+04   0.936E+00 -.541E+01 -.200E+04   -.213E+00 0.537E+00 -.232E+01   0.333E-03 -.690E-03 0.859E-03
   -.492E+02 0.477E+02 -.201E+04   0.496E+02 -.482E+02 0.201E+04   -.383E+00 0.486E+00 0.197E+01   0.903E-03 -.766E-03 -.106E-02
   0.144E+02 0.337E+02 0.835E+03   -.143E+02 -.339E+02 -.834E+03   0.524E-01 0.303E+00 -.461E+00   -.356E-03 -.114E-02 0.102E-02
   -.311E+02 0.371E+00 0.833E+03   0.311E+02 -.382E+00 -.833E+03   -.323E+00 0.117E+00 -.691E+00   0.646E-03 0.902E-03 0.489E-03
   0.215E+02 -.437E+02 0.825E+03   -.214E+02 0.439E+02 -.824E+03   0.261E+00 -.231E+00 -.414E+00   -.320E-03 0.435E-04 0.117E-02
   0.578E+02 -.355E+02 0.840E+03   -.579E+02 0.356E+02 -.839E+03   0.941E-01 0.170E+00 -.648E+00   0.556E-03 0.596E-03 -.704E-04
   -.256E+02 0.656E+02 0.254E+04   0.257E+02 -.660E+02 -.253E+04   0.104E+00 0.862E+00 -.123E+01   0.200E-03 -.387E-04 0.173E-02
   -.234E+02 0.634E+02 -.254E+04   0.233E+02 -.638E+02 0.253E+04   0.897E-03 0.361E+00 0.917E+00   0.173E-02 -.608E-03 -.158E-02
   0.804E+01 -.799E+02 -.755E+03   -.810E+01 0.801E+02 0.755E+03   0.627E-01 -.255E+00 0.357E+00   0.162E-02 0.104E-02 -.304E-02
   -.443E+02 -.121E+02 0.252E+04   0.448E+02 0.121E+02 -.252E+04   -.624E+00 -.553E-01 -.164E+01   -.844E-03 0.533E-03 0.209E-02
   -.658E+02 0.117E+02 -.251E+04   0.661E+02 -.119E+02 0.251E+04   -.325E+00 0.153E+00 0.659E+00   0.176E-02 0.294E-03 -.244E-02
   0.376E+02 -.403E+02 0.255E+04   -.379E+02 0.405E+02 -.255E+04   0.556E+00 -.343E+00 -.773E+00   0.315E-03 0.938E-03 0.182E-02
   0.101E+03 -.448E+02 -.249E+04   -.102E+03 0.449E+02 0.249E+04   0.464E+00 -.526E-01 0.310E+00   0.127E-03 0.140E-02 -.155E-02
   -.407E+02 0.578E+01 0.250E+04   0.410E+02 -.581E+01 -.250E+04   -.435E+00 -.107E+00 -.151E+01   -.135E-03 -.126E-03 0.181E-02
   -.614E+02 0.317E+01 -.253E+04   0.617E+02 -.302E+01 0.253E+04   -.294E+00 -.122E+00 0.134E+01   0.865E-03 -.104E-02 -.258E-02
   0.434E+02 0.535E+01 -.831E+03   -.434E+02 -.528E+01 0.830E+03   0.199E-01 -.667E-01 0.696E+00   -.973E-03 -.129E-02 -.278E-02
   0.111E+02 -.152E+02 0.250E+04   -.112E+02 0.156E+02 -.250E+04   0.342E+00 -.550E+00 -.105E+01   -.757E-03 -.885E-03 0.182E-02
   0.748E+02 -.413E+02 -.252E+04   -.751E+02 0.416E+02 0.252E+04   0.266E+00 -.232E+00 0.480E+00   -.124E-02 -.489E-03 -.223E-02
   -.821E+02 0.798E+02 -.795E+03   0.824E+02 -.802E+02 0.794E+03   -.293E+00 0.374E+00 0.559E+00   0.104E-02 -.105E-02 -.202E-02
 -----------------------------------------------------------------------------------------------
   0.607E+00 0.272E+00 0.177E+01   -.284E-13 0.426E-13 0.284E-11   -.608E+00 -.268E+00 -.174E+01   0.102E-02 -.571E-03 -.236E-01
 
 
 POSITION                                       TOTAL-FORCE (eV/Angst)
 -----------------------------------------------------------------------------------
     -5.03208      8.74992      4.15716        -0.309937      0.335481     -0.092112
      0.00574      8.72607      4.14261        -0.340180      0.508020     -0.083465
      2.47665      8.72592      4.10615         0.593674      0.389833      0.477878
      1.23891      2.21748      4.15676         0.331623     -0.256574     -0.285869
     -0.01162      1.46895      6.25341         0.025328      0.013032     -0.077309
      2.54446      1.46552      6.19984        -0.013050      0.000588     -0.072199
      1.28611      0.70882      2.01970        -0.082363      0.140188      0.278811
      1.25149      0.72099      8.36895         0.011413     -0.022800     -0.090372
      5.12246      1.48747      6.18514        -0.004495      0.013353     -0.066225
      3.82589      0.76557      2.01626        -0.183514     -0.204115      0.298813
      3.76355      0.75674      8.30460        -0.024929      0.039630     -0.074798
      7.62180      1.45688      6.17974         0.000779     -0.006344     -0.060531
      6.32723      0.72925      2.06016         0.029234      0.083731      0.005986
      6.30377      0.77702      8.31725        -0.032790      0.049660     -0.106838
     -2.55062      4.47399      4.10791         0.431777     -1.615603      0.453238
      0.03014      4.42905      4.16816        -0.278923     -0.651384     -0.140453
      2.50847      4.40516      4.17229         0.213063     -0.483368     -0.140618
      1.24810      3.67331      6.30652         0.023796      0.013702     -0.077695
      5.08382      4.44890      4.14610        -0.582425     -1.374481      0.297948
      3.78941      3.64333      6.26686        -0.005712     -0.020723     -0.049016
      2.59838      2.86105      2.03126        -0.742800      0.539221      0.185798
      2.48604      2.92538      8.41010         0.000469     -0.017550     -0.121924
      6.35186      3.67861      6.22879         0.004495     -0.004982     -0.122274
      5.00304      2.93728      2.00000         0.525553     -0.076296      0.385443
      5.02646      2.90798      8.33786        -0.014919     -0.031406     -0.083865
      6.25194      6.54167      4.13342         0.836101      0.949631      0.671058
     -1.23133      6.52951      4.16156        -0.427960      0.741868     -0.073884
     -2.48935      5.84084      6.26533         0.023857     -0.034495     -0.072896
      1.28426      6.55944      4.17203        -0.246651      0.144477     -0.099289
      0.06385      5.87738      6.28803         0.019324     -0.024305     -0.072740
     -1.31907      5.15820      2.10199         0.754597     -0.440111     -0.287557
     -1.22095      5.04428      8.28847        -0.011610     -0.033247     -0.083382
      3.77628      6.55571      4.09794        -0.012320      0.480268      0.909146
      2.57658      5.87168      6.28664         0.031281     -0.001649     -0.079191
      5.05129      5.86783      6.28063         0.030590     -0.001706     -0.053665
      3.83733      5.12538      2.04986        -0.359810     -0.280160     -0.370535
      3.79040      5.12402      8.42855         0.006682      0.008235     -0.063372
      6.32391      5.14322      2.08697        -0.153195     -0.411692     -0.735694
      6.33345      5.11510      8.39687        -0.020117      0.007706     -0.088270
     -3.77120      8.04592      6.22699        -0.005495      0.014192     -0.024530
     -1.19667      8.03185      6.22374        -0.002195      0.013996     -0.086506
     -2.55850      7.28170      2.01510         0.159771      0.394381      0.171720
     -2.55968      7.26492      8.34848        -0.065403      0.024134     -0.115268
      2.56196      7.27552      2.12154        -0.311386      0.016866     -0.288988
      2.46152      7.32798      8.28809        -0.032897      0.024912     -0.083452
      5.10630      7.24251      2.09022        -0.320173      0.571178     -0.627636
      5.01121      7.32499      8.31012        -0.023508      0.019448     -0.066792
     -2.52690      8.74056      4.13098         0.165171      0.103285     -0.173488
     -1.24953      2.18697      4.15198        -0.299540      0.105940     -0.321758
      3.77687      2.20348      4.12618         0.308978     -0.093826      0.125895
      6.31052      2.19548      4.13380         0.052220      0.276366     -0.230770
      8.84357      0.69437      2.06440         0.184815      0.348484      0.486923
      8.81258      0.74896      8.25522        -0.027091     -0.007606     -0.058246
     -1.25981      3.65482      6.17955         0.003755      0.026673     -0.097303
      0.03628      2.92806      2.06598        -0.180281     -0.065654      0.515692
     -0.00944      2.88524      8.25581         0.007274      0.006119     -0.071431
      7.55782      2.94639      2.05577         0.197988     -0.036948      0.603892
      7.57813      2.92626      8.21245        -0.021733      0.038777     -0.090161
      1.28295      5.12031      2.07268        -0.072678     -0.135006      0.333247
      1.26238      5.10429      8.33089         0.012628      0.022170     -0.061841
      1.29696      8.06410      6.26334         0.036734      0.006194     -0.078384
     -0.02502      7.30581      2.07778         0.199539     -0.155707      0.267343
     -0.02090      7.29875      8.27076        -0.012414      0.012546     -0.089706
      3.77536      8.05475      6.21732        -0.000017      0.003451     -0.076532
 -----------------------------------------------------------------------------------
    total drift:                                0.000579      0.003724      0.006613


--------------------------------------------------------------------------------------------------------



  FREE ENERGIE OF THE ION-ELECTRON SYSTEM (eV)
  ---------------------------------------------------
  free  energy   TOTEN  =      -467.36892160 eV

  energy  without entropy=     -467.36892160  energy(sigma->0) =     -467.36892160
 


--------------------------------------------------------------------------------------------------------


    POTLOK:  cpu time    0.3160: real time    0.3218


--------------------------------------------------------------------------------------------------------


     LOOP+:  cpu time  535.5996: real time  539.0765
    4ORBIT:  cpu time    0.0000: real time    0.0000
 


 total charge     
 
# of ion       s       p       d       tot
------------------------------------------
    1        0.469   0.492   6.197   7.158
    2        0.471   0.498   6.205   7.175
    3        0.476   0.503   6.218   7.197
    4        0.466   0.488   6.198   7.153
    5        0.476   0.506   6.205   7.187
    6        0.470   0.495   6.199   7.164
    7        0.469   0.376   6.156   7.001
    8        0.471   0.385   6.164   7.020
    9        0.476   0.505   6.209   7.190
   10        0.472   0.398   6.172   7.043
   11        0.472   0.397   6.176   7.046
   12        0.474   0.500   6.205   7.179
   13        0.471   0.383   6.155   7.009
   14        0.468   0.382   6.166   7.017
   15        0.485   0.514   6.224   7.223
   16        0.476   0.501   6.215   7.192
   17        0.474   0.500   6.204   7.178
   18        0.475   0.505   6.211   7.190
   19        0.482   0.516   6.221   7.219
   20        0.471   0.497   6.203   7.171
   21        0.474   0.394   6.171   7.039
   22        0.468   0.384   6.161   7.012
   23        0.475   0.498   6.206   7.179
   24        0.472   0.394   6.168   7.034
   25        0.474   0.395   6.181   7.050
   26        0.494   0.540   6.242   7.276
   27        0.484   0.521   6.225   7.230
   28        0.476   0.510   6.213   7.199
   29        0.485   0.517   6.237   7.239
   30        0.479   0.510   6.228   7.217
   31        0.479   0.397   6.174   7.050
   32        0.466   0.389   6.151   7.005
   33        0.493   0.538   6.250   7.281
   34        0.475   0.504   6.221   7.201
   35        0.475   0.507   6.208   7.190
   36        0.485   0.411   6.193   7.088
   37        0.469   0.381   6.161   7.010
   38        0.498   0.445   6.211   7.154
   39        0.469   0.384   6.164   7.017
   40        0.472   0.501   6.205   7.178
   41        0.475   0.500   6.213   7.188
   42        0.476   0.402   6.176   7.054
   43        0.469   0.390   6.164   7.023
   44        0.478   0.405   6.200   7.082
   45        0.468   0.393   6.164   7.026
   46        0.493   0.432   6.214   7.138
   47        0.471   0.399   6.172   7.042
   48        0.501   0.502   8.302   9.304
   49        0.492   0.474   8.309   9.274
   50        0.500   0.501   8.306   9.307
   51        0.499   0.492   8.305   9.296
   52        0.493   0.364   8.307   9.165
   53        0.509   0.401   8.316   9.226
   54        0.510   0.511   8.328   9.349
   55        0.483   0.346   8.309   9.137
   56        0.512   0.401   8.323   9.237
   57        0.487   0.356   8.308   9.151
   58        0.511   0.407   8.316   9.233
   59        0.492   0.367   8.321   9.179
   60        0.512   0.399   8.321   9.232
   61        0.519   0.535   8.322   9.376
   62        0.504   0.388   8.315   9.207
   63        0.512   0.401   8.316   9.229
   64        0.511   0.520   8.317   9.348
--------------------------------------------------
tot         30.900  28.747 432.516 492.163
 


 magnetization (x)
 
# of ion       s       p       d       tot
------------------------------------------
    1       -0.010  -0.033   2.645   2.602
    2       -0.009  -0.036   2.625   2.580
    3       -0.011  -0.032   2.597   2.554
    4       -0.010  -0.037   2.617   2.569
    5       -0.008  -0.031   2.623   2.584
    6       -0.014  -0.047   2.620   2.559
    7       -0.003  -0.007   2.768   2.759
    8       -0.006  -0.018   2.744   2.720
    9       -0.014  -0.046   2.590   2.529
   10       -0.002  -0.023   2.707   2.681
   11       -0.009  -0.025   2.691   2.658
   12       -0.004  -0.021   2.634   2.610
   13       -0.001  -0.007   2.771   2.763
   14        0.001  -0.008   2.748   2.740
   15       -0.013  -0.036   2.591   2.543
   16       -0.010  -0.032   2.587   2.544
   17       -0.013  -0.039   2.626   2.575
   18       -0.013  -0.038   2.589   2.539
   19       -0.017  -0.046   2.596   2.534
   20       -0.018  -0.053   2.597   2.526
   21       -0.002  -0.017   2.732   2.714
   22       -0.003  -0.017   2.754   2.734
   23       -0.013  -0.035   2.605   2.556
   24       -0.001  -0.020   2.733   2.712
   25       -0.008  -0.022   2.691   2.660
   26       -0.019  -0.055   2.545   2.471
   27       -0.018  -0.050   2.551   2.483
   28       -0.018  -0.054   2.575   2.503
   29       -0.014  -0.036   2.533   2.483
   30       -0.011  -0.033   2.542   2.498
   31       -0.003  -0.009   2.745   2.733
   32        0.003  -0.013   2.800   2.790
   33       -0.020  -0.056   2.488   2.413
   34       -0.013  -0.039   2.564   2.512
   35       -0.016  -0.052   2.604   2.536
   36       -0.009  -0.019   2.680   2.652
   37       -0.007  -0.020   2.755   2.727
   38       -0.010  -0.029   2.648   2.609
   39       -0.006  -0.020   2.751   2.725
   40       -0.016  -0.051   2.601   2.534
   41       -0.013  -0.039   2.576   2.524
   42       -0.003  -0.018   2.723   2.702
   43       -0.007  -0.025   2.754   2.723
   44       -0.003  -0.013   2.661   2.645
   45        0.004  -0.011   2.760   2.753
   46       -0.011  -0.025   2.622   2.586
   47       -0.006  -0.026   2.718   2.686
   48       -0.034  -0.072   0.763   0.657
   49       -0.025  -0.042   0.726   0.659
   50       -0.033  -0.069   0.755   0.654
   51       -0.031  -0.058   0.747   0.658
   52       -0.027  -0.025   0.730   0.677
   53       -0.028  -0.035   0.711   0.648
   54       -0.030  -0.053   0.692   0.609
   55       -0.024  -0.021   0.714   0.669
   56       -0.029  -0.031   0.698   0.638
   57       -0.027  -0.026   0.703   0.650
   58       -0.031  -0.037   0.713   0.646
   59       -0.029  -0.026   0.695   0.641
   60       -0.031  -0.034   0.709   0.643
   61       -0.033  -0.068   0.730   0.629
   62       -0.032  -0.034   0.715   0.649
   63       -0.033  -0.036   0.733   0.664
   64       -0.031  -0.063   0.737   0.642
--------------------------------------------------
tot         -0.936  -2.148 136.950 133.866
 
 BZINTS: Fermi energy: -0.263887;546.000000 electrons
         Band energy:***********;  BLOECHL correction: -0.022213

 total amount of memory used by VASP MPI-rank0   113567. kBytes
=======================================================================

   base      :      30000. kBytes
   nonlr-proj:      13158. kBytes
   fftplans  :       6403. kBytes
   grid      :      16455. kBytes
   one-center:         93. kBytes
   wavefun   :      47458. kBytes
 
  
  
 General timing and accounting informations for this job:
 ========================================================
  
                  Total CPU time used (sec):      570.840
                            User time (sec):      564.867
                          System time (sec):        5.973
                         Elapsed time (sec):      588.615
  
                   Maximum memory used (kb):      198080.
                   Average memory used (kb):           0.
  
                          Minor page faults:        96412
                          Major page faults:            0
                 Voluntary context switches:        10424
