SQS-NiFe                                
           1
    10.111630    0.000000    0.000000
    -5.055815    8.756928    0.000000
     0.000000    0.000000   21.313618
   Fe   Ni
  47  17
Direct configuration=     1
   0.00194700  0.99920000  0.19504711
   0.49880600  0.99647600  0.19436468
   0.74316000  0.99645900  0.19265379
   0.24913600  0.25322600  0.19502823
   0.08272449  0.16774674  0.29339966
   0.33531437  0.16735577  0.29088626
   0.16766300  0.08094400  0.09476087
   0.16493434  0.08233413  0.39265750
   0.59152171  0.16986182  0.29019656
   0.42207800  0.08742500  0.09459963
   0.41540814  0.08641663  0.38963823
   0.83695021  0.16636832  0.28994309
   0.66737600  0.08327700  0.09665914
   0.66778368  0.08873198  0.39023189
   0.00320800  0.51090900  0.19273630
   0.25586900  0.50577700  0.19556308
   0.49960200  0.50304900  0.19575715
   0.33316951  0.41947420  0.29589146
   0.75679100  0.50804300  0.19452824
   0.58278318  0.41605103  0.29403079
   0.42032800  0.32671800  0.09530328
   0.41289162  0.33406473  0.39458799
   0.83821311  0.42007972  0.29224465
   0.66249300  0.33542400  0.09383672
   0.66313604  0.33207732  0.39119879
   0.99180600  0.74702800  0.19393325
   0.25104600  0.74563900  0.19525367
   0.08731166  0.66699607  0.29395879
   0.50153700  0.74905700  0.19574495
   0.34189891  0.67116886  0.29502427
   0.16407000  0.58904200  0.09862191
   0.16726943  0.57603288  0.38888129
   0.74777500  0.74863100  0.19226885
   0.59007253  0.67051867  0.29495862
   0.83459116  0.67007801  0.29467697
   0.67214400  0.58529400  0.09617600
   0.66742481  0.58513840  0.39545387
   0.91907500  0.58733100  0.09791739
   0.91841290  0.58412047  0.39396727
   0.08644653  0.91880587  0.29216034
   0.34025398  0.91719920  0.29200775
   0.16274300  0.83153600  0.09454501
   0.16166734  0.82961935  0.39169686
   0.66878300  0.83083000  0.09953909
   0.66184460  0.83682111  0.38886378
   0.91852300  0.82706000  0.09806963
   0.91382838  0.83647976  0.38989718
   0.24916500  0.99813100  0.19381878
   0.00129700  0.24974200  0.19480424
   0.49933100  0.25162700  0.19359363
   0.74944200  0.25071300  0.19395097
   0.91424100  0.07929400  0.09685844
   0.91429312  0.08552795  0.38732131
   0.08409159  0.41736363  0.28993421
   0.17077300  0.33437100  0.09693223
   0.16380647  0.32948078  0.38734897
   0.91567000  0.33646400  0.09645316
   0.91652895  0.33416464  0.38531459
   0.41923600  0.58471500  0.09724687
   0.41628744  0.58288618  0.39087148
   0.58870570  0.92088247  0.29386585
   0.41467000  0.83428900  0.09748597
   0.41467461  0.83348278  0.38805031
   0.83327574  0.91981444  0.29170636
