       N       E                     dE             d eps       ncg     rms          rms(c)
DAV:   1     0.120493490773E+04    0.12049E+04   -0.55932E+04 12720   0.181E+03
DAV:   2     0.484065365643E+01   -0.12001E+04   -0.11297E+04 12648   0.384E+02
DAV:   3    -0.130074328657E+03   -0.13491E+03   -0.11021E+03 12651   0.169E+02
DAV:   4    -0.135004740005E+03   -0.49304E+01   -0.48156E+01 13887   0.390E+01
DAV:   5    -0.135064008366E+03   -0.59268E-01   -0.59221E-01 14535   0.400E+00    0.443E+01
RMM:   6    -0.130805967577E+03    0.42580E+01   -0.15308E+02 13094   0.732E+01    0.495E+01
RMM:   7    -0.157186204134E+03   -0.26380E+02   -0.43979E+01 13467   0.341E+01    0.834E+01
RMM:   8    -0.129327669427E+03    0.27859E+02   -0.17523E+01 12949   0.234E+01    0.465E+01
RMM:   9    -0.119265851114E+03    0.10062E+02   -0.80050E+00 12713   0.147E+01    0.196E+01
RMM:  10    -0.122051399890E+03   -0.27855E+01   -0.35568E+00 12859   0.980E+00    0.286E+01
RMM:  11    -0.118799944618E+03    0.32515E+01   -0.19826E+00 12767   0.771E+00    0.949E+00
RMM:  12    -0.119030628090E+03   -0.23068E+00   -0.41162E-01 13045   0.319E+00    0.106E+01
RMM:  13    -0.118849335278E+03    0.18129E+00   -0.16438E-01 12971   0.208E+00    0.629E+00
RMM:  14    -0.118887702354E+03   -0.38367E-01   -0.28411E-02 13234   0.758E-01    0.617E+00
RMM:  15    -0.118944061618E+03   -0.56359E-01   -0.12779E-02 13256   0.503E-01    0.606E+00
RMM:  16    -0.118992910852E+03   -0.48849E-01   -0.16711E-02 13186   0.614E-01    0.609E+00
RMM:  17    -0.119173742304E+03   -0.18083E+00   -0.64142E-02 12929   0.113E+00    0.569E+00
RMM:  18    -0.119298772104E+03   -0.12503E+00   -0.92301E-02 12866   0.141E+00    0.576E+00
RMM:  19    -0.119544561778E+03   -0.24579E+00   -0.21229E-01 12893   0.193E+00    0.344E+00
RMM:  20    -0.119660133545E+03   -0.11557E+00   -0.14801E-01 12955   0.179E+00    0.440E+00
RMM:  21    -0.119605647943E+03    0.54486E-01   -0.79301E-02 12845   0.141E+00    0.161E+00
RMM:  22    -0.119635604901E+03   -0.29957E-01   -0.38724E-02 13012   0.959E-01    0.243E+00
RMM:  23    -0.119614201640E+03    0.21403E-01   -0.24253E-02 12870   0.821E-01    0.743E-01
RMM:  24    -0.119617784522E+03   -0.35829E-02   -0.57101E-03 13125   0.348E-01    0.826E-01
RMM:  25    -0.119615777899E+03    0.20066E-02   -0.43014E-03 13072   0.336E-01    0.426E-01
RMM:  26    -0.119614159076E+03    0.16188E-02   -0.24453E-03 13086   0.228E-01    0.383E-01
RMM:  27    -0.119614840771E+03   -0.68170E-03   -0.59402E-04 13106   0.129E-01    0.300E-01
RMM:  28    -0.119615452625E+03   -0.61185E-03   -0.51778E-04 13092   0.115E-01    0.134E-01
RMM:  29    -0.119615590516E+03   -0.13789E-03   -0.17865E-04 13223   0.596E-02    0.134E-01
RMM:  30    -0.119615564361E+03    0.26155E-04   -0.93467E-05 13131   0.488E-02    0.955E-02
RMM:  31    -0.119615538743E+03    0.25618E-04   -0.33580E-05 13118   0.278E-02    0.723E-02
RMM:  32    -0.119615511257E+03    0.27485E-04   -0.14247E-05 13114   0.188E-02    0.547E-02
RMM:  33    -0.119615433921E+03    0.77336E-04   -0.15885E-05 13039   0.174E-02    0.159E-02
RMM:  34    -0.119615386864E+03    0.47058E-04   -0.76647E-06 11237   0.108E-02    0.209E-02
RMM:  35    -0.119615389327E+03   -0.24634E-05   -0.14135E-06  7063   0.628E-03    0.149E-02
RMM:  36    -0.119615422543E+03   -0.33215E-04   -0.13609E-06  7445   0.592E-03    0.297E-03
RMM:  37    -0.119615423190E+03   -0.64772E-06   -0.15038E-07  6758   0.158E-03
   1 F= -.11961542E+03 E0= -.11961542E+03  d E =0.000000E+00  mag=    32.5134
