 vasp.5.4.4.18Apr17-6-g9f103f2a35 (build Sep 06 2021 19:49:22) complex          
  
 executed on             LinuxIFC date 2021.12.29  15:40:57
 running on   24 total cores
 distrk:  each k-point on   24 cores,    1 groups
 distr:  one band on NCORES_PER_BAND=   8 cores,    3 groups


--------------------------------------------------------------------------------------------------------


 INCAR:
 POTCAR:    PAW_PBE Ni 02Aug2007                  
 POTCAR:    PAW_PBE Fe 06Sep2000                  
 POTCAR:    PAW_PBE Ni 02Aug2007                  
   VRHFIN =Ni:                                                                  
   LEXCH  = PE                                                                  
   EATOM  =  1077.6739 eV,   79.2068 Ry                                         
                                                                                
   TITEL  = PAW_PBE Ni 02Aug2007                                                
   LULTRA =        F    use ultrasoft PP ?                                      
   IUNSCR =        1    unscreen: 0-lin 1-nonlin 2-no                           
   RPACOR =    2.000    partial core radius                                     
   POMASS =   58.690; ZVAL   =   10.000    mass and valenz                      
   RCORE  =    2.300    outmost cutoff radius                                   
   RWIGS  =    2.430; RWIGS  =    1.286    wigner-seitz radius (au A)           
   ENMAX  =  269.532; ENMIN  =  202.149 eV                                      
   RCLOC  =    1.201    cutoff for local pot                                    
   LCOR   =        T    correct aug charges                                     
   LPAW   =        T    paw PP                                                  
   EAUG   =  544.565                                                            
   DEXC   =    0.000                                                            
   RMAX   =    2.357    core radius for proj-oper                               
   RAUG   =    1.300    factor for augmentation sphere                          
   RDEP   =    2.390    radius for radial grids                                 
   RDEPT  =    1.838    core radius for aug-charge                              
                                                                                
   Atomic configuration                                                         
    9 entries                                                                   
     n  l   j            E        occ.                                          
     1  0  0.50     -8206.4253   2.0000                                         
     2  0  0.50      -976.1748   2.0000                                         
     2  1  1.50      -839.0571   6.0000                                         
     3  0  0.50      -105.9991   2.0000                                         
     3  1  1.50       -66.4603   6.0000                                         
     3  2  2.50        -4.6458   9.0000                                         
     4  0  0.50        -4.4926   1.0000                                         
     4  1  1.50        -4.0817   0.0000                                         
     4  3  2.50        -1.3606   0.0000                                         
   Description                                                                  
     l       E           TYP  RCUT    TYP  RCUT                                 
     2     -4.6457903     23  2.300                                             
     2     -6.0063729     23  2.300                                             
     0     -4.4925590     23  2.300                                             
     0      5.0102601     23  2.300                                             
     1     -2.7211652     23  2.300                                             
     1     16.5183231     23  2.300                                             
  local pseudopotential read in
  partial core-charges read in
  partial kinetic energy density read in
  atomic valenz-charges read in
  non local Contribution for L=           2  read in
    real space projection operators read in
  non local Contribution for L=           2  read in
    real space projection operators read in
  non local Contribution for L=           0  read in
    real space projection operators read in
  non local Contribution for L=           0  read in
    real space projection operators read in
  non local Contribution for L=           1  read in
    real space projection operators read in
  non local Contribution for L=           1  read in
    real space projection operators read in
    PAW grid and wavefunctions read in
 
   number of l-projection  operators is LMAX  =           6
   number of lm-projection operators is LMMAX =          18
 
 POTCAR:    PAW_PBE Fe 06Sep2000                  
   VRHFIN =Fe:  d7 s1                                                           
   LEXCH  = PE                                                                  
   EATOM  =   594.3153 eV,   43.6809 Ry                                         
                                                                                
   TITEL  = PAW_PBE Fe 06Sep2000                                                
   LULTRA =        F    use ultrasoft PP ?                                      
   IUNSCR =        1    unscreen: 0-lin 1-nonlin 2-no                           
   RPACOR =    2.000    partial core radius                                     
   POMASS =   55.847; ZVAL   =    8.000    mass and valenz                      
   RCORE  =    2.300    outmost cutoff radius                                   
   RWIGS  =    2.460; RWIGS  =    1.302    wigner-seitz radius (au A)           
   ENMAX  =  267.882; ENMIN  =  200.911 eV                                      
   RCLOC  =    1.701    cutoff for local pot                                    
   LCOR   =        T    correct aug charges                                     
   LPAW   =        T    paw PP                                                  
   EAUG   =  511.368                                                            
   DEXC   =    0.000                                                            
   RMAX   =    2.356    core radius for proj-oper                               
   RAUG   =    1.300    factor for augmentation sphere                          
   RDEP   =    2.442    radius for radial grids                                 
   RDEPT  =    1.890    core radius for aug-charge                              
                                                                                
   Atomic configuration                                                         
    9 entries                                                                   
     n  l   j            E        occ.                                          
     1  0  0.50     -6993.8440   2.0000                                         
     2  0  0.50      -814.6047   2.0000                                         
     2  1  1.50      -693.3689   6.0000                                         
     3  0  0.50       -89.4732   2.0000                                         
     3  1  1.50       -55.6373   6.0000                                         
     3  2  2.50        -3.8151   7.0000                                         
     4  0  0.50        -4.2551   1.0000                                         
     4  1  1.50        -3.4015   0.0000                                         
     4  3  2.50        -1.3606   0.0000                                         
   Description                                                                  
     l       E           TYP  RCUT    TYP  RCUT                                 
     2     -3.8151135     23  2.300                                             
     2     -5.1756961     23  2.300                                             
     0     -4.2550963     23  2.300                                             
     0      7.2035603     23  2.300                                             
     1     -2.7211652     23  2.300                                             
     1     18.4316424     23  2.300                                             
  local pseudopotential read in
  partial core-charges read in
  partial kinetic energy density read in
  atomic valenz-charges read in
  non local Contribution for L=           2  read in
    real space projection operators read in
  non local Contribution for L=           2  read in
    real space projection operators read in
  non local Contribution for L=           0  read in
    real space projection operators read in
  non local Contribution for L=           0  read in
    real space projection operators read in
  non local Contribution for L=           1  read in
    real space projection operators read in
  non local Contribution for L=           1  read in
    real space projection operators read in
    PAW grid and wavefunctions read in
 
   number of l-projection  operators is LMAX  =           6
   number of lm-projection operators is LMMAX =          18
 
 Optimization of the real space projectors (new method)

 maximal supplied QI-value         = 16.25
 optimisation between [QCUT,QGAM] = [ 11.54, 23.24] = [ 37.28,151.24] Ry 
 Optimized for a Real-space Cutoff    1.45 Angstroem

   l    n(q)    QCUT    max X(q) W(low)/X(q) W(high)/X(q)  e(spline) 
   2      9    11.539    60.317    0.19E-03    0.47E-04    0.16E-06
   2      9    11.539    55.921    0.19E-03    0.48E-04    0.16E-06
   0     10    11.539    51.690    0.80E-04    0.50E-04    0.24E-06
   0     10    11.539    30.015    0.73E-04    0.45E-04    0.22E-06
   1     10    11.539    18.849    0.87E-04    0.16E-03    0.71E-07
   1     10    11.539    14.624    0.73E-04    0.13E-03    0.64E-07
 Optimization of the real space projectors (new method)

 maximal supplied QI-value         = 16.25
 optimisation between [QCUT,QGAM] = [ 11.54, 23.24] = [ 37.28,151.24] Ry 
 Optimized for a Real-space Cutoff    1.53 Angstroem

   l    n(q)    QCUT    max X(q) W(low)/X(q) W(high)/X(q)  e(spline) 
   2     10    11.539    80.901    0.11E-03    0.14E-03    0.21E-06
   2     10    11.539    75.754    0.11E-03    0.14E-03    0.22E-06
   0     11    11.539    58.752    0.52E-04    0.18E-04    0.33E-06
   0     11    11.539    30.679    0.44E-04    0.16E-04    0.30E-06
   1     10    11.539    17.977    0.53E-04    0.29E-04    0.13E-06
   1     10    11.539    13.559    0.44E-04    0.25E-04    0.11E-06
  PAW_PBE Ni 02Aug2007                  :
 energy of atom  1       EATOM=-1077.6739
 kinetic energy error for atom=    0.0030 (will be added to EATOM!!)
  PAW_PBE Fe 06Sep2000                  :
 energy of atom  2       EATOM= -594.3153
 kinetic energy error for atom=    0.0026 (will be added to EATOM!!)
 
 
 POSCAR: POSCAR                                  
  positions in direct lattice
  velocities in cartesian coordinates
 exchange correlation table for  LEXCH =        8
   RHO(1)=    0.500       N(1)  =     2000
   RHO(2)=  100.500       N(2)  =     4000
 


--------------------------------------------------------------------------------------------------------


 ion  position               nearest neighbor table
   1  0.249  0.690  0.814-   6 2.51   8 2.51  12 2.52  14 2.52  13 2.53   8 2.53   3 2.54   6 2.54
                             7 2.54   2 2.54   9 2.54   4 2.54
   2  0.002  0.250  0.750-   7 2.51   4 2.52   3 2.52  13 2.52   9 2.53   7 2.53  15 2.54   1 2.54
                            14 2.54   9 2.55   6 2.56   8 2.57
   3  0.250  0.938  0.561-  15 2.50   5 2.52   2 2.52  11 2.53   8 2.53   1 2.54   7 2.55  15 2.55
                             9 2.55   4 2.55   8 2.56  10 2.56
   4  0.001  0.496  0.499-  11 2.50   9 2.50  15 2.51   2 2.52  10 2.52  16 2.52   9 2.52   5 2.53
                             8 2.53  10 2.54   1 2.54   3 2.55
   5  0.003  0.748  0.250-  13 2.50   3 2.52  14 2.52  10 2.53   4 2.53   6 2.53  10 2.53  12 2.53
                            11 2.56  15 2.56  16 2.57  12 2.57
   6  0.745  0.566  0.937-   8 2.50   1 2.51  14 2.51   9 2.52   7 2.52  12 2.53  13 2.53   5 2.53
                             1 2.54  13 2.54   2 2.56  16 2.59
   7  0.505  0.127  0.875-  12 2.49   2 2.51  16 2.52  14 2.52   6 2.52   2 2.53   1 2.54   8 2.54
                             9 2.54   3 2.55  13 2.55  14 2.56
   8  0.745  0.806  0.686-   9 2.46   6 2.50   1 2.51  10 2.51   3 2.53   1 2.53   4 2.53   7 2.54
                            15 2.55   3 2.56  14 2.57   2 2.57
   9  0.505  0.379  0.624-   8 2.46  10 2.49   4 2.50  15 2.51  11 2.52   4 2.52   6 2.52   2 2.53
                             7 2.54   1 2.54   2 2.55   3 2.55
  10  0.503  0.620  0.374-  11 2.48   9 2.49   8 2.51   4 2.52  16 2.52  13 2.52   5 2.53   5 2.53
                             4 2.54  15 2.55   3 2.56  12 2.59
  11  0.253  0.192  0.314-  10 2.48   4 2.50  15 2.50  16 2.50  16 2.50  12 2.51   9 2.52  13 2.52
                             3 2.53  14 2.53   5 2.56  15 2.56
  12  0.499  0.883  0.123-  16 2.44  14 2.49   7 2.49  14 2.51  11 2.51   1 2.52  15 2.52   6 2.53
                             5 2.53  13 2.57   5 2.57  10 2.59
  13  0.246  0.439  0.063-   5 2.50  11 2.52   2 2.52  10 2.52   1 2.53  16 2.53  14 2.53   6 2.53
                             6 2.54   7 2.55  12 2.57  16 2.58
  14  0.000  0.999  0.002-  12 2.49  16 2.49  12 2.51   6 2.51   1 2.52   5 2.52   7 2.52  11 2.53
                            13 2.53   2 2.54   7 2.56   8 2.57
  15  0.743  0.064  0.437-  16 2.48  11 2.50   3 2.50   9 2.51   4 2.51  12 2.52   2 2.54  10 2.55
                             3 2.55   8 2.55   5 2.56  11 2.56
  16  0.750  0.304  0.189-  12 2.44  15 2.48  14 2.49  11 2.50  11 2.50   4 2.52   7 2.52  10 2.52
                            13 2.53   5 2.57  13 2.58   6 2.59
 

IMPORTANT INFORMATION: All symmetrisations will be switched off!
NOSYMM: (Re-)initialisation of all symmetry stuff for point group C_1.

 
 

Automatic generation of k-mesh.
 generate k-points for:    5    4    3
Space group operators:
 irot       det(A)        alpha          n_x          n_y          n_z        tau_x        tau_y        tau_z
    1     1.000000     0.000000     1.000000     0.000000     0.000000     0.000000     0.000000     0.000000
 
 Subroutine IBZKPT returns following result:
 ===========================================
 
 Found     31 irreducible k-points:
 
 Following reciprocal coordinates:
            Coordinates               Weight
  0.000000  0.000000  0.000000      1.000000
  0.200000  0.000000  0.000000      2.000000
  0.400000  0.000000  0.000000      2.000000
  0.000000  0.250000  0.000000      2.000000
  0.200000  0.250000  0.000000      2.000000
  0.400000  0.250000  0.000000      2.000000
 -0.400000  0.250000  0.000000      2.000000
 -0.200000  0.250000  0.000000      2.000000
  0.000000  0.500000  0.000000      1.000000
  0.200000  0.500000  0.000000      2.000000
  0.400000  0.500000  0.000000      2.000000
  0.000000  0.000000  0.333333      2.000000
  0.200000  0.000000  0.333333      2.000000
  0.400000  0.000000  0.333333      2.000000
 -0.400000  0.000000  0.333333      2.000000
 -0.200000  0.000000  0.333333      2.000000
  0.000000  0.250000  0.333333      2.000000
  0.200000  0.250000  0.333333      2.000000
  0.400000  0.250000  0.333333      2.000000
 -0.400000  0.250000  0.333333      2.000000
 -0.200000  0.250000  0.333333      2.000000
  0.000000  0.500000  0.333333      2.000000
  0.200000  0.500000  0.333333      2.000000
  0.400000  0.500000  0.333333      2.000000
 -0.400000  0.500000  0.333333      2.000000
 -0.200000  0.500000  0.333333      2.000000
  0.000000 -0.250000  0.333333      2.000000
  0.200000 -0.250000  0.333333      2.000000
  0.400000 -0.250000  0.333333      2.000000
 -0.400000 -0.250000  0.333333      2.000000
 -0.200000 -0.250000  0.333333      2.000000
 
 Following cartesian coordinates:
            Coordinates               Weight
 -0.000000 -0.000000 -0.000000      1.000000
  0.050000  0.050000 -0.150000      2.000000
  0.100000  0.100000 -0.300000      2.000000
 -0.015625 -0.140625 -0.078125      2.000000
  0.034375 -0.090625 -0.228125      2.000000
  0.084375 -0.040625 -0.378125      2.000000
 -0.115625 -0.240625  0.221875      2.000000
 -0.065625 -0.190625  0.071875      2.000000
 -0.031250 -0.281250 -0.156250      1.000000
  0.018750 -0.231250 -0.306250      2.000000
  0.068750 -0.181250 -0.456250      2.000000
 -0.145833  0.020833 -0.062500      2.000000
 -0.095833  0.070833 -0.212500      2.000000
 -0.045833  0.120833 -0.362500      2.000000
 -0.245833 -0.079167  0.237500      2.000000
 -0.195833 -0.029167  0.087500      2.000000
 -0.161458 -0.119792 -0.140625      2.000000
 -0.111458 -0.069792 -0.290625      2.000000
 -0.061458 -0.019792 -0.440625      2.000000
 -0.261458 -0.219792  0.159375      2.000000
 -0.211458 -0.169792  0.009375      2.000000
 -0.177083 -0.260417 -0.218750      2.000000
 -0.127083 -0.210417 -0.368750      2.000000
 -0.077083 -0.160417 -0.518750      2.000000
 -0.277083 -0.360417  0.081250      2.000000
 -0.227083 -0.310417 -0.068750      2.000000
 -0.130208  0.161458  0.015625      2.000000
 -0.080208  0.211458 -0.134375      2.000000
 -0.030208  0.261458 -0.284375      2.000000
 -0.230208  0.061458  0.315625      2.000000
 -0.180208  0.111458  0.165625      2.000000
 
 TETIRR: Found    178 inequivalent tetrahedra from      360


--------------------------------------------------------------------------------------------------------




 Dimension of arrays:
   k-points           NKPTS =     31   k-points in BZ     NKDIM =     31   number of bands    NBANDS=    102
   number of dos      NEDOS =    301   number of ions     NIONS =     16
   non local maximal  LDIM  =      6   non local SUM 2l+1 LMDIM =     18
   total plane-waves  NPLWV =  84672
   max r-space proj   IRMAX =   7052   max aug-charges    IRDMAX=  16701
   dimension x,y,z NGX =    36 NGY =   42 NGZ =   56
   dimension x,y,z NGXF=    72 NGYF=   84 NGZF=  112
   support grid    NGXF=    72 NGYF=   84 NGZF=  112
   ions per type =               4  12
   NGX,Y,Z   is equivalent  to a cutoff of  13.67, 12.35, 12.28 a.u.
   NGXF,Y,Z  is equivalent  to a cutoff of  27.34, 24.70, 24.55 a.u.

 SYSTEM =  SQS-NiFe                                
 POSCAR =  POSCAR                                  

 Startparameter for this run:
   NWRITE =      2    write-flag & timer
   PREC   = accura    normal or accurate (medium, high low for compatibility)
   ISTART =      0    job   : 0-new  1-cont  2-samecut
   ICHARG =      2    charge: 1-file 2-atom 10-const
   ISPIN  =      2    spin polarized calculation?
   LNONCOLLINEAR =      F non collinear calculations
   LSORBIT =      F    spin-orbit coupling
   INIWAV =      1    electr: 0-lowe 1-rand  2-diag
   LASPH  =      F    aspherical Exc in radial PAW
   METAGGA=      F    non-selfconsistent MetaGGA calc.

 Electronic Relaxation 1
   ENCUT  =  520.0 eV  38.22 Ry    6.18 a.u.   8.14 10.51 14.10*2*pi/ulx,y,z
   ENINI  =  520.0     initial cutoff
   ENAUG  =  544.6 eV  augmentation charge cutoff
   NELM   =    200;   NELMIN=  2; NELMDL= -5     # of ELM steps 
   EDIFF  = 0.1E-05   stopping-criterion for ELM
   LREAL  =      T    real-space projection
   NLSPLINE    = F    spline interpolate recip. space projectors
   LCOMPAT=      F    compatible to vasp.4.4
   GGA_COMPAT  = T    GGA compatible to vasp.4.4-vasp.4.6
   LMAXPAW     = -100 max onsite density
   LMAXMIX     =    2 max onsite mixed and CHGCAR
   VOSKOWN=      0    Vosko Wilk Nusair interpolation
   ROPT   =   -0.00025  -0.00025
 Ionic relaxation
   EDIFFG = -.2E-01   stopping-criterion for IOM
   NSW    =      0    number of steps for IOM
   NBLOCK =      1;   KBLOCK =      1    inner block; outer block 
   IBRION =     -1    ionic relax: 0-MD 1-quasi-New 2-CG
   NFREE  =      0    steps in history (QN), initial steepest desc. (CG)
   ISIF   =      2    stress and relaxation
   IWAVPR =     10    prediction:  0-non 1-charg 2-wave 3-comb
   ISYM   =      0    0-nonsym 1-usesym 2-fastsym
   LCORR  =      T    Harris-Foulkes like correction to forces

   POTIM  = 0.5000    time-step for ionic-motion
   TEIN   =    0.0    initial temperature
   TEBEG  =    0.0;   TEEND  =   0.0 temperature during run
   SMASS  =  -3.00    Nose mass-parameter (am)
   estimated Nose-frequenzy (Omega)   =  0.10E-29 period in steps =****** mass=  -0.438E-27a.u.
   SCALEE = 1.0000    scale energy and forces
   NPACO  =    256;   APACO  = 16.0  distance and # of slots for P.C.
   PSTRESS=    0.0 pullay stress

  Mass of Ions in am
   POMASS =  58.69 55.85
  Ionic Valenz
   ZVAL   =  10.00  8.00
  Atomic Wigner-Seitz radii
   RWIGS  =  -1.00 -1.00
  virtual crystal weights 
   VCA    =   1.00  1.00
   NELECT =     136.0000    total number of electrons
   NUPDOWN=      -1.0000    fix difference up-down

 DOS related values:
   EMIN   =  10.00;   EMAX   =-10.00  energy-range for DOS
   EFERMI =   0.00
   ISMEAR =    -5;   SIGMA  =   0.20  broadening in eV -4-tet -1-fermi 0-gaus

 Electronic relaxation 2 (details)
   IALGO  =     68    algorithm
   LDIAG  =      T    sub-space diagonalisation (order eigenvalues)
   LSUBROT=      F    optimize rotation matrix (better conditioning)
   TURBO    =      0    0=normal 1=particle mesh
   IRESTART =      0    0=no restart 2=restart with 2 vectors
   NREBOOT  =      0    no. of reboots
   NMIN     =      0    reboot dimension
   EREF     =   0.00    reference energy to select bands
   IMIX   =      4    mixing-type and parameters
     AMIX     =   0.40;   BMIX     =  1.00
     AMIX_MAG =   1.60;   BMIX_MAG =  1.00
     AMIN     =   0.10
     WC   =   100.;   INIMIX=   1;  MIXPRE=   1;  MAXMIX= -45

 Intra band minimization:
   WEIMIN = 0.0000     energy-eigenvalue tresh-hold
   EBREAK =  0.25E-08  absolut break condition
   DEPER  =   0.30     relativ break condition  

   TIME   =   0.40     timestep for ELM

  volume/ion in A,a.u.               =      11.42        77.08
  Fermi-wavevector in a.u.,A,eV,Ry     =   1.483514  2.803436 29.943904  2.200815
  Thomas-Fermi vector in A             =   2.597166
 
 Write flags
   LWAVE        =      F    write WAVECAR
   LDOWNSAMPLE  =      F    k-point downsampling of WAVECAR
   LCHARG       =      T    write CHGCAR
   LVTOT        =      F    write LOCPOT, total local potential
   LVHAR        =      F    write LOCPOT, Hartree potential only
   LELF         =      F    write electronic localiz. function (ELF)
   LORBIT       =     11    0 simple, 1 ext, 2 COOP (PROOUT), +10 PAW based schemes


 Dipole corrections
   LMONO  =      F    monopole corrections only (constant potential shift)
   LDIPOL =      F    correct potential (dipole corrections)
   IDIPOL =      0    1-x, 2-y, 3-z, 4-all directions 
   EPSILON=  1.0000000 bulk dielectric constant

 Exchange correlation treatment:
   GGA     =    --    GGA type
   LEXCH   =     8    internal setting for exchange type
   VOSKOWN=      0    Vosko Wilk Nusair interpolation
   LHFCALC =     F    Hartree Fock is set to
   LHFONE  =     F    Hartree Fock one center treatment
   AEXX    =    0.0000 exact exchange contribution

 Linear response parameters
   LEPSILON=     F    determine dielectric tensor
   LRPA    =     F    only Hartree local field effects (RPA)
   LNABLA  =     F    use nabla operator in PAW spheres
   LVEL    =     F    velocity operator in full k-point grid
   LINTERFAST=   F  fast interpolation
   KINTER  =     0    interpolate to denser k-point grid
   CSHIFT  =0.1000    complex shift for real part using Kramers Kronig
   OMEGAMAX=  -1.0    maximum frequency
   DEG_THRESHOLD= 0.2000000E-02 threshold for treating states as degnerate
   RTIME   =   -0.100 relaxation time in fs
  (WPLASMAI=    0.000 imaginary part of plasma frequency in eV, 0.658/RTIME)
   DFIELD  = 0.0000000 0.0000000 0.0000000 field for delta impulse in time
 
 Orbital magnetization related:
   ORBITALMAG=     F  switch on orbital magnetization
   LCHIMAG   =     F  perturbation theory with respect to B field
   DQ        =  0.001000  dq finite difference perturbation B field
   LLRAUG    =     F  two centre corrections for induced B field



--------------------------------------------------------------------------------------------------------


 Static calculation
 charge density and potential will be updated during run
 spin polarized calculation
 RMM-DIIS sequential band-by-band and
  variant of blocked Davidson during initial phase
 perform sub-space diagonalisation
    before iterative eigenvector-optimisation
 modified Broyden-mixing scheme, WC =      100.0
 initial mixing is a Kerker type mixing with AMIX =  0.4000 and BMIX =      1.0000
 Hartree-type preconditioning will be used
 using additional bands           34
 real space projection scheme for non local part
 use partial core corrections
 calculate Harris-corrections to forces 
   (improved forces if not selfconsistent)
 use gradient corrections 
 use of overlap-Matrix (Vanderbilt PP)
 Fermi weights with tetrahedron method with Bloechl corrections


--------------------------------------------------------------------------------------------------------


  energy-cutoff  :      520.00
  volume of cell :      182.76
      direct lattice vectors                 reciprocal lattice vectors
     1.787500000  1.787500000 -3.575000000     0.069930070  0.069930070 -0.209790210
     0.000000000 -5.362500000 -1.787500000    -0.017482517 -0.157342657 -0.087412587
    -7.150000000  1.787500000 -1.787500000    -0.122377622  0.017482517 -0.052447552

  length of vectors
     4.378462915  5.652571318  7.583720228     0.231931804  0.180840567  0.134285765


 
 k-points in units of 2pi/SCALE and weight: read from INCAR                         
  -0.00000000 -0.00000000 -0.00000000       0.017
   0.05000000  0.05000000 -0.15000000       0.033
   0.10000000  0.10000000 -0.30000000       0.033
  -0.01562500 -0.14062500 -0.07812500       0.033
   0.03437500 -0.09062500 -0.22812500       0.033
   0.08437500 -0.04062500 -0.37812500       0.033
  -0.11562500 -0.24062500  0.22187500       0.033
  -0.06562500 -0.19062500  0.07187500       0.033
  -0.03125000 -0.28125000 -0.15625000       0.017
   0.01875000 -0.23125000 -0.30625000       0.033
   0.06875000 -0.18125000 -0.45625000       0.033
  -0.14583333  0.02083333 -0.06250000       0.033
  -0.09583333  0.07083333 -0.21250000       0.033
  -0.04583333  0.12083333 -0.36250000       0.033
  -0.24583333 -0.07916667  0.23750000       0.033
  -0.19583333 -0.02916667  0.08750000       0.033
  -0.16145833 -0.11979167 -0.14062500       0.033
  -0.11145833 -0.06979167 -0.29062500       0.033
  -0.06145833 -0.01979167 -0.44062500       0.033
  -0.26145833 -0.21979167  0.15937500       0.033
  -0.21145833 -0.16979167  0.00937500       0.033
  -0.17708333 -0.26041667 -0.21875000       0.033
  -0.12708333 -0.21041667 -0.36875000       0.033
  -0.07708333 -0.16041667 -0.51875000       0.033
  -0.27708333 -0.36041667  0.08125000       0.033
  -0.22708333 -0.31041667 -0.06875000       0.033
  -0.13020833  0.16145833  0.01562500       0.033
  -0.08020833  0.21145833 -0.13437500       0.033
  -0.03020833  0.26145833 -0.28437500       0.033
  -0.23020833  0.06145833  0.31562500       0.033
  -0.18020833  0.11145833  0.16562500       0.033
 
 k-points in reciprocal lattice and weights: read from INCAR                         
   0.00000000  0.00000000  0.00000000       0.017
   0.20000000  0.00000000  0.00000000       0.033
   0.40000000  0.00000000  0.00000000       0.033
   0.00000000  0.25000000  0.00000000       0.033
   0.20000000  0.25000000  0.00000000       0.033
   0.40000000  0.25000000  0.00000000       0.033
  -0.40000000  0.25000000  0.00000000       0.033
  -0.20000000  0.25000000  0.00000000       0.033
   0.00000000  0.50000000  0.00000000       0.017
   0.20000000  0.50000000  0.00000000       0.033
   0.40000000  0.50000000  0.00000000       0.033
   0.00000000  0.00000000  0.33333333       0.033
   0.20000000  0.00000000  0.33333333       0.033
   0.40000000  0.00000000  0.33333333       0.033
  -0.40000000  0.00000000  0.33333333       0.033
  -0.20000000  0.00000000  0.33333333       0.033
   0.00000000  0.25000000  0.33333333       0.033
   0.20000000  0.25000000  0.33333333       0.033
   0.40000000  0.25000000  0.33333333       0.033
  -0.40000000  0.25000000  0.33333333       0.033
  -0.20000000  0.25000000  0.33333333       0.033
   0.00000000  0.50000000  0.33333333       0.033
   0.20000000  0.50000000  0.33333333       0.033
   0.40000000  0.50000000  0.33333333       0.033
  -0.40000000  0.50000000  0.33333333       0.033
  -0.20000000  0.50000000  0.33333333       0.033
   0.00000000 -0.25000000  0.33333333       0.033
   0.20000000 -0.25000000  0.33333333       0.033
   0.40000000 -0.25000000  0.33333333       0.033
  -0.40000000 -0.25000000  0.33333333       0.033
  -0.20000000 -0.25000000  0.33333333       0.033
 
 position of ions in fractional coordinates (direct lattice) 
   0.24901764  0.68996121  0.81355624
   0.00202188  0.24950171  0.74977708
   0.24952567  0.93842373  0.56144748
   0.00094813  0.49573351  0.49938590
   0.00316473  0.74793025  0.25028031
   0.74530531  0.56630224  0.93731399
   0.50514339  0.12746839  0.87534868
   0.74455857  0.80599457  0.68611648
   0.50487419  0.37916087  0.62398554
   0.50336321  0.61959330  0.37421370
   0.25315666  0.19164394  0.31363011
   0.49929223  0.88309835  0.12320165
   0.24552367  0.43867844  0.06262792
   0.00024700  0.99943000  0.00239141
   0.74346172  0.06351826  0.43725691
   0.75039599  0.30356124  0.18946660
 
 position of ions in cartesian coordinates  (Angst):
  -5.37180811 -1.80056616 -3.57777550
  -5.35729199  0.00588772 -1.79343905
  -3.56832236 -3.58268272 -3.57307407
  -3.56891445 -1.76402386 -1.78216550
  -1.78384725 -3.55774294 -1.79561530
  -5.36956178 -0.02911375 -5.35218048
  -5.35579926  1.78408031 -3.59842312
  -3.57483438 -1.76481425 -5.32894538
  -3.55903397 -0.01541338 -3.59804944
  -1.77586624 -1.75390033 -3.57595348
  -1.78993775 -0.01455929 -1.80821244
   0.01159306 -3.62290706 -3.58373098
  -0.00891606 -1.80159217 -1.77383226
  -0.01665705 -5.35472724 -1.79163881
  -1.79744907  1.76991786 -3.55301127
  -0.01335334  0.05215725 -3.56395292
 


--------------------------------------------------------------------------------------------------------


 k-point  1 :   0.0000 0.0000 0.0000  plane waves:    4921
 k-point  2 :   0.2000 0.0000 0.0000  plane waves:    4932
 k-point  3 :   0.4000 0.0000 0.0000  plane waves:    4929
 k-point  4 :   0.0000 0.2500 0.0000  plane waves:    4912
 k-point  5 :   0.2000 0.2500 0.0000  plane waves:    4903
 k-point  6 :   0.4000 0.2500 0.0000  plane waves:    4921
 k-point  7 :  -0.4000 0.2500 0.0000  plane waves:    4937
 k-point  8 :  -0.2000 0.2500 0.0000  plane waves:    4909
 k-point  9 :   0.0000 0.5000 0.0000  plane waves:    4912
 k-point 10 :   0.2000 0.5000 0.0000  plane waves:    4902
 k-point 11 :   0.4000 0.5000 0.0000  plane waves:    4914
 k-point 12 :   0.0000 0.0000 0.3333  plane waves:    4925
 k-point 13 :   0.2000 0.0000 0.3333  plane waves:    4919
 k-point 14 :   0.4000 0.0000 0.3333  plane waves:    4934
 k-point 15 :  -0.4000 0.0000 0.3333  plane waves:    4924
 k-point 16 :  -0.2000 0.0000 0.3333  plane waves:    4928
 k-point 17 :   0.0000 0.2500 0.3333  plane waves:    4924
 k-point 18 :   0.2000 0.2500 0.3333  plane waves:    4912
 k-point 19 :   0.4000 0.2500 0.3333  plane waves:    4919
 k-point 20 :  -0.4000 0.2500 0.3333  plane waves:    4938
 k-point 21 :  -0.2000 0.2500 0.3333  plane waves:    4934
 k-point 22 :   0.0000 0.5000 0.3333  plane waves:    4898
 k-point 23 :   0.2000 0.5000 0.3333  plane waves:    4903
 k-point 24 :   0.4000 0.5000 0.3333  plane waves:    4914
 k-point 25 :  -0.4000 0.5000 0.3333  plane waves:    4907
 k-point 26 :  -0.2000 0.5000 0.3333  plane waves:    4929
 k-point 27 :   0.0000-0.2500 0.3333  plane waves:    4911
 k-point 28 :   0.2000-0.2500 0.3333  plane waves:    4924
 k-point 29 :   0.4000-0.2500 0.3333  plane waves:    4939
 k-point 30 :  -0.4000-0.2500 0.3333  plane waves:    4926
 k-point 31 :  -0.2000-0.2500 0.3333  plane waves:    4915

 maximum and minimum number of plane-waves per node :       635      594

 maximum number of plane-waves:      4939
 maximum index in each direction: 
   IXMAX=    8   IYMAX=   10   IZMAX=   14
   IXMIN=   -8   IYMIN=  -11   IZMIN=  -14


 real space projection operators:
  total allocation   :      14661.84 KBytes
  max/ min on nodes  :       2105.02       1565.86


 parallel 3D FFT for wavefunctions:
    minimum data exchange during FFTs selected (reduces bandwidth)
 parallel 3D FFT for charge:
    minimum data exchange during FFTs selected (reduces bandwidth)


 total amount of memory used by VASP MPI-rank0    61114. kBytes
=======================================================================

   base      :      30000. kBytes
   nonlr-proj:       4431. kBytes
   fftplans  :       1321. kBytes
   grid      :       3242. kBytes
   one-center:         62. kBytes
   wavefun   :      22058. kBytes
 
     INWAV:  cpu time    0.0000: real time    0.0025
 Broyden mixing: mesh for mixing (old mesh)
   NGX = 17   NGY = 21   NGZ = 29
  (NGX  = 72   NGY  = 84   NGZ  =112)
  gives a total of  10353 points

 initial charge density was supplied:
 charge density of overlapping atoms calculated
 number of electron     136.0000000 magnetization      40.0000000
 keeping initial charge density in first step


--------------------------------------------------------------------------------------------------------


 Maximum index for non-local projection operator         1050
 Maximum index for augmentation-charges          716 (set IRDMAX)


--------------------------------------------------------------------------------------------------------


 First call to EWALD:  gamma=   0.312
 Maximum number of real-space cells 3x 3x 2
 Maximum number of reciprocal cells 2x 3x 4

    FEWALD:  cpu time    0.0020: real time    0.0014


--------------------------------------- Iteration      1(   1)  ---------------------------------------


    POTLOK:  cpu time    0.0370: real time    0.0424
    SETDIJ:  cpu time    0.0100: real time    0.0093
     EDDAV:  cpu time    7.5259: real time    7.5787
 BZINTS: Fermi energy: 21.726173;136.000000 electrons
         Band energy:2153.191330;  BLOECHL correction: -0.056429
       DOS:  cpu time    0.0780: real time    0.0815
    --------------------------------------------
      LOOP:  cpu time    7.6508: real time    7.7119

 eigenvalue-minimisations  : 12720
 total energy-change (2. order) : 0.1204935E+04  (-0.5593240E+04)
 number of electron     136.0000000 magnetization      40.0000000
 augmentation part      136.0000000 magnetization      40.0000000

 Free energy of the ion-electron system (eV)
  ---------------------------------------------------
  alpha Z        PSCENC =       923.24942624
  Ewald energy   TEWEN  =    -10699.34444403
  -Hartree energ DENC   =     -2441.66203104
  -exchange      EXHF   =         0.00000000
  -V(xc)+E(xc)   XCENC  =       187.12717868
  PAW double counting   =     10496.44389667   -10856.50629440
  entropy T*S    EENTRO =         0.00000000
  eigenvalues    EBANDS =      2153.19132958
  atomic energy  EATOM  =     11442.43584605
  Solvation  Ediel_sol  =         0.00000000
  ---------------------------------------------------
  free energy    TOTEN  =      1204.93490773 eV

  energy without entropy =     1204.93490773  energy(sigma->0) =     1204.93490773


--------------------------------------------------------------------------------------------------------




--------------------------------------- Iteration      1(   2)  ---------------------------------------


     EDDAV:  cpu time    7.4519: real time    7.5940
 BZINTS: Fermi energy: 10.467798;136.000000 electrons
         Band energy: 953.097076;  BLOECHL correction: -0.020163
       DOS:  cpu time    0.0900: real time    0.0918
    --------------------------------------------
      LOOP:  cpu time    7.5419: real time    7.6857

 eigenvalue-minimisations  : 12648
 total energy-change (2. order) :-0.1200094E+04  (-0.1129669E+04)
 number of electron     136.0000000 magnetization      40.0000000
 augmentation part      136.0000000 magnetization      40.0000000

 Free energy of the ion-electron system (eV)
  ---------------------------------------------------
  alpha Z        PSCENC =       923.24942624
  Ewald energy   TEWEN  =    -10699.34444403
  -Hartree energ DENC   =     -2441.66203104
  -exchange      EXHF   =         0.00000000
  -V(xc)+E(xc)   XCENC  =       187.12717868
  PAW double counting   =     10496.44389667   -10856.50629440
  entropy T*S    EENTRO =         0.00000000
  eigenvalues    EBANDS =       953.09707550
  atomic energy  EATOM  =     11442.43584605
  Solvation  Ediel_sol  =         0.00000000
  ---------------------------------------------------
  free energy    TOTEN  =         4.84065366 eV

  energy without entropy =        4.84065366  energy(sigma->0) =        4.84065366


--------------------------------------------------------------------------------------------------------




--------------------------------------- Iteration      1(   3)  ---------------------------------------


     EDDAV:  cpu time    7.4049: real time    7.5229
 BZINTS: Fermi energy:  8.839523;136.000000 electrons
         Band energy: 818.182093;  BLOECHL correction: -0.033943
       DOS:  cpu time    0.0940: real time    0.0944
    --------------------------------------------
      LOOP:  cpu time    7.4989: real time    7.6173

 eigenvalue-minimisations  : 12651
 total energy-change (2. order) :-0.1349150E+03  (-0.1102072E+03)
 number of electron     136.0000000 magnetization      40.0000000
 augmentation part      136.0000000 magnetization      40.0000000

 Free energy of the ion-electron system (eV)
  ---------------------------------------------------
  alpha Z        PSCENC =       923.24942624
  Ewald energy   TEWEN  =    -10699.34444403
  -Hartree energ DENC   =     -2441.66203104
  -exchange      EXHF   =         0.00000000
  -V(xc)+E(xc)   XCENC  =       187.12717868
  PAW double counting   =     10496.44389667   -10856.50629440
  entropy T*S    EENTRO =         0.00000000
  eigenvalues    EBANDS =       818.18209319
  atomic energy  EATOM  =     11442.43584605
  Solvation  Ediel_sol  =         0.00000000
  ---------------------------------------------------
  free energy    TOTEN  =      -130.07432866 eV

  energy without entropy =     -130.07432866  energy(sigma->0) =     -130.07432866


--------------------------------------------------------------------------------------------------------




--------------------------------------- Iteration      1(   4)  ---------------------------------------


     EDDAV:  cpu time    8.0418: real time    8.1803
 BZINTS: Fermi energy:  8.798852;136.000000 electrons
         Band energy: 813.251682;  BLOECHL correction: -0.034075
       DOS:  cpu time    0.0910: real time    0.0919
    --------------------------------------------
      LOOP:  cpu time    8.1328: real time    8.2722

 eigenvalue-minimisations  : 13887
 total energy-change (2. order) :-0.4930411E+01  (-0.4815573E+01)
 number of electron     136.0000000 magnetization      40.0000000
 augmentation part      136.0000000 magnetization      40.0000000

 Free energy of the ion-electron system (eV)
  ---------------------------------------------------
  alpha Z        PSCENC =       923.24942624
  Ewald energy   TEWEN  =    -10699.34444403
  -Hartree energ DENC   =     -2441.66203104
  -exchange      EXHF   =         0.00000000
  -V(xc)+E(xc)   XCENC  =       187.12717868
  PAW double counting   =     10496.44389667   -10856.50629440
  entropy T*S    EENTRO =         0.00000000
  eigenvalues    EBANDS =       813.25168184
  atomic energy  EATOM  =     11442.43584605
  Solvation  Ediel_sol  =         0.00000000
  ---------------------------------------------------
  free energy    TOTEN  =      -135.00474000 eV

  energy without entropy =     -135.00474000  energy(sigma->0) =     -135.00474000


--------------------------------------------------------------------------------------------------------




--------------------------------------- Iteration      1(   5)  ---------------------------------------


     EDDAV:  cpu time    8.3227: real time    8.4689
 BZINTS: Fermi energy:  8.798298;136.000000 electrons
         Band energy: 813.192413;  BLOECHL correction: -0.034051
       DOS:  cpu time    0.0930: real time    0.0936
    CHARGE:  cpu time    0.2530: real time    0.2543
    MIXING:  cpu time    0.0010: real time    0.0012
    --------------------------------------------
      LOOP:  cpu time    8.6697: real time    8.8181

 eigenvalue-minimisations  : 14535
 total energy-change (2. order) :-0.5926836E-01  (-0.5922106E-01)
 number of electron     136.0000020 magnetization      32.2911005
 augmentation part       65.5867885 magnetization      24.5258908

 Broyden mixing:
  rms(total) = 0.44255E+01    rms(broyden)= 0.44255E+01
  rms(prec ) = 0.57068E+01
  weight for this iteration     100.00

 Free energy of the ion-electron system (eV)
  ---------------------------------------------------
  alpha Z        PSCENC =       923.24942624
  Ewald energy   TEWEN  =    -10699.34444403
  -Hartree energ DENC   =     -2441.66203104
  -exchange      EXHF   =         0.00000000
  -V(xc)+E(xc)   XCENC  =       187.12717868
  PAW double counting   =     10496.44389667   -10856.50629440
  entropy T*S    EENTRO =         0.00000000
  eigenvalues    EBANDS =       813.19241348
  atomic energy  EATOM  =     11442.43584605
  Solvation  Ediel_sol  =         0.00000000
  ---------------------------------------------------
  free energy    TOTEN  =      -135.06400837 eV

  energy without entropy =     -135.06400837  energy(sigma->0) =     -135.06400837


--------------------------------------------------------------------------------------------------------




--------------------------------------- Iteration      1(   6)  ---------------------------------------


    POTLOK:  cpu time    0.0370: real time    0.0419
    SETDIJ:  cpu time    0.0100: real time    0.0108
    EDDIAG:  cpu time    1.4658: real time    1.4970
  RMM-DIIS:  cpu time    5.1522: real time    5.2457
    ORTHCH:  cpu time    0.1400: real time    0.1410
 BZINTS: Fermi energy:  6.142687;136.000000 electrons
         Band energy: 478.149242;  BLOECHL correction: -0.015265
       DOS:  cpu time    0.0910: real time    0.0921
    CHARGE:  cpu time    0.2380: real time    0.2390
    MIXING:  cpu time    0.0010: real time    0.0010
    --------------------------------------------
      LOOP:  cpu time    7.1349: real time    7.2685

 eigenvalue-minimisations  : 13094
 total energy-change (2. order) : 0.4258041E+01  (-0.1530767E+02)
 number of electron     136.0000022 magnetization      30.6382075
 augmentation part       77.7705572 magnetization      24.5630892

 Broyden mixing:
  rms(total) = 0.49485E+01    rms(broyden)= 0.49485E+01
  rms(prec ) = 0.85066E+01
  weight for this iteration     100.00

 eigenvalues of (default mixing * dielectric matrix)
  average eigenvalue GAMMA=   0.3956
  0.3956

 Free energy of the ion-electron system (eV)
  ---------------------------------------------------
  alpha Z        PSCENC =       923.24942624
  Ewald energy   TEWEN  =    -10699.34444403
  -Hartree energ DENC   =     -2129.71590465
  -exchange      EXHF   =         0.00000000
  -V(xc)+E(xc)   XCENC  =       168.39424750
  PAW double counting   =     11352.13371519   -11666.10809571
  entropy T*S    EENTRO =         0.00000000
  eigenvalues    EBANDS =       478.14924184
  atomic energy  EATOM  =     11442.43584605
  Solvation  Ediel_sol  =         0.00000000
  ---------------------------------------------------
  free energy    TOTEN  =      -130.80596758 eV

  energy without entropy =     -130.80596758  energy(sigma->0) =     -130.80596758


--------------------------------------------------------------------------------------------------------




--------------------------------------- Iteration      1(   7)  ---------------------------------------


    POTLOK:  cpu time    0.0350: real time    0.0361
    SETDIJ:  cpu time    0.0090: real time    0.0089
    EDDIAG:  cpu time    1.0098: real time    1.0123
  RMM-DIIS:  cpu time    5.3712: real time    5.4141
    ORTHCH:  cpu time    0.1210: real time    0.1221
 BZINTS: Fermi energy:  6.643183;136.000000 electrons
         Band energy: 522.255388;  BLOECHL correction: -0.012093
       DOS:  cpu time    0.0910: real time    0.0917
    CHARGE:  cpu time    0.2340: real time    0.2341
    MIXING:  cpu time    0.0010: real time    0.0011
    --------------------------------------------
      LOOP:  cpu time    6.8720: real time    6.9203

 eigenvalue-minimisations  : 13467
 total energy-change (2. order) :-0.2638024E+02  (-0.4397946E+01)
 number of electron     136.0000029 magnetization      27.2427824
 augmentation part       75.6859840 magnetization      23.0577862

 Broyden mixing:
  rms(total) = 0.83370E+01    rms(broyden)= 0.83369E+01
  rms(prec ) = 0.15747E+02
  weight for this iteration     100.00

 eigenvalues of (default mixing * dielectric matrix)
  average eigenvalue GAMMA=   0.3633
  0.6127  0.1140

 Free energy of the ion-electron system (eV)
  ---------------------------------------------------
  alpha Z        PSCENC =       923.24942624
  Ewald energy   TEWEN  =    -10699.34444403
  -Hartree energ DENC   =     -2179.09363587
  -exchange      EXHF   =         0.00000000
  -V(xc)+E(xc)   XCENC  =       170.37442313
  PAW double counting   =     11659.87495751   -11996.93816483
  entropy T*S    EENTRO =         0.00000000
  eigenvalues    EBANDS =       522.25538768
  atomic energy  EATOM  =     11442.43584605
  Solvation  Ediel_sol  =         0.00000000
  ---------------------------------------------------
  free energy    TOTEN  =      -157.18620413 eV

  energy without entropy =     -157.18620413  energy(sigma->0) =     -157.18620413


--------------------------------------------------------------------------------------------------------




--------------------------------------- Iteration      1(   8)  ---------------------------------------


    POTLOK:  cpu time    0.0350: real time    0.0357
    SETDIJ:  cpu time    0.0100: real time    0.0089
    EDDIAG:  cpu time    1.0378: real time    1.0456
  RMM-DIIS:  cpu time    5.1582: real time    5.2042
    ORTHCH:  cpu time    0.1610: real time    0.1627
 BZINTS: Fermi energy:  6.712470;136.000000 electrons
         Band energy: 590.170052;  BLOECHL correction: -0.012906
       DOS:  cpu time    0.0910: real time    0.0906
    CHARGE:  cpu time    0.2380: real time    0.2386
    MIXING:  cpu time    0.0010: real time    0.0010
    --------------------------------------------
      LOOP:  cpu time    6.7320: real time    6.7872

 eigenvalue-minimisations  : 12949
 total energy-change (2. order) : 0.2785853E+02  (-0.1752340E+01)
 number of electron     136.0000018 magnetization      26.4101286
 augmentation part       74.1991999 magnetization      21.0508818

 Broyden mixing:
  rms(total) = 0.46494E+01    rms(broyden)= 0.46493E+01
  rms(prec ) = 0.78579E+01
  weight for this iteration     100.00

 eigenvalues of (default mixing * dielectric matrix)
  average eigenvalue GAMMA=   0.3626
  0.6691  0.2959  0.1226

 Free energy of the ion-electron system (eV)
  ---------------------------------------------------
  alpha Z        PSCENC =       923.24942624
  Ewald energy   TEWEN  =    -10699.34444403
  -Hartree energ DENC   =     -2197.64180420
  -exchange      EXHF   =         0.00000000
  -V(xc)+E(xc)   XCENC  =       169.70749796
  PAW double counting   =     12058.15194132   -12416.05618510
  entropy T*S    EENTRO =         0.00000000
  eigenvalues    EBANDS =       590.17005234
  atomic energy  EATOM  =     11442.43584605
  Solvation  Ediel_sol  =         0.00000000
  ---------------------------------------------------
  free energy    TOTEN  =      -129.32766943 eV

  energy without entropy =     -129.32766943  energy(sigma->0) =     -129.32766943


--------------------------------------------------------------------------------------------------------




--------------------------------------- Iteration      1(   9)  ---------------------------------------


    POTLOK:  cpu time    0.0360: real time    0.0362
    SETDIJ:  cpu time    0.0100: real time    0.0091
    EDDIAG:  cpu time    1.0488: real time    1.0525
  RMM-DIIS:  cpu time    5.0352: real time    5.0740
    ORTHCH:  cpu time    0.1210: real time    0.1215
 BZINTS: Fermi energy:  6.734272;136.000000 electrons
         Band energy: 600.908261;  BLOECHL correction: -0.017121
       DOS:  cpu time    0.0900: real time    0.0916
    CHARGE:  cpu time    0.2360: real time    0.2362
    MIXING:  cpu time    0.0010: real time    0.0010
    --------------------------------------------
      LOOP:  cpu time    6.5780: real time    6.6221

 eigenvalue-minimisations  : 12713
 total energy-change (2. order) : 0.1006182E+02  (-0.8004958E+00)
 number of electron     136.0000023 magnetization      24.5417008
 augmentation part       73.6529358 magnetization      19.3783690

 Broyden mixing:
  rms(total) = 0.19585E+01    rms(broyden)= 0.19584E+01
  rms(prec ) = 0.31859E+01
  weight for this iteration     100.00

 eigenvalues of (default mixing * dielectric matrix)
  average eigenvalue GAMMA=   0.4671
  1.0979  0.5354  0.0990  0.1363

 Free energy of the ion-electron system (eV)
  ---------------------------------------------------
  alpha Z        PSCENC =       923.24942624
  Ewald energy   TEWEN  =    -10699.34444403
  -Hartree energ DENC   =     -2194.93418305
  -exchange      EXHF   =         0.00000000
  -V(xc)+E(xc)   XCENC  =       169.45766930
  PAW double counting   =     12160.19399127   -12521.23241784
  entropy T*S    EENTRO =         0.00000000
  eigenvalues    EBANDS =       600.90826095
  atomic energy  EATOM  =     11442.43584605
  Solvation  Ediel_sol  =         0.00000000
  ---------------------------------------------------
  free energy    TOTEN  =      -119.26585111 eV

  energy without entropy =     -119.26585111  energy(sigma->0) =     -119.26585111


--------------------------------------------------------------------------------------------------------




--------------------------------------- Iteration      1(  10)  ---------------------------------------


    POTLOK:  cpu time    0.0350: real time    0.0356
    SETDIJ:  cpu time    0.0090: real time    0.0089
    EDDIAG:  cpu time    1.0088: real time    1.0139
  RMM-DIIS:  cpu time    5.1002: real time    5.1131
    ORTHCH:  cpu time    0.1210: real time    0.1221
 BZINTS: Fermi energy:  6.699207;136.000000 electrons
         Band energy: 588.259465;  BLOECHL correction: -0.014782
       DOS:  cpu time    0.0900: real time    0.0896
    CHARGE:  cpu time    0.2360: real time    0.2357
    MIXING:  cpu time    0.0010: real time    0.0011
    --------------------------------------------
      LOOP:  cpu time    6.6010: real time    6.6201

 eigenvalue-minimisations  : 12859
 total energy-change (2. order) :-0.2785549E+01  (-0.3556798E+00)
 number of electron     136.0000025 magnetization      24.0357801
 augmentation part       74.0614883 magnetization      19.5866814

 Broyden mixing:
  rms(total) = 0.28580E+01    rms(broyden)= 0.28579E+01
  rms(prec ) = 0.47705E+01
  weight for this iteration     100.00

 eigenvalues of (default mixing * dielectric matrix)
  average eigenvalue GAMMA=   0.4164
  1.1639  0.5150  0.1736  0.1297  0.0999

 Free energy of the ion-electron system (eV)
  ---------------------------------------------------
  alpha Z        PSCENC =       923.24942624
  Ewald energy   TEWEN  =    -10699.34444403
  -Hartree energ DENC   =     -2177.98000107
  -exchange      EXHF   =         0.00000000
  -V(xc)+E(xc)   XCENC  =       169.15155875
  PAW double counting   =     12448.45545031   -12816.27870133
  entropy T*S    EENTRO =         0.00000000
  eigenvalues    EBANDS =       588.25946520
  atomic energy  EATOM  =     11442.43584605
  Solvation  Ediel_sol  =         0.00000000
  ---------------------------------------------------
  free energy    TOTEN  =      -122.05139989 eV

  energy without entropy =     -122.05139989  energy(sigma->0) =     -122.05139989


--------------------------------------------------------------------------------------------------------




--------------------------------------- Iteration      1(  11)  ---------------------------------------


    POTLOK:  cpu time    0.0350: real time    0.0356
    SETDIJ:  cpu time    0.0100: real time    0.0090
    EDDIAG:  cpu time    1.0308: real time    1.0339
  RMM-DIIS:  cpu time    5.0382: real time    5.0506
    ORTHCH:  cpu time    0.1230: real time    0.1228
 BZINTS: Fermi energy:  6.574514;136.000000 electrons
         Band energy: 590.653376;  BLOECHL correction: -0.021464
       DOS:  cpu time    0.0910: real time    0.0915
    CHARGE:  cpu time    0.2350: real time    0.2345
    MIXING:  cpu time    0.0010: real time    0.0011
    --------------------------------------------
      LOOP:  cpu time    6.5640: real time    6.5792

 eigenvalue-minimisations  : 12767
 total energy-change (2. order) : 0.3251455E+01  (-0.1982553E+00)
 number of electron     136.0000021 magnetization      24.1473547
 augmentation part       74.1224634 magnetization      19.2788459

 Broyden mixing:
  rms(total) = 0.94889E+00    rms(broyden)= 0.94882E+00
  rms(prec ) = 0.14132E+01
  weight for this iteration     100.00

 eigenvalues of (default mixing * dielectric matrix)
  average eigenvalue GAMMA=   0.4197
  1.2052  0.4869  0.4869  0.1308  0.0967  0.1120

 Free energy of the ion-electron system (eV)
  ---------------------------------------------------
  alpha Z        PSCENC =       923.24942624
  Ewald energy   TEWEN  =    -10699.34444403
  -Hartree energ DENC   =     -2174.89665381
  -exchange      EXHF   =         0.00000000
  -V(xc)+E(xc)   XCENC  =       168.98634370
  PAW double counting   =     12527.03187596   -12896.91571459
  entropy T*S    EENTRO =         0.00000000
  eigenvalues    EBANDS =       590.65337586
  atomic energy  EATOM  =     11442.43584605
  Solvation  Ediel_sol  =         0.00000000
  ---------------------------------------------------
  free energy    TOTEN  =      -118.79994462 eV

  energy without entropy =     -118.79994462  energy(sigma->0) =     -118.79994462


--------------------------------------------------------------------------------------------------------




--------------------------------------- Iteration      1(  12)  ---------------------------------------


    POTLOK:  cpu time    0.0350: real time    0.0357
    SETDIJ:  cpu time    0.0090: real time    0.0091
    EDDIAG:  cpu time    1.0268: real time    1.0299
  RMM-DIIS:  cpu time    5.1912: real time    5.2322
    ORTHCH:  cpu time    0.1210: real time    0.1218
 BZINTS: Fermi energy:  6.559368;136.000000 electrons
         Band energy: 589.749343;  BLOECHL correction: -0.023618
       DOS:  cpu time    0.0900: real time    0.0911
    CHARGE:  cpu time    0.2460: real time    0.2473
    MIXING:  cpu time    0.0020: real time    0.0011
    --------------------------------------------
      LOOP:  cpu time    6.7210: real time    6.7682

 eigenvalue-minimisations  : 13045
 total energy-change (2. order) :-0.2306835E+00  (-0.4116168E-01)
 number of electron     136.0000023 magnetization      24.4000196
 augmentation part       74.1770884 magnetization      19.5582744

 Broyden mixing:
  rms(total) = 0.10642E+01    rms(broyden)= 0.10642E+01
  rms(prec ) = 0.16569E+01
  weight for this iteration     100.00

 eigenvalues of (default mixing * dielectric matrix)
  average eigenvalue GAMMA=   0.3790
  1.2121  0.4996  0.4996  0.1396  0.0935  0.1043  0.1043

 Free energy of the ion-electron system (eV)
  ---------------------------------------------------
  alpha Z        PSCENC =       923.24942624
  Ewald energy   TEWEN  =    -10699.34444403
  -Hartree energ DENC   =     -2173.16059369
  -exchange      EXHF   =         0.00000000
  -V(xc)+E(xc)   XCENC  =       169.35138715
  PAW double counting   =     12580.08014761   -12951.39174078
  entropy T*S    EENTRO =         0.00000000
  eigenvalues    EBANDS =       589.74934336
  atomic energy  EATOM  =     11442.43584605
  Solvation  Ediel_sol  =         0.00000000
  ---------------------------------------------------
  free energy    TOTEN  =      -119.03062809 eV

  energy without entropy =     -119.03062809  energy(sigma->0) =     -119.03062809


--------------------------------------------------------------------------------------------------------




--------------------------------------- Iteration      1(  13)  ---------------------------------------


    POTLOK:  cpu time    0.0350: real time    0.0364
    SETDIJ:  cpu time    0.0090: real time    0.0092
    EDDIAG:  cpu time    1.0098: real time    1.0147
  RMM-DIIS:  cpu time    5.1702: real time    5.2006
    ORTHCH:  cpu time    0.1210: real time    0.1222
 BZINTS: Fermi energy:  6.548517;136.000000 electrons
         Band energy: 587.951835;  BLOECHL correction: -0.025379
       DOS:  cpu time    0.0910: real time    0.0915
    CHARGE:  cpu time    0.2590: real time    0.2603
    MIXING:  cpu time    0.0010: real time    0.0012
    --------------------------------------------
      LOOP:  cpu time    6.6960: real time    6.7361

 eigenvalue-minimisations  : 12971
 total energy-change (2. order) : 0.1812928E+00  (-0.1643793E-01)
 number of electron     136.0000022 magnetization      24.6137643
 augmentation part       74.2667804 magnetization      19.7737836

 Broyden mixing:
  rms(total) = 0.62877E+00    rms(broyden)= 0.62876E+00
  rms(prec ) = 0.69741E+00
  weight for this iteration     100.00

 eigenvalues of (default mixing * dielectric matrix)
  average eigenvalue GAMMA=   0.3830
  1.1935  0.5095  0.5095  0.4052  0.1279  0.1279  0.0985  0.0920

 Free energy of the ion-electron system (eV)
  ---------------------------------------------------
  alpha Z        PSCENC =       923.24942624
  Ewald energy   TEWEN  =    -10699.34444403
  -Hartree energ DENC   =     -2170.27579668
  -exchange      EXHF   =         0.00000000
  -V(xc)+E(xc)   XCENC  =       169.85331117
  PAW double counting   =     12640.09962930   -13012.81914217
  entropy T*S    EENTRO =         0.00000000
  eigenvalues    EBANDS =       587.95183485
  atomic energy  EATOM  =     11442.43584605
  Solvation  Ediel_sol  =         0.00000000
  ---------------------------------------------------
  free energy    TOTEN  =      -118.84933528 eV

  energy without entropy =     -118.84933528  energy(sigma->0) =     -118.84933528


--------------------------------------------------------------------------------------------------------




--------------------------------------- Iteration      1(  14)  ---------------------------------------


    POTLOK:  cpu time    0.0350: real time    0.0362
    SETDIJ:  cpu time    0.0100: real time    0.0091
    EDDIAG:  cpu time    1.0158: real time    1.0221
  RMM-DIIS:  cpu time    5.3512: real time    5.3904
    ORTHCH:  cpu time    0.1210: real time    0.1220
 BZINTS: Fermi energy:  6.548724;136.000000 electrons
         Band energy: 587.785549;  BLOECHL correction: -0.026858
       DOS:  cpu time    0.0920: real time    0.0924
    CHARGE:  cpu time    0.2380: real time    0.2401
    MIXING:  cpu time    0.0020: real time    0.0012
    --------------------------------------------
      LOOP:  cpu time    6.8650: real time    6.9137

 eigenvalue-minimisations  : 13234
 total energy-change (2. order) :-0.3836708E-01  (-0.2841127E-02)
 number of electron     136.0000022 magnetization      24.9138532
 augmentation part       74.2795421 magnetization      20.0556347

 Broyden mixing:
  rms(total) = 0.61654E+00    rms(broyden)= 0.61654E+00
  rms(prec ) = 0.65932E+00
  weight for this iteration     100.00

 eigenvalues of (default mixing * dielectric matrix)
  average eigenvalue GAMMA=   0.3836
  1.1804  0.6180  0.6180  0.4451  0.1493  0.1493  0.0986  0.0986  0.0952

 Free energy of the ion-electron system (eV)
  ---------------------------------------------------
  alpha Z        PSCENC =       923.24942624
  Ewald energy   TEWEN  =    -10699.34444403
  -Hartree energ DENC   =     -2169.96742592
  -exchange      EXHF   =         0.00000000
  -V(xc)+E(xc)   XCENC  =       170.09275110
  PAW double counting   =     12656.02753328   -13029.16693766
  entropy T*S    EENTRO =         0.00000000
  eigenvalues    EBANDS =       587.78554859
  atomic energy  EATOM  =     11442.43584605
  Solvation  Ediel_sol  =         0.00000000
  ---------------------------------------------------
  free energy    TOTEN  =      -118.88770235 eV

  energy without entropy =     -118.88770235  energy(sigma->0) =     -118.88770235


--------------------------------------------------------------------------------------------------------




--------------------------------------- Iteration      1(  15)  ---------------------------------------


    POTLOK:  cpu time    0.0350: real time    0.0362
    SETDIJ:  cpu time    0.0090: real time    0.0091
    EDDIAG:  cpu time    1.0368: real time    1.0498
  RMM-DIIS:  cpu time    5.3752: real time    5.4306
    ORTHCH:  cpu time    0.1210: real time    0.1214
 BZINTS: Fermi energy:  6.548867;136.000000 electrons
         Band energy: 587.872555;  BLOECHL correction: -0.026641
       DOS:  cpu time    0.0940: real time    0.0938
    CHARGE:  cpu time    0.2320: real time    0.2324
    MIXING:  cpu time    0.0020: real time    0.0013
    --------------------------------------------
      LOOP:  cpu time    6.9049: real time    6.9745

 eigenvalue-minimisations  : 13256
 total energy-change (2. order) :-0.5635926E-01  (-0.1277918E-02)
 number of electron     136.0000022 magnetization      25.1661907
 augmentation part       74.2846582 magnetization      20.2710505

 Broyden mixing:
  rms(total) = 0.60634E+00    rms(broyden)= 0.60634E+00
  rms(prec ) = 0.63997E+00
  weight for this iteration     100.00

 eigenvalues of (default mixing * dielectric matrix)
  average eigenvalue GAMMA=   0.4142
  1.1901  0.7454  0.7454  0.4526  0.4526  0.1371  0.1151  0.1151  0.0974  0.0914

 Free energy of the ion-electron system (eV)
  ---------------------------------------------------
  alpha Z        PSCENC =       923.24942624
  Ewald energy   TEWEN  =    -10699.34444403
  -Hartree energ DENC   =     -2169.88294138
  -exchange      EXHF   =         0.00000000
  -V(xc)+E(xc)   XCENC  =       170.40435810
  PAW double counting   =     12674.66199100   -13048.34085267
  entropy T*S    EENTRO =         0.00000000
  eigenvalues    EBANDS =       587.87255507
  atomic energy  EATOM  =     11442.43584605
  Solvation  Ediel_sol  =         0.00000000
  ---------------------------------------------------
  free energy    TOTEN  =      -118.94406162 eV

  energy without entropy =     -118.94406162  energy(sigma->0) =     -118.94406162


--------------------------------------------------------------------------------------------------------




--------------------------------------- Iteration      1(  16)  ---------------------------------------


    POTLOK:  cpu time    0.0350: real time    0.0356
    SETDIJ:  cpu time    0.0090: real time    0.0091
    EDDIAG:  cpu time    1.0058: real time    1.0070
  RMM-DIIS:  cpu time    5.3412: real time    5.3589
    ORTHCH:  cpu time    0.1220: real time    0.1216
 BZINTS: Fermi energy:  6.550073;136.000000 electrons
         Band energy: 587.685837;  BLOECHL correction: -0.026608
       DOS:  cpu time    0.0860: real time    0.0869
    CHARGE:  cpu time    0.2370: real time    0.2370
    MIXING:  cpu time    0.0020: real time    0.0015
    --------------------------------------------
      LOOP:  cpu time    6.8380: real time    6.8576

 eigenvalue-minimisations  : 13186
 total energy-change (2. order) :-0.4884923E-01  (-0.1671104E-02)
 number of electron     136.0000022 magnetization      26.4830496
 augmentation part       74.3026706 magnetization      21.5479204

 Broyden mixing:
  rms(total) = 0.60924E+00    rms(broyden)= 0.60924E+00
  rms(prec ) = 0.67133E+00
  weight for this iteration     100.00

 eigenvalues of (default mixing * dielectric matrix)
  average eigenvalue GAMMA=   0.4719
  1.2098  1.0946  1.0946  0.5461  0.5461  0.1485  0.1292  0.1292  0.0999  0.0999
  0.0929

 Free energy of the ion-electron system (eV)
  ---------------------------------------------------
  alpha Z        PSCENC =       923.24942624
  Ewald energy   TEWEN  =    -10699.34444403
  -Hartree energ DENC   =     -2169.65902224
  -exchange      EXHF   =         0.00000000
  -V(xc)+E(xc)   XCENC  =       170.61888961
  PAW double counting   =     12687.22296506   -13061.20240810
  entropy T*S    EENTRO =         0.00000000
  eigenvalues    EBANDS =       587.68583656
  atomic energy  EATOM  =     11442.43584605
  Solvation  Ediel_sol  =         0.00000000
  ---------------------------------------------------
  free energy    TOTEN  =      -118.99291085 eV

  energy without entropy =     -118.99291085  energy(sigma->0) =     -118.99291085


--------------------------------------------------------------------------------------------------------




--------------------------------------- Iteration      1(  17)  ---------------------------------------


    POTLOK:  cpu time    0.0360: real time    0.0356
    SETDIJ:  cpu time    0.0090: real time    0.0091
    EDDIAG:  cpu time    1.0268: real time    1.0284
  RMM-DIIS:  cpu time    5.1672: real time    5.1874
    ORTHCH:  cpu time    0.1250: real time    0.1266
 BZINTS: Fermi energy:  6.549236;136.000000 electrons
         Band energy: 587.425440;  BLOECHL correction: -0.026754
       DOS:  cpu time    0.0930: real time    0.0928
    CHARGE:  cpu time    0.2340: real time    0.2339
    MIXING:  cpu time    0.0010: real time    0.0014
    --------------------------------------------
      LOOP:  cpu time    6.6920: real time    6.7152

 eigenvalue-minimisations  : 12929
 total energy-change (2. order) :-0.1808315E+00  (-0.6414189E-02)
 number of electron     136.0000022 magnetization      27.4184979
 augmentation part       74.3590607 magnetization      22.3024032

 Broyden mixing:
  rms(total) = 0.56862E+00    rms(broyden)= 0.56862E+00
  rms(prec ) = 0.65907E+00
  weight for this iteration     100.00

 eigenvalues of (default mixing * dielectric matrix)
  average eigenvalue GAMMA=   0.5524
  1.5217  1.5217  1.2311  0.6048  0.6048  0.4526  0.1442  0.1332  0.1174  0.1081
  0.0924  0.0971

 Free energy of the ion-electron system (eV)
  ---------------------------------------------------
  alpha Z        PSCENC =       923.24942624
  Ewald energy   TEWEN  =    -10699.34444403
  -Hartree energ DENC   =     -2169.16958106
  -exchange      EXHF   =         0.00000000
  -V(xc)+E(xc)   XCENC  =       171.73914138
  PAW double counting   =     12748.76812285   -13124.27769388
  entropy T*S    EENTRO =         0.00000000
  eigenvalues    EBANDS =       587.42544016
  atomic energy  EATOM  =     11442.43584605
  Solvation  Ediel_sol  =         0.00000000
  ---------------------------------------------------
  free energy    TOTEN  =      -119.17374230 eV

  energy without entropy =     -119.17374230  energy(sigma->0) =     -119.17374230


--------------------------------------------------------------------------------------------------------




--------------------------------------- Iteration      1(  18)  ---------------------------------------


    POTLOK:  cpu time    0.0350: real time    0.0356
    SETDIJ:  cpu time    0.0100: real time    0.0090
    EDDIAG:  cpu time    1.0828: real time    1.0859
  RMM-DIIS:  cpu time    5.1202: real time    5.1327
    ORTHCH:  cpu time    0.1210: real time    0.1219
 BZINTS: Fermi energy:  6.550709;136.000000 electrons
         Band energy: 588.447674;  BLOECHL correction: -0.028347
       DOS:  cpu time    0.0910: real time    0.0909
    CHARGE:  cpu time    0.2410: real time    0.2406
    MIXING:  cpu time    0.0010: real time    0.0015
    --------------------------------------------
      LOOP:  cpu time    6.7020: real time    6.7180

 eigenvalue-minimisations  : 12866
 total energy-change (2. order) :-0.1250298E+00  (-0.9230087E-02)
 number of electron     136.0000023 magnetization      30.4418688
 augmentation part       74.3570278 magnetization      25.2088107

 Broyden mixing:
  rms(total) = 0.57577E+00    rms(broyden)= 0.57577E+00
  rms(prec ) = 0.68984E+00
  weight for this iteration     100.00

 eigenvalues of (default mixing * dielectric matrix)
  average eigenvalue GAMMA=   0.6339
  2.0923  2.0923  1.3023  0.6937  0.6937  0.5400  0.1446  0.1446  0.1213  0.1213
  0.0925  0.0974  0.1042

 Free energy of the ion-electron system (eV)
  ---------------------------------------------------
  alpha Z        PSCENC =       923.24942624
  Ewald energy   TEWEN  =    -10699.34444403
  -Hartree energ DENC   =     -2169.88246018
  -exchange      EXHF   =         0.00000000
  -V(xc)+E(xc)   XCENC  =       172.61200353
  PAW double counting   =     12792.66498008   -13169.48179769
  entropy T*S    EENTRO =         0.00000000
  eigenvalues    EBANDS =       588.44767389
  atomic energy  EATOM  =     11442.43584605
  Solvation  Ediel_sol  =         0.00000000
  ---------------------------------------------------
  free energy    TOTEN  =      -119.29877210 eV

  energy without entropy =     -119.29877210  energy(sigma->0) =     -119.29877210


--------------------------------------------------------------------------------------------------------




--------------------------------------- Iteration      1(  19)  ---------------------------------------


    POTLOK:  cpu time    0.0350: real time    0.0356
    SETDIJ:  cpu time    0.0100: real time    0.0090
    EDDIAG:  cpu time    1.0238: real time    1.0260
  RMM-DIIS:  cpu time    5.1202: real time    5.1387
    ORTHCH:  cpu time    0.1210: real time    0.1215
 BZINTS: Fermi energy:  6.604185;136.000000 electrons
         Band energy: 588.505680;  BLOECHL correction: -0.048714
       DOS:  cpu time    0.0920: real time    0.0916
    CHARGE:  cpu time    0.2350: real time    0.2359
    MIXING:  cpu time    0.0020: real time    0.0016
    --------------------------------------------
      LOOP:  cpu time    6.6390: real time    6.6598

 eigenvalue-minimisations  : 12893
 total energy-change (2. order) :-0.2457897E+00  (-0.2122871E-01)
 number of electron     136.0000022 magnetization      31.3734179
 augmentation part       74.4128757 magnetization      25.8420323

 Broyden mixing:
  rms(total) = 0.34398E+00    rms(broyden)= 0.34395E+00
  rms(prec ) = 0.45611E+00
  weight for this iteration     100.00

 eigenvalues of (default mixing * dielectric matrix)
  average eigenvalue GAMMA=   0.6766
  2.2585  2.2585  1.4288  0.7680  0.7680  0.5807  0.5807  0.1520  0.1339  0.1276
  0.1195  0.0924  0.0973  0.1059

 Free energy of the ion-electron system (eV)
  ---------------------------------------------------
  alpha Z        PSCENC =       923.24942624
  Ewald energy   TEWEN  =    -10699.34444403
  -Hartree energ DENC   =     -2169.85113647
  -exchange      EXHF   =         0.00000000
  -V(xc)+E(xc)   XCENC  =       175.48569526
  PAW double counting   =     12928.82700845   -13308.85263745
  entropy T*S    EENTRO =         0.00000000
  eigenvalues    EBANDS =       588.50568018
  atomic energy  EATOM  =     11442.43584605
  Solvation  Ediel_sol  =         0.00000000
  ---------------------------------------------------
  free energy    TOTEN  =      -119.54456178 eV

  energy without entropy =     -119.54456178  energy(sigma->0) =     -119.54456178


--------------------------------------------------------------------------------------------------------




--------------------------------------- Iteration      1(  20)  ---------------------------------------


    POTLOK:  cpu time    0.0350: real time    0.0355
    SETDIJ:  cpu time    0.0090: real time    0.0091
    EDDIAG:  cpu time    1.0258: real time    1.0286
  RMM-DIIS:  cpu time    5.1382: real time    5.1684
    ORTHCH:  cpu time    0.1220: real time    0.1223
 BZINTS: Fermi energy:  6.624659;136.000000 electrons
         Band energy: 587.395370;  BLOECHL correction: -0.056251
       DOS:  cpu time    0.0900: real time    0.0899
    CHARGE:  cpu time    0.2400: real time    0.2404
    MIXING:  cpu time    0.0020: real time    0.0017
    --------------------------------------------
      LOOP:  cpu time    6.6620: real time    6.6961

 eigenvalue-minimisations  : 12955
 total energy-change (2. order) :-0.1155718E+00  (-0.1480069E-01)
 number of electron     136.0000022 magnetization      31.8336632
 augmentation part       74.4613093 magnetization      26.2273801

 Broyden mixing:
  rms(total) = 0.43966E+00    rms(broyden)= 0.43965E+00
  rms(prec ) = 0.68292E+00
  weight for this iteration     100.00

 eigenvalues of (default mixing * dielectric matrix)
  average eigenvalue GAMMA=   0.6686
  2.2746  2.2746  1.5495  0.8576  0.8576  0.6097  0.6097  0.1652  0.1521  0.1355
  0.1268  0.1202  0.0924  0.0973  0.1057

 Free energy of the ion-electron system (eV)
  ---------------------------------------------------
  alpha Z        PSCENC =       923.24942624
  Ewald energy   TEWEN  =    -10699.34444403
  -Hartree energ DENC   =     -2168.15403811
  -exchange      EXHF   =         0.00000000
  -V(xc)+E(xc)   XCENC  =       176.44450418
  PAW double counting   =     13007.90267044   -13389.58946854
  entropy T*S    EENTRO =         0.00000000
  eigenvalues    EBANDS =       587.39537024
  atomic energy  EATOM  =     11442.43584605
  Solvation  Ediel_sol  =         0.00000000
  ---------------------------------------------------
  free energy    TOTEN  =      -119.66013354 eV

  energy without entropy =     -119.66013354  energy(sigma->0) =     -119.66013354


--------------------------------------------------------------------------------------------------------




--------------------------------------- Iteration      1(  21)  ---------------------------------------


    POTLOK:  cpu time    0.0350: real time    0.0355
    SETDIJ:  cpu time    0.0090: real time    0.0090
    EDDIAG:  cpu time    1.0258: real time    1.0295
  RMM-DIIS:  cpu time    5.1022: real time    5.1255
    ORTHCH:  cpu time    0.1200: real time    0.1217
 BZINTS: Fermi energy:  6.630419;136.000000 electrons
         Band energy: 587.502716;  BLOECHL correction: -0.066460
       DOS:  cpu time    0.0910: real time    0.0905
    CHARGE:  cpu time    0.2490: real time    0.2500
    MIXING:  cpu time    0.0020: real time    0.0017
    --------------------------------------------
      LOOP:  cpu time    6.6340: real time    6.6635

 eigenvalue-minimisations  : 12845
 total energy-change (2. order) : 0.5448560E-01  (-0.7930105E-02)
 number of electron     136.0000022 magnetization      32.0736277
 augmentation part       74.4472547 magnetization      26.4711683

 Broyden mixing:
  rms(total) = 0.16122E+00    rms(broyden)= 0.16121E+00
  rms(prec ) = 0.20701E+00
  weight for this iteration     100.00

 eigenvalues of (default mixing * dielectric matrix)
  average eigenvalue GAMMA=   0.6997
  2.3324  2.3324  1.7296  1.0077  1.0077  0.6216  0.6216  0.5604  0.1578  0.1482
  0.1343  0.0924  0.0973  0.1253  0.1204  0.1057

 Free energy of the ion-electron system (eV)
  ---------------------------------------------------
  alpha Z        PSCENC =       923.24942624
  Ewald energy   TEWEN  =    -10699.34444403
  -Hartree energ DENC   =     -2166.77640294
  -exchange      EXHF   =         0.00000000
  -V(xc)+E(xc)   XCENC  =       176.98221356
  PAW double counting   =     13093.12555517   -13476.78055777
  entropy T*S    EENTRO =         0.00000000
  eigenvalues    EBANDS =       587.50271578
  atomic energy  EATOM  =     11442.43584605
  Solvation  Ediel_sol  =         0.00000000
  ---------------------------------------------------
  free energy    TOTEN  =      -119.60564794 eV

  energy without entropy =     -119.60564794  energy(sigma->0) =     -119.60564794


--------------------------------------------------------------------------------------------------------




--------------------------------------- Iteration      1(  22)  ---------------------------------------


    POTLOK:  cpu time    0.0350: real time    0.0357
    SETDIJ:  cpu time    0.0090: real time    0.0090
    EDDIAG:  cpu time    1.0118: real time    1.0151
  RMM-DIIS:  cpu time    5.1842: real time    5.3039
    ORTHCH:  cpu time    0.1210: real time    0.1216
 BZINTS: Fermi energy:  6.628562;136.000000 electrons
         Band energy: 586.326082;  BLOECHL correction: -0.068137
       DOS:  cpu time    0.0860: real time    0.0863
    CHARGE:  cpu time    0.2410: real time    0.2428
    MIXING:  cpu time    0.0020: real time    0.0019
    --------------------------------------------
      LOOP:  cpu time    6.6900: real time    6.8163

 eigenvalue-minimisations  : 13012
 total energy-change (2. order) :-0.2995696E-01  (-0.3872387E-02)
 number of electron     136.0000022 magnetization      32.2935630
 augmentation part       74.4937709 magnetization      26.6628163

 Broyden mixing:
  rms(total) = 0.24335E+00    rms(broyden)= 0.24334E+00
  rms(prec ) = 0.37281E+00
  weight for this iteration     100.00

 eigenvalues of (default mixing * dielectric matrix)
  average eigenvalue GAMMA=   0.6818
  2.3396  2.3396  1.7882  1.0469  1.0469  0.6355  0.6355  0.5746  0.2009  0.1588
  0.1486  0.0924  0.0973  0.1057  0.1342  0.1259  0.1202

 Free energy of the ion-electron system (eV)
  ---------------------------------------------------
  alpha Z        PSCENC =       923.24942624
  Ewald energy   TEWEN  =    -10699.34444403
  -Hartree energ DENC   =     -2165.00924155
  -exchange      EXHF   =         0.00000000
  -V(xc)+E(xc)   XCENC  =       177.12298285
  PAW double counting   =     13142.16636876   -13526.58262500
  entropy T*S    EENTRO =         0.00000000
  eigenvalues    EBANDS =       586.32608179
  atomic energy  EATOM  =     11442.43584605
  Solvation  Ediel_sol  =         0.00000000
  ---------------------------------------------------
  free energy    TOTEN  =      -119.63560490 eV

  energy without entropy =     -119.63560490  energy(sigma->0) =     -119.63560490


--------------------------------------------------------------------------------------------------------




--------------------------------------- Iteration      1(  23)  ---------------------------------------


    POTLOK:  cpu time    0.0360: real time    0.0358
    SETDIJ:  cpu time    0.0100: real time    0.0105
    EDDIAG:  cpu time    1.0508: real time    1.0601
  RMM-DIIS:  cpu time    5.0772: real time    5.1529
    ORTHCH:  cpu time    0.1200: real time    0.1210
 BZINTS: Fermi energy:  6.629803;136.000000 electrons
         Band energy: 586.134698;  BLOECHL correction: -0.070375
       DOS:  cpu time    0.0880: real time    0.0882
    CHARGE:  cpu time    0.2390: real time    0.2399
    MIXING:  cpu time    0.0020: real time    0.0019
    --------------------------------------------
      LOOP:  cpu time    6.6230: real time    6.7103

 eigenvalue-minimisations  : 12870
 total energy-change (2. order) : 0.2140326E-01  (-0.2425342E-02)
 number of electron     136.0000022 magnetization      32.5979556
 augmentation part       74.4932539 magnetization      26.9598898

 Broyden mixing:
  rms(total) = 0.74267E-01    rms(broyden)= 0.74262E-01
  rms(prec ) = 0.98836E-01
  weight for this iteration     100.00

 eigenvalues of (default mixing * dielectric matrix)
[...]
     96      13.7610      0.00000
     97      14.2876      0.00000
     98      14.4235      0.00000
     99      14.5099      0.00000
    100      14.8957      0.00000
    101      15.6463      0.00000
    102      16.0805      0.00000


--------------------------------------------------------------------------------------------------------


 soft charge-density along one line, spin component           1
         0         1         2         3         4         5         6         7         8         9
 total charge-density along one line
 
 soft charge-density along one line, spin component           2
         0         1         2         3         4         5         6         7         8         9
 total charge-density along one line
 
 pseudopotential strength for first ion, spin component:           1
 -2.542   0.003  -0.005   0.007   0.003  -3.136   0.002  -0.005
  0.003  -2.543  -0.010  -0.014   0.015   0.002  -3.137  -0.010
 -0.005  -0.010  -2.518  -0.008  -0.003  -0.005  -0.010  -3.113
  0.007  -0.014  -0.008  -2.542  -0.003   0.007  -0.014  -0.007
  0.003   0.015  -0.003  -0.003  -2.521   0.003   0.014  -0.003
 -3.136   0.002  -0.005   0.007   0.003  -3.662   0.002  -0.004
  0.002  -3.137  -0.010  -0.014   0.014   0.002  -3.663  -0.009
 -0.005  -0.010  -3.113  -0.007  -0.003  -0.004  -0.009  -3.640
  0.007  -0.014  -0.007  -3.136  -0.002   0.007  -0.013  -0.007
  0.003   0.014  -0.003  -0.002  -3.116   0.003   0.014  -0.003
  0.001   0.002  -0.000   0.001  -0.000   0.001   0.002  -0.000
  0.002   0.003  -0.001   0.001  -0.001   0.002   0.003  -0.001
 -0.005  -0.003  -0.001  -0.000   0.003  -0.005  -0.003  -0.001
 -0.000  -0.004  -0.003  -0.004  -0.000  -0.000  -0.003  -0.003
 -0.000  -0.000   0.002  -0.004  -0.004  -0.000  -0.000   0.002
 -0.006  -0.004  -0.001  -0.000   0.003  -0.006  -0.004  -0.001
 -0.000  -0.005  -0.004  -0.006  -0.000  -0.000  -0.004  -0.004
 -0.000  -0.000   0.003  -0.005  -0.005  -0.000  -0.000   0.003
 pseudopotential strength for first ion, spin component:           2
 -1.900  -0.002   0.008  -0.008  -0.002  -2.525  -0.002   0.008
 -0.002  -1.898   0.006   0.004  -0.007  -0.002  -2.522   0.006
  0.008   0.006  -1.888   0.005   0.000   0.008   0.006  -2.513
 -0.008   0.004   0.005  -1.897   0.003  -0.007   0.004   0.005
 -0.002  -0.007   0.000   0.003  -1.886  -0.002  -0.007   0.000
 -2.525  -0.002   0.008  -0.007  -0.002  -3.080  -0.002   0.008
 -0.002  -2.522   0.006   0.004  -0.007  -0.002  -3.078   0.006
  0.008   0.006  -2.513   0.005   0.000   0.008   0.006  -3.068
 -0.007   0.004   0.005  -2.521   0.003  -0.007   0.003   0.005
 -0.002  -0.007   0.000   0.003  -2.511  -0.002  -0.006   0.000
  0.000  -0.000  -0.000   0.000   0.000   0.000  -0.000   0.000
  0.001  -0.000  -0.000   0.000   0.000   0.001  -0.000   0.000
 -0.001  -0.001   0.001  -0.000   0.000  -0.001  -0.001   0.001
 -0.000  -0.000  -0.001  -0.001   0.000  -0.000  -0.000  -0.001
 -0.001  -0.000   0.001  -0.001  -0.001  -0.001  -0.000   0.001
 -0.001  -0.001   0.001  -0.000   0.000  -0.001  -0.001   0.001
 -0.000  -0.000  -0.002  -0.001   0.000  -0.000   0.000  -0.002
 -0.002  -0.000   0.001  -0.001  -0.002  -0.002  -0.000   0.001
 total augmentation occupancy for first ion, spin component:           1
  2.668  -0.016   0.012   0.021   0.014  -1.135   0.023  -0.014   0.003  -0.011  -0.024   0.000  -0.009  -0.002   0.017   0.002
 -0.016   2.700   0.016  -0.028  -0.012   0.023  -1.160  -0.013  -0.001   0.015   0.020   0.001   0.008  -0.031   0.006   0.000
  0.012   0.016   3.140   0.009  -0.019  -0.014  -0.013  -1.361  -0.013   0.017  -0.011   0.003  -0.023   0.009   0.004   0.001
  0.021  -0.028   0.009   2.691   0.043   0.003  -0.000  -0.013  -1.158  -0.028   0.015  -0.000  -0.003  -0.003   0.003  -0.000
  0.014  -0.012  -0.019   0.043   3.127  -0.011   0.015   0.017  -0.028  -1.345  -0.016   0.002   0.027  -0.005  -0.000  -0.002
 -1.135   0.023  -0.014   0.003  -0.011   1.345  -0.027   0.007  -0.017   0.010   0.032  -0.002  -0.004   0.000  -0.009  -0.000
  0.023  -1.160  -0.013  -0.000   0.015  -0.027   1.366   0.004   0.017  -0.006  -0.032   0.000  -0.016   0.017  -0.004   0.001
 -0.014  -0.013  -1.361  -0.013   0.017   0.007   0.004   1.356   0.009  -0.017   0.010  -0.003   0.010  -0.016   0.002  -0.001
  0.003  -0.001  -0.013  -1.158  -0.028  -0.017   0.017   0.009   1.370   0.010  -0.027   0.001   0.001  -0.007  -0.015   0.000
 -0.011   0.015   0.017  -0.028  -1.345   0.010  -0.006  -0.017   0.010   1.337   0.014  -0.002  -0.017   0.002  -0.005   0.002
 -0.024   0.020  -0.011   0.015  -0.016   0.032  -0.032   0.010  -0.027   0.014   2.301  -0.303   0.001  -0.026  -0.017  -0.001
  0.000   0.001   0.003  -0.000   0.002  -0.002   0.000  -0.003   0.001  -0.002  -0.303   0.047  -0.001   0.001  -0.000   0.000
 -0.009   0.008  -0.023  -0.003   0.027  -0.004  -0.016   0.010   0.001  -0.017   0.001  -0.001   0.310  -0.005   0.005  -0.031
 -0.002  -0.031   0.009  -0.003  -0.005   0.000   0.017  -0.016  -0.007   0.002  -0.026   0.001  -0.005   0.313  -0.003   0.000
  0.017   0.006   0.004   0.003  -0.000  -0.009  -0.004   0.002  -0.015  -0.005  -0.017  -0.000   0.005  -0.003   0.312  -0.000
  0.002   0.000   0.001  -0.000  -0.002  -0.000   0.001  -0.001   0.000   0.002  -0.001   0.000  -0.031   0.000  -0.000   0.004
 -0.000   0.002   0.000   0.002   0.000   0.000  -0.002   0.001  -0.000  -0.000   0.002  -0.000   0.000  -0.032   0.000   0.000
 -0.001  -0.000  -0.001   0.001   0.001   0.001   0.000  -0.000   0.001   0.000   0.001   0.000  -0.000   0.000  -0.032  -0.000
 total augmentation occupancy for first ion, spin component:           2
  1.287  -0.011  -0.003  -0.046  -0.029  -0.720   0.002   0.017   0.019   0.017  -0.006   0.000   0.025   0.003  -0.022  -0.001
 -0.011   1.308   0.026   0.063  -0.027   0.002  -0.734  -0.004  -0.030  -0.001   0.008   0.000   0.013   0.036  -0.006  -0.000
 -0.003   0.026   1.053   0.018   0.020   0.016  -0.004  -0.542  -0.002  -0.012   0.005   0.001   0.028   0.006  -0.010  -0.001
 -0.046   0.063   0.018   1.317  -0.024   0.019  -0.030  -0.002  -0.741   0.025   0.012   0.001   0.003   0.020   0.018  -0.000
 -0.029  -0.027   0.020  -0.024   1.095   0.018  -0.001  -0.013   0.025  -0.570  -0.000  -0.001  -0.025   0.006   0.008   0.001
 -0.720   0.002   0.016   0.019   0.018   0.306   0.005  -0.020  -0.002  -0.010   0.001  -0.001  -0.014  -0.002   0.015   0.001
  0.002  -0.734  -0.004  -0.030  -0.001   0.005   0.314  -0.005   0.008   0.012  -0.001   0.001  -0.006  -0.022   0.003   0.001
  0.017  -0.004  -0.542  -0.002  -0.013  -0.020  -0.005   0.179  -0.005   0.008  -0.003  -0.000  -0.017  -0.000   0.005   0.001
  0.019  -0.030  -0.002  -0.741   0.025  -0.002   0.008  -0.005   0.320  -0.020  -0.004   0.001  -0.002  -0.011  -0.008   0.000
  0.017  -0.001  -0.012   0.025  -0.570  -0.010   0.012   0.008  -0.020   0.197   0.000   0.001   0.015  -0.003  -0.003  -0.001
 -0.006   0.008   0.005   0.012  -0.000   0.001  -0.001  -0.003  -0.004   0.000  -0.206   0.045   0.002   0.008   0.005   0.000
  0.000   0.000   0.001   0.001  -0.001  -0.001   0.001  -0.000   0.001   0.001   0.045  -0.008   0.000   0.001   0.001  -0.000
  0.025   0.013   0.028   0.003  -0.025  -0.014  -0.006  -0.017  -0.002   0.015   0.002   0.000  -0.034   0.002  -0.002   0.002
  0.003   0.036   0.006   0.020   0.006  -0.002  -0.022  -0.000  -0.011  -0.003   0.008   0.001   0.002  -0.033   0.001   0.000
 -0.022  -0.006  -0.010   0.018   0.008   0.015   0.003   0.005  -0.008  -0.003   0.005   0.001  -0.002   0.001  -0.034  -0.000
 -0.001  -0.000  -0.001  -0.000   0.001   0.001   0.001   0.001   0.000  -0.001   0.000  -0.000   0.002   0.000  -0.000  -0.000
 -0.000  -0.001  -0.000  -0.000  -0.000   0.000   0.002   0.000   0.001   0.000   0.000  -0.000   0.000   0.002   0.000  -0.000
  0.001   0.000   0.000  -0.001   0.000  -0.001  -0.000  -0.000   0.001   0.000   0.001  -0.000  -0.000   0.000   0.002   0.000


------------------------ aborting loop because EDIFF is reached ----------------------------------------


 


 total charge     
 
# of ion       s       p       d       tot
------------------------------------------
    1        0.511   0.518   8.310   9.339
    2        0.507   0.509   8.308   9.324
    3        0.508   0.508   8.308   9.324
    4        0.514   0.524   8.313   9.351
    5        0.481   0.516   6.210   7.206
    6        0.482   0.517   6.213   7.212
    7        0.479   0.509   6.206   7.195
    8        0.476   0.501   6.201   7.177
    9        0.480   0.509   6.212   7.201
   10        0.484   0.520   6.218   7.222
   11        0.492   0.535   6.235   7.263
   12        0.492   0.538   6.235   7.266
   13        0.482   0.519   6.215   7.216
   14        0.489   0.529   6.227   7.245
   15        0.482   0.513   6.212   7.207
   16        0.494   0.542   6.239   7.274
--------------------------------------------------
tot          7.855   8.306 107.862 124.023
 


 magnetization (x)
 
# of ion       s       p       d       tot
------------------------------------------
    1       -0.030  -0.061   0.727   0.637
    2       -0.030  -0.058   0.729   0.641
    3       -0.030  -0.057   0.728   0.640
    4       -0.030  -0.061   0.723   0.632
    5       -0.014  -0.043   2.573   2.517
    6       -0.013  -0.041   2.565   2.511
    7       -0.010  -0.034   2.588   2.543
    8       -0.007  -0.030   2.605   2.568
    9       -0.008  -0.031   2.574   2.535
   10       -0.013  -0.042   2.548   2.493
   11       -0.015  -0.044   2.493   2.433
   12       -0.016  -0.051   2.490   2.423
   13       -0.014  -0.044   2.559   2.501
   14       -0.015  -0.043   2.517   2.458
   15       -0.011  -0.034   2.572   2.527
   16       -0.017  -0.051   2.479   2.412
--------------------------------------------------
tot         -0.273  -0.724  33.469  32.473
 
    CHARGE:  cpu time    0.2330: real time    0.2347
    FORLOC:  cpu time    0.0030: real time    0.0031
    FORNL :  cpu time    2.0857: real time    2.1178
    STRESS:  cpu time    6.2730: real time    6.3624
    FORCOR:  cpu time    0.0370: real time    0.0369
    FORHAR:  cpu time    0.0060: real time    0.0065
    MIXING:  cpu time    0.0040: real time    0.0034
    OFIELD:  cpu time    0.0000: real time    0.0001

  FORCE on cell =-STRESS in cart. coord.  units (eV):
  Direction    XX          YY          ZZ          XY          YZ          ZX
  --------------------------------------------------------------------------------------
  Alpha Z   923.24943   923.24943   923.24943
  Ewald   -3596.63625 -3543.07016 -3559.66465     4.51139    12.93225   -18.02892
  Hartree   689.99730   747.08045   726.52742     3.27041    14.29707   -16.98008
  E(xc)    -698.80387  -698.87596  -698.70210     0.08097    -0.09393    -0.06940
  Local     669.17653   558.41577   596.85598    -6.96752   -27.48295    34.58465
  n-local  -336.84146  -337.46955  -336.73453     0.26779    -0.17023     0.21017
  augment  1170.39429  1170.44044  1169.40182    -0.71186     0.33771     0.20921
  Kinetic  1184.15390  1183.02621  1182.18080    -0.83531     0.00423     0.62000
  Fock        0.00000     0.00000     0.00000     0.00000     0.00000     0.00000
  -------------------------------------------------------------------------------------
  Total       4.68988     2.79662     3.11416    -0.38414    -0.17584     0.54563
  in kB      41.11345    24.51637    27.30008    -3.36751    -1.54150     4.78322
  external pressure =       30.98 kB  Pullay stress =        0.00 kB


 VOLUME and BASIS-vectors are now :
 -----------------------------------------------------------------------------
  energy-cutoff  :      520.00
  volume of cell :      182.76
      direct lattice vectors                 reciprocal lattice vectors
     1.787500000  1.787500000 -3.575000000     0.069930070  0.069930070 -0.209790210
     0.000000000 -5.362500000 -1.787500000    -0.017482517 -0.157342657 -0.087412587
    -7.150000000  1.787500000 -1.787500000    -0.122377622  0.017482517 -0.052447552

  length of vectors
     4.378462915  5.652571318  7.583720228     0.231931804  0.180840567  0.134285765


 FORCES acting on ions
    electron-ion (+dipol)            ewald-force                    non-local-force                 convergence-correction
 -----------------------------------------------------------------------------------------------
   0.707E+02 -.474E+01 0.436E+02   -.708E+02 0.468E+01 -.436E+02   0.363E+00 0.113E+00 0.376E+00   0.531E-03 0.323E-03 0.985E-03
   0.626E+02 -.257E+02 -.258E+01   -.628E+02 0.259E+02 0.277E+01   0.319E+00 -.254E+00 -.223E+00   0.222E-02 -.899E-03 0.651E-03
   -.517E+02 0.155E+02 -.195E+01   0.518E+02 -.156E+02 0.182E+01   -.320E+00 0.251E+00 0.220E+00   0.181E-02 -.148E-02 0.482E-03
   -.678E+02 0.171E+02 -.368E+02   0.679E+02 -.172E+02 0.368E+02   -.334E+00 -.103E+00 -.374E+00   0.531E-03 0.162E-02 0.103E-02
   -.398E+02 0.190E+02 -.248E+02   0.400E+02 -.191E+02 0.251E+02   -.733E+00 0.149E+00 -.315E+00   -.129E-02 -.557E-03 -.609E-03
   0.714E+02 -.155E+02 0.186E+02   -.716E+02 0.156E+02 -.186E+02   0.327E+00 0.949E-01 -.992E-01   0.943E-04 0.957E-04 -.140E-03
   0.548E+02 -.221E+01 0.372E+02   -.550E+02 0.207E+01 -.373E+02   0.587E+00 0.127E+00 0.465E+00   0.582E-04 -.192E-03 0.268E-03
   0.161E+02 0.151E+02 0.610E+01   -.161E+02 -.152E+02 -.624E+01   0.329E+00 -.186E+00 -.421E+00   0.156E-02 -.253E-03 0.203E-03
   -.611E+01 -.119E+02 0.176E+01   0.601E+01 0.119E+02 -.169E+01   -.419E+00 0.138E+00 0.371E+00   0.174E-02 0.507E-03 0.957E-03
   -.726E+02 0.232E+02 -.129E+02   0.728E+02 -.234E+02 0.129E+02   -.318E+00 -.121E+00 0.661E-01   -.331E-03 0.138E-03 -.239E-03
   -.575E+02 -.329E+01 -.255E+02   0.576E+02 0.341E+01 0.255E+02   -.433E+00 0.339E-01 0.236E+00   -.135E-02 0.399E-03 -.214E-03
   0.223E+02 -.181E+02 0.116E+02   -.226E+02 0.186E+02 -.115E+02   0.372E+00 0.118E+00 0.228E+00   -.147E-02 -.208E-03 -.878E-03
   0.367E+02 -.146E+02 0.240E+02   -.369E+02 0.146E+02 -.243E+02   0.724E+00 -.192E+00 0.298E+00   -.836E-03 0.306E-03 0.126E-03
   0.480E+02 -.823E+00 0.143E+02   -.480E+02 0.777E+00 -.142E+02   0.512E+00 -.116E-01 -.145E+00   -.840E-03 0.136E-04 -.689E-03
   -.577E+02 -.118E+02 -.391E+02   0.579E+02 0.121E+02 0.392E+02   -.536E+00 -.218E-02 -.474E+00   0.289E-03 -.832E-03 -.549E-03
   -.295E+02 0.186E+02 -.136E+02   0.298E+02 -.191E+02 0.134E+02   -.376E+00 -.132E+00 -.224E+00   -.175E-02 0.123E-02 -.711E-03
 -----------------------------------------------------------------------------------------------
   -.659E-01 -.224E-01 0.151E-01   -.128E-12 0.711E-13 -.444E-13   0.649E-01 0.229E-01 -.156E-01   0.971E-03 0.212E-03 0.668E-03
 
 
 POSITION                                       TOTAL-FORCE (eV/Angst)
 -----------------------------------------------------------------------------------
     -5.37181     -1.80057     -3.57778         0.232048      0.055083      0.329973
     -5.35729      0.00589     -1.79344         0.112940     -0.048743     -0.031680
     -3.56832     -3.58268     -3.57307        -0.216622      0.121447      0.096175
     -3.56891     -1.76402     -1.78217        -0.218797     -0.180118     -0.378438
     -1.78385     -3.55774     -1.79562        -0.545465      0.050629     -0.056266
     -5.36956     -0.02911     -5.35218         0.131386      0.239603     -0.103933
     -5.35580      1.78408     -3.59842         0.412885     -0.007428      0.380513
     -3.57483     -1.76481     -5.32895         0.337523     -0.231582     -0.559866
     -3.55903     -0.01541     -3.59805        -0.512691      0.142490      0.449487
     -1.77587     -1.75390     -3.57595        -0.109252     -0.344162     -0.005563
     -1.78994     -0.01456     -1.80821        -0.309526      0.157950      0.245842
      0.01159     -3.62291     -3.58373         0.070316      0.550480      0.356336
     -0.00892     -1.80159     -1.77383         0.544753     -0.137395      0.020569
     -0.01666     -5.35473     -1.79164         0.481030     -0.057858      0.014826
     -1.79745      1.76992     -3.55301        -0.340658      0.275587     -0.387721
     -0.01335      0.05216     -3.56395        -0.069872     -0.585983     -0.370254
 -----------------------------------------------------------------------------------
    total drift:                               -0.000019      0.000745      0.000245


--------------------------------------------------------------------------------------------------------



  FREE ENERGIE OF THE ION-ELECTRON SYSTEM (eV)
  ---------------------------------------------------
  free  energy   TOTEN  =      -119.61542319 eV

  energy  without entropy=     -119.61542319  energy(sigma->0) =     -119.61542319
 


--------------------------------------------------------------------------------------------------------


    POTLOK:  cpu time    0.0440: real time    0.0452


--------------------------------------------------------------------------------------------------------


     LOOP+:  cpu time  258.6717: real time  261.4954
    4ORBIT:  cpu time    0.0000: real time    0.0000
 


 total charge     
 
# of ion       s       p       d       tot
------------------------------------------
    1        0.511   0.518   8.310   9.339
    2        0.507   0.509   8.308   9.324
    3        0.508   0.508   8.308   9.324
    4        0.514   0.524   8.313   9.351
    5        0.481   0.516   6.210   7.206
    6        0.482   0.517   6.213   7.212
    7        0.479   0.509   6.206   7.195
    8        0.476   0.501   6.201   7.177
    9        0.480   0.509   6.212   7.201
   10        0.484   0.520   6.218   7.222
   11        0.492   0.535   6.235   7.263
   12        0.492   0.538   6.235   7.266
   13        0.482   0.519   6.215   7.216
   14        0.489   0.529   6.227   7.245
   15        0.482   0.513   6.212   7.207
   16        0.494   0.542   6.239   7.274
--------------------------------------------------
tot          7.855   8.306 107.862 124.023
 


 magnetization (x)
 
# of ion       s       p       d       tot
------------------------------------------
    1       -0.030  -0.061   0.727   0.637
    2       -0.030  -0.058   0.729   0.641
    3       -0.030  -0.057   0.728   0.640
    4       -0.030  -0.061   0.723   0.632
    5       -0.014  -0.043   2.573   2.517
    6       -0.013  -0.041   2.565   2.511
    7       -0.010  -0.034   2.588   2.543
    8       -0.007  -0.030   2.605   2.568
    9       -0.008  -0.031   2.574   2.535
   10       -0.013  -0.042   2.548   2.493
   11       -0.015  -0.044   2.493   2.433
   12       -0.016  -0.051   2.490   2.423
   13       -0.014  -0.044   2.559   2.501
   14       -0.015  -0.043   2.517   2.458
   15       -0.011  -0.034   2.572   2.527
   16       -0.017  -0.051   2.479   2.412
--------------------------------------------------
tot         -0.273  -0.724  33.469  32.473
 
 BZINTS: Fermi energy:  6.631766;136.000000 electrons
         Band energy: 585.667656;  BLOECHL correction: -0.071400

 total amount of memory used by VASP MPI-rank0    61114. kBytes
=======================================================================

   base      :      30000. kBytes
   nonlr-proj:       4431. kBytes
   fftplans  :       1321. kBytes
   grid      :       3242. kBytes
   one-center:         62. kBytes
   wavefun   :      22058. kBytes
 
  
  
 General timing and accounting informations for this job:
 ========================================================
  
                  Total CPU time used (sec):      268.679
                            User time (sec):      262.100
                          System time (sec):        6.579
                         Elapsed time (sec):      271.698
  
                   Maximum memory used (kb):       92068.
                   Average memory used (kb):           0.
  
                          Minor page faults:        12590
                          Major page faults:            0
                 Voluntary context switches:         1914
