 108 108   1   0
  0.1142268E+02  0.9114498E-09  0.9114498E-09  0.1516744E-08  0.5000000E-15
  1.000000000000000E-004
  CAR 
 SQS-NiFe                                
     18.56497539     -4.00321651  301      6.65581525      1.00000000
     -4.003  0.0000E+00  0.0000E+00  0.0000E+00  0.0000E+00
     -3.928  0.0000E+00  0.0000E+00  0.0000E+00  0.0000E+00
     -3.853  0.0000E+00  0.0000E+00  0.0000E+00  0.0000E+00
     -3.778  0.0000E+00  0.0000E+00  0.0000E+00  0.0000E+00
     -3.702  0.0000E+00  0.0000E+00  0.0000E+00  0.0000E+00
     -3.627 -0.4004E-30  0.0000E+00 -0.3012E-31  0.0000E+00
     -3.552 -0.1486E-27  0.0000E+00 -0.1121E-28  0.0000E+00
     -3.477 -0.4152E-25 -0.4475E-30 -0.3135E-26 -0.3366E-31
     -3.401 -0.8718E-23 -0.1652E-27 -0.6589E-24 -0.1246E-28
     -3.326 -0.1375E-20 -0.4591E-25 -0.1041E-21 -0.3466E-26
     -3.251 -0.1628E-18 -0.9590E-23 -0.1235E-19 -0.7249E-24
     -3.176 -0.1404E-16 -0.1504E-20 -0.1069E-17 -0.1139E-21
     -3.100 -0.9314E-15 -0.1772E-18 -0.7113E-16 -0.1344E-19
     -3.025 -0.4622E-13 -0.1524E-16 -0.3548E-14 -0.1160E-17
     -2.950 -0.1714E-11 -0.1003E-14 -0.1325E-12 -0.7663E-16
     -2.875 -0.4742E-10 -0.4952E-13 -0.3699E-11 -0.3802E-14
     -2.800 -0.9756E-09 -0.1827E-11 -0.7709E-10 -0.1412E-12
     -2.724 -0.1488E-07 -0.5026E-10 -0.1196E-08 -0.3922E-11
     -2.649 -0.1673E-06 -0.1029E-08 -0.1378E-07 -0.8129E-10
     -2.574 -0.1378E-05 -0.1560E-07 -0.1174E-06 -0.1255E-08
     -2.499 -0.8217E-05 -0.1745E-06 -0.7356E-06 -0.1438E-07
     -2.423 -0.3486E-04 -0.1429E-05 -0.3358E-05 -0.1219E-06
     -2.348 -0.1021E-03 -0.8474E-05 -0.1104E-04 -0.7594E-06
     -2.273 -0.1929E-03 -0.3576E-04 -0.2555E-04 -0.3450E-05
     -2.198 -0.1851E-03 -0.1041E-03 -0.3947E-04 -0.1128E-04
     -2.123  0.1156E-03 -0.1956E-03 -0.3078E-04 -0.2600E-04
     -2.047  0.9295E-03 -0.1860E-03  0.3915E-04 -0.3999E-04
     -1.972  0.2802E-02  0.1222E-03  0.2499E-03 -0.3080E-04
     -1.897  0.6635E-02  0.9577E-03  0.7491E-03  0.4124E-04
     -1.822  0.1244E-01  0.2879E-02  0.1685E-02  0.2578E-03
     -1.746  0.1868E-01  0.6781E-02  0.3090E-02  0.7679E-03
     -1.671  0.2414E-01  0.1263E-01  0.4905E-02  0.1718E-02
     -1.596  0.2855E-01  0.1889E-01  0.7053E-02  0.3140E-02
     -1.521  0.3051E-01  0.2434E-01  0.9349E-02  0.4970E-02
     -1.445  0.2812E-01  0.2870E-01  0.1146E-01  0.7130E-02
     -1.370  0.2299E-01  0.3057E-01  0.1319E-01  0.9429E-02
     -1.295  0.2027E-01  0.2806E-01  0.1472E-01  0.1154E-01
     -1.220  0.2316E-01  0.2283E-01  0.1646E-01  0.1326E-01
     -1.145  0.3020E-01  0.1995E-01  0.1873E-01  0.1476E-01
     -1.069  0.3907E-01  0.2256E-01  0.2167E-01  0.1646E-01
     -0.994  0.4979E-01  0.2930E-01  0.2542E-01  0.1866E-01
     -0.919  0.6054E-01  0.3789E-01  0.2997E-01  0.2151E-01
     -0.844  0.6442E-01  0.4806E-01  0.3482E-01  0.2513E-01
     -0.768  0.5692E-01  0.5825E-01  0.3910E-01  0.2951E-01
     -0.693  0.4349E-01  0.6261E-01  0.4237E-01  0.3422E-01
     -0.618  0.3390E-01  0.5686E-01  0.4492E-01  0.3850E-01
     -0.543  0.3251E-01  0.4492E-01  0.4737E-01  0.4188E-01
     -0.468  0.3736E-01  0.3484E-01  0.5018E-01  0.4450E-01
     -0.392  0.4457E-01  0.3122E-01  0.5353E-01  0.4685E-01
     -0.317  0.5166E-01  0.3404E-01  0.5742E-01  0.4941E-01
     -0.242  0.5826E-01  0.4058E-01  0.6180E-01  0.5246E-01
     -0.167  0.6444E-01  0.4775E-01  0.6665E-01  0.5605E-01
     -0.091  0.7085E-01  0.5446E-01  0.7198E-01  0.6015E-01
     -0.016  0.7949E-01  0.6052E-01  0.7796E-01  0.6470E-01
      0.059  0.8967E-01  0.6523E-01  0.8470E-01  0.6961E-01
      0.134  0.9456E-01  0.6993E-01  0.9182E-01  0.7487E-01
      0.210  0.8760E-01  0.7739E-01  0.9841E-01  0.8069E-01
      0.285  0.7138E-01  0.8558E-01  0.1038E+00  0.8713E-01
      0.360  0.5651E-01  0.8738E-01  0.1080E+00  0.9370E-01
      0.435  0.5387E-01  0.7892E-01  0.1121E+00  0.9964E-01
      0.510  0.6761E-01  0.6434E-01  0.1172E+00  0.1045E+00
      0.586  0.8985E-01  0.5178E-01  0.1239E+00  0.1084E+00
      0.661  0.1047E+00  0.4850E-01  0.1318E+00  0.1120E+00
      0.736  0.1049E+00  0.5778E-01  0.1397E+00  0.1164E+00
      0.811  0.1003E+00  0.7520E-01  0.1472E+00  0.1220E+00
      0.887  0.1031E+00  0.8942E-01  0.1550E+00  0.1288E+00
      0.962  0.1123E+00  0.9249E-01  0.1634E+00  0.1357E+00
      1.037  0.1195E+00  0.8847E-01  0.1724E+00  0.1424E+00
      1.112  0.1225E+00  0.8754E-01  0.1816E+00  0.1490E+00
      1.187  0.1275E+00  0.9334E-01  0.1912E+00  0.1560E+00
      1.263  0.1405E+00  0.1003E+00  0.2018E+00  0.1635E+00
      1.338  0.1601E+00  0.1024E+00  0.2139E+00  0.1712E+00
      1.413  0.1809E+00  0.1002E+00  0.2275E+00  0.1788E+00
      1.488  0.2066E+00  0.9779E-01  0.2430E+00  0.1861E+00
      1.564  0.2532E+00  0.9783E-01  0.2621E+00  0.1935E+00
      1.639  0.3304E+00  0.1030E+00  0.2869E+00  0.2012E+00
      1.714  0.4244E+00  0.1160E+00  0.3188E+00  0.2099E+00
      1.789  0.5073E+00  0.1345E+00  0.3570E+00  0.2201E+00
      1.865  0.5637E+00  0.1503E+00  0.3994E+00  0.2314E+00
      1.940  0.5977E+00  0.1574E+00  0.4444E+00  0.2432E+00
      2.015  0.6194E+00  0.1557E+00  0.4910E+00  0.2549E+00
      2.090  0.6361E+00  0.1466E+00  0.5388E+00  0.2660E+00
      2.165  0.6599E+00  0.1327E+00  0.5885E+00  0.2759E+00
      2.241  0.7084E+00  0.1225E+00  0.6418E+00  0.2851E+00
      2.316  0.7826E+00  0.1298E+00  0.7006E+00  0.2949E+00
      2.391  0.8608E+00  0.1621E+00  0.7654E+00  0.3071E+00
      2.466  0.9252E+00  0.2106E+00  0.8350E+00  0.3230E+00
      2.542  0.9736E+00  0.2566E+00  0.9082E+00  0.3423E+00
      2.617  0.1003E+01  0.2876E+00  0.9837E+00  0.3639E+00
      2.692  0.1009E+01  0.3094E+00  0.1060E+01  0.3872E+00
      2.767  0.1001E+01  0.3394E+00  0.1135E+01  0.4127E+00
      2.842  0.9874E+00  0.3861E+00  0.1209E+01  0.4417E+00
      2.918  0.9705E+00  0.4367E+00  0.1282E+01  0.4746E+00
      2.993  0.9545E+00  0.4699E+00  0.1354E+01  0.5100E+00
      3.068  0.9452E+00  0.4794E+00  0.1425E+01  0.5460E+00
      3.143  0.9371E+00  0.4785E+00  0.1496E+01  0.5820E+00
      3.219  0.9189E+00  0.4841E+00  0.1565E+01  0.6184E+00
      3.294  0.8886E+00  0.4986E+00  0.1632E+01  0.6559E+00
      3.369  0.8597E+00  0.5114E+00  0.1696E+01  0.6944E+00
      3.444  0.8577E+00  0.5185E+00  0.1761E+01  0.7334E+00
      3.520  0.9005E+00  0.5348E+00  0.1828E+01  0.7736E+00
      3.595  0.9790E+00  0.5784E+00  0.1902E+01  0.8172E+00
      3.670  0.1069E+01  0.6454E+00  0.1983E+01  0.8657E+00
      3.745  0.1149E+01  0.7117E+00  0.2069E+01  0.9192E+00
      3.820  0.1210E+01  0.7593E+00  0.2160E+01  0.9764E+00
      3.896  0.1258E+01  0.7890E+00  0.2255E+01  0.1036E+01
      3.971  0.1315E+01  0.8059E+00  0.2354E+01  0.1096E+01
      4.046  0.1390E+01  0.8073E+00  0.2458E+01  0.1157E+01
      4.121  0.1470E+01  0.7917E+00  0.2569E+01  0.1217E+01
      4.197  0.1543E+01  0.7689E+00  0.2685E+01  0.1274E+01
      4.272  0.1605E+01  0.7509E+00  0.2806E+01  0.1331E+01
      4.347  0.1648E+01  0.7418E+00  0.2930E+01  0.1387E+01
      4.422  0.1646E+01  0.7419E+00  0.3053E+01  0.1443E+01
      4.497  0.1575E+01  0.7535E+00  0.3172E+01  0.1499E+01
      4.573  0.1450E+01  0.7757E+00  0.3281E+01  0.1558E+01
      4.648  0.1316E+01  0.8014E+00  0.3380E+01  0.1618E+01
      4.723  0.1209E+01  0.8225E+00  0.3471E+01  0.1680E+01
      4.798  0.1146E+01  0.8370E+00  0.3557E+01  0.1743E+01
      4.874  0.1135E+01  0.8499E+00  0.3643E+01  0.1807E+01
      4.949  0.1184E+01  0.8669E+00  0.3732E+01  0.1872E+01
      5.024  0.1279E+01  0.8886E+00  0.3828E+01  0.1939E+01
      5.099  0.1382E+01  0.9126E+00  0.3932E+01  0.2007E+01
      5.175  0.1444E+01  0.9387E+00  0.4040E+01  0.2078E+01
      5.250  0.1438E+01  0.9687E+00  0.4149E+01  0.2151E+01
      5.325  0.1375E+01  0.1003E+01  0.4252E+01  0.2226E+01
      5.400  0.1285E+01  0.1039E+01  0.4349E+01  0.2305E+01
      5.475  0.1200E+01  0.1070E+01  0.4439E+01  0.2385E+01
      5.551  0.1145E+01  0.1090E+01  0.4525E+01  0.2467E+01
      5.626  0.1137E+01  0.1098E+01  0.4611E+01  0.2550E+01
      5.701  0.1179E+01  0.1093E+01  0.4699E+01  0.2632E+01
      5.776  0.1252E+01  0.1081E+01  0.4793E+01  0.2713E+01
      5.852  0.1331E+01  0.1065E+01  0.4894E+01  0.2793E+01
      5.927  0.1413E+01  0.1048E+01  0.5000E+01  0.2872E+01
      6.002  0.1496E+01  0.1029E+01  0.5112E+01  0.2950E+01
      6.077  0.1547E+01  0.1006E+01  0.5229E+01  0.3025E+01
      6.152  0.1507E+01  0.9828E+00  0.5342E+01  0.3099E+01
      6.228  0.1355E+01  0.9628E+00  0.5444E+01  0.3172E+01
      6.303  0.1122E+01  0.9481E+00  0.5529E+01  0.3243E+01
      6.378  0.8651E+00  0.9361E+00  0.5594E+01  0.3313E+01
      6.453  0.6290E+00  0.9212E+00  0.5641E+01  0.3383E+01
      6.529  0.4464E+00  0.8973E+00  0.5675E+01  0.3450E+01
      6.604  0.3333E+00  0.8632E+00  0.5700E+01  0.3515E+01
      6.679  0.2809E+00  0.8262E+00  0.5721E+01  0.3577E+01
      6.754  0.2634E+00  0.7980E+00  0.5741E+01  0.3637E+01
      6.830  0.2565E+00  0.7845E+00  0.5760E+01  0.3696E+01
      6.905  0.2472E+00  0.7823E+00  0.5778E+01  0.3755E+01
      6.980  0.2330E+00  0.7863E+00  0.5796E+01  0.3814E+01
      7.055  0.2169E+00  0.7969E+00  0.5812E+01  0.3874E+01
      7.130  0.2028E+00  0.8129E+00  0.5828E+01  0.3935E+01
      7.206  0.1940E+00  0.8259E+00  0.5842E+01  0.3997E+01
      7.281  0.1905E+00  0.8285E+00  0.5856E+01  0.4060E+01
      7.356  0.1897E+00  0.8231E+00  0.5871E+01  0.4122E+01
      7.431  0.1882E+00  0.8170E+00  0.5885E+01  0.4183E+01
      7.507  0.1849E+00  0.8175E+00  0.5899E+01  0.4245E+01
      7.582  0.1797E+00  0.8314E+00  0.5912E+01  0.4307E+01
      7.657  0.1708E+00  0.8599E+00  0.5925E+01  0.4372E+01
      7.732  0.1575E+00  0.8953E+00  0.5937E+01  0.4439E+01
      7.807  0.1446E+00  0.9287E+00  0.5948E+01  0.4509E+01
      7.883  0.1403E+00  0.9593E+00  0.5958E+01  0.4581E+01
      7.958  0.1473E+00  0.9915E+00  0.5970E+01  0.4656E+01
      8.033  0.1619E+00  0.1026E+01  0.5982E+01  0.4733E+01
      8.108  0.1766E+00  0.1059E+01  0.5995E+01  0.4813E+01
      8.184  0.1839E+00  0.1086E+01  0.6009E+01  0.4894E+01
      8.259  0.1792E+00  0.1107E+01  0.6022E+01  0.4978E+01
      8.334  0.1629E+00  0.1131E+01  0.6035E+01  0.5063E+01
      8.409  0.1421E+00  0.1167E+01  0.6045E+01  0.5151E+01
      8.485  0.1258E+00  0.1211E+01  0.6055E+01  0.5242E+01
      8.560  0.1154E+00  0.1248E+01  0.6063E+01  0.5336E+01
      8.635  0.1042E+00  0.1259E+01  0.6071E+01  0.5430E+01
      8.710  0.9096E-01  0.1235E+01  0.6078E+01  0.5523E+01
      8.785  0.8520E-01  0.1164E+01  0.6085E+01  0.5611E+01
      8.861  0.9662E-01  0.1028E+01  0.6092E+01  0.5688E+01
      8.936  0.1247E+00  0.8266E+00  0.6101E+01  0.5750E+01
      9.011  0.1588E+00  0.6041E+00  0.6113E+01  0.5796E+01
      9.086  0.1862E+00  0.4260E+00  0.6127E+01  0.5828E+01
      9.162  0.2010E+00  0.3254E+00  0.6142E+01  0.5852E+01
      9.237  0.2028E+00  0.2831E+00  0.6158E+01  0.5874E+01
      9.312  0.1926E+00  0.2605E+00  0.6172E+01  0.5893E+01
      9.387  0.1745E+00  0.2381E+00  0.6185E+01  0.5911E+01
      9.462  0.1570E+00  0.2211E+00  0.6197E+01  0.5928E+01
      9.538  0.1467E+00  0.2202E+00  0.6208E+01  0.5944E+01
      9.613  0.1420E+00  0.2342E+00  0.6219E+01  0.5962E+01
      9.688  0.1380E+00  0.2502E+00  0.6229E+01  0.5981E+01
      9.763  0.1340E+00  0.2538E+00  0.6239E+01  0.6000E+01
      9.839  0.1299E+00  0.2384E+00  0.6249E+01  0.6018E+01
      9.914  0.1224E+00  0.2121E+00  0.6258E+01  0.6034E+01
      9.989  0.1110E+00  0.1909E+00  0.6266E+01  0.6048E+01
     10.064  0.1018E+00  0.1829E+00  0.6274E+01  0.6062E+01
     10.140  0.9997E-01  0.1831E+00  0.6282E+01  0.6076E+01
     10.215  0.1025E+00  0.1835E+00  0.6289E+01  0.6090E+01
     10.290  0.1038E+00  0.1808E+00  0.6297E+01  0.6103E+01
     10.365  0.1062E+00  0.1772E+00  0.6305E+01  0.6116E+01
     10.440  0.1148E+00  0.1790E+00  0.6314E+01  0.6130E+01
     10.516  0.1256E+00  0.1899E+00  0.6323E+01  0.6144E+01
     10.591  0.1264E+00  0.2042E+00  0.6333E+01  0.6160E+01
     10.666  0.1112E+00  0.2127E+00  0.6341E+01  0.6176E+01
     10.741  0.8940E-01  0.2104E+00  0.6348E+01  0.6191E+01
     10.817  0.7764E-01  0.1994E+00  0.6354E+01  0.6206E+01
     10.892  0.8243E-01  0.1857E+00  0.6360E+01  0.6220E+01
     10.967  0.9553E-01  0.1728E+00  0.6367E+01  0.6233E+01
     11.042  0.1068E+00  0.1589E+00  0.6375E+01  0.6245E+01
     11.117  0.1155E+00  0.1430E+00  0.6384E+01  0.6256E+01
     11.193  0.1245E+00  0.1280E+00  0.6393E+01  0.6266E+01
     11.268  0.1293E+00  0.1173E+00  0.6403E+01  0.6275E+01
     11.343  0.1221E+00  0.1121E+00  0.6412E+01  0.6283E+01
     11.418  0.1066E+00  0.1133E+00  0.6420E+01  0.6291E+01
     11.494  0.9809E-01  0.1213E+00  0.6427E+01  0.6301E+01
     11.569  0.1047E+00  0.1331E+00  0.6435E+01  0.6311E+01
     11.644  0.1141E+00  0.1430E+00  0.6444E+01  0.6321E+01
     11.719  0.1080E+00  0.1451E+00  0.6452E+01  0.6332E+01
     11.795  0.8638E-01  0.1364E+00  0.6459E+01  0.6343E+01
     11.870  0.6621E-01  0.1207E+00  0.6464E+01  0.6352E+01
     11.945  0.5879E-01  0.1087E+00  0.6468E+01  0.6360E+01
     12.020  0.6062E-01  0.1100E+00  0.6472E+01  0.6368E+01
     12.095  0.6477E-01  0.1223E+00  0.6477E+01  0.6377E+01
     12.171  0.6989E-01  0.1326E+00  0.6483E+01  0.6387E+01
     12.246  0.7681E-01  0.1324E+00  0.6488E+01  0.6397E+01
     12.321  0.8257E-01  0.1244E+00  0.6495E+01  0.6407E+01
     12.396  0.8086E-01  0.1144E+00  0.6501E+01  0.6415E+01
     12.472  0.6914E-01  0.1050E+00  0.6506E+01  0.6423E+01
     12.547  0.5268E-01  0.9888E-01  0.6510E+01  0.6431E+01
     12.622  0.3932E-01  0.9847E-01  0.6513E+01  0.6438E+01
     12.697  0.3418E-01  0.1020E+00  0.6515E+01  0.6446E+01
     12.772  0.4190E-01  0.1041E+00  0.6519E+01  0.6453E+01
     12.848  0.6785E-01  0.1024E+00  0.6524E+01  0.6461E+01
     12.923  0.1098E+00  0.9685E-01  0.6532E+01  0.6468E+01
     12.998  0.1512E+00  0.8743E-01  0.6543E+01  0.6475E+01
     13.073  0.1739E+00  0.7686E-01  0.6556E+01  0.6481E+01
     13.149  0.1763E+00  0.7201E-01  0.6570E+01  0.6486E+01
     13.224  0.1695E+00  0.7564E-01  0.6582E+01  0.6492E+01
     13.299  0.1625E+00  0.8062E-01  0.6595E+01  0.6498E+01
     13.374  0.1606E+00  0.7836E-01  0.6607E+01  0.6504E+01
     13.450  0.1658E+00  0.6815E-01  0.6619E+01  0.6509E+01
     13.525  0.1704E+00  0.5442E-01  0.6632E+01  0.6513E+01
     13.600  0.1654E+00  0.4069E-01  0.6644E+01  0.6516E+01
     13.675  0.1578E+00  0.2966E-01  0.6656E+01  0.6518E+01
     13.750  0.1628E+00  0.2471E-01  0.6669E+01  0.6520E+01
     13.826  0.1798E+00  0.2788E-01  0.6682E+01  0.6522E+01
     13.901  0.1907E+00  0.3935E-01  0.6696E+01  0.6525E+01
     13.976  0.1825E+00  0.6092E-01  0.6710E+01  0.6530E+01
     14.051  0.1621E+00  0.9467E-01  0.6722E+01  0.6537E+01
     14.127  0.1467E+00  0.1350E+00  0.6733E+01  0.6547E+01
     14.202  0.1470E+00  0.1697E+00  0.6744E+01  0.6560E+01
     14.277  0.1607E+00  0.1913E+00  0.6757E+01  0.6574E+01
     14.352  0.1757E+00  0.2027E+00  0.6770E+01  0.6590E+01
     14.427  0.1804E+00  0.2087E+00  0.6783E+01  0.6605E+01
     14.503  0.1719E+00  0.2100E+00  0.6796E+01  0.6621E+01
     14.578  0.1578E+00  0.2052E+00  0.6808E+01  0.6636E+01
     14.653  0.1480E+00  0.1960E+00  0.6819E+01  0.6651E+01
     14.728  0.1448E+00  0.1894E+00  0.6830E+01  0.6665E+01
     14.804  0.1421E+00  0.1926E+00  0.6841E+01  0.6680E+01
     14.879  0.1342E+00  0.2032E+00  0.6851E+01  0.6695E+01
     14.954  0.1225E+00  0.2079E+00  0.6860E+01  0.6711E+01
     15.029  0.1143E+00  0.1991E+00  0.6869E+01  0.6726E+01
     15.105  0.1153E+00  0.1864E+00  0.6877E+01  0.6740E+01
     15.180  0.1236E+00  0.1823E+00  0.6887E+01  0.6754E+01
     15.255  0.1317E+00  0.1850E+00  0.6897E+01  0.6768E+01
     15.330  0.1336E+00  0.1829E+00  0.6907E+01  0.6781E+01
     15.405  0.1270E+00  0.1714E+00  0.6916E+01  0.6794E+01
     15.481  0.1110E+00  0.1577E+00  0.6925E+01  0.6806E+01
     15.556  0.8623E-01  0.1522E+00  0.6931E+01  0.6817E+01
     15.631  0.5797E-01  0.1568E+00  0.6935E+01  0.6829E+01
     15.706  0.3330E-01  0.1610E+00  0.6938E+01  0.6841E+01
     15.782  0.1608E-01  0.1545E+00  0.6939E+01  0.6853E+01
     15.857  0.5821E-02  0.1408E+00  0.6940E+01  0.6864E+01
     15.932  0.6278E-03  0.1320E+00  0.6940E+01  0.6874E+01
     16.007 -0.1119E-02  0.1323E+00  0.6940E+01  0.6883E+01
     16.082 -0.1037E-02  0.1350E+00  0.6939E+01  0.6894E+01
     16.158 -0.5109E-03  0.1342E+00  0.6939E+01  0.6904E+01
     16.233 -0.1675E-03  0.1282E+00  0.6939E+01  0.6913E+01
     16.308 -0.3875E-04  0.1156E+00  0.6939E+01  0.6922E+01
     16.383 -0.6487E-05  0.9503E-01  0.6939E+01  0.6929E+01
     16.459 -0.7964E-06  0.6929E-01  0.6939E+01  0.6934E+01
     16.534 -0.7230E-07  0.4321E-01  0.6939E+01  0.6938E+01
     16.609 -0.4880E-08  0.2113E-01  0.6939E+01  0.6939E+01
     16.684 -0.2458E-09  0.6205E-02  0.6939E+01  0.6940E+01
     16.760 -0.9266E-11 -0.7592E-03  0.6939E+01  0.6940E+01
     16.835 -0.2619E-12 -0.2109E-02  0.6939E+01  0.6940E+01
     16.910 -0.5555E-14 -0.1321E-02  0.6939E+01  0.6939E+01
     16.985 -0.9110E-16 -0.5072E-03  0.6939E+01  0.6939E+01
     17.060  0.0000E+00 -0.1352E-03  0.6939E+01  0.6939E+01
     17.136  0.0000E+00 -0.2606E-04  0.6939E+01  0.6939E+01
     17.211  0.0000E+00 -0.3702E-05  0.6939E+01  0.6939E+01
     17.286  0.0000E+00 -0.3913E-06  0.6939E+01  0.6939E+01
     17.361  0.0000E+00 -0.3093E-07  0.6939E+01  0.6939E+01
     17.437  0.0000E+00 -0.1836E-08  0.6939E+01  0.6939E+01
     17.512  0.0000E+00 -0.8194E-10  0.6939E+01  0.6939E+01
     17.587  0.0000E+00 -0.2754E-11  0.6939E+01  0.6939E+01
     17.662  0.0000E+00 -0.6974E-13  0.6939E+01  0.6939E+01
     17.737  0.0000E+00 -0.1330E-14  0.6939E+01  0.6939E+01
     17.813  0.0000E+00 -0.1822E-16  0.6939E+01  0.6939E+01
     17.888  0.0000E+00  0.0000E+00  0.6939E+01  0.6939E+01
     17.963  0.0000E+00  0.0000E+00  0.6939E+01  0.6939E+01
     18.038  0.0000E+00  0.0000E+00  0.6939E+01  0.6939E+01
     18.114  0.0000E+00  0.0000E+00  0.6939E+01  0.6939E+01
     18.189  0.0000E+00  0.0000E+00  0.6939E+01  0.6939E+01
     18.264  0.0000E+00  0.0000E+00  0.6939E+01  0.6939E+01
     18.339  0.0000E+00  0.0000E+00  0.6939E+01  0.6939E+01
     18.415  0.0000E+00  0.0000E+00  0.6939E+01  0.6939E+01
     18.490  0.0000E+00  0.0000E+00  0.6939E+01  0.6939E+01
     18.565  0.0000E+00  0.0000E+00  0.6939E+01  0.6939E+01
     18.56497539     -4.00321651  301      6.65581525      1.00000000
     -4.003  0.0000E+00  0.0000E+00  0.0000E+00  0.0000E+00  0.0000E+00  0.0000E+00
     -3.928  0.0000E+00  0.0000E+00  0.0000E+00  0.0000E+00  0.0000E+00  0.0000E+00
     -3.853  0.0000E+00  0.0000E+00  0.0000E+00  0.0000E+00  0.0000E+00  0.0000E+00
     -3.778  0.0000E+00  0.0000E+00  0.0000E+00  0.0000E+00  0.0000E+00  0.0000E+00
     -3.702  0.0000E+00  0.0000E+00  0.0000E+00  0.0000E+00  0.0000E+00  0.0000E+00
     -3.627 -0.2440E-30  0.0000E+00 -0.1461E-33  0.0000E+00 -0.4240E-34  0.0000E+00
     -3.552 -0.9055E-28  0.0000E+00 -0.5422E-31  0.0000E+00 -0.1573E-31  0.0000E+00
     -3.477 -0.2530E-25 -0.2667E-30 -0.1515E-28 -0.2143E-33 -0.4396E-29 -0.5514E-34
     -3.401 -0.5313E-23 -0.9845E-28 -0.3182E-26 -0.7910E-31 -0.9231E-27 -0.2035E-31
     -3.326 -0.8379E-21 -0.2737E-25 -0.5020E-24 -0.2199E-28 -0.1456E-24 -0.5657E-29
     -3.251 -0.9919E-19 -0.5716E-23 -0.5946E-22 -0.4594E-26 -0.1723E-22 -0.1182E-26
     -3.176 -0.8559E-17 -0.8967E-21 -0.5135E-20 -0.7208E-24 -0.1487E-20 -0.1854E-24
     -3.100 -0.5676E-15 -0.1056E-18 -0.3412E-18 -0.8492E-22 -0.9862E-19 -0.2183E-22
     -3.025 -0.2817E-13 -0.9084E-17 -0.1699E-16 -0.7311E-20 -0.4895E-17 -0.1878E-20
     -2.950 -0.1045E-11 -0.5979E-15 -0.6339E-15 -0.4819E-18 -0.1815E-15 -0.1236E-18
     -2.875 -0.2889E-10 -0.2951E-13 -0.1775E-13 -0.2385E-16 -0.5022E-14 -0.6102E-17
     -2.800 -0.5944E-09 -0.1089E-11 -0.3741E-12 -0.8843E-15 -0.1034E-12 -0.2251E-15
     -2.724 -0.9061E-08 -0.2995E-10 -0.5982E-11 -0.2457E-13 -0.1579E-11 -0.6194E-14
     -2.649 -0.1019E-06 -0.6128E-09 -0.7373E-10 -0.5126E-12 -0.1782E-10 -0.1268E-12
     -2.574 -0.8378E-06 -0.9292E-08 -0.7208E-09 -0.8073E-11 -0.1481E-09 -0.1925E-11
     -2.499 -0.4985E-05 -0.1039E-06 -0.5806E-08 -0.9721E-10 -0.9038E-09 -0.2158E-10
     -2.423 -0.2106E-04 -0.8497E-06 -0.3966E-07 -0.9164E-09 -0.4080E-08 -0.1777E-09
     -2.348 -0.6113E-04 -0.5028E-05 -0.2284E-06 -0.7016E-08 -0.1406E-07 -0.1070E-08
     -2.273 -0.1133E-03 -0.2113E-04 -0.1061E-05 -0.4524E-07 -0.4020E-07 -0.4699E-08
     -2.198 -0.1018E-03 -0.6100E-04 -0.3732E-05 -0.2477E-06 -0.1056E-06 -0.1528E-07
     -2.123  0.8485E-04 -0.1124E-03 -0.9161E-05 -0.1112E-05 -0.2487E-06 -0.3889E-07
     -2.047  0.5600E-03 -0.9998E-04 -0.1310E-04 -0.3836E-05 -0.4225E-06 -0.8662E-07
     -1.972  0.1640E-02  0.8750E-04 -0.2914E-06 -0.9310E-05 -0.2541E-06 -0.1756E-06
     -1.897  0.3886E-02  0.5668E-03  0.4936E-04 -0.1316E-04  0.9779E-06 -0.2536E-06
     -1.822  0.7296E-02  0.1654E-02  0.1437E-03  0.2017E-06  0.4018E-05 -0.1435E-07
     -1.746  0.1091E-01  0.3889E-02  0.2802E-03  0.5139E-04  0.9910E-05  0.1091E-05
     -1.671  0.1407E-01  0.7237E-02  0.4619E-03  0.1486E-03  0.2029E-04  0.3537E-05
     -1.596  0.1678E-01  0.1076E-01  0.6711E-03  0.2886E-03  0.3456E-04  0.7983E-05
     -1.521  0.1814E-01  0.1382E-01  0.8308E-03  0.4724E-03  0.4644E-04  0.1570E-04
     -1.445  0.1677E-01  0.1646E-01  0.8718E-03  0.6810E-03  0.4931E-04  0.2640E-04
     -1.370  0.1354E-01  0.1772E-01  0.8545E-03  0.8406E-03  0.4822E-04  0.3532E-04
     -1.295  0.1145E-01  0.1624E-01  0.9471E-03  0.8884E-03  0.6012E-04  0.3712E-04
     -1.220  0.1224E-01  0.1289E-01  0.1248E-02  0.8855E-03  0.9782E-04  0.3485E-04
     -1.145  0.1514E-01  0.1059E-01  0.1706E-02  0.9900E-03  0.1628E-03  0.4030E-04
     -1.069  0.1939E-01  0.1102E-01  0.2273E-02  0.1295E-02  0.2622E-03  0.6252E-04
     -0.994  0.2561E-01  0.1347E-01  0.2986E-02  0.1756E-02  0.4090E-03  0.1029E-03
     -0.919  0.3283E-01  0.1724E-01  0.3722E-02  0.2312E-02  0.5742E-03  0.1656E-03
     -0.844  0.3648E-01  0.2313E-01  0.4054E-02  0.2960E-02  0.6744E-03  0.2574E-03
     -0.768  0.3323E-01  0.3058E-01  0.3711E-02  0.3590E-02  0.6645E-03  0.3606E-03
     -0.693  0.2592E-01  0.3525E-01  0.3010E-02  0.3879E-02  0.6054E-03  0.4254E-03
     -0.618  0.2004E-01  0.3333E-01  0.2571E-02  0.3612E-02  0.5928E-03  0.4243E-03
     -0.543  0.1792E-01  0.2682E-01  0.2752E-02  0.2999E-02  0.6714E-03  0.3904E-03
     -0.468  0.1884E-01  0.2064E-01  0.3440E-02  0.2513E-02  0.8339E-03  0.3734E-03
     -0.392  0.2137E-01  0.1716E-01  0.4266E-02  0.2546E-02  0.1054E-02  0.3983E-03
     -0.317  0.2424E-01  0.1658E-01  0.5011E-02  0.3167E-02  0.1318E-02  0.4723E-03
     -0.242  0.2742E-01  0.1840E-01  0.5732E-02  0.4057E-02  0.1635E-02  0.5850E-03
     -0.167  0.3194E-01  0.2098E-01  0.6489E-02  0.4871E-02  0.1994E-02  0.7190E-03
     -0.091  0.3768E-01  0.2334E-01  0.7330E-02  0.5598E-02  0.2433E-02  0.8792E-03
     -0.016  0.4321E-01  0.2686E-01  0.8433E-02  0.6291E-02  0.3104E-02  0.1061E-02
      0.059  0.4710E-01  0.3257E-01  0.9682E-02  0.6868E-02  0.4046E-02  0.1232E-02
      0.134  0.4788E-01  0.3867E-01  0.1032E-01  0.7511E-02  0.4887E-02  0.1434E-02
      0.210  0.4398E-01  0.4292E-01  0.9716E-02  0.8507E-02  0.5085E-02  0.1804E-02
      0.285  0.3568E-01  0.4483E-01  0.8197E-02  0.9469E-02  0.4553E-02  0.2351E-02
      0.360  0.2622E-01  0.4420E-01  0.6858E-02  0.9597E-02  0.3880E-02  0.2808E-02
      0.435  0.2091E-01  0.4008E-01  0.6828E-02  0.8759E-02  0.3975E-02  0.2865E-02
      0.510  0.2396E-01  0.3234E-01  0.8638E-02  0.7574E-02  0.5432E-02  0.2516E-02
      0.586  0.3434E-01  0.2321E-01  0.1151E-01  0.6717E-02  0.7848E-02  0.2082E-02
      0.661  0.4548E-01  0.1713E-01  0.1362E-01  0.6739E-02  0.9953E-02  0.1970E-02
      0.736  0.5149E-01  0.1797E-01  0.1408E-01  0.8054E-02  0.1103E-01  0.2436E-02
      0.811  0.5208E-01  0.2557E-01  0.1394E-01  0.1037E-01  0.1182E-01  0.3373E-02
      0.887  0.5000E-01  0.3571E-01  0.1449E-01  0.1246E-01  0.1333E-01  0.4308E-02
      0.962  0.4669E-01  0.4424E-01  0.1560E-01  0.1336E-01  0.1545E-01  0.4835E-02
      1.037  0.4273E-01  0.4929E-01  0.1638E-01  0.1342E-01  0.1745E-01  0.5080E-02
      1.112  0.4012E-01  0.5019E-01  0.1663E-01  0.1371E-01  0.1933E-01  0.5514E-02
      1.187  0.4141E-01  0.4718E-01  0.1707E-01  0.1459E-01  0.2218E-01  0.6315E-02
      1.263  0.4650E-01  0.4198E-01  0.1861E-01  0.1557E-01  0.2708E-01  0.7135E-02
      1.338  0.5246E-01  0.3677E-01  0.2149E-01  0.1623E-01  0.3383E-01  0.7589E-02
      1.413  0.5672E-01  0.3326E-01  0.2487E-01  0.1647E-01  0.4235E-01  0.7745E-02
      1.488  0.5947E-01  0.3229E-01  0.2754E-01  0.1633E-01  0.5798E-01  0.7942E-02
      1.564  0.6258E-01  0.3347E-01  0.2903E-01  0.1615E-01  0.9241E-01  0.8460E-02
      1.639  0.6704E-01  0.3608E-01  0.2981E-01  0.1686E-01  0.1523E+00  0.9655E-02
      1.714  0.7224E-01  0.3992E-01  0.3073E-01  0.1929E-01  0.2262E+00  0.1200E-01
      1.789  0.7712E-01  0.4437E-01  0.3240E-01  0.2297E-01  0.2902E+00  0.1547E-01
      1.865  0.8095E-01  0.4792E-01  0.3470E-01  0.2617E-01  0.3313E+00  0.1910E-01
      1.940  0.8329E-01  0.4998E-01  0.3693E-01  0.2759E-01  0.3554E+00  0.2166E-01
      2.015  0.8409E-01  0.5067E-01  0.3852E-01  0.2728E-01  0.3713E+00  0.2242E-01
      2.090  0.8406E-01  0.4854E-01  0.3953E-01  0.2572E-01  0.3826E+00  0.2155E-01
      2.165  0.8383E-01  0.4245E-01  0.4043E-01  0.2322E-01  0.4002E+00  0.2022E-01
      2.241  0.8272E-01  0.3576E-01  0.4144E-01  0.2066E-01  0.4440E+00  0.2084E-01
      2.316  0.7936E-01  0.3482E-01  0.4221E-01  0.1979E-01  0.5160E+00  0.2608E-01
      2.391  0.7327E-01  0.4221E-01  0.4231E-01  0.2212E-01  0.5938E+00  0.3672E-01
      2.466  0.6530E-01  0.5349E-01  0.4176E-01  0.2720E-01  0.6596E+00  0.5033E-01
      2.542  0.5690E-01  0.6183E-01  0.4110E-01  0.3228E-01  0.7110E+00  0.6297E-01
      2.617  0.4890E-01  0.6504E-01  0.4084E-01  0.3460E-01  0.7426E+00  0.7231E-01
      2.692  0.4144E-01  0.6642E-01  0.4146E-01  0.3399E-01  0.7483E+00  0.7955E-01
      2.767  0.3468E-01  0.6972E-01  0.4355E-01  0.3297E-01  0.7375E+00  0.8897E-01
      2.842  0.2872E-01  0.7505E-01  0.4701E-01  0.3375E-01  0.7270E+00  0.1051E+00
      2.918  0.2320E-01  0.7989E-01  0.5080E-01  0.3592E-01  0.7239E+00  0.1287E+00
      2.993  0.1809E-01  0.8245E-01  0.5387E-01  0.3770E-01  0.7300E+00  0.1546E+00
      3.068  0.1393E-01  0.8260E-01  0.5520E-01  0.3834E-01  0.7458E+00  0.1740E+00
      3.143  0.1091E-01  0.8032E-01  0.5379E-01  0.3847E-01  0.7626E+00  0.1819E+00
      3.219  0.8630E-02  0.7542E-01  0.4981E-01  0.3872E-01  0.7647E+00  0.1820E+00
      3.294  0.6708E-02  0.6888E-01  0.4495E-01  0.3886E-01  0.7454E+00  0.1823E+00
      3.369  0.5224E-02  0.6283E-01  0.4124E-01  0.3825E-01  0.7166E+00  0.1859E+00
      3.444  0.4518E-02  0.5879E-01  0.4058E-01  0.3734E-01  0.7046E+00  0.1917E+00
      3.520  0.4839E-02  0.5604E-01  0.4369E-01  0.3803E-01  0.7291E+00  0.2026E+00
      3.595  0.6125E-02  0.5226E-01  0.4879E-01  0.4196E-01  0.7844E+00  0.2256E+00
      3.670  0.8007E-02  0.4620E-01  0.5333E-01  0.4838E-01  0.8516E+00  0.2599E+00
      3.745  0.9981E-02  0.3876E-01  0.5684E-01  0.5395E-01  0.9173E+00  0.2947E+00
      3.820  0.1170E-01  0.3145E-01  0.6042E-01  0.5548E-01  0.9690E+00  0.3239E+00
      3.896  0.1327E-01  0.2517E-01  0.6446E-01  0.5319E-01  0.9989E+00  0.3558E+00
      3.971  0.1512E-01  0.2027E-01  0.6842E-01  0.5043E-01  0.1016E+01  0.3992E+00
      4.046  0.1723E-01  0.1659E-01  0.7164E-01  0.5000E-01  0.1038E+01  0.4436E+00
      4.121  0.1890E-01  0.1388E-01  0.7382E-01  0.5154E-01  0.1071E+01  0.4653E+00
      4.197  0.1946E-01  0.1202E-01  0.7481E-01  0.5307E-01  0.1113E+01  0.4517E+00
      4.272  0.1897E-01  0.1064E-01  0.7426E-01  0.5394E-01  0.1159E+01  0.4130E+00
      4.347  0.1811E-01  0.9311E-02  0.7224E-01  0.5508E-01  0.1204E+01  0.3721E+00
      4.422  0.1733E-01  0.8064E-02  0.6956E-01  0.5712E-01  0.1235E+01  0.3486E+00
      4.497  0.1661E-01  0.7206E-02  0.6688E-01  0.6001E-01  0.1232E+01  0.3471E+00
      4.573  0.1569E-01  0.6747E-02  0.6376E-01  0.6365E-01  0.1191E+01  0.3568E+00
      4.648  0.1426E-01  0.6494E-02  0.5944E-01  0.6746E-01  0.1128E+01  0.3636E+00
      4.723  0.1216E-01  0.6467E-02  0.5394E-01  0.7026E-01  0.1063E+01  0.3657E+00
      4.798  0.9797E-02  0.6848E-02  0.4816E-01  0.7173E-01  0.1012E+01  0.3737E+00
      4.874  0.7940E-02  0.7624E-02  0.4304E-01  0.7260E-01  0.9900E+00  0.3995E+00
      4.949  0.7043E-02  0.8473E-02  0.3916E-01  0.7314E-01  0.1007E+01  0.4442E+00
      5.024  0.7070E-02  0.9030E-02  0.3707E-01  0.7310E-01  0.1053E+01  0.4940E+00
      5.099  0.7721E-02  0.9261E-02  0.3733E-01  0.7271E-01  0.1101E+01  0.5312E+00
      5.175  0.8545E-02  0.9376E-02  0.3933E-01  0.7266E-01  0.1122E+01  0.5508E+00
      5.250  0.9010E-02  0.9447E-02  0.4069E-01  0.7387E-01  0.1110E+01  0.5638E+00
      5.325  0.8776E-02  0.9382E-02  0.3905E-01  0.7727E-01  0.1080E+01  0.5837E+00
      5.400  0.7933E-02  0.9213E-02  0.3433E-01  0.8210E-01  0.1053E+01  0.6117E+00
      5.475  0.6892E-02  0.9210E-02  0.2860E-01  0.8553E-01  0.1028E+01  0.6346E+00
      5.551  0.6086E-02  0.9697E-02  0.2417E-01  0.8578E-01  0.1005E+01  0.6381E+00
      5.626  0.5781E-02  0.1069E-01  0.2201E-01  0.8367E-01  0.9954E+00  0.6279E+00
      5.701  0.6026E-02  0.1175E-01  0.2143E-01  0.8033E-01  0.1012E+01  0.6265E+00
      5.776  0.6597E-02  0.1223E-01  0.2098E-01  0.7590E-01  0.1049E+01  0.6502E+00
      5.852  0.7008E-02  0.1174E-01  0.1969E-01  0.7082E-01  0.1087E+01  0.6931E+00
      5.927  0.6921E-02  0.1045E-01  0.1769E-01  0.6586E-01  0.1121E+01  0.7373E+00
      6.002  0.6553E-02  0.8950E-02  0.1581E-01  0.6146E-01  0.1160E+01  0.7726E+00
      6.077  0.6448E-02  0.7760E-02  0.1481E-01  0.5827E-01  0.1198E+01  0.8010E+00
      6.152  0.6935E-02  0.7047E-02  0.1490E-01  0.5682E-01  0.1198E+01  0.8246E+00
      6.228  0.7913E-02  0.6825E-02  0.1576E-01  0.5596E-01  0.1139E+01  0.8382E+00
      6.303  0.8934E-02  0.7055E-02  0.1699E-01  0.5344E-01  0.1036E+01  0.8346E+00