       N       E                     dE             d eps       ncg     rms          rms(c)
DAV:   1     0.864538701426E+04    0.86454E+04   -0.35983E+05 27480   0.182E+03
DAV:   2     0.332196594257E+03   -0.83132E+04   -0.77810E+04 27480   0.393E+02
DAV:   3    -0.826528370111E+03   -0.11587E+04   -0.89682E+03 27480   0.190E+02
DAV:   4    -0.906887273147E+03   -0.80359E+02   -0.74488E+02 29184   0.581E+01
DAV:   5    -0.908169661393E+03   -0.12824E+01   -0.12765E+01 29949   0.751E+00    0.118E+02
RMM:   6    -0.100251365259E+04   -0.94344E+02   -0.11569E+03 27480   0.768E+01    0.190E+02
RMM:   7    -0.110412304558E+04   -0.10161E+03   -0.31109E+02 27480   0.354E+01    0.224E+02
RMM:   8    -0.106881107374E+04    0.35312E+02   -0.14672E+02 27480   0.239E+01    0.245E+02
RMM:   9    -0.824151044544E+03    0.24466E+03   -0.10024E+02 27480   0.204E+01    0.127E+02
RMM:  10    -0.863014155836E+03   -0.38863E+02   -0.18046E+02 27480   0.240E+01    0.119E+02
RMM:  11    -0.971642347494E+03   -0.10863E+03   -0.72242E+01 27480   0.169E+01    0.167E+02
RMM:  12    -0.856050024013E+03    0.11559E+03   -0.31015E+01 27480   0.117E+01    0.107E+02
RMM:  13    -0.808951258673E+03    0.47099E+02   -0.22942E+01 27480   0.955E+00    0.670E+01
RMM:  14    -0.818877172179E+03   -0.99259E+01   -0.24764E+01 27480   0.966E+00    0.837E+01
RMM:  15    -0.797974755000E+03    0.20902E+02   -0.16021E+01 27480   0.807E+00    0.485E+01
RMM:  16    -0.796761316229E+03    0.12134E+01   -0.69923E+00 27480   0.510E+00    0.442E+01
RMM:  17    -0.796468184706E+03    0.29313E+00   -0.57451E+00 27480   0.467E+00    0.355E+01
RMM:  18    -0.797437362037E+03   -0.96918E+00   -0.42982E+00 27480   0.404E+00    0.305E+01
RMM:  19    -0.800059067494E+03   -0.26217E+01   -0.38026E+00 27480   0.366E+00    0.314E+01
RMM:  20    -0.800522400160E+03   -0.46333E+00   -0.34867E+00 27480   0.362E+00    0.264E+01
RMM:  21    -0.800728349645E+03   -0.20595E+00   -0.23741E+00 27480   0.296E+00    0.234E+01
RMM:  22    -0.803635733095E+03   -0.29074E+01   -0.26597E+00 27480   0.308E+00    0.289E+01
RMM:  23    -0.802141515032E+03    0.14942E+01   -0.22086E+00 27480   0.288E+00    0.178E+01
RMM:  24    -0.802060480880E+03    0.81034E-01   -0.10245E+00 27480   0.191E+00    0.144E+01
RMM:  25    -0.802701426522E+03   -0.64095E+00   -0.86421E-01 27480   0.183E+00    0.177E+01
RMM:  26    -0.802057528501E+03    0.64390E+00   -0.52891E-01 27480   0.149E+00    0.109E+01
RMM:  27    -0.802414843399E+03   -0.35731E+00   -0.33584E-01 27480   0.111E+00    0.131E+01
RMM:  28    -0.802413703299E+03    0.11401E-02   -0.26837E-01 27480   0.102E+00    0.107E+01
RMM:  29    -0.802517973016E+03   -0.10427E+00   -0.22653E-01 27480   0.936E-01    0.106E+01
RMM:  30    -0.803062434013E+03   -0.54446E+00   -0.33356E-01 27480   0.110E+00    0.128E+01
RMM:  31    -0.802891507493E+03    0.17093E+00   -0.30892E-01 27480   0.111E+00    0.945E+00
RMM:  32    -0.803088846730E+03   -0.19734E+00   -0.26195E-01 27480   0.990E-01    0.107E+01
RMM:  33    -0.803108670636E+03   -0.19824E-01   -0.24460E-01 27480   0.953E-01    0.863E+00
RMM:  34    -0.803047006226E+03    0.61664E-01   -0.15395E-01 27480   0.777E-01    0.695E+00
RMM:  35    -0.803201221002E+03   -0.15421E+00   -0.14743E-01 27480   0.726E-01    0.816E+00
RMM:  36    -0.803088600712E+03    0.11262E+00   -0.10120E-01 27480   0.625E-01    0.511E+00
RMM:  37    -0.803118731707E+03   -0.30131E-01   -0.58283E-02 27480   0.470E-01    0.541E+00
RMM:  38    -0.803126747847E+03   -0.80161E-02   -0.48272E-02 27480   0.415E-01    0.453E+00
RMM:  39    -0.803149346244E+03   -0.22598E-01   -0.39980E-02 27480   0.391E-01    0.436E+00
RMM:  40    -0.803233341456E+03   -0.83995E-01   -0.59681E-02 27480   0.450E-01    0.470E+00
RMM:  41    -0.803219788035E+03    0.13553E-01   -0.36819E-02 27480   0.372E-01    0.347E+00
RMM:  42    -0.803277955804E+03   -0.58168E-01   -0.40200E-02 27480   0.368E-01    0.419E+00
RMM:  43    -0.803263831862E+03    0.14124E-01   -0.24710E-02 27480   0.312E-01    0.332E+00
RMM:  44    -0.803294965163E+03   -0.31133E-01   -0.22372E-02 27480   0.279E-01    0.366E+00
RMM:  45    -0.803289769692E+03    0.51955E-02   -0.14059E-02 27480   0.230E-01    0.292E+00
RMM:  46    -0.803309877772E+03   -0.20108E-01   -0.12219E-02 27480   0.202E-01    0.332E+00
RMM:  47    -0.803314306181E+03   -0.44284E-02   -0.52456E-03 27480   0.130E-01    0.303E+00
RMM:  48    -0.803319271146E+03   -0.49650E-02   -0.17539E-03 27480   0.718E-02    0.308E+00
RMM:  49    -0.803316666369E+03    0.26048E-02   -0.16224E-04 27480   0.236E-02    0.311E+00
RMM:  50    -0.803327091272E+03   -0.10425E-01   -0.28996E-03 27480   0.101E-01    0.331E+00
RMM:  51    -0.803344248752E+03   -0.17157E-01   -0.41488E-02 27480   0.349E-01    0.344E+00
RMM:  52    -0.803337613619E+03    0.66351E-02   -0.96446E-03 27480   0.194E-01    0.336E+00
RMM:  53    -0.803331550368E+03    0.60633E-02   -0.22967E-03 27480   0.869E-02    0.329E+00
RMM:  54    -0.803332564755E+03   -0.10144E-02   -0.31050E-03 27480   0.102E-01    0.328E+00
RMM:  55    -0.803319589592E+03    0.12975E-01   -0.20894E-02 27480   0.268E-01    0.333E+00
RMM:  56    -0.803355458149E+03   -0.35869E-01   -0.35149E-02 27480   0.353E-01    0.402E+00
RMM:  57    -0.803313746858E+03    0.41711E-01   -0.13387E-02 27480   0.240E-01    0.286E+00
RMM:  58    -0.803314013663E+03   -0.26680E-03   -0.49992E-03 27480   0.132E-01    0.259E+00
RMM:  59    -0.803331816279E+03   -0.17803E-01   -0.13310E-02 27480   0.205E-01    0.224E+00
RMM:  60    -0.803357574977E+03   -0.25759E-01   -0.26582E-02 27480   0.284E-01    0.229E+00
RMM:  61    -0.803365784346E+03   -0.82094E-02   -0.24753E-02 27480   0.294E-01    0.214E+00
RMM:  62    -0.803353358405E+03    0.12426E-01   -0.14732E-02 27480   0.240E-01    0.147E+00
RMM:  63    -0.803359724754E+03   -0.63663E-02   -0.71838E-03 27480   0.163E-01    0.136E+00
RMM:  64    -0.803360492376E+03   -0.76762E-03   -0.10871E-02 27480   0.189E-01    0.880E-01
RMM:  65    -0.803360769295E+03   -0.27692E-03   -0.41895E-03 27480   0.120E-01    0.792E-01
RMM:  66    -0.803363584110E+03   -0.28148E-02   -0.56360E-03 27480   0.146E-01    0.105E+00
RMM:  67    -0.803360512984E+03    0.30711E-02   -0.34228E-03 27480   0.121E-01    0.589E-01
RMM:  68    -0.803360509649E+03    0.33347E-05   -0.15981E-03 27480   0.758E-02    0.534E-01
RMM:  69    -0.803360564511E+03   -0.54862E-04   -0.11377E-03 27480   0.660E-02    0.425E-01
RMM:  70    -0.803360460567E+03    0.10394E-03   -0.81413E-04 27480   0.563E-02    0.285E-01
RMM:  71    -0.803361110826E+03   -0.65026E-03   -0.80741E-04 27480   0.560E-02    0.401E-01
RMM:  72    -0.803360620375E+03    0.49045E-03   -0.51257E-04 27480   0.468E-02    0.219E-01
RMM:  73    -0.803360721696E+03   -0.10132E-03   -0.33993E-04 27480   0.357E-02    0.228E-01
RMM:  74    -0.803360566808E+03    0.15489E-03   -0.20276E-04 27480   0.279E-02    0.140E-01
RMM:  75    -0.803360605557E+03   -0.38749E-04   -0.84544E-05 27359   0.178E-02    0.121E-01
RMM:  76    -0.803360633347E+03   -0.27791E-04   -0.52755E-05 25822   0.143E-02    0.877E-02
RMM:  77    -0.803360646887E+03   -0.13540E-04   -0.39761E-05 22905   0.122E-02    0.704E-02
RMM:  78    -0.803360661937E+03   -0.15050E-04   -0.43928E-05 24614   0.127E-02    0.732E-02
RMM:  79    -0.803360644592E+03    0.17345E-04   -0.20167E-05 17659   0.988E-03    0.375E-02
RMM:  80    -0.803360649187E+03   -0.45956E-05   -0.11596E-05 14806   0.733E-03
   1 F= -.80336065E+03 E0= -.80340169E+03  d E =-.803361E+03  mag=   210.7932
       N       E                     dE             d eps       ncg     rms          rms(c)
DAV:   1    -0.798934226698E+03    0.44264E+01   -0.13134E+03 27483   0.417E+01    0.262E+01
RMM:   2    -0.829331962561E+03   -0.30398E+02   -0.62560E+01 27480   0.173E+01    0.745E+01
RMM:   3    -0.814165115956E+03    0.15167E+02   -0.28997E+01 27480   0.108E+01    0.360E+01
RMM:   4    -0.822318803580E+03   -0.81537E+01   -0.45235E+00 27480   0.407E+00    0.517E+01
RMM:   5    -0.808303682775E+03    0.14015E+02   -0.29503E+00 27480   0.355E+00    0.126E+01
RMM:   6    -0.808158837566E+03    0.14485E+00   -0.10676E+00 27480   0.200E+00    0.133E+01
RMM:   7    -0.808157933917E+03    0.90365E-03   -0.41849E-01 27480   0.126E+00    0.114E+01
RMM:   8    -0.807654173192E+03    0.50376E+00   -0.23227E-01 27480   0.100E+00    0.398E+00
RMM:   9    -0.807781519189E+03   -0.12735E+00   -0.17320E-01 27480   0.802E-01    0.694E+00
RMM:  10    -0.807723287821E+03    0.58231E-01   -0.15137E-01 27480   0.729E-01    0.567E+00
RMM:  11    -0.807595500178E+03    0.12779E+00   -0.92295E-02 27480   0.611E-01    0.241E+00
RMM:  12    -0.807666118724E+03   -0.70619E-01   -0.55164E-02 27480   0.435E-01    0.465E+00
RMM:  13    -0.807593236400E+03    0.72882E-01   -0.33767E-02 27480   0.370E-01    0.221E+00
RMM:  14    -0.807575815001E+03    0.17421E-01   -0.19913E-02 27480   0.278E-01    0.986E-01
RMM:  15    -0.807581153816E+03   -0.53388E-02   -0.89387E-03 27480   0.181E-01    0.129E+00
RMM:  16    -0.807574177693E+03    0.69761E-02   -0.52499E-03 27480   0.150E-01    0.497E-01
RMM:  17    -0.807575537983E+03   -0.13603E-02   -0.17950E-03 27480   0.800E-02    0.657E-01
RMM:  18    -0.807574564627E+03    0.97336E-03   -0.88154E-04 27480   0.617E-02    0.431E-01
RMM:  19    -0.807574786335E+03   -0.22171E-03   -0.37724E-04 27480   0.374E-02    0.452E-01
RMM:  20    -0.807575133636E+03   -0.34730E-03   -0.23126E-04 27480   0.287E-02    0.481E-01
RMM:  21    -0.807575167117E+03   -0.33481E-04   -0.22580E-05 16930   0.880E-03    0.484E-01
RMM:  22    -0.807574987111E+03    0.18001E-03   -0.14917E-05 15236   0.795E-03    0.448E-01
RMM:  23    -0.807574917982E+03    0.69129E-04   -0.17640E-04 27479   0.250E-02    0.425E-01
RMM:  24    -0.807574500870E+03    0.41711E-03   -0.31548E-04 27480   0.328E-02    0.272E-01
RMM:  25    -0.807574513748E+03   -0.12877E-04   -0.21464E-04 27480   0.269E-02    0.253E-01
RMM:  26    -0.807574474976E+03    0.38772E-04   -0.25459E-04 27477   0.273E-02    0.173E-01
RMM:  27    -0.807574446829E+03    0.28147E-04   -0.13001E-04 27476   0.211E-02    0.124E-01
RMM:  28    -0.807574487551E+03   -0.40722E-04   -0.66682E-05 27039   0.151E-02    0.950E-02
RMM:  29    -0.807574480126E+03    0.74252E-05   -0.43436E-05 23858   0.133E-02
   2 F= -.80757448E+03 E0= -.80761262E+03  d E =-.421383E+01  mag=   212.2406
       N       E                     dE             d eps       ncg     rms          rms(c)
DAV:   1    -0.807067002874E+03    0.50748E+00   -0.12415E+02 27501   0.123E+01    0.762E+00
RMM:   2    -0.808777812197E+03   -0.17108E+01   -0.33061E+00 27480   0.409E+00    0.155E+01
RMM:   3    -0.808695350707E+03    0.82461E-01   -0.20055E+00 27480   0.280E+00    0.141E+01
RMM:   4    -0.809153207513E+03   -0.45786E+00   -0.47865E-01 27480   0.134E+00    0.181E+01
RMM:   5    -0.807900134997E+03    0.12531E+01   -0.33176E-01 27480   0.120E+00    0.392E+00
RMM:   6    -0.807855964481E+03    0.44171E-01   -0.53321E-02 27480   0.447E-01    0.259E+00
RMM:   7    -0.807864642516E+03   -0.86780E-02   -0.26542E-02 27480   0.309E-01    0.260E+00
RMM:   8    -0.807834562322E+03    0.30080E-01   -0.16290E-02 27480   0.267E-01    0.106E+00
RMM:   9    -0.807837751209E+03   -0.31889E-02   -0.10201E-02 27480   0.196E-01    0.144E+00
RMM:  10    -0.807840023496E+03   -0.22723E-02   -0.81734E-03 27480   0.171E-01    0.150E+00
RMM:  11    -0.807830220169E+03    0.98033E-02   -0.56615E-03 27480   0.148E-01    0.820E-01
RMM:  12    -0.807830638451E+03   -0.41828E-03   -0.22887E-03 27480   0.894E-02    0.724E-01
RMM:  13    -0.807830073942E+03    0.56451E-03   -0.11936E-03 27480   0.694E-02    0.744E-01
RMM:  14    -0.807829454146E+03    0.61980E-03   -0.27603E-04 27480   0.331E-02    0.633E-01
RMM:  15    -0.807829437837E+03    0.16309E-04   -0.12167E-05 15546   0.459E-03    0.631E-01
RMM:  16    -0.807829237081E+03    0.20076E-03   -0.39495E-05 23454   0.127E-02    0.597E-01
RMM:  17    -0.807829029465E+03    0.20762E-03   -0.20203E-04 27478   0.265E-02    0.559E-01
RMM:  18    -0.807828484819E+03    0.54465E-03   -0.45771E-04 27480   0.401E-02    0.461E-01
RMM:  19    -0.807828009783E+03    0.47504E-03   -0.92711E-04 27480   0.523E-02    0.302E-01
RMM:  20    -0.807827802525E+03    0.20726E-03   -0.39812E-04 27480   0.363E-02    0.197E-01
RMM:  21    -0.807827806770E+03   -0.42446E-05   -0.17841E-04 27476   0.242E-02    0.170E-01
RMM:  22    -0.807827733267E+03    0.73503E-04   -0.83521E-05 27313   0.183E-02    0.105E-01
RMM:  23    -0.807827775835E+03   -0.42568E-04   -0.61272E-05 27154   0.145E-02    0.114E-01
RMM:  24    -0.807827733808E+03    0.42026E-04   -0.38823E-05 23025   0.127E-02    0.456E-02
RMM:  25    -0.807827747130E+03   -0.13321E-04   -0.18275E-05 16188   0.873E-03    0.574E-02
RMM:  26    -0.807827735483E+03    0.11647E-04   -0.12292E-05 14591   0.849E-03    0.177E-02
RMM:  27    -0.807827738829E+03   -0.33463E-05   -0.41627E-06 14078   0.414E-03
   3 F= -.80782774E+03 E0= -.80786614E+03  d E =-.446709E+01  mag=   212.4281
       N       E                     dE             d eps       ncg     rms          rms(c)
DAV:   1    -0.807607285434E+03    0.22045E+00   -0.12096E+02 27489   0.123E+01    0.698E+00
RMM:   2    -0.809348606286E+03   -0.17413E+01   -0.28439E+00 27480   0.379E+00    0.157E+01
RMM:   3    -0.808713740831E+03    0.63487E+00   -0.15261E+00 27480   0.248E+00    0.102E+01
RMM:   4    -0.808642842649E+03    0.70898E-01   -0.32148E-01 27480   0.119E+00    0.899E+00
RMM:   5    -0.808258070206E+03    0.38477E+00   -0.11973E-01 27480   0.726E-01    0.199E+00
RMM:   6    -0.808248891227E+03    0.91790E-02   -0.27733E-02 27480   0.313E-01    0.163E+00
RMM:   7    -0.808245413401E+03    0.34778E-02   -0.10117E-02 27480   0.204E-01    0.156E+00
RMM:   8    -0.808237817001E+03    0.75964E-02   -0.78042E-03 27480   0.176E-01    0.120E+00
RMM:   9    -0.808246945419E+03   -0.91284E-02   -0.10889E-02 27480   0.197E-01    0.203E+00
RMM:  10    -0.808247776597E+03   -0.83118E-03   -0.99026E-03 27480   0.188E-01    0.204E+00
RMM:  11    -0.808231840158E+03    0.15936E-01   -0.52427E-03 27480   0.143E-01    0.550E-01
RMM:  12    -0.808232120555E+03   -0.28040E-03   -0.19171E-03 27480   0.816E-02    0.661E-01
RMM:  13    -0.808232007889E+03    0.11267E-03   -0.71636E-04 27480   0.536E-02    0.585E-01
RMM:  14    -0.808231577786E+03    0.43010E-03   -0.31068E-04 27480   0.366E-02    0.518E-01
RMM:  15    -0.808231641353E+03   -0.63567E-04   -0.19907E-05 16948   0.777E-03    0.530E-01
RMM:  16    -0.808231598996E+03    0.42357E-04   -0.54983E-06 14612   0.424E-03    0.521E-01
RMM:  17    -0.808231409142E+03    0.18985E-03   -0.22647E-04 27480   0.281E-02    0.466E-01
RMM:  18    -0.808230725091E+03    0.68405E-03   -0.35289E-04 27480   0.349E-02    0.252E-01
RMM:  19    -0.808230638650E+03    0.86440E-04   -0.23404E-04 27479   0.259E-02    0.216E-01
RMM:  20    -0.808230471262E+03    0.16739E-03   -0.15333E-04 27475   0.218E-02    0.113E-01
RMM:  21    -0.808230507888E+03   -0.36626E-04   -0.11917E-04 27478   0.194E-02    0.135E-01
RMM:  22    -0.808230435208E+03    0.72679E-04   -0.63300E-05 26491   0.158E-02    0.454E-02
RMM:  23    -0.808230460575E+03   -0.25367E-04   -0.28351E-05 20365   0.105E-02    0.761E-02
RMM:  24    -0.808230448597E+03    0.11978E-04   -0.19327E-05 16077   0.103E-02    0.347E-02
RMM:  25    -0.808230447093E+03    0.15036E-05   -0.72401E-06 14410   0.592E-03
   4 F= -.80823045E+03 E0= -.80826864E+03  d E =-.402708E+00  mag=   212.8016
       N       E                     dE             d eps       ncg     rms          rms(c)
DAV:   1    -0.807941218634E+03    0.28923E+00   -0.74983E+01 27495   0.964E+00    0.546E+00
RMM:   2    -0.808953322873E+03   -0.10121E+01   -0.16432E+00 27480   0.288E+00    0.117E+01
RMM:   3    -0.808638101669E+03    0.31522E+00   -0.91883E-01 27480   0.192E+00    0.815E+00
RMM:   4    -0.808581720922E+03    0.56381E-01   -0.19632E-01 27480   0.931E-01    0.708E+00
RMM:   5    -0.808342078509E+03    0.23964E+00   -0.71702E-02 27480   0.562E-01    0.149E+00
RMM:   6    -0.808336245841E+03    0.58327E-02   -0.15294E-02 27480   0.231E-01    0.118E+00
RMM:   7    -0.808337557728E+03   -0.13119E-02   -0.61749E-03 27480   0.156E-01    0.146E+00
RMM:   8    -0.808330723712E+03    0.68340E-02   -0.56406E-03 27480   0.149E-01    0.107E+00
RMM:   9    -0.808333952675E+03   -0.32290E-02   -0.56793E-03 27480   0.143E-01    0.133E+00
RMM:  10    -0.808335916931E+03   -0.19643E-02   -0.51795E-03 27480   0.134E-01    0.146E+00
RMM:  11    -0.808327151288E+03    0.87656E-02   -0.35588E-03 27480   0.118E-01    0.505E-01
RMM:  12    -0.808327167789E+03   -0.16501E-04   -0.98642E-04 27480   0.583E-02    0.537E-01
RMM:  13    -0.808327289759E+03   -0.12197E-03   -0.33222E-04 27480   0.360E-02    0.539E-01
RMM:  14    -0.808327141132E+03    0.14863E-03   -0.10426E-04 27435   0.211E-02    0.515E-01
RMM:  15    -0.808327038535E+03    0.10260E-03   -0.32839E-05 21108   0.110E-02    0.495E-01
RMM:  16    -0.808326692518E+03    0.34602E-03   -0.13107E-04 27466   0.214E-02    0.418E-01
RMM:  17    -0.808326525345E+03    0.16717E-03   -0.34421E-04 27480   0.330E-02    0.362E-01
RMM:  18    -0.808326032615E+03    0.49273E-03   -0.34226E-04 27480   0.330E-02    0.153E-01
RMM:  19    -0.808326070118E+03   -0.37503E-04   -0.15998E-04 27478   0.222E-02    0.169E-01
RMM:  20    -0.808325949559E+03    0.12056E-03   -0.10375E-04 27457   0.189E-02    0.522E-02
RMM:  21    -0.808325967148E+03   -0.17588E-04   -0.41671E-05 23442   0.122E-02    0.726E-02
RMM:  22    -0.808325951534E+03    0.15614E-04   -0.18633E-05 16137   0.979E-03    0.314E-02
RMM:  23    -0.808325951367E+03    0.16662E-06   -0.75665E-06 14369   0.596E-03
   5 F= -.80832595E+03 E0= -.80836415E+03  d E =-.498213E+00  mag=   213.0794
       N       E                     dE             d eps       ncg     rms          rms(c)
DAV:   1    -0.808237420074E+03    0.88531E-01   -0.35660E+01 27504   0.662E+00    0.362E+00
RMM:   2    -0.808561910504E+03   -0.32449E+00   -0.59214E-01 27480   0.174E+00    0.610E+00
RMM:   3    -0.808762307531E+03   -0.20040E+00   -0.34191E-01 27480   0.116E+00    0.960E+00
RMM:   4    -0.808717387071E+03    0.44920E-01   -0.20762E-01 27480   0.902E-01    0.835E+00
RMM:   5    -0.808433500131E+03    0.28389E+00   -0.79186E-02 27480   0.598E-01    0.154E+00
RMM:   6    -0.808423300811E+03    0.10199E-01   -0.87857E-03 27480   0.170E-01    0.752E-01
RMM:   7    -0.808424936915E+03   -0.16361E-02   -0.49561E-03 27480   0.130E-01    0.101E+00
RMM:   8    -0.808419769313E+03    0.51676E-02   -0.30886E-03 27480   0.113E-01    0.420E-01
RMM:   9    -0.808421511345E+03   -0.17420E-02   -0.23234E-03 27480   0.898E-02    0.807E-01
RMM:  10    -0.808421673174E+03   -0.16183E-03   -0.25869E-03 27480   0.946E-02    0.877E-01
RMM:  11    -0.808418481604E+03    0.31916E-02   -0.18047E-03 27480   0.833E-02    0.256E-01
RMM:  12    -0.808418696524E+03   -0.21492E-03   -0.65297E-04 27480   0.470E-02    0.332E-01
RMM:  13    -0.808418369920E+03    0.32660E-03   -0.23480E-04 27472   0.311E-02    0.157E-01
RMM:  14    -0.808418285455E+03    0.84465E-04   -0.72811E-05 27135   0.174E-02    0.835E-02
RMM:  15    -0.808418306422E+03   -0.20968E-04   -0.25251E-05 19294   0.100E-02    0.102E-01
RMM:  16    -0.808418287406E+03    0.19017E-04   -0.15984E-05 15404   0.960E-03    0.787E-02
RMM:  17    -0.808418293157E+03   -0.57518E-05   -0.33458E-06 14219   0.345E-03
   6 F= -.80841829E+03 E0= -.80845671E+03  d E =-.923418E-01  mag=   213.1760
       N       E                     dE             d eps       ncg     rms          rms(c)
DAV:   1    -0.808329654545E+03    0.88633E-01   -0.21844E+01 27519   0.518E+00    0.283E+00
RMM:   2    -0.808516418913E+03   -0.18676E+00   -0.35274E-01 27480   0.134E+00    0.439E+00
RMM:   3    -0.808610358811E+03   -0.93940E-01   -0.20771E-01 27480   0.909E-01    0.610E+00
RMM:   4    -0.808588285293E+03    0.22074E-01   -0.91880E-02 27480   0.616E-01    0.600E+00
RMM:   5    -0.808447919720E+03    0.14037E+00   -0.36252E-02 27480   0.398E-01    0.108E+00
RMM:   6    -0.808443463600E+03    0.44561E-02   -0.42253E-03 27480   0.121E-01    0.633E-01
RMM:   7    -0.808444267104E+03   -0.80350E-03   -0.25806E-03 27480   0.933E-02    0.762E-01
RMM:   8    -0.808441800948E+03    0.24662E-02   -0.18270E-03 27480   0.847E-02    0.550E-01
RMM:   9    -0.808441344322E+03    0.45663E-03   -0.11325E-03 27480   0.635E-02    0.409E-01
RMM:  10    -0.808442671237E+03   -0.13269E-02   -0.17061E-03 27480   0.769E-02    0.743E-01
RMM:  11    -0.808440999281E+03    0.16720E-02   -0.99594E-04 27480   0.628E-02    0.394E-01
RMM:  12    -0.808441019440E+03   -0.20159E-04   -0.19110E-04 27480   0.248E-02    0.404E-01
RMM:  13    -0.808441081953E+03   -0.62513E-04   -0.37459E-05 20876   0.116E-02    0.412E-01
RMM:  14    -0.808441080009E+03    0.19438E-05   -0.57798E-06 14590   0.414E-03
   7 F= -.80844108E+03 E0= -.80847996E+03  d E =-.115129E+00  mag=   213.2297
       N       E                     dE             d eps       ncg     rms          rms(c)
DAV:   1    -0.808390004095E+03    0.51078E-01   -0.16647E+01 27492   0.452E+00    0.248E+00
RMM:   2    -0.808539255695E+03   -0.14925E+00   -0.25357E-01 27480   0.113E+00    0.462E+00
RMM:   3    -0.808728813201E+03   -0.18956E+00   -0.20126E-01 27480   0.873E-01    0.813E+00
RMM:   4    -0.808549039573E+03    0.17977E+00   -0.88345E-02 27480   0.594E-01    0.384E+00
RMM:   5    -0.808486623173E+03    0.62416E-01   -0.25667E-02 27480   0.341E-01    0.132E+00
RMM:   6    -0.808478548062E+03    0.80751E-02   -0.43713E-03 27480   0.120E-01    0.645E-01
RMM:   7    -0.808479284003E+03   -0.73594E-03   -0.22291E-03 27480   0.892E-02    0.814E-01
RMM:   8    -0.808476923070E+03    0.23609E-02   -0.13150E-03 27480   0.725E-02    0.359E-01
RMM:   9    -0.808477040721E+03   -0.11765E-03   -0.10333E-03 27480   0.620E-02    0.435E-01
RMM:  10    -0.808477481744E+03   -0.44102E-03   -0.84418E-04 27480   0.517E-02    0.488E-01
RMM:  11    -0.808477024515E+03    0.45723E-03   -0.63092E-04 27480   0.476E-02    0.528E-01
RMM:  12    -0.808476993032E+03    0.31483E-04   -0.11877E-04 27425   0.189E-02    0.496E-01
RMM:  13    -0.808477082026E+03   -0.88994E-04   -0.17128E-05 15480   0.792E-03    0.517E-01
RMM:  14    -0.808477038556E+03    0.43470E-04   -0.12052E-04 27472   0.208E-02    0.517E-01
RMM:  15    -0.808475984731E+03    0.10538E-02   -0.12262E-03 27480   0.585E-02    0.219E-01
RMM:  16    -0.808475883841E+03    0.10089E-03   -0.28313E-04 27480   0.286E-02    0.157E-01
RMM:  17    -0.808475814440E+03    0.69401E-04   -0.11912E-04 27427   0.183E-02    0.808E-02
RMM:  18    -0.808475797442E+03    0.16998E-04   -0.45515E-05 24323   0.130E-02    0.555E-02
RMM:  19    -0.808475793356E+03    0.40863E-05   -0.17880E-05 15927   0.873E-03
   8 F= -.80847579E+03 E0= -.80851503E+03  d E =-.347133E-01  mag=   213.2364
       N       E                     dE             d eps       ncg     rms          rms(c)
DAV:   1    -0.808392590869E+03    0.83207E-01   -0.18682E+01 27483   0.478E+00    0.261E+00
RMM:   2    -0.808528129985E+03   -0.13554E+00   -0.27483E-01 27480   0.118E+00    0.339E+00
RMM:   3    -0.808691972754E+03   -0.16384E+00   -0.16824E-01 27480   0.806E-01    0.636E+00
RMM:   4    -0.808562489199E+03    0.12948E+00   -0.63931E-02 27480   0.519E-01    0.429E+00
RMM:   5    -0.808497524121E+03    0.64965E-01   -0.26845E-02 27480   0.341E-01    0.137E+00
RMM:   6    -0.808491119334E+03    0.64048E-02   -0.34311E-03 27480   0.109E-01    0.518E-01
RMM:   7    -0.808492320545E+03   -0.12012E-02   -0.22982E-03 27480   0.901E-02    0.818E-01
RMM:   8    -0.808490145143E+03    0.21754E-02   -0.17449E-03 27480   0.787E-02    0.511E-01
RMM:   9    -0.808489365475E+03    0.77967E-03   -0.12938E-03 27480   0.691E-02    0.331E-01
RMM:  10    -0.808490442822E+03   -0.10773E-02   -0.11538E-03 27480   0.613E-02    0.545E-01
RMM:  11    -0.808488982292E+03    0.14605E-02   -0.76331E-04 27480   0.530E-02    0.212E-01
RMM:  12    -0.808488813916E+03    0.16838E-03   -0.22877E-04 27480   0.283E-02    0.952E-02
RMM:  13    -0.808488820465E+03   -0.65491E-05   -0.48762E-05 24776   0.139E-02
   9 F= -.80848882E+03 E0= -.80852875E+03  d E =-.477405E-01  mag=   213.2566
       N       E                     dE             d eps       ncg     rms          rms(c)
DAV:   1    -0.808436726850E+03    0.52087E-01   -0.14043E+01 27498   0.414E+00    0.225E+00
RMM:   2    -0.808543125802E+03   -0.10640E+00   -0.21131E-01 27480   0.103E+00    0.309E+00
RMM:   3    -0.808636269933E+03   -0.93144E-01   -0.12668E-01 27480   0.702E-01    0.507E+00
RMM:   4    -0.808575960084E+03    0.60310E-01   -0.46280E-02 27480   0.442E-01    0.396E+00
RMM:   5    -0.808514669356E+03    0.61291E-01   -0.21051E-02 27480   0.301E-01    0.122E+00
RMM:   6    -0.808509092604E+03    0.55768E-02   -0.27233E-03 27480   0.983E-02    0.375E-01
RMM:   7    -0.808510216172E+03   -0.11236E-02   -0.16986E-03 27480   0.769E-02    0.759E-01
RMM:   8    -0.808508652177E+03    0.15640E-02   -0.13044E-03 27480   0.670E-02    0.475E-01
RMM:   9    -0.808508198728E+03    0.45345E-03   -0.10039E-03 27480   0.611E-02    0.440E-01
RMM:  10    -0.808508703137E+03   -0.50441E-03   -0.81423E-04 27480   0.520E-02    0.455E-01
RMM:  11    -0.808508025383E+03    0.67775E-03   -0.61095E-04 27480   0.470E-02    0.376E-01
RMM:  12    -0.808507899449E+03    0.12593E-03   -0.11570E-04 27440   0.197E-02    0.328E-01
RMM:  13    -0.808507943508E+03   -0.44059E-04   -0.91777E-06 14844   0.508E-03    0.345E-01
RMM:  14    -0.808507917623E+03    0.25885E-04   -0.13476E-05 15539   0.689E-03    0.336E-01
RMM:  15    -0.808507646167E+03    0.27146E-03   -0.34195E-04 27480   0.319E-02    0.225E-01
RMM:  16    -0.808507438388E+03    0.20778E-03   -0.18253E-04 27478   0.239E-02    0.984E-02
RMM:  17    -0.808507422041E+03    0.16347E-04   -0.55487E-05 25299   0.119E-02    0.802E-02
RMM:  18    -0.808507397878E+03    0.24163E-04   -0.29631E-05 19241   0.104E-02    0.437E-02
RMM:  19    -0.808507406458E+03   -0.85796E-05   -0.22036E-05 16422   0.905E-03
  10 F= -.80850741E+03 E0= -.80854733E+03  d E =-.185860E-01  mag=   213.3199
       N       E                     dE             d eps       ncg     rms          rms(c)
DAV:   1    -0.808487270132E+03    0.20128E-01   -0.46031E+00 27531   0.237E+00    0.128E+00
RMM:   2    -0.808521776240E+03   -0.34506E-01   -0.68181E-02 27480   0.585E-01    0.173E+00
RMM:   3    -0.808548558468E+03   -0.26782E-01   -0.40894E-02 27480   0.399E-01    0.258E+00
RMM:   4    -0.808525035534E+03    0.23523E-01   -0.10807E-02 27480   0.218E-01    0.157E+00
RMM:   5    -0.808511493664E+03    0.13542E-01   -0.44602E-03 27480   0.136E-01    0.446E-01
RMM:   6    -0.808510973870E+03    0.51979E-03   -0.61676E-04 27480   0.457E-02    0.287E-01
RMM:   7    -0.808511306712E+03   -0.33284E-03   -0.47547E-04 27480   0.407E-02    0.462E-01
RMM:   8    -0.808510735319E+03    0.57139E-03   -0.48284E-04 27480   0.403E-02    0.296E-01
RMM:   9    -0.808510503218E+03    0.23210E-03   -0.36382E-04 27480   0.368E-02    0.198E-01
RMM:  10    -0.808510708528E+03   -0.20531E-03   -0.27068E-04 27480   0.302E-02    0.251E-01
RMM:  11    -0.808510442164E+03    0.26636E-03   -0.18262E-04 27473   0.262E-02    0.149E-01
RMM:  12    -0.808510388115E+03    0.54048E-04   -0.42049E-05 23568   0.126E-02    0.972E-02
RMM:  13    -0.808510399367E+03   -0.11252E-04   -0.82077E-06 14611   0.595E-03    0.110E-01
RMM:  14    -0.808510398978E+03    0.38903E-06   -0.24823E-06 14125   0.376E-03
  11 F= -.80851040E+03 E0= -.80855020E+03  d E =-.215785E-01  mag=   213.3403
       N       E                     dE             d eps       ncg     rms          rms(c)
DAV:   1    -0.808477031693E+03    0.33368E-01   -0.80626E+00 27480   0.313E+00    0.176E+00
RMM:   2    -0.808553581597E+03   -0.76550E-01   -0.12315E-01 27480   0.776E-01    0.315E+00
RMM:   3    -0.808647647903E+03   -0.94066E-01   -0.77703E-02 27480   0.541E-01    0.628E+00
RMM:   4    -0.808570860416E+03    0.76787E-01   -0.49205E-02 27480   0.439E-01    0.332E+00
RMM:   5    -0.808524457088E+03    0.46403E-01   -0.17742E-02 27480   0.286E-01    0.861E-01
RMM:   6    -0.808520940022E+03    0.35171E-02   -0.19925E-03 27480   0.812E-02    0.324E-01
RMM:   7    -0.808521447066E+03   -0.50704E-03   -0.11966E-03 27480   0.651E-02    0.511E-01
RMM:   8    -0.808520477693E+03    0.96937E-03   -0.67043E-04 27480   0.522E-02    0.277E-01
RMM:   9    -0.808520400333E+03    0.77359E-04   -0.46850E-04 27480   0.407E-02    0.336E-01
RMM:  10    -0.808520533535E+03   -0.13320E-03   -0.55432E-04 27480   0.430E-02    0.344E-01
RMM:  11    -0.808519998295E+03    0.53524E-03   -0.37699E-04 27480   0.376E-02    0.148E-01
RMM:  12    -0.808520052092E+03   -0.53798E-04   -0.87098E-05 27275   0.167E-02    0.179E-01
RMM:  13    -0.808520030207E+03    0.21886E-04   -0.23511E-05 17091   0.980E-03    0.168E-01
RMM:  14    -0.808520029835E+03    0.37217E-06   -0.43981E-06 14278   0.456E-03
  12 F= -.80852003E+03 E0= -.80855955E+03  d E =-.963086E-02  mag=   213.3476
       N       E                     dE             d eps       ncg     rms          rms(c)
DAV:   1    -0.808497570367E+03    0.22460E-01   -0.45814E+00 27504   0.236E+00    0.134E+00
RMM:   2    -0.808550036620E+03   -0.52466E-01   -0.73126E-02 27480   0.596E-01    0.289E+00
RMM:   3    -0.808590252672E+03   -0.40216E-01   -0.45916E-02 27480   0.413E-01    0.477E+00
RMM:   4    -0.808549658829E+03    0.40594E-01   -0.28757E-02 27480   0.337E-01    0.236E+00
RMM:   5    -0.808524415010E+03    0.25244E-01   -0.10126E-02 27480   0.217E-01    0.607E-01
RMM:   6    -0.808522578409E+03    0.18366E-02   -0.10188E-03 27480   0.574E-02    0.234E-01
RMM:   7    -0.808522950869E+03   -0.37246E-03   -0.65453E-04 27480   0.481E-02    0.424E-01
RMM:   8    -0.808522453146E+03    0.49772E-03   -0.36246E-04 27480   0.382E-02    0.260E-01
RMM:   9    -0.808522466847E+03   -0.13701E-04   -0.27524E-04 27480   0.312E-02    0.356E-01
RMM:  10    -0.808522545623E+03   -0.78777E-04   -0.28393E-04 27480   0.305E-02    0.339E-01
RMM:  11    -0.808522343726E+03    0.20190E-03   -0.17380E-04 27478   0.253E-02    0.287E-01
RMM:  12    -0.808522367837E+03   -0.24110E-04   -0.13440E-05 15237   0.597E-03    0.296E-01
RMM:  13    -0.808522354805E+03    0.13032E-04   -0.36219E-06 14364   0.372E-03    0.289E-01
RMM:  14    -0.808522305422E+03    0.49383E-04   -0.45149E-05 24426   0.130E-02    0.271E-01
RMM:  15    -0.808522071524E+03    0.23390E-03   -0.16360E-04 27470   0.227E-02    0.150E-01
RMM:  16    -0.808522019118E+03    0.52406E-04   -0.10326E-04 27413   0.172E-02    0.111E-01
RMM:  17    -0.808521977925E+03    0.41192E-04   -0.43876E-05 23314   0.117E-02    0.620E-02
RMM:  18    -0.808521985078E+03   -0.71523E-05   -0.24175E-05 17266   0.932E-03
  13 F= -.80852199E+03 E0= -.80856149E+03  d E =-.115861E-01  mag=   213.3763
       N       E                     dE             d eps       ncg     rms          rms(c)
DAV:   1    -0.808474587958E+03    0.47390E-01   -0.10520E+01 27480   0.358E+00    0.197E+00
RMM:   2    -0.808540256918E+03   -0.65669E-01   -0.14360E-01 27480   0.841E-01    0.217E+00
RMM:   3    -0.808686016782E+03   -0.14576E+00   -0.85376E-02 27480   0.571E-01    0.635E+00
RMM:   4    -0.808573215573E+03    0.11280E+00   -0.46034E-02 27480   0.432E-01    0.320E+00
RMM:   5    -0.808533445931E+03    0.39770E-01   -0.16031E-02 27480   0.264E-01    0.728E-01
RMM:   6    -0.808530891612E+03    0.25543E-02   -0.18704E-03 27480   0.760E-02    0.359E-01
RMM:   7    -0.808531418151E+03   -0.52654E-03   -0.13490E-03 27480   0.675E-02    0.612E-01
RMM:   8    -0.808530135126E+03    0.12830E-02   -0.98106E-04 27480   0.594E-02    0.340E-01
RMM:   9    -0.808529968907E+03    0.16622E-03   -0.65408E-04 27480   0.479E-02    0.262E-01
RMM:  10    -0.808530298218E+03   -0.32931E-03   -0.61127E-04 27480   0.438E-02    0.397E-01
RMM:  11    -0.808529639338E+03    0.65888E-03   -0.30872E-04 27480   0.339E-02    0.135E-01
RMM:  12    -0.808529664575E+03   -0.25237E-04   -0.87401E-05 27169   0.169E-02    0.156E-01
RMM:  13    -0.808529641893E+03    0.22682E-04   -0.18389E-05 16173   0.931E-03    0.137E-01
RMM:  14    -0.808529642105E+03   -0.21199E-06   -0.30164E-06 14318   0.375E-03
  14 F= -.80852964E+03 E0= -.80856949E+03  d E =-.765703E-02  mag=   213.4089
       N       E                     dE             d eps       ncg     rms          rms(c)
DAV:   1    -0.808514038167E+03    0.15604E-01   -0.31911E+00 27510   0.197E+00    0.109E+00
RMM:   2    -0.808534970436E+03   -0.20932E-01   -0.43880E-02 27480   0.464E-01    0.133E+00
RMM:   3    -0.808583320190E+03   -0.48350E-01   -0.35035E-02 27480   0.363E-01    0.382E+00
RMM:   4    -0.808541930395E+03    0.41390E-01   -0.15699E-02 27480   0.250E-01    0.157E+00
RMM:   5    -0.808532325555E+03    0.96048E-02   -0.44336E-03 27480   0.139E-01    0.518E-01
RMM:   6    -0.808531265904E+03    0.10597E-02   -0.50972E-04 27480   0.390E-02    0.252E-01
RMM:   7    -0.808531446786E+03   -0.18088E-03   -0.36880E-04 27480   0.354E-02    0.356E-01
RMM:   8    -0.808531116384E+03    0.33040E-03   -0.26284E-04 27480   0.309E-02    0.254E-01
RMM:   9    -0.808531146996E+03   -0.30612E-04   -0.14223E-04 27470   0.221E-02    0.260E-01
RMM:  10    -0.808531280825E+03   -0.13383E-03   -0.10716E-04 27381   0.177E-02    0.324E-01
RMM:  11    -0.808531276634E+03    0.41908E-05   -0.69747E-06 14542   0.398E-03
  15 F= -.80853128E+03 E0= -.80857146E+03  d E =-.929156E-02  mag=   213.4514
       N       E                     dE             d eps       ncg     rms          rms(c)
DAV:   1    -0.808478487472E+03    0.52793E-01   -0.10780E+01 27480   0.362E+00    0.208E+00
RMM:   2    -0.808608752546E+03   -0.13027E+00   -0.16430E-01 27480   0.887E-01    0.470E+00
RMM:   3    -0.808683513430E+03   -0.74761E-01   -0.11494E-01 27480   0.658E-01    0.632E+00
RMM:   4    -0.808590522594E+03    0.92991E-01   -0.57546E-02 27480   0.483E-01    0.321E+00
RMM:   5    -0.808544671581E+03    0.45851E-01   -0.18823E-02 27480   0.300E-01    0.118E+00
RMM:   6    -0.808539203403E+03    0.54682E-02   -0.24669E-03 27480   0.923E-02    0.572E-01
RMM:   7    -0.808539378204E+03   -0.17480E-03   -0.11682E-03 27480   0.640E-02    0.556E-01
RMM:   8    -0.808538590934E+03    0.78727E-03   -0.74358E-04 27480   0.545E-02    0.547E-01
RMM:   9    -0.808538356087E+03    0.23485E-03   -0.31867E-04 27480   0.328E-02    0.418E-01
RMM:  10    -0.808539237041E+03   -0.88095E-03   -0.58071E-04 27480   0.420E-02    0.685E-01
RMM:  11    -0.808539186325E+03    0.50716E-04   -0.18551E-04 27480   0.251E-02    0.673E-01
RMM:  12    -0.808539067578E+03    0.11875E-03   -0.28505E-05 19566   0.999E-03    0.660E-01
RMM:  13    -0.808538605097E+03    0.46248E-03   -0.16623E-04 27466   0.243E-02    0.596E-01
RMM:  14    -0.808538355965E+03    0.24913E-03   -0.91646E-04 27480   0.547E-02    0.564E-01
RMM:  15    -0.808536892741E+03    0.14632E-02   -0.19622E-03 27480   0.741E-02    0.141E-01
RMM:  16    -0.808536901961E+03   -0.92196E-05   -0.30435E-04 27480   0.291E-02    0.131E-01
RMM:  17    -0.808536859844E+03    0.42117E-04   -0.84865E-05 27209   0.170E-02    0.798E-02
RMM:  18    -0.808536836347E+03    0.23497E-04   -0.34477E-05 21953   0.118E-02    0.389E-02
RMM:  19    -0.808536838869E+03   -0.25218E-05   -0.10881E-05 14875   0.751E-03
  16 F= -.80853684E+03 E0= -.80857702E+03  d E =-.556223E-02  mag=   213.4048
       N       E                     dE             d eps       ncg     rms          rms(c)
DAV:   1    -0.808528288526E+03    0.85478E-02   -0.16665E+00 27501   0.142E+00    0.805E-01
RMM:   2    -0.808539591018E+03   -0.11302E-01   -0.22925E-02 27480   0.334E-01    0.921E-01
RMM:   3    -0.808558362267E+03   -0.18771E-01   -0.15836E-02 27480   0.249E-01    0.230E+00
RMM:   4    -0.808545350044E+03    0.13012E-01   -0.77682E-03 27480   0.178E-01    0.148E+00
RMM:   5    -0.808537957969E+03    0.73921E-02   -0.24442E-03 27480   0.103E-01    0.298E-01
RMM:   6    -0.808537632560E+03    0.32541E-03   -0.24650E-04 27478   0.283E-02    0.137E-01
RMM:   7    -0.808537708547E+03   -0.75987E-04   -0.19325E-04 27480   0.259E-02    0.203E-01
RMM:   8    -0.808537467530E+03    0.24102E-03   -0.16352E-04 27480   0.241E-02    0.830E-02
RMM:   9    -0.808537508641E+03   -0.41111E-04   -0.10857E-04 27384   0.191E-02    0.127E-01
RMM:  10    -0.808537517713E+03   -0.90717E-05   -0.80662E-05 27049   0.160E-02
  17 F= -.80853752E+03 E0= -.80857776E+03  d E =-.624108E-02  mag=   213.4141
       N       E                     dE             d eps       ncg     rms          rms(c)
DAV:   1    -0.808489118415E+03    0.48390E-01   -0.95358E+00 27480   0.341E+00    0.194E+00
RMM:   2    -0.808554026604E+03   -0.64908E-01   -0.13303E-01 27480   0.802E-01    0.218E+00
RMM:   3    -0.808665153328E+03   -0.11113E+00   -0.89659E-02 27480   0.590E-01    0.541E+00
RMM:   4    -0.808592617794E+03    0.72536E-01   -0.41095E-02 27480   0.418E-01    0.355E+00
RMM:   5    -0.808543668719E+03    0.48949E-01   -0.14975E-02 27480   0.252E-01    0.494E-01
RMM:   6    -0.808543230110E+03    0.43861E-03   -0.18249E-03 27480   0.803E-02    0.444E-01
RMM:   7    -0.808543844536E+03   -0.61443E-03   -0.10537E-03 27480   0.595E-02    0.616E-01
RMM:   8    -0.808542112987E+03    0.17315E-02   -0.84446E-04 27480   0.564E-02    0.189E-01
RMM:   9    -0.808542485518E+03   -0.37253E-03   -0.62138E-04 27480   0.455E-02    0.321E-01
RMM:  10    -0.808542369861E+03    0.11566E-03   -0.39570E-04 27480   0.342E-02    0.297E-01
RMM:  11    -0.808541868447E+03    0.50141E-03   -0.27531E-04 27480   0.311E-02    0.884E-02
RMM:  12    -0.808541894559E+03   -0.26112E-04   -0.65767E-05 26695   0.148E-02    0.109E-01
RMM:  13    -0.808541866608E+03    0.27951E-04   -0.21541E-05 16524   0.101E-02    0.842E-02
RMM:  14    -0.808541858303E+03    0.83043E-05   -0.63810E-06 14506   0.562E-03
  18 F= -.80854186E+03 E0= -.80858249E+03  d E =-.434059E-02  mag=   213.4366
       N       E                     dE             d eps       ncg     rms          rms(c)
DAV:   1    -0.808520445706E+03    0.21421E-01   -0.38587E+00 27480   0.217E+00    0.123E+00
RMM:   2    -0.808546335496E+03   -0.25890E-01   -0.53128E-02 27480   0.506E-01    0.137E+00
RMM:   3    -0.808586462920E+03   -0.40127E-01   -0.38520E-02 27480   0.388E-01    0.328E+00
RMM:   4    -0.808555425126E+03    0.31038E-01   -0.17811E-02 27480   0.277E-01    0.204E+00
RMM:   5    -0.808542982524E+03    0.12443E-01   -0.45528E-03 27480   0.138E-01    0.454E-01
RMM:   6    -0.808542347016E+03    0.63551E-03   -0.50967E-04 27480   0.407E-02    0.252E-01
RMM:   7    -0.808542480450E+03   -0.13343E-03   -0.37505E-04 27480   0.362E-02    0.319E-01
RMM:   8    -0.808542093598E+03    0.38685E-03   -0.33465E-04 27480   0.337E-02    0.241E-01
RMM:   9    -0.808542059647E+03    0.33951E-04   -0.16081E-04 27462   0.226E-02    0.239E-01
RMM:  10    -0.808542161578E+03   -0.10193E-03   -0.18302E-04 27480   0.240E-02    0.285E-01
RMM:  11    -0.808542065183E+03    0.96395E-04   -0.10641E-04 27375   0.199E-02    0.258E-01
RMM:  12    -0.808542064125E+03    0.10579E-05   -0.60942E-06 14542   0.376E-03
  19 F= -.80854206E+03 E0= -.80858306E+03  d E =-.454641E-02  mag=   213.4708
       N       E                     dE             d eps       ncg     rms          rms(c)
DAV:   1    -0.808537288239E+03    0.47769E-02   -0.92214E-01 27504   0.106E+00    0.647E-01
RMM:   2    -0.808571085142E+03   -0.33797E-01   -0.20530E-02 27480   0.301E-01    0.314E+00
RMM:   3    -0.808547662261E+03    0.23423E-01   -0.14055E-02 27480   0.231E-01    0.140E+00
RMM:   4    -0.808547970795E+03   -0.30853E-03   -0.43595E-03 27480   0.133E-01    0.107E+00
RMM:   5    -0.808543041695E+03    0.49291E-02   -0.17308E-03 27480   0.911E-02    0.392E-01
RMM:   6    -0.808542732186E+03    0.30951E-03   -0.24361E-04 27478   0.295E-02    0.363E-01
RMM:   7    -0.808542730112E+03    0.20740E-05   -0.45758E-05 24217   0.123E-02
  20 F= -.80854273E+03 E0= -.80858377E+03  d E =-.521240E-02  mag=   213.4995
       N       E                     dE             d eps       ncg     rms          rms(c)
DAV:   1    -0.808494602926E+03    0.48129E-01   -0.96192E+00 27480   0.342E+00    0.195E+00
RMM:   2    -0.808636557450E+03   -0.14195E+00   -0.15184E-01 27480   0.841E-01    0.588E+00
RMM:   3    -0.808648525142E+03   -0.11968E-01   -0.11554E-01 27480   0.652E-01    0.562E+00
RMM:   4    -0.808583194547E+03    0.65331E-01   -0.39063E-02 27480   0.406E-01    0.277E+00
RMM:   5    -0.808552274555E+03    0.30920E-01   -0.12716E-02 27480   0.239E-01    0.106E+00
RMM:   6    -0.808548120118E+03    0.41544E-02   -0.25221E-03 27480   0.960E-02    0.649E-01
RMM:   7    -0.808548004155E+03    0.11596E-03   -0.57117E-04 27480   0.448E-02    0.630E-01
RMM:   8    -0.808547496473E+03    0.50768E-03   -0.28307E-04 27480   0.339E-02    0.514E-01
RMM:   9    -0.808547880099E+03   -0.38363E-03   -0.25123E-04 27480   0.290E-02    0.630E-01
RMM:  10    -0.808548083925E+03   -0.20383E-03   -0.14960E-04 27477   0.209E-02    0.660E-01
RMM:  11    -0.808548243321E+03   -0.15940E-03   -0.58446E-05 25782   0.137E-02    0.699E-01
RMM:  12    -0.808548046566E+03    0.19675E-03   -0.58496E-05 25859   0.143E-02    0.684E-01
RMM:  13    -0.808547475216E+03    0.57135E-03   -0.25565E-04 27480   0.298E-02    0.601E-01
RMM:  14    -0.808547004783E+03    0.47043E-03   -0.17381E-03 27480   0.724E-02    0.528E-01
RMM:  15    -0.808545642339E+03    0.13624E-02   -0.14554E-03 27480   0.655E-02    0.111E-01
RMM:  16    -0.808545720948E+03   -0.78609E-04   -0.27999E-04 27480   0.285E-02    0.152E-01
RMM:  17    -0.808545618473E+03    0.10247E-03   -0.86668E-05 27089   0.180E-02    0.467E-02
RMM:  18    -0.808545619163E+03   -0.68909E-06   -0.21097E-05 18241   0.917E-03
  21 F= -.80854562E+03 E0= -.80858634E+03  d E =-.288905E-02  mag=   213.4334
       N       E                     dE             d eps       ncg     rms          rms(c)
DAV:   1    -0.808533217245E+03    0.12401E-01   -0.23656E+00 27480   0.170E+00    0.944E-01
RMM:   2    -0.808547269265E+03   -0.14052E-01   -0.31004E-02 27480   0.387E-01    0.101E+00
RMM:   3    -0.808580555265E+03   -0.33286E-01   -0.22815E-02 27480   0.293E-01    0.323E+00
RMM:   4    -0.808553098678E+03    0.27457E-01   -0.11412E-02 27480   0.213E-01    0.136E+00
RMM:   5    -0.808546765349E+03    0.63333E-02   -0.27168E-03 27480   0.107E-01    0.397E-01
RMM:   6    -0.808546177798E+03    0.58755E-03   -0.37247E-04 27480   0.349E-02    0.140E-01
RMM:   7    -0.808546358507E+03   -0.18071E-03   -0.24649E-04 27480   0.286E-02    0.260E-01
RMM:   8    -0.808545988359E+03    0.37015E-03   -0.19540E-04 27480   0.266E-02    0.110E-01
RMM:   9    -0.808545998094E+03   -0.97354E-05   -0.16213E-04 27478   0.236E-02    0.131E-01
RMM:  10    -0.808546000934E+03   -0.28398E-05   -0.10254E-04 27270   0.174E-02    0.131E-01
RMM:  11    -0.808545909638E+03    0.91295E-04   -0.42160E-05 23981   0.123E-02    0.386E-02
RMM:  12    -0.808545907992E+03    0.16461E-05   -0.12760E-05 15131   0.719E-03
  22 F= -.80854591E+03 E0= -.80858674E+03  d E =-.317788E-02  mag=   213.4359
       N       E                     dE             d eps       ncg     rms          rms(c)
DAV:   1    -0.808498296666E+03    0.47613E-01   -0.92898E+00 27480   0.336E+00    0.189E+00
RMM:   2    -0.808557765649E+03   -0.59469E-01   -0.12526E-01 27480   0.777E-01    0.204E+00
RMM:   3    -0.808674674467E+03   -0.11691E+00   -0.82141E-02 27480   0.563E-01    0.586E+00
RMM:   4    -0.808587064196E+03    0.87610E-01   -0.46053E-02 27480   0.435E-01    0.315E+00
RMM:   5    -0.808552496411E+03    0.34568E-01   -0.12141E-02 27480   0.228E-01    0.730E-01
RMM:   6    -0.808550070687E+03    0.24257E-02   -0.16461E-03 27480   0.731E-02    0.272E-01
RMM:   7    -0.808550525217E+03   -0.45453E-03   -0.98449E-04 27480   0.572E-02    0.473E-01
RMM:   8    -0.808549432619E+03    0.10926E-02   -0.78886E-04 27480   0.540E-02    0.285E-01
RMM:   9    -0.808549424020E+03    0.85992E-05   -0.50354E-04 27480   0.409E-02    0.278E-01
RMM:  10    -0.808549673280E+03   -0.24926E-03   -0.50999E-04 27480   0.396E-02    0.430E-01
RMM:  11    -0.808549045426E+03    0.62785E-03   -0.33307E-04 27480   0.345E-02    0.138E-01
RMM:  12    -0.808549028124E+03    0.17302E-04   -0.76062E-05 27072   0.161E-02    0.125E-01
RMM:  13    -0.808549031378E+03   -0.32536E-05   -0.12329E-05 15399   0.750E-03
  23 F= -.80854903E+03 E0= -.80858968E+03  d E =-.312339E-02  mag=   213.4330
       N       E                     dE             d eps       ncg     rms          rms(c)
DAV:   1    -0.808543027645E+03    0.60005E-02   -0.11163E+00 27486   0.116E+00    0.674E-01
RMM:   2    -0.808559958456E+03   -0.16931E-01   -0.18153E-02 27480   0.291E-01    0.193E+00
RMM:   3    -0.808562917035E+03   -0.29586E-02   -0.12512E-02 27480   0.212E-01    0.227E+00
RMM:   4    -0.808555048234E+03    0.78688E-02   -0.55625E-03 27480   0.151E-01    0.105E+00
RMM:   5    -0.808549839159E+03    0.52091E-02   -0.17866E-03 27480   0.913E-02    0.343E-01
RMM:   6    -0.808549379813E+03    0.45935E-03   -0.31697E-04 27480   0.339E-02    0.244E-01
RMM:   7    -0.808549492426E+03   -0.11261E-03   -0.10200E-04 27461   0.184E-02    0.269E-01
RMM:   8    -0.808549485229E+03    0.71973E-05   -0.71062E-05 27019   0.155E-02
  24 F= -.80854949E+03 E0= -.80858995E+03  d E =-.357724E-02  mag=   213.4128
       N       E                     dE             d eps       ncg     rms          rms(c)
DAV:   1    -0.808500208350E+03    0.49284E-01   -0.94193E+00 27480   0.338E+00    0.199E+00
RMM:   2    -0.808682589473E+03   -0.18238E+00   -0.16879E-01 27480   0.881E-01    0.633E+00
RMM:   3    -0.808644191904E+03    0.38398E-01   -0.10006E-01 27480   0.602E-01    0.594E+00
RMM:   4    -0.808598742697E+03    0.45449E-01   -0.44966E-02 27480   0.430E-01    0.286E+00
RMM:   5    -0.808557071800E+03    0.41671E-01   -0.14425E-02 27480   0.261E-01    0.897E-01
RMM:   6    -0.808553458865E+03    0.36129E-02   -0.28835E-03 27480   0.102E-01    0.551E-01
RMM:   7    -0.808554091375E+03   -0.63251E-03   -0.10083E-03 27480   0.592E-02    0.670E-01
RMM:   8    -0.808554043033E+03    0.48342E-04   -0.82245E-04 27480   0.561E-02    0.826E-01
RMM:   9    -0.808554047606E+03   -0.45725E-05   -0.31005E-04 27480   0.315E-02    0.773E-01
RMM:  10    -0.808554520053E+03   -0.47245E-03   -0.41831E-04 27480   0.346E-02    0.900E-01
RMM:  11    -0.808554497069E+03    0.22984E-04   -0.91312E-05 27304   0.166E-02    0.884E-01
RMM:  12    -0.808554221208E+03    0.27586E-03   -0.85170E-05 27360   0.172E-02    0.838E-01
RMM:  13    -0.808553299073E+03    0.92214E-03   -0.31290E-04 27480   0.330E-02    0.690E-01
RMM:  14    -0.808552961251E+03    0.33782E-03   -0.14768E-03 27480   0.685E-02    0.588E-01
RMM:  15    -0.808551407187E+03    0.15541E-02   -0.13635E-03 27480   0.656E-02    0.143E-01
RMM:  16    -0.808551439339E+03   -0.32152E-04   -0.28491E-04 27480   0.289E-02    0.153E-01
RMM:  17    -0.808551344445E+03    0.94894E-04   -0.11506E-04 27433   0.193E-02    0.567E-02
RMM:  18    -0.808551337390E+03    0.70550E-05   -0.24109E-05 18861   0.973E-03
  25 F= -.80855134E+03 E0= -.80859201E+03  d E =-.185216E-02  mag=   213.4637
       N       E                     dE             d eps       ncg     rms          rms(c)
DAV:   1    -0.808551048207E+03    0.29624E-03   -0.51770E-02 27624   0.252E-01    0.147E-01
RMM:   2    -0.808551673542E+03   -0.62533E-03   -0.84606E-04 27480   0.615E-02    0.297E-01
RMM:   3    -0.808551994594E+03   -0.32105E-03   -0.60628E-04 27480   0.485E-02    0.450E-01
RMM:   4    -0.808551778045E+03    0.21655E-03   -0.35599E-04 27480   0.364E-02    0.334E-01
RMM:   5    -0.808551360337E+03    0.41771E-03   -0.13775E-04 27417   0.254E-02    0.694E-02
RMM:   6    -0.808551336225E+03    0.24112E-04   -0.15800E-05 15794   0.778E-03    0.304E-02
RMM:   7    -0.808551336491E+03   -0.26642E-06   -0.77709E-06 14589   0.534E-03
  26 F= -.80855134E+03 E0= -.80859200E+03  d E =-.185126E-02  mag=   213.4620
       N       E                     dE             d eps       ncg     rms          rms(c)
DAV:   1    -0.808527806787E+03    0.23529E-01   -0.48032E+00 27480   0.242E+00    0.137E+00
RMM:   2    -0.808576974439E+03   -0.49168E-01   -0.72785E-02 27480   0.593E-01    0.266E+00
RMM:   3    -0.808607830223E+03   -0.30856E-01   -0.46046E-02 27480   0.419E-01    0.381E+00
RMM:   4    -0.808578690453E+03    0.29140E-01   -0.24918E-02 27480   0.313E-01    0.253E+00
RMM:   5    -0.808558291797E+03    0.20399E-01   -0.79338E-03 27480   0.190E-01    0.101E+00
RMM:   6    -0.808554026170E+03    0.42656E-02   -0.14891E-03 27480   0.748E-02    0.211E-01
RMM:   7    -0.808554215584E+03   -0.18941E-03   -0.69112E-04 27480   0.488E-02    0.321E-01
RMM:   8    -0.808553626375E+03    0.58921E-03   -0.42936E-04 27480   0.404E-02    0.141E-01
RMM:   9    -0.808553853643E+03   -0.22727E-03   -0.31153E-04 27480   0.325E-02    0.252E-01
RMM:  10    -0.808553725892E+03    0.12775E-03   -0.24626E-04 27480   0.274E-02    0.221E-01
RMM:  11    -0.808553480844E+03    0.24505E-03   -0.15464E-04 27480   0.235E-02    0.565E-02
RMM:  12    -0.808553500799E+03   -0.19955E-04   -0.34899E-05 21806   0.111E-02    0.867E-02
RMM:  13    -0.808553482019E+03    0.18780E-04   -0.14123E-05 15528   0.904E-03    0.616E-02
RMM:  14    -0.808553479253E+03    0.27655E-05   -0.31471E-06 14180   0.389E-03
  27 F= -.80855348E+03 E0= -.80859417E+03  d E =-.214276E-02  mag=   213.4587
       N       E                     dE             d eps       ncg     rms          rms(c)
DAV:   1    -0.808553116700E+03    0.36532E-03   -0.71500E-02 27597   0.295E-01    0.172E-01
RMM:   2    -0.808554545576E+03   -0.14289E-02   -0.12562E-03 27480   0.761E-02    0.549E-01
RMM:   3    -0.808554205651E+03    0.33993E-03   -0.75784E-04 27480   0.534E-02    0.488E-01
RMM:   4    -0.808553963285E+03    0.24237E-03   -0.39919E-04 27480   0.403E-02    0.288E-01
RMM:   5    -0.808553587890E+03    0.37539E-03   -0.14653E-04 27392   0.265E-02    0.146E-01
RMM:   6    -0.808553530427E+03    0.57463E-04   -0.16969E-05 16171   0.829E-03    0.779E-02
RMM:   7    -0.808553538484E+03   -0.80576E-05   -0.79393E-06 14518   0.564E-03
  28 F= -.80855354E+03 E0= -.80859419E+03  d E =-.220199E-02  mag=   213.4513
       N       E                     dE             d eps       ncg     rms          rms(c)
DAV:   1    -0.808531633956E+03    0.21896E-01   -0.44212E+00 27480   0.232E+00    0.130E+00
RMM:   2    -0.808573857405E+03   -0.42223E-01   -0.63268E-02 27480   0.553E-01    0.226E+00
RMM:   3    -0.808618804767E+03   -0.44947E-01   -0.35040E-02 27480   0.364E-01    0.423E+00
RMM:   4    -0.808584071170E+03    0.34734E-01   -0.23929E-02 27480   0.307E-01    0.254E+00
RMM:   5    -0.808557895965E+03    0.26175E-01   -0.88509E-03 27480   0.203E-01    0.796E-01
RMM:   6    -0.808555492962E+03    0.24030E-02   -0.12027E-03 27480   0.658E-02    0.252E-01
RMM:   7    -0.808555936550E+03   -0.44359E-03   -0.66276E-04 27480   0.479E-02    0.491E-01
RMM:   8    -0.808555408994E+03    0.52756E-03   -0.44589E-04 27480   0.395E-02    0.336E-01
RMM:   9    -0.808555356009E+03    0.52984E-04   -0.30085E-04 27480   0.329E-02    0.367E-01
RMM:  10    -0.808555504370E+03   -0.14836E-03   -0.20567E-04 27480   0.251E-02    0.349E-01
RMM:  11    -0.808555428611E+03    0.75759E-04   -0.12751E-04 27303   0.207E-02    0.382E-01
RMM:  12    -0.808555428245E+03    0.36544E-06   -0.73803E-06 14912   0.368E-03
  29 F= -.80855543E+03 E0= -.80859600E+03  d E =-.188976E-02  mag=   213.4251
       N       E                     dE             d eps       ncg     rms          rms(c)
DAV:   1    -0.808555049937E+03    0.37867E-03   -0.32612E-02 27759   0.204E-01    0.337E-01
RMM:   2    -0.808593440202E+03   -0.38390E-01   -0.13812E-02 27480   0.217E-01    0.348E+00
RMM:   3    -0.808555682270E+03    0.37758E-01   -0.97985E-03 27480   0.199E-01    0.503E-01
RMM:   4    -0.808555929130E+03   -0.24686E-03   -0.69507E-04 27480   0.450E-02    0.523E-01
RMM:   5    -0.808555850929E+03    0.78201E-04   -0.11423E-04 27413   0.208E-02    0.459E-01
RMM:   6    -0.808555859898E+03   -0.89686E-05   -0.41721E-05 23417   0.134E-02
  30 F= -.80855586E+03 E0= -.80859632E+03  d E =-.232141E-02  mag=   213.4102
       N       E                     dE             d eps       ncg     rms          rms(c)
DAV:   1    -0.808537713225E+03    0.18138E-01   -0.35457E+00 27480   0.208E+00    0.137E+00
RMM:   2    -0.808788356151E+03   -0.25064E+00   -0.13416E-01 27480   0.752E-01    0.810E+00
RMM:   3    -0.808569085230E+03    0.21927E+00   -0.77140E-02 27480   0.548E-01    0.242E+00
RMM:   4    -0.808585816206E+03   -0.16731E-01   -0.23114E-02 27480   0.299E-01    0.257E+00
RMM:   5    -0.808562974149E+03    0.22842E-01   -0.79880E-03 27480   0.188E-01    0.116E+00
RMM:   6    -0.808557680768E+03    0.52934E-02   -0.28830E-03 27480   0.107E-01    0.680E-01
RMM:   7    -0.808558136546E+03   -0.45578E-03   -0.48847E-04 27480   0.396E-02    0.756E-01
RMM:   8    -0.808558636032E+03   -0.49949E-03   -0.17373E-04 27478   0.240E-02    0.848E-01
RMM:   9    -0.808558619555E+03    0.16477E-04   -0.16475E-05 16178   0.738E-03    0.844E-01
RMM:  10    -0.808557571152E+03    0.10484E-02   -0.53704E-04 27480   0.409E-02    0.725E-01
RMM:  11    -0.808557091187E+03    0.47996E-03   -0.42008E-04 27480   0.373E-02    0.591E-01
RMM:  12    -0.808557615240E+03   -0.52405E-03   -0.91840E-04 27480   0.536E-02    0.751E-01
RMM:  13    -0.808555440677E+03    0.21746E-02   -0.10634E-03 27480   0.571E-02    0.212E-01
RMM:  14    -0.808555602394E+03   -0.16172E-03   -0.65368E-04 27480   0.461E-02    0.291E-01
RMM:  15    -0.808555215446E+03    0.38695E-03   -0.36447E-04 27480   0.349E-02    0.951E-02
RMM:  16    -0.808555203473E+03    0.11973E-04   -0.10373E-04 27388   0.187E-02    0.765E-02
RMM:  17    -0.808555191881E+03    0.11592E-04   -0.28383E-05 19711   0.106E-02    0.538E-02
RMM:  18    -0.808555179203E+03    0.12678E-04   -0.13830E-05 14891   0.861E-03    0.188E-02
RMM:  19    -0.808555183292E+03   -0.40892E-05   -0.56010E-06 14218   0.492E-03
  31 F= -.80855518E+03 E0= -.80859611E+03  d E =0.676606E-03  mag=   213.4935
       N       E                     dE             d eps       ncg     rms          rms(c)
DAV:   1    -0.808554130284E+03    0.10489E-02   -0.21994E-01 27486   0.517E-01    0.299E-01
RMM:   2    -0.808558083250E+03   -0.39530E-02   -0.37922E-03 27480   0.134E-01    0.955E-01
RMM:   3    -0.808557331369E+03    0.75188E-03   -0.23026E-03 27480   0.919E-02    0.833E-01
RMM:   4    -0.808556602843E+03    0.72853E-03   -0.13770E-03 27480   0.742E-02    0.499E-01
RMM:   5    -0.808555429683E+03    0.11732E-02   -0.45826E-04 27480   0.470E-02    0.129E-01
RMM:   6    -0.808555346379E+03    0.83304E-04   -0.49500E-05 25671   0.132E-02    0.415E-02
RMM:   7    -0.808555363637E+03   -0.17258E-04   -0.26232E-05 19712   0.986E-03    0.832E-02
RMM:   8    -0.808555331178E+03    0.32459E-04   -0.22212E-05 16025   0.108E-02    0.413E-02
RMM:   9    -0.808555328330E+03    0.28480E-05   -0.14336E-05 15252   0.773E-03
  32 F= -.80855533E+03 E0= -.80859625E+03  d E =0.531568E-03  mag=   213.4929
       N       E                     dE             d eps       ncg     rms          rms(c)
DAV:   1    -0.808555104771E+03    0.22641E-03   -0.43816E-02 27510   0.234E-01    0.148E-01
RMM:   2    -0.808557272067E+03   -0.21673E-02   -0.12536E-03 27480   0.717E-02    0.748E-01
RMM:   3    -0.808555503063E+03    0.17690E-02   -0.77928E-04 27480   0.546E-02    0.246E-01
RMM:   4    -0.808555850089E+03   -0.34703E-03   -0.40215E-04 27480   0.389E-02    0.388E-01
RMM:   5    -0.808555463955E+03    0.38613E-03   -0.14855E-04 27340   0.249E-02    0.162E-01
RMM:   6    -0.808555344616E+03    0.11934E-03   -0.50240E-05 25222   0.146E-02    0.460E-02
RMM:   7    -0.808555337834E+03    0.67827E-05   -0.91006E-06 14685   0.590E-03
  33 F= -.80855534E+03 E0= -.80859624E+03  d E =0.522064E-03  mag=   213.4903
       N       E                     dE             d eps       ncg     rms          rms(c)
DAV:   1    -0.808547850797E+03    0.74938E-02   -0.14903E+00 27480   0.134E+00    0.761E-01
RMM:   2    -0.808561414001E+03   -0.13563E-01   -0.23269E-02 27480   0.337E-01    0.138E+00
RMM:   3    -0.808576420906E+03   -0.15007E-01   -0.18239E-02 27480   0.261E-01    0.258E+00
RMM:   4    -0.808565355218E+03    0.11066E-01   -0.95165E-03 27480   0.192E-01    0.153E+00
RMM:   5    -0.808557311373E+03    0.80438E-02   -0.25773E-03 27480   0.109E-01    0.514E-01
RMM:   6    -0.808556057111E+03    0.12543E-02   -0.50156E-04 27480   0.426E-02    0.125E-01
RMM:   7    -0.808556154248E+03   -0.97137E-04   -0.18729E-04 27480   0.252E-02    0.189E-01
RMM:   8    -0.808556039797E+03    0.11445E-03   -0.10508E-04 27472   0.190E-02    0.160E-01
RMM:   9    -0.808555923940E+03    0.11586E-03   -0.85853E-05 27166   0.175E-02    0.838E-02
RMM:  10    -0.808556001683E+03   -0.77743E-04   -0.99721E-05 27406   0.181E-02    0.161E-01
RMM:  11    -0.808555908239E+03    0.93444E-04   -0.56340E-05 26272   0.148E-02    0.787E-02
RMM:  12    -0.808555905092E+03    0.31472E-05   -0.10195E-05 14929   0.633E-03
  34 F= -.80855591E+03 E0= -.80859664E+03  d E =-.567258E-03  mag=   213.4811
