SQS-NiFe                                
           1
     5.362500   -7.150000   -1.787500
    -7.150000   -5.362500    1.787500
    -3.575000    3.575000  -14.300000
   Fe   Ni
  81  27
Direct configuration=     1
   0.13452898  0.97864914  0.22897737
   0.38658055  0.93764952  0.19683980
   0.16448440  0.84075067  0.08823632
   0.64904418  0.90217682  0.16071764
   0.43054801  0.78808757  0.04667250
   0.90645771  0.86328456  0.12529603
   0.68037360  0.75635828  0.01180469
   0.26434364  0.96691501  0.46345355
   0.52289077  0.92366234  0.42621065
   0.29917833  0.81514500  0.31280106
   0.07659264  0.70365213  0.19885906
   0.77776735  0.89184798  0.38928759
   0.55248333  0.78336540  0.27654472
   0.33494200  0.66865141  0.16934908
   0.10945118  0.55793682  0.05688296
   0.81234730  0.74078730  0.23770206
   0.59119118  0.63137315  0.12952348
   0.37584563  0.52508671  0.01960287
   0.84856072  0.59687668  0.09546214
   0.13762356  0.98304143  0.73627406
   0.39264021  0.94877181  0.69691243
   0.64359725  0.90255099  0.65234349
   0.43081886  0.79876941  0.54301326
   0.20656259  0.67576464  0.43476664
   0.68036928  0.75789370  0.50974965
   0.45757670  0.64657032  0.39862871
   0.24161564  0.54438572  0.29215812
   0.94534878  0.72450120  0.47009541
   0.49917086  0.49882247  0.24903952
   0.05725842  0.27219040  0.02499433
   0.98616176  0.57243626  0.32680689
   0.75722914  0.46165186  0.21102362
   0.53837660  0.35901486  0.10404098
   0.04075519  0.86034803  0.84777698
   0.51697592  0.92676488  0.92522994
   0.29252727  0.81671314  0.80971904
   0.07582633  0.69768378  0.70495503
   0.33170280  0.66160203  0.66612262
   0.11724272  0.55591578  0.55720362
   0.81907952  0.73354193  0.73984935
   0.59367677  0.63241752  0.62577516
   0.37138595  0.52302169  0.51666722
   0.15271709  0.40965949  0.40883265
   0.84933898  0.59225174  0.59397505
   0.62722752  0.48286114  0.48636644
   0.39958324  0.37187630  0.36842887
   0.18653777  0.25364414  0.26131708
   0.44777268  0.22559883  0.22406533
   0.21944136  0.10933366  0.11689783
   0.00872088  0.00230602  0.00011581
   0.92736627  0.30177664  0.29346839
   0.70368851  0.18543658  0.19134730
   0.46610596  0.64087769  0.90062666
   0.24766164  0.53973734  0.78083835
   0.02059579  0.42474398  0.67612293
   0.71617993  0.60408003  0.85947669
   0.49938918  0.49781609  0.75387430
   0.27009643  0.38935728  0.63898791
   0.05692384  0.28627085  0.53221070
   0.76038523  0.46874001  0.71234653
   0.31950782  0.23588430  0.48998965
   0.79596684  0.32259346  0.56398135
   0.57135124  0.19987712  0.45779088
   0.35170729  0.09313690  0.34221553
   0.60355953  0.05377857  0.30187639
   0.86163237  0.01385244  0.26539819
   0.63111255  0.48430605  0.97971535
   0.41324054  0.37027685  0.86789388
   0.18983921  0.25918835  0.75854818
   0.88838899  0.44387222  0.94434453
   0.66240263  0.33513604  0.83467387
   0.44094885  0.22095015  0.72526802
   0.22694323  0.11741330  0.60977750
   0.99987218  0.99523225  0.49885452
   0.92806117  0.29917421  0.79852165
   0.47400651  0.06780303  0.56918547
   0.73389054  0.03134276  0.53491028
   0.08774926  0.12966338  0.87662559
   0.56847364  0.20288991  0.94905243
   0.35464420  0.09389361  0.83799752
   0.60094335  0.05667982  0.80498077
   0.03707191  0.85032833  0.35197880
   0.16736733  0.83444616  0.58249031
   0.90698374  0.86826793  0.61939492
   0.01887041  0.42923294  0.17612465
   0.72093996  0.61451784  0.36096121
   0.27797352  0.38905263  0.13844572
   0.79310504  0.31677130  0.06471094
   0.26002230  0.96053253  0.96233406
   0.77717761  0.88657009  0.88961919
   0.55501118  0.77663778  0.77737373
   0.89154184  0.44489060  0.44499779
   0.66333721  0.33290259  0.33421873
   0.48196027  0.07485285  0.07527169
   0.96566543  0.14703935  0.14999242
   0.73977216  0.03406111  0.03856052
   0.20633144  0.68686094  0.93517262
   0.94383471  0.72063275  0.97422029
   0.97962515  0.57262715  0.82289057
   0.53466614  0.35366540  0.60222570
   0.09363743  0.13160631  0.38042640
   0.83377984  0.16389282  0.41790225
   0.14978848  0.40662057  0.90747958
   0.70370563  0.18642203  0.68494395
   0.96574078  0.14887813  0.64547608
   0.31528244  0.24119352  0.98953860
   0.83254098  0.16924634  0.91670526
   0.86915925  0.01830714  0.76827396
Direct configuration=     2
   0.13088857  0.97932375  0.23364243
   0.38885265  0.94197289  0.19524886
   0.16543327  0.83570940  0.08345872
   0.64555018  0.90683073  0.15769180
   0.42525752  0.79551380  0.04596002
   0.90661470  0.86951115  0.12136841
   0.68539634  0.76060733  0.00972198
   0.26017948  0.96186237  0.46069771
   0.51881204  0.92236247  0.42363476
   0.29984781  0.81588376  0.31579835
   0.07714717  0.70245470  0.20327857
   0.77617723  0.88974925  0.38826593
   0.55334151  0.77961563  0.27991561
   0.33356333  0.66595479  0.16909118
   0.11107269  0.55657871  0.05553134
   0.81455197  0.73760392  0.24212687
   0.59175579  0.62928451  0.13086960
   0.36947057  0.51891645  0.01907161
   0.85045600  0.59141305  0.09330351
   0.13034980  0.98297053  0.73031577
   0.39067056  0.94380204  0.69293536
   0.64691928  0.90586965  0.65559586
   0.42559743  0.79805622  0.54342858
   0.20430563  0.68577362  0.43563276
   0.68351341  0.75843268  0.50773659
   0.46204501  0.65057984  0.39730102
   0.24013927  0.54067725  0.28703306
   0.94433218  0.72264334  0.47175100
   0.50046260  0.50059214  0.25074098
   0.05669919  0.27614869  0.02701443
   0.98297532  0.57373192  0.32499082
   0.75864614  0.46237332  0.21312022
   0.53672451  0.35483651  0.10207666
   0.03817577  0.85463786  0.85068316
   0.51770193  0.92478343  0.92600493
   0.29750438  0.81493880  0.81358066
   0.07396905  0.70146938  0.70284858
   0.33604463  0.66713573  0.66515015
   0.11232976  0.55790704  0.55568231
   0.81694943  0.73980289  0.74118443
   0.59060481  0.63033055  0.62932667
   0.37305386  0.51914340  0.51894367
   0.14913665  0.40570966  0.40894528
   0.85293720  0.59358438  0.59222369
   0.62926798  0.48084462  0.48161609
   0.40536329  0.37038521  0.36953591
   0.18494305  0.25797593  0.25993237
   0.44577865  0.22401727  0.22295842
   0.22497990  0.11183649  0.11354239
   0.00188912  0.00041626 -0.00049219
   0.92616704  0.29917718  0.29591765
   0.70396616  0.18497896  0.18685955
   0.46255070  0.64677726  0.89855268
   0.24271736  0.53901495  0.78651049
   0.01786889  0.42475631  0.67747763
   0.72183380  0.61014625  0.86048396
   0.50069895  0.49975264  0.74963142
   0.27765573  0.38889959  0.63773636
   0.05425407  0.28091458  0.52841496
   0.75861545  0.46352313  0.71207984
   0.31667136  0.23959384  0.48995344
   0.79483046  0.31690942  0.56440681
   0.57365849  0.20170559  0.45541454
   0.35272841  0.09026858  0.34305679
   0.60625325  0.05606748  0.30564260
   0.86851142  0.01764100  0.26898595
   0.63245924  0.48072923  0.98204574
   0.40677279  0.37043087  0.87073689
   0.18575285  0.26016101  0.75942745
   0.88950296  0.44410747  0.94500578
   0.66693917  0.33182032  0.83306969
   0.44561528  0.22272770  0.72029642
   0.22370124  0.11324570  0.61010038
   0.00005017  0.99878313  0.49941163
   0.92606139  0.29732554  0.79645248
   0.47975333  0.07201104  0.57265805
   0.73813335  0.03414603  0.53647808
   0.09102256  0.13143627  0.87854649
   0.57298050  0.20287003  0.95344756
   0.35029131  0.09359379  0.84321353
   0.61065382  0.05394911  0.80462306
   0.03894375  0.85131858  0.35118333
   0.16846314  0.83466947  0.58302362
   0.90830820  0.86949201  0.62049921
   0.01980052  0.42739357  0.17571019
   0.72089716  0.61280154  0.36094052
   0.27660352  0.38934343  0.13861011
   0.79397054  0.31475111  0.06445875
   0.26131890  0.96183254  0.96266825
   0.77779272  0.88669796  0.88929560
   0.55591989  0.77621077  0.77739798
   0.88965647  0.44533397  0.44430879
   0.66519938  0.33460605  0.33617515
   0.48150687  0.07449450  0.07532914
   0.96246196  0.14757934  0.14914104
   0.74070386  0.03482995  0.03877148
   0.20467844  0.68677905  0.93455636
   0.94379582  0.72202489  0.97269872
   0.98267083  0.57357254  0.82506277
   0.53448613  0.35201236  0.60371888
   0.09082105  0.13005367  0.38012006
   0.83338681  0.16566060  0.41736088
   0.15120805  0.40890165  0.90736437
   0.70296406  0.18622258  0.68449178
   0.96350250  0.14711226  0.64660632
   0.31542573  0.24115036  0.99008007
   0.83139910  0.16692245  0.91655460
   0.86706447  0.01821349  0.76721719
Direct configuration=     3
   0.12975887  0.97953310  0.23509012
   0.38955773  0.94331453  0.19475516
   0.16572773  0.83414497  0.08197611
   0.64446591  0.90827494  0.15675281
   0.42361575  0.79781834  0.04573892
   0.90666342  0.87144341  0.12014957
   0.68695502  0.76192592  0.00907566
   0.25888724  0.96029442  0.45984250
   0.51754631  0.92195908  0.42283540
   0.30005557  0.81611301  0.31672848
   0.07731925  0.70208311  0.20465005
   0.77568377  0.88909796  0.38794888
   0.55360783  0.77845198  0.28096169
   0.33313549  0.66511796  0.16901114
   0.11157588  0.55615726  0.05511191
   0.81523614  0.73661604  0.24350000
   0.59193100  0.62863635  0.13128734
   0.36749223  0.51700167  0.01890674
   0.85104415  0.58971755  0.09263363
   0.12809257  0.98294853  0.72846677
   0.39005933  0.94225980  0.69170118
   0.64795019  0.90689951  0.65660516
   0.42397709  0.79783490  0.54355746
   0.20360524  0.68887965  0.43590154
   0.68448911  0.75859994  0.50711189
   0.46343164  0.65182409  0.39688900
   0.23968112  0.53952643  0.28544262
   0.94401670  0.72206680  0.47226478
   0.50086345  0.50114131  0.25126899
   0.05652564  0.27737704  0.02764131
   0.98198650  0.57413399  0.32442724
   0.75908587  0.46259721  0.21377085
   0.53621183  0.35353986  0.10146708
   0.03737531  0.85286586  0.85158502
   0.51792723  0.92416854  0.92624543
   0.29904890  0.81438818  0.81477902
   0.07339269  0.70264414  0.70219490
   0.33739200  0.66885298  0.66484837
   0.11080515  0.55852498  0.55521021
   0.81628842  0.74174582  0.74159873
   0.58965151  0.62968291  0.63042879
   0.37357146  0.51793987  0.51965011
   0.14802555  0.40448394  0.40898023
   0.85405381  0.59399793  0.59168020
   0.62990119  0.48021885  0.48014194
   0.40715698  0.36992248  0.36987945
   0.18444817  0.25932019  0.25950266
   0.44515986  0.22352647  0.22261492
   0.22669865  0.11261318  0.11250112
  -0.00023094 -0.00017018 -0.00068086
   0.92579489  0.29837050  0.29667771
   0.70405231  0.18483695  0.18546690
   0.46144742  0.64860804  0.89790907
   0.24118304  0.53879078  0.78827069
   0.01702267  0.42476014  0.67789802
   0.72358833  0.61202874  0.86079655
   0.50110540  0.50035360  0.74831475
   0.28000156  0.38875756  0.63734798
   0.05342557  0.27925240  0.52723705
   0.75806624  0.46190421  0.71199709
   0.31579114  0.24074500  0.48994221
   0.79447781  0.31514552  0.56453885
   0.57437448  0.20227301  0.45467710
   0.35304529  0.08937846  0.34331786
   0.60708917  0.05677779  0.30681135
   0.87064616  0.01881668  0.27009932
   0.63287715  0.47961925  0.98276892
   0.40476569  0.37047867  0.87161914
   0.18448476  0.26046285  0.75970031
   0.88984865  0.44418047  0.94521098
   0.66834697  0.33079137  0.83257187
   0.44706339  0.22327932  0.71875361
   0.22269517  0.11195240  0.61020058
   0.00010541  0.99988506  0.49958452
   0.92544081  0.29675186  0.79581036
   0.48153670  0.07331689  0.57373568
   0.73945000  0.03501596  0.53696460
   0.09203835  0.13198644  0.87914260
   0.57437909  0.20286386  0.95481147
   0.34894051  0.09350075  0.84483219
   0.61366721  0.05310170  0.80451206
   0.03952463  0.85162588  0.35093648
   0.16880319  0.83473877  0.58318912
   0.90871921  0.86987187  0.62084190
   0.02008915  0.42682276  0.17558157
   0.72088388  0.61226893  0.36093410
   0.27617838  0.38943367  0.13866113
   0.79423912  0.31412420  0.06438049
   0.26172127  0.96223597  0.96277195
   0.77798360  0.88673764  0.88919518
   0.55620188  0.77607826  0.77740550
   0.88907140  0.44547155  0.44409498
   0.66577726  0.33513467  0.33678228
   0.48136616  0.07438329  0.07534696
   0.96146784  0.14774692  0.14887684
   0.74099300  0.03506854  0.03883694
   0.20416548  0.68675364  0.93436512
   0.94378375  0.72245691  0.97222654
   0.98361598  0.57386591  0.82573686
   0.53443027  0.35149938  0.60418225
   0.08994706  0.12957184  0.38002499
   0.83326485  0.16620919  0.41719288
   0.15164858  0.40960953  0.90732861
   0.70273393  0.18616069  0.68435146
   0.96280790  0.14656428  0.64695707
   0.31547019  0.24113697  0.99024810
   0.83104475  0.16620129  0.91650785
   0.86641441  0.01818443  0.76688924
Direct configuration=     4
   0.12957827  0.98030965  0.23512052
   0.38889014  0.94414327  0.19498647
   0.16481272  0.83226967  0.08118447
   0.64519843  0.90861553  0.15719195
   0.42204328  0.79840171  0.04518167
   0.90791886  0.87256520  0.12042333
   0.68779215  0.76202532  0.00835086
   0.25783332  0.96088237  0.45955926
   0.51485109  0.92229016  0.42266035
   0.30133285  0.81635602  0.31819418
   0.07653015  0.70327006  0.20538000
   0.77574801  0.88884980  0.38784085
   0.55401549  0.77812630  0.28092457
   0.33330802  0.66634256  0.16860375
   0.11146323  0.55648268  0.05511270
   0.81558489  0.73867106  0.24333801
   0.59183699  0.63017551  0.13081031
   0.36585675  0.51637041  0.01897559
   0.85325295  0.58937459  0.09242927
   0.12595335  0.98216556  0.72779107
   0.38941046  0.94246195  0.69251248
   0.64924417  0.90711606  0.65683439
   0.42417388  0.79787745  0.54287598
   0.20293469  0.68905850  0.43498187
   0.68488041  0.75976147  0.50793296
   0.46246635  0.65195524  0.39720818
   0.24002459  0.53708326  0.28547545
   0.94327778  0.72283684  0.47261423
   0.50145809  0.49983019  0.25178899
   0.05601019  0.27928792  0.02890180
   0.98199072  0.57323242  0.32456477
   0.75974744  0.46095829  0.21427573
   0.53448290  0.35160645  0.10135300
   0.03764233  0.85086716  0.85263167
   0.51997842  0.92513238  0.92650126
   0.29899474  0.81512426  0.81529410
   0.07427620  0.70420368  0.70209230
   0.33548393  0.67032051  0.66571253
   0.11054884  0.55727268  0.55469914
   0.81535643  0.74341056  0.74145524
   0.59180986  0.62945559  0.63031054
   0.37372052  0.51775934  0.51855932
   0.14803184  0.40618730  0.40827809
   0.85270332  0.59337549  0.59166292
   0.63132103  0.48061162  0.47947590
   0.40824758  0.37021289  0.37009800
   0.18381927  0.25982101  0.25890540
   0.44556732  0.22385566  0.22304017
   0.22624755  0.11181442  0.11030900
  -0.00296785  0.00083762 -0.00090362
   0.92432292  0.29681538  0.29770072
   0.70448023  0.18498685  0.18391266
   0.46258730  0.64902468  0.89817230
   0.23886342  0.53840252  0.78910683
   0.01726947  0.42530532  0.67738163
   0.72515066  0.61312781  0.86126689
   0.50092070  0.50103667  0.74924503
   0.27929151  0.38998967  0.63780797
   0.05192874  0.27744548  0.52693104
   0.75848383  0.46164535  0.71221168
   0.31507109  0.23942464  0.48973224
   0.79390914  0.31317045  0.56452604
   0.57469420  0.20266942  0.45450160
   0.35252859  0.08917918  0.34379568
   0.61048685  0.05775144  0.30740649
   0.87193616  0.01927962  0.27111991
   0.63124484  0.48005843  0.98237131
   0.40562450  0.36962822  0.87111754
   0.18426063  0.26029802  0.75934992
   0.89045875  0.44326266  0.94450529
   0.66730279  0.33133981  0.83281035
   0.44729901  0.22235287  0.72005645
   0.22156927  0.11095281  0.60983672
  -0.00041525  0.00037552  0.49940873
   0.92493677  0.29503656  0.79530917
   0.48362636  0.07416187  0.57294804
   0.74096973  0.03560237  0.53673708
   0.09163618  0.13157932  0.88010934
   0.57670283  0.20169851  0.95559435
   0.35029447  0.09271691  0.84432070
   0.61439102  0.05174353  0.80495796
   0.03918452  0.85218737  0.35141396
   0.16736872  0.83467858  0.58305779
   0.90861546  0.87062518  0.62095137
   0.01936325  0.42535886  0.17529074
   0.72193192  0.61031823  0.36138183
   0.27628051  0.38925556  0.13872736
   0.79581574  0.31260368  0.06456917
   0.26050985  0.96310172  0.96306734
   0.77834995  0.88767310  0.88877951
   0.55733071  0.77721894  0.77808317
   0.88784655  0.44527571  0.44366154
   0.66747409  0.33478181  0.33615894
   0.48086814  0.07489337  0.07426526
   0.96114518  0.14819922  0.14855992
   0.74112376  0.03636580  0.03828953
   0.20293477  0.68673397  0.93443707
   0.94423678  0.72236823  0.97144635
   0.98408190  0.57446044  0.82622731
   0.53725930  0.35026519  0.60290421
   0.08960202  0.12856317  0.37993017
   0.83265662  0.16726400  0.41700091
   0.15012534  0.40982547  0.90756235
   0.70384156  0.18541757  0.68403489
   0.96106371  0.14647053  0.64765074
   0.31513515  0.24104632  0.99121350
   0.83181044  0.16519639  0.91654681
   0.86753339  0.01877405  0.76703563
Direct configuration=     5
   0.12943605  0.98092119  0.23514446
   0.38836441  0.94479590  0.19516863
   0.16409215  0.83079287  0.08056104
   0.64577529  0.90888375  0.15753778
   0.42080497  0.79886112  0.04474283
   0.90890752  0.87344861  0.12063891
   0.68845139  0.76210360  0.00778008
   0.25700335  0.96134539  0.45933620
   0.51272862  0.92255088  0.42252249
   0.30233870  0.81654738  0.31934842
   0.07590874  0.70420479  0.20595484
   0.77579859  0.88865437  0.38775577
   0.55433652  0.77786982  0.28089535
   0.33344388  0.66730693  0.16828293
   0.11137453  0.55673894  0.05511332
   0.81585954  0.74028939  0.24321045
   0.59176296  0.63138760  0.13043464
   0.36456882  0.51587328  0.01902980
   0.85499238  0.58910451  0.09226834
   0.12426871  0.98154897  0.72725896
   0.38889948  0.94262114  0.69315137
   0.65026318  0.90728659  0.65701490
   0.42432886  0.79791095  0.54233932
   0.20240663  0.68919934  0.43425764
   0.68518856  0.76067617  0.50857955
   0.46170619  0.65205852  0.39745953
   0.24029508  0.53515926  0.28550130
   0.94269587  0.72344324  0.47288943
   0.50192636  0.49879769  0.25219850
   0.05560427  0.28079273  0.02989443
   0.98199405  0.57252244  0.32467307
   0.76026842  0.45966763  0.21467333
   0.53312137  0.35008389  0.10126316
   0.03785260  0.84929319  0.85345591
   0.52159373  0.92589140  0.92670273
   0.29895209  0.81570392  0.81569972
   0.07497196  0.70543181  0.70201151
   0.33398131  0.67147620  0.66639306
   0.11034700  0.55628650  0.55429666
   0.81462248  0.74472154  0.74134224
   0.59350956  0.62927658  0.63021741
   0.37383791  0.51761717  0.51770033
   0.14803679  0.40752869  0.40772516
   0.85163982  0.59288531  0.59164932
   0.63243916  0.48092093  0.47895139
   0.40910642  0.37044158  0.37027012
   0.18332400  0.26021540  0.25843505
   0.44588821  0.22411490  0.22337505
   0.22589232  0.11118540  0.10858271
  -0.00512316  0.00163127 -0.00107905
   0.92316374  0.29559072  0.29850635
   0.70481722  0.18510489  0.18268871
   0.46348495  0.64935278  0.89837959
   0.23703672  0.53809677  0.78976529
   0.01746383  0.42573464  0.67697497
   0.72638099  0.61399333  0.86163729
   0.50077524  0.50157459  0.74997763
   0.27873235  0.39095995  0.63817021
   0.05074998  0.27602253  0.52669005
   0.75881268  0.46144150  0.71238068
   0.31450405  0.23838486  0.48956689
   0.79346131  0.31161509  0.56451595
   0.57494597  0.20298159  0.45436339
   0.35212170  0.08902224  0.34417197
   0.61316251  0.05851819  0.30787516
   0.87295203  0.01964418  0.27192363
   0.62995940  0.48040428  0.98205819
   0.40630081  0.36895849  0.87072253
   0.18408413  0.26016822  0.75907399
   0.89093921  0.44253988  0.94394955
   0.66648049  0.33177171  0.83299815
   0.44748457  0.22162329  0.72108244
   0.22068262  0.11016564  0.60955019
  -0.00082527  0.00076176  0.49927030
   0.92453985  0.29368577  0.79491448
   0.48527196  0.07482728  0.57232777
   0.74216653  0.03606418  0.53655790
   0.09131947  0.13125871  0.88087064
   0.57853277  0.20078081  0.95621086
   0.35136071  0.09209963  0.84391790
   0.61496101  0.05067398  0.80530912
   0.03891668  0.85262954  0.35178998
   0.16623907  0.83463119  0.58295437
   0.90853375  0.87121842  0.62103758
   0.01879161  0.42420603  0.17506171
   0.72275724  0.60878205  0.36173441
   0.27636094  0.38911531  0.13877952
   0.79705732  0.31140626  0.06471776
   0.25955585  0.96378350  0.96329996
   0.77863845  0.88840977  0.88845218
   0.55821966  0.77811723  0.77861684
   0.88688199  0.44512148  0.44332021
   0.66881035  0.33450394  0.33566805
   0.48047595  0.07529506  0.07341342
   0.96089108  0.14855542  0.14831035
   0.74122674  0.03738738  0.03785844
   0.20196558  0.68671849  0.93449372
   0.94459354  0.72229840  0.97083196
   0.98444881  0.57492862  0.82661355
   0.53948716  0.34929327  0.60189776
   0.08933031  0.12776885  0.37985549
   0.83217764  0.16809466  0.41684974
   0.14892579  0.40999553  0.90774641
   0.70471382  0.18483237  0.68378558
   0.95969016  0.14639671  0.64819701
   0.31487130  0.24097494  0.99197374
   0.83241343  0.16440503  0.91657749
   0.86841458  0.01923838  0.76715092
Direct configuration=     6
   0.13028863  0.98166959  0.23446291
   0.38777736  0.94588257  0.19549111
   0.16261100  0.83087236  0.08061839
   0.64618057  0.90967910  0.15753463
   0.42084096  0.79906026  0.04413057
   0.90953048  0.87386772  0.12080994
   0.68943647  0.76268020  0.00813120
   0.25637029  0.96179015  0.45999640
   0.51216909  0.92335832  0.42262434
   0.30219451  0.81607579  0.31969959
   0.07658418  0.70457559  0.20665285
   0.77531043  0.88830840  0.38808056
   0.55479005  0.77747129  0.28079964
   0.33348288  0.66802457  0.16883978
   0.11103198  0.55720823  0.05575166
   0.81577790  0.74063931  0.24271980
   0.59226592  0.63157320  0.12984969
   0.36398152  0.51591051  0.01876781
   0.85534954  0.58917943  0.09215452
   0.12408243  0.98161330  0.72825247
   0.38900667  0.94324719  0.69318511
   0.64963230  0.90787771  0.65672537
   0.42399663  0.79841391  0.54280628
   0.20136030  0.68904436  0.43376058
   0.68462365  0.76183180  0.50876134
   0.46191610  0.65166289  0.39758831
   0.24089852  0.53465188  0.28525693
   0.94218354  0.72387688  0.47307968
   0.50245235  0.49858429  0.25202598
   0.05545971  0.28173925  0.03033689
   0.98173012  0.57216410  0.32465980
   0.76027703  0.45950355  0.21401235
   0.53286374  0.35056714  0.10136685
   0.03798565  0.84910415  0.85360009
   0.52204304  0.92626115  0.92696469
   0.29882749  0.81627432  0.81648227
   0.07438524  0.70543166  0.70221355
   0.33394748  0.67160540  0.66676351
   0.11017096  0.55527396  0.55353291
   0.81536272  0.74503475  0.74125968
   0.59297582  0.62909395  0.63013893
   0.37434795  0.51775680  0.51760371
   0.14820946  0.40740197  0.40748913
   0.85145834  0.59219013  0.59190594
   0.63308531  0.48119941  0.47883558
   0.40965874  0.36961537  0.37047796
   0.18277263  0.25886746  0.25808667
   0.44596556  0.22306318  0.22384245
   0.22440189  0.10993748  0.10779461
  -0.00610788  0.00212892 -0.00089594
   0.92320373  0.29429030  0.29865030
   0.70486743  0.18436101  0.18208222
   0.46353567  0.64951396  0.89887406
   0.23656648  0.53819930  0.79013191
   0.01727802  0.42626763  0.67654762
   0.72715135  0.61406998  0.86154046
   0.50033847  0.50205514  0.75013234
   0.27948563  0.39147625  0.63827116
   0.05022331  0.27566105  0.52658147
   0.75954260  0.46177962  0.71315658
   0.31385648  0.23831354  0.48987044
   0.79376459  0.31145713  0.56442193
   0.57486037  0.20329432  0.45374964
   0.35238289  0.08998471  0.34411614
   0.61470264  0.05870819  0.30761572
   0.87336724  0.01995520  0.27180723
   0.62958383  0.48048914  0.98238739
   0.40588749  0.36788106  0.87081852
   0.18386487  0.25921173  0.75902181
   0.89019890  0.44146211  0.94321319
   0.66609687  0.33173747  0.83330840
   0.44783229  0.22093447  0.72085586
   0.22114348  0.11017222  0.60946906
  -0.00154435  0.00071105  0.49904589
   0.92442243  0.29314763  0.79482759
   0.48563471  0.07464962  0.57213944
   0.74251016  0.03565502  0.53565202
   0.09171207  0.13091538  0.88139457
   0.57938927  0.20101828  0.95610259
   0.35183098  0.09179302  0.84398327
   0.61563078  0.05063815  0.80542279
   0.03857198  0.85255411  0.35227339
   0.16554565  0.83421420  0.58220692
   0.90795309  0.87135694  0.62083601
   0.01821404  0.42402363  0.17549776
   0.72324332  0.60875593  0.36179885
   0.27658958  0.38938153  0.13905863
   0.79743518  0.31199850  0.06445666
   0.25857495  0.96403362  0.96292167
   0.77953795  0.88900739  0.88818741
   0.55841335  0.77843882  0.77876382
   0.88701269  0.44478999  0.44365030
   0.66954163  0.33354383  0.33489175
   0.48013834  0.07485089  0.07283001
   0.96130224  0.14856825  0.14857690
   0.74122007  0.03724494  0.03767006
   0.20206058  0.68648845  0.93460346
   0.94456007  0.72213198  0.97076644
   0.98359858  0.57479867  0.82600156
   0.54005412  0.34934739  0.60158382
   0.08960593  0.12834133  0.37999327
   0.83207612  0.16859001  0.41711016
   0.14800759  0.40877668  0.90785711
   0.70479603  0.18409770  0.68423294
   0.95921304  0.14672851  0.64854279
   0.31468252  0.24101180  0.99148887
   0.83297338  0.16485148  0.91624837
   0.86981002  0.01942488  0.76773037
Direct configuration=     7
   0.13095599  0.98225540  0.23392943
   0.38731786  0.94673315  0.19574354
   0.16145163  0.83093458  0.08066327
   0.64649780  0.91030166  0.15753216
   0.42086914  0.79921613  0.04365133
   0.91001810  0.87419578  0.12094382
   0.69020754  0.76313152  0.00840604
   0.25587476  0.96213828  0.46051317
   0.51173112  0.92399034  0.42270406
   0.30208165  0.81570666  0.31997447
   0.07711287  0.70486583  0.20719922
   0.77492833  0.88803759  0.38833479
   0.55514505  0.77715934  0.28072472
   0.33351340  0.66858629  0.16927565
   0.11076385  0.55757555  0.05625132
   0.81571400  0.74091322  0.24233575
   0.59265961  0.63171847  0.12939182
   0.36352182  0.51593966  0.01856274
   0.85562911  0.58923807  0.09206543
   0.12393663  0.98166365  0.72903013
   0.38909057  0.94373723  0.69321153
   0.64913848  0.90834041  0.65649874
   0.42373658  0.79880760  0.54317179
   0.20054129  0.68892304  0.43337151
   0.68418148  0.76273637  0.50890364
   0.46208041  0.65135322  0.39768912
   0.24137086  0.53425473  0.28506566
   0.94178252  0.72421630  0.47322859
   0.50286406  0.49841726  0.25189095
   0.05534654  0.28248013  0.03068322
   0.98152354  0.57188361  0.32464941
   0.76028376  0.45937512  0.21349497
   0.53266208  0.35094540  0.10144801
   0.03808979  0.84895619  0.85371295
   0.52239473  0.92655057  0.92716974
   0.29872996  0.81672080  0.81709480
   0.07392598  0.70543155  0.70237170
   0.33392100  0.67170653  0.66705347
   0.11003317  0.55448140  0.55293508
   0.81594214  0.74527991  0.74119505
   0.59255803  0.62895099  0.63007750
   0.37474718  0.51786610  0.51752809
   0.14834462  0.40730279  0.40730438
   0.85131628  0.59164598  0.59210680
   0.63359108  0.48141739  0.47874493
   0.41009107  0.36896865  0.37064064
   0.18234105  0.25781237  0.25781398
   0.44602611  0.22223995  0.22420830
   0.22323526  0.10896068  0.10717773
  -0.00687865  0.00251846 -0.00075262
   0.92323503  0.29327240  0.29876298
   0.70490674  0.18377874  0.18160750
   0.46357537  0.64964012  0.89926111
   0.23619840  0.53827956  0.79041887
   0.01713259  0.42668482  0.67621313
   0.72775434  0.61412998  0.86146467
   0.49999660  0.50243128  0.75025344
   0.28007526  0.39188037  0.63835017
   0.04981107  0.27537811  0.52649649
   0.76011394  0.46204428  0.71376390
   0.31334959  0.23825772  0.49010805
   0.79400197  0.31133349  0.56434834
   0.57479337  0.20353911  0.45326923
   0.35258734  0.09073807  0.34407244
   0.61590816  0.05885691  0.30741264
   0.87369224  0.02019864  0.27171613
   0.62928985  0.48055556  0.98264507
   0.40556396  0.36703770  0.87089366
   0.18369324  0.25846304  0.75898097
   0.88961943  0.44061850  0.94263681
   0.66579660  0.33171067  0.83355124
   0.44810447  0.22039530  0.72067851
   0.22150421  0.11017737  0.60940555
  -0.00210720  0.00067135  0.49887024
   0.92433052  0.29272641  0.79475958
   0.48591865  0.07451055  0.57199202
   0.74277913  0.03533475  0.53494294
   0.09201937  0.13064665  0.88180468
   0.58005969  0.20120416  0.95601784
   0.35219908  0.09155302  0.84403443
   0.61615503  0.05061011  0.80551178
   0.03830217  0.85249506  0.35265178
   0.16500289  0.83388780  0.58162187
   0.90749859  0.87146536  0.62067823
   0.01776196  0.42388085  0.17583908
   0.72362379  0.60873549  0.36184929
   0.27676854  0.38958992  0.13927710
   0.79773094  0.31246208  0.06425229
   0.25780715  0.96422940  0.96262556
   0.78024202  0.88947516  0.88798017
   0.55856496  0.77869054  0.77887886
   0.88711500  0.44453052  0.44390867
   0.67011403  0.33279231  0.33428411
   0.47987408  0.07450321  0.07237335
   0.96162407  0.14857829  0.14878553
   0.74121484  0.03713344  0.03752261
   0.20213494  0.68630840  0.93468936
   0.94453387  0.72200171  0.97071515
   0.98293306  0.57469696  0.82552254
   0.54049791  0.34938976  0.60133809
   0.08982168  0.12878944  0.38010112
   0.83199666  0.16897773  0.41731400
   0.14728887  0.40782263  0.90794376
   0.70486039  0.18352265  0.68458311
   0.95883958  0.14698822  0.64881344
   0.31453475  0.24104065  0.99110934
   0.83341168  0.16520093  0.91599076
   0.87090230  0.01957085  0.76818393
Direct configuration=     8
   0.13148617  0.98205848  0.23425187
   0.38743578  0.94671240  0.19568625
   0.16119876  0.83101919  0.08068492
   0.64592578  0.91069563  0.15729816
   0.42066028  0.79939049  0.04385693
   0.91013724  0.87429529  0.12110066
   0.69120968  0.76372085  0.00861092
   0.25575660  0.96239379  0.46064904
   0.51151843  0.92461108  0.42252671
   0.30163984  0.81596970  0.32021143
   0.07777647  0.70511154  0.20792378
   0.77450372  0.88774335  0.38806403
   0.55526719  0.77727867  0.28059233
   0.33405034  0.66950987  0.16953788
   0.11043850  0.55783315  0.05673795
   0.81584241  0.74075852  0.24213600
   0.59247811  0.63205472  0.12896459
   0.36283771  0.51623779  0.01860401
   0.85597859  0.58950190  0.09186441
   0.12445077  0.98116360  0.72932449
   0.38866978  0.94379054  0.69328770
   0.64895631  0.90878353  0.65662350