       N       E                     dE             d eps       ncg     rms          rms(c)
DAV:   1     0.266996765056E+04    0.26700E+04   -0.11402E+05 13290   0.174E+03
DAV:   2     0.198446183217E+03   -0.24715E+04   -0.22554E+04 13272   0.367E+02
DAV:   3    -0.199142591042E+03   -0.39759E+03   -0.31677E+03 13272   0.176E+02
DAV:   4    -0.224890042223E+03   -0.25747E+02   -0.24870E+02 14247   0.542E+01
DAV:   5    -0.225215287198E+03   -0.32524E+00   -0.32493E+00 15267   0.600E+00    0.834E+01
RMM:   6    -0.337866100229E+03   -0.11265E+03   -0.38351E+02 15076   0.659E+01    0.124E+02
RMM:   7    -0.225929983978E+03    0.11194E+03   -0.10209E+02 14309   0.349E+01    0.594E+01
RMM:   8    -0.284129701458E+03   -0.58200E+02   -0.54678E+01 14280   0.229E+01    0.123E+02
RMM:   9    -0.223681750919E+03    0.60448E+02   -0.20929E+01 14016   0.158E+01    0.471E+01
RMM:  10    -0.221936940991E+03    0.17448E+01   -0.10539E+01 14347   0.109E+01    0.447E+01
RMM:  11    -0.219816105143E+03    0.21208E+01   -0.45468E+00 14293   0.732E+00    0.306E+01
RMM:  12    -0.218155308950E+03    0.16608E+01   -0.27126E+00 14478   0.536E+00    0.196E+01
RMM:  13    -0.218264944723E+03   -0.10964E+00   -0.92273E-01 14531   0.301E+00    0.119E+01
RMM:  14    -0.218399333218E+03   -0.13439E+00   -0.23968E-01 14747   0.153E+00    0.101E+01
RMM:  15    -0.218815663307E+03   -0.41633E+00   -0.22416E-01 14501   0.139E+00    0.890E+00
RMM:  16    -0.219341609557E+03   -0.52595E+00   -0.34646E-01 14384   0.178E+00    0.993E+00
RMM:  17    -0.219468738705E+03   -0.12713E+00   -0.37803E-01 14337   0.182E+00    0.614E+00
RMM:  18    -0.219591727214E+03   -0.12299E+00   -0.12066E-01 14738   0.109E+00    0.653E+00
RMM:  19    -0.219489725075E+03    0.10200E+00   -0.80649E-02 14563   0.906E-01    0.303E+00
RMM:  20    -0.219530679345E+03   -0.40954E-01   -0.68702E-02 14721   0.838E-01    0.399E+00
RMM:  21    -0.219480744182E+03    0.49935E-01   -0.40287E-02 14683   0.656E-01    0.188E+00
RMM:  22    -0.219487024575E+03   -0.62804E-02   -0.20904E-02 14714   0.464E-01    0.203E+00
RMM:  23    -0.219481441178E+03    0.55834E-02   -0.87585E-03 14606   0.306E-01    0.767E-01
RMM:  24    -0.219485392095E+03   -0.39509E-02   -0.35951E-03 14774   0.191E-01    0.865E-01
RMM:  25    -0.219489019967E+03   -0.36279E-02   -0.17623E-03 14679   0.137E-01    0.398E-01
RMM:  26    -0.219490527474E+03   -0.15075E-02   -0.43187E-04 14917   0.676E-02    0.325E-01
RMM:  27    -0.219493016676E+03   -0.24892E-02   -0.18635E-04 14822   0.431E-02    0.194E-01
RMM:  28    -0.219493227179E+03   -0.21050E-03   -0.12570E-04 14642   0.359E-02    0.146E-01
RMM:  29    -0.219494296220E+03   -0.10690E-02   -0.39286E-05 14865   0.202E-02    0.729E-02
RMM:  30    -0.219494377004E+03   -0.80785E-04   -0.18181E-05 14697   0.136E-02    0.704E-02
RMM:  31    -0.219494444437E+03   -0.67432E-04   -0.86346E-06 14811   0.957E-03    0.377E-02
RMM:  32    -0.219494414362E+03    0.30075E-04   -0.36770E-06 13028   0.628E-03    0.349E-02
RMM:  33    -0.219494400739E+03    0.13622E-04   -0.18555E-06 10127   0.475E-03    0.170E-02
RMM:  34    -0.219494405914E+03   -0.51748E-05   -0.78602E-07  8963   0.295E-03    0.158E-02
RMM:  35    -0.219494434750E+03   -0.28835E-04   -0.43169E-07  7866   0.235E-03    0.737E-03
RMM:  36    -0.219494429271E+03    0.54792E-05   -0.18199E-07  7548   0.146E-03    0.676E-03
RMM:  37    -0.219494384499E+03    0.44771E-04   -0.99399E-08  7492   0.110E-03    0.226E-03
RMM:  38    -0.219494377633E+03    0.68666E-05   -0.42236E-08  7438   0.680E-04    0.289E-03
RMM:  39    -0.219494366898E+03    0.10735E-04   -0.29803E-08  7404   0.629E-04    0.112E-03
RMM:  40    -0.219494360050E+03    0.68476E-05   -0.46241E-10  2437   0.311E-04    0.111E-03
RMM:  41    -0.219494359107E+03    0.94360E-06   -0.29231E-11  1969   0.254E-04
   1 F= -.21949436E+03 E0= -.21949436E+03  d E =0.000000E+00  mag=    51.6148
