 vasp.5.4.4.18Apr17-6-g9f103f2a35 (build Sep 06 2021 19:49:22) complex          
  
 executed on             LinuxIFC date 2021.12.24  18:55:16
 running on   24 total cores
 distrk:  each k-point on   24 cores,    1 groups
 distr:  one band on NCORES_PER_BAND=   8 cores,    3 groups


--------------------------------------------------------------------------------------------------------


 INCAR:
 POTCAR:    PAW_PBE Fe 06Sep2000                  
 POTCAR:    PAW_PBE Ni 02Aug2007                  
 POTCAR:    PAW_PBE Fe 06Sep2000                  
   VRHFIN =Fe:  d7 s1                                                           
   LEXCH  = PE                                                                  
   EATOM  =   594.3153 eV,   43.6809 Ry                                         
                                                                                
   TITEL  = PAW_PBE Fe 06Sep2000                                                
   LULTRA =        F    use ultrasoft PP ?                                      
   IUNSCR =        1    unscreen: 0-lin 1-nonlin 2-no                           
   RPACOR =    2.000    partial core radius                                     
   POMASS =   55.847; ZVAL   =    8.000    mass and valenz                      
   RCORE  =    2.300    outmost cutoff radius                                   
   RWIGS  =    2.460; RWIGS  =    1.302    wigner-seitz radius (au A)           
   ENMAX  =  267.882; ENMIN  =  200.911 eV                                      
   RCLOC  =    1.701    cutoff for local pot                                    
   LCOR   =        T    correct aug charges                                     
   LPAW   =        T    paw PP                                                  
   EAUG   =  511.368                                                            
   DEXC   =    0.000                                                            
   RMAX   =    2.356    core radius for proj-oper                               
   RAUG   =    1.300    factor for augmentation sphere                          
   RDEP   =    2.442    radius for radial grids                                 
   RDEPT  =    1.890    core radius for aug-charge                              
                                                                                
   Atomic configuration                                                         
    9 entries                                                                   
     n  l   j            E        occ.                                          
     1  0  0.50     -6993.8440   2.0000                                         
     2  0  0.50      -814.6047   2.0000                                         
     2  1  1.50      -693.3689   6.0000                                         
     3  0  0.50       -89.4732   2.0000                                         
     3  1  1.50       -55.6373   6.0000                                         
     3  2  2.50        -3.8151   7.0000                                         
     4  0  0.50        -4.2551   1.0000                                         
     4  1  1.50        -3.4015   0.0000                                         
     4  3  2.50        -1.3606   0.0000                                         
   Description                                                                  
     l       E           TYP  RCUT    TYP  RCUT                                 
     2     -3.8151135     23  2.300                                             
     2     -5.1756961     23  2.300                                             
     0     -4.2550963     23  2.300                                             
     0      7.2035603     23  2.300                                             
     1     -2.7211652     23  2.300                                             
     1     18.4316424     23  2.300                                             
  local pseudopotential read in
  partial core-charges read in
  partial kinetic energy density read in
  atomic valenz-charges read in
  non local Contribution for L=           2  read in
    real space projection operators read in
  non local Contribution for L=           2  read in
    real space projection operators read in
  non local Contribution for L=           0  read in
    real space projection operators read in
  non local Contribution for L=           0  read in
    real space projection operators read in
  non local Contribution for L=           1  read in
    real space projection operators read in
  non local Contribution for L=           1  read in
    real space projection operators read in
    PAW grid and wavefunctions read in
 
   number of l-projection  operators is LMAX  =           6
   number of lm-projection operators is LMMAX =          18
 
 POTCAR:    PAW_PBE Ni 02Aug2007                  
   VRHFIN =Ni:                                                                  
   LEXCH  = PE                                                                  
   EATOM  =  1077.6739 eV,   79.2068 Ry                                         
                                                                                
   TITEL  = PAW_PBE Ni 02Aug2007                                                
   LULTRA =        F    use ultrasoft PP ?                                      
   IUNSCR =        1    unscreen: 0-lin 1-nonlin 2-no                           
   RPACOR =    2.000    partial core radius                                     
   POMASS =   58.690; ZVAL   =   10.000    mass and valenz                      
   RCORE  =    2.300    outmost cutoff radius                                   
   RWIGS  =    2.430; RWIGS  =    1.286    wigner-seitz radius (au A)           
   ENMAX  =  269.532; ENMIN  =  202.149 eV                                      
   RCLOC  =    1.201    cutoff for local pot                                    
   LCOR   =        T    correct aug charges                                     
   LPAW   =        T    paw PP                                                  
   EAUG   =  544.565                                                            
   DEXC   =    0.000                                                            
   RMAX   =    2.357    core radius for proj-oper                               
   RAUG   =    1.300    factor for augmentation sphere                          
   RDEP   =    2.390    radius for radial grids                                 
   RDEPT  =    1.838    core radius for aug-charge                              
                                                                                
   Atomic configuration                                                         
    9 entries                                                                   
     n  l   j            E        occ.                                          
     1  0  0.50     -8206.4253   2.0000                                         
     2  0  0.50      -976.1748   2.0000                                         
     2  1  1.50      -839.0571   6.0000                                         
     3  0  0.50      -105.9991   2.0000                                         
     3  1  1.50       -66.4603   6.0000                                         
     3  2  2.50        -4.6458   9.0000                                         
     4  0  0.50        -4.4926   1.0000                                         
     4  1  1.50        -4.0817   0.0000                                         
     4  3  2.50        -1.3606   0.0000                                         
   Description                                                                  
     l       E           TYP  RCUT    TYP  RCUT                                 
     2     -4.6457903     23  2.300                                             
     2     -6.0063729     23  2.300                                             
     0     -4.4925590     23  2.300                                             
     0      5.0102601     23  2.300                                             
     1     -2.7211652     23  2.300                                             
     1     16.5183231     23  2.300                                             
  local pseudopotential read in
  partial core-charges read in
  partial kinetic energy density read in
  atomic valenz-charges read in
  non local Contribution for L=           2  read in
    real space projection operators read in
  non local Contribution for L=           2  read in
    real space projection operators read in
  non local Contribution for L=           0  read in
    real space projection operators read in
  non local Contribution for L=           0  read in
    real space projection operators read in
  non local Contribution for L=           1  read in
    real space projection operators read in
  non local Contribution for L=           1  read in
    real space projection operators read in
    PAW grid and wavefunctions read in
 
   number of l-projection  operators is LMAX  =           6
   number of lm-projection operators is LMMAX =          18
 
 Optimization of the real space projectors (new method)

 maximal supplied QI-value         = 16.25
 optimisation between [QCUT,QGAM] = [ 11.54, 23.24] = [ 37.28,151.24] Ry 
 Optimized for a Real-space Cutoff    1.53 Angstroem

   l    n(q)    QCUT    max X(q) W(low)/X(q) W(high)/X(q)  e(spline) 
   2     10    11.539    80.901    0.11E-03    0.14E-03    0.21E-06
   2     10    11.539    75.754    0.11E-03    0.14E-03    0.22E-06
   0     11    11.539    58.752    0.52E-04    0.18E-04    0.33E-06
   0     11    11.539    30.679    0.44E-04    0.16E-04    0.30E-06
   1     10    11.539    17.977    0.53E-04    0.29E-04    0.13E-06
   1     10    11.539    13.559    0.44E-04    0.25E-04    0.11E-06
 Optimization of the real space projectors (new method)

 maximal supplied QI-value         = 16.25
 optimisation between [QCUT,QGAM] = [ 11.54, 23.24] = [ 37.28,151.24] Ry 
 Optimized for a Real-space Cutoff    1.45 Angstroem

   l    n(q)    QCUT    max X(q) W(low)/X(q) W(high)/X(q)  e(spline) 
   2      9    11.539    60.317    0.19E-03    0.47E-04    0.16E-06
   2      9    11.539    55.921    0.19E-03    0.48E-04    0.16E-06
   0     10    11.539    51.690    0.80E-04    0.50E-04    0.24E-06
   0     10    11.539    30.015    0.73E-04    0.45E-04    0.22E-06
   1     10    11.539    18.849    0.87E-04    0.16E-03    0.71E-07
   1     10    11.539    14.624    0.73E-04    0.13E-03    0.64E-07
  PAW_PBE Fe 06Sep2000                  :
 energy of atom  1       EATOM= -594.3153
 kinetic energy error for atom=    0.0026 (will be added to EATOM!!)
  PAW_PBE Ni 02Aug2007                  :
 energy of atom  2       EATOM=-1077.6739
 kinetic energy error for atom=    0.0030 (will be added to EATOM!!)
 
 
 POSCAR: POSCAR                                  
  positions in direct lattice
  velocities in cartesian coordinates
 exchange correlation table for  LEXCH =        8
   RHO(1)=    0.500       N(1)  =     2000
   RHO(2)=  100.500       N(2)  =     4000
 


--------------------------------------------------------------------------------------------------------


 ion  position               nearest neighbor table
   1  1.000  0.998  0.500-  31 2.53  22 2.53  10 2.55   6 2.55  17 2.55  26 2.55   2 2.55   4 2.55
                             5 2.55  11 2.55  14 2.58   7 2.58
   2  0.003  0.252  0.750-  18 2.52  20 2.52  12 2.53   7 2.53  27 2.53   3 2.55   1 2.55   8 2.56
                            15 2.57  14 2.57  17 2.57  10 2.58
   3  0.000  0.998  1.000-  28 2.53  32 2.53  10 2.55   6 2.55  17 2.55  26 2.55   2 2.55   4 2.55
                            11 2.55   5 2.55  12 2.58  15 2.58
   4  0.997  0.252  0.250-  18 2.52  20 2.52  15 2.53  14 2.53  21 2.53   3 2.55   1 2.55  16 2.56
                            12 2.57   7 2.57  26 2.57   6 2.58
   5  0.998  0.744  0.750-  20 2.49  18 2.49  27 2.49   8 2.51  32 2.53  31 2.53  28 2.54  22 2.54
                             3 2.55   1 2.55  10 2.56  17 2.56
   6  0.254  0.999  0.250-  30 2.49  13 2.51   9 2.51  23 2.53  28 2.53  22 2.53   3 2.55   1 2.55
                            12 2.56   7 2.56  11 2.56   4 2.58
   7  0.254  0.255  0.501-  24 2.49  19 2.50  21 2.50  23 2.51  18 2.52   2 2.53   8 2.53   6 2.56
                             9 2.57   4 2.57  17 2.58   1 2.58
   8  0.257  0.506  0.750-  25 2.47  28 2.48  22 2.48  29 2.49  24 2.49  19 2.50   5 2.51  12 2.53
                             7 2.53  20 2.56  18 2.56   2 2.56
   9  0.500  0.993  0.500-  31 2.49  22 2.49  25 2.50  30 2.50  26 2.50  17 2.50  10 2.51   6 2.51
                            14 2.57   7 2.57  19 2.57  23 2.57
  10  0.746  0.999  0.750-  25 2.49   9 2.51  13 2.51  19 2.53  32 2.53  31 2.53   3 2.55   1 2.55
                            15 2.56  14 2.56   5 2.56   2 2.58
  11  0.002  0.744  0.250-  20 2.49  18 2.49  21 2.49  16 2.51  28 2.53  22 2.53  32 2.54  31 2.54
                             3 2.55   1 2.55   6 2.56  26 2.56
  12  0.254  0.255  0.999-  29 2.49  19 2.50  21 2.50  23 2.51  20 2.52   2 2.53   8 2.53   6 2.56
                            13 2.57   4 2.57  17 2.58   3 2.58
  13  0.500  0.993  1.000-  28 2.49  32 2.49  25 2.50  30 2.50  17 2.50  26 2.50  10 2.51   6 2.51
                            12 2.57  15 2.57  19 2.57  23 2.57
  14  0.746  0.255  0.499-  24 2.49  23 2.50  27 2.50  19 2.51  18 2.52   4 2.53  16 2.53  10 2.56
                             9 2.57   2 2.57  26 2.58   1 2.58
  15  0.746  0.255  0.001-  29 2.49  23 2.50  27 2.50  19 2.51  20 2.52   4 2.53  16 2.53  10 2.56
                            13 2.57   2 2.57  26 2.58   3 2.58
  16  0.743  0.506  0.250-  30 2.47  32 2.48  31 2.48  29 2.49  24 2.49  23 2.50  11 2.51  15 2.53
                            14 2.53  20 2.56  18 2.56   4 2.56
  17  0.254  0.995  0.750-  28 2.50  22 2.50  25 2.50  13 2.50   9 2.50  19 2.54   3 2.55   1 2.55
                             5 2.56   2 2.57  12 2.58   7 2.58
  18  1.000  0.501  0.500-   5 2.49  11 2.49  31 2.52  22 2.52   4 2.52   2 2.52  14 2.52   7 2.52
                            27 2.53  21 2.53  16 2.56   8 2.56
  19  0.499  0.252  0.750-   7 2.50  12 2.50   8 2.50  27 2.51  15 2.51  14 2.51  29 2.53  24 2.53
                            10 2.53  17 2.54  13 2.57   9 2.57
  20  1.000  0.501  1.000-   5 2.49  11 2.49  28 2.52  32 2.52   2 2.52   4 2.52  12 2.52  15 2.52
                            27 2.53  21 2.53   8 2.56  16 2.56
  21  0.252  0.499  0.250-  11 2.49  12 2.50   7 2.50  30 2.50  23 2.51  29 2.52  24 2.52  28 2.53
                            22 2.53  20 2.53  18 2.53   4 2.53
  22  0.251  0.749  0.501-   8 2.48   9 2.49  17 2.50  24 2.50  30 2.51  18 2.52  11 2.53   1 2.53
                            21 2.53  25 2.53   6 2.53   5 2.54
  23  0.501  0.252  0.250-  15 2.50  14 2.50  16 2.50  21 2.51  12 2.51   7 2.51  29 2.53  24 2.53
                             6 2.53  26 2.54  13 2.57   9 2.57
  24  0.500  0.502  0.500-  14 2.49   7 2.49  16 2.49   8 2.49  31 2.50  22 2.50  25 2.51  30 2.51
                            21 2.52  27 2.52  19 2.53  23 2.53
  25  0.504  0.749  0.750-   8 2.47  10 2.49  13 2.50   9 2.50  27 2.50  17 2.50  32 2.51  31 2.51
                            29 2.51  24 2.51  28 2.53  22 2.53
  26  0.746  0.995  0.250-  32 2.50  31 2.50  30 2.50   9 2.50  13 2.50  23 2.54   3 2.55   1 2.55
                            11 2.56   4 2.57  15 2.58  14 2.58
  27  0.748  0.499  0.750-   5 2.49  15 2.50  14 2.50  25 2.50  19 2.51  29 2.52  24 2.52  32 2.53
                            31 2.53  20 2.53  18 2.53   2 2.53
  28  0.251  0.749  0.999-   8 2.48  13 2.49  17 2.50  29 2.50  30 2.51  20 2.52  11 2.53   3 2.53
                            21 2.53  25 2.53   6 2.53   5 2.54
  29  0.500  0.502  1.000-  15 2.49  12 2.49   8 2.49  16 2.49  28 2.50  32 2.50  25 2.51  30 2.51
                            27 2.52  21 2.52  19 2.53  23 2.53
  30  0.496  0.749  0.250-  16 2.47   6 2.49  13 2.50   9 2.50  21 2.50  26 2.50  28 2.51  22 2.51
                            29 2.51  24 2.51  32 2.53  31 2.53
  31  0.749  0.749  0.499-  16 2.48   9 2.49  26 2.50  24 2.50  25 2.51  18 2.52   5 2.53   1 2.53
                            27 2.53  30 2.53  10 2.53  11 2.54
  32  0.749  0.749  0.001-  16 2.48  13 2.49  26 2.50  29 2.50  25 2.51  20 2.52   5 2.53   3 2.53
                            27 2.53  30 2.53  10 2.53  11 2.54
 

IMPORTANT INFORMATION: All symmetrisations will be switched off!
NOSYMM: (Re-)initialisation of all symmetry stuff for point group C_1.

 
 

Automatic generation of k-mesh.
 generate k-points for:    3    3    3
Space group operators:
 irot       det(A)        alpha          n_x          n_y          n_z        tau_x        tau_y        tau_z
    1     1.000000     0.000000     1.000000     0.000000     0.000000     0.000000     0.000000     0.000000
 
 Subroutine IBZKPT returns following result:
 ===========================================
 
 Found     14 irreducible k-points:
 
 Following reciprocal coordinates:
            Coordinates               Weight
  0.000000  0.000000  0.000000      1.000000
  0.333333  0.000000  0.000000      2.000000
  0.000000  0.333333  0.000000      2.000000
  0.333333  0.333333  0.000000      2.000000
 -0.333333  0.333333  0.000000      2.000000
  0.000000  0.000000  0.333333      2.000000
  0.333333  0.000000  0.333333      2.000000
 -0.333333  0.000000  0.333333      2.000000
  0.000000  0.333333  0.333333      2.000000
  0.333333  0.333333  0.333333      2.000000
 -0.333333  0.333333  0.333333      2.000000
  0.000000 -0.333333  0.333333      2.000000
  0.333333 -0.333333  0.333333      2.000000
 -0.333333 -0.333333  0.333333      2.000000
 
 Following cartesian coordinates:
            Coordinates               Weight
  0.000000  0.000000  0.000000      1.000000
  0.166667  0.000000  0.000000      2.000000
  0.000000  0.166667  0.000000      2.000000
  0.166667  0.166667  0.000000      2.000000
 -0.166667  0.166667  0.000000      2.000000
  0.000000  0.000000  0.166667      2.000000
  0.166667  0.000000  0.166667      2.000000
 -0.166667  0.000000  0.166667      2.000000
  0.000000  0.166667  0.166667      2.000000
  0.166667  0.166667  0.166667      2.000000
 -0.166667  0.166667  0.166667      2.000000
  0.000000 -0.166667  0.166667      2.000000
  0.166667 -0.166667  0.166667      2.000000
 -0.166667 -0.166667  0.166667      2.000000
 
 TETIRR: Found     78 inequivalent tetrahedra from      162


--------------------------------------------------------------------------------------------------------




 Dimension of arrays:
   k-points           NKPTS =     14   k-points in BZ     NKDIM =     14   number of bands    NBANDS=    237
   number of dos      NEDOS =    301   number of ions     NIONS =     32
   non local maximal  LDIM  =      6   non local SUM 2l+1 LMDIM =     18
   total plane-waves  NPLWV = 157464
   max r-space proj   IRMAX =   6583   max aug-charges    IRDMAX=  15595
   dimension x,y,z NGX =    54 NGY =   54 NGZ =   54
   dimension x,y,z NGXF=   108 NGYF=  108 NGZF=  108
   support grid    NGXF=   108 NGYF=  108 NGZF=  108
   ions per type =              16  16
   NGX,Y,Z   is equivalent  to a cutoff of  12.57, 12.57, 12.57 a.u.
   NGXF,Y,Z  is equivalent  to a cutoff of  25.14, 25.14, 25.14 a.u.

 SYSTEM =  SQS-NiFe                                
 POSCAR =  POSCAR                                  

 Startparameter for this run:
   NWRITE =      2    write-flag & timer
   PREC   = accura    normal or accurate (medium, high low for compatibility)
   ISTART =      0    job   : 0-new  1-cont  2-samecut
   ICHARG =      2    charge: 1-file 2-atom 10-const
   ISPIN  =      2    spin polarized calculation?
   LNONCOLLINEAR =      F non collinear calculations
   LSORBIT =      F    spin-orbit coupling
   INIWAV =      1    electr: 0-lowe 1-rand  2-diag
   LASPH  =      F    aspherical Exc in radial PAW
   METAGGA=      F    non-selfconsistent MetaGGA calc.

 Electronic Relaxation 1
   ENCUT  =  520.0 eV  38.22 Ry    6.18 a.u.  13.28 13.28 13.28*2*pi/ulx,y,z
   ENINI  =  520.0     initial cutoff
   ENAUG  =  544.6 eV  augmentation charge cutoff
   NELM   =    200;   NELMIN=  2; NELMDL= -5     # of ELM steps 
   EDIFF  = 0.1E-05   stopping-criterion for ELM
   LREAL  =      T    real-space projection
   NLSPLINE    = F    spline interpolate recip. space projectors
   LCOMPAT=      F    compatible to vasp.4.4
   GGA_COMPAT  = T    GGA compatible to vasp.4.4-vasp.4.6
   LMAXPAW     = -100 max onsite density
   LMAXMIX     =    2 max onsite mixed and CHGCAR
   VOSKOWN=      0    Vosko Wilk Nusair interpolation
   ROPT   =   -0.00025  -0.00025
 Ionic relaxation
   EDIFFG = -.2E-01   stopping-criterion for IOM
   NSW    =      0    number of steps for IOM
   NBLOCK =      1;   KBLOCK =      1    inner block; outer block 
   IBRION =     -1    ionic relax: 0-MD 1-quasi-New 2-CG
   NFREE  =      0    steps in history (QN), initial steepest desc. (CG)
   ISIF   =      2    stress and relaxation
   IWAVPR =     10    prediction:  0-non 1-charg 2-wave 3-comb
   ISYM   =      0    0-nonsym 1-usesym 2-fastsym
   LCORR  =      T    Harris-Foulkes like correction to forces

   POTIM  = 0.5000    time-step for ionic-motion
   TEIN   =    0.0    initial temperature
   TEBEG  =    0.0;   TEEND  =   0.0 temperature during run
   SMASS  =  -3.00    Nose mass-parameter (am)
   estimated Nose-frequenzy (Omega)   =  0.10E-29 period in steps =****** mass=  -0.117E-26a.u.
   SCALEE = 1.0000    scale energy and forces
   NPACO  =    256;   APACO  = 16.0  distance and # of slots for P.C.
   PSTRESS=    0.0 pullay stress

  Mass of Ions in am
   POMASS =  55.85 58.69
  Ionic Valenz
   ZVAL   =   8.00 10.00
  Atomic Wigner-Seitz radii
   RWIGS  =  -1.00 -1.00
  virtual crystal weights 
   VCA    =   1.00  1.00
   NELECT =     288.0000    total number of electrons
   NUPDOWN=      -1.0000    fix difference up-down

 DOS related values:
   EMIN   =  10.00;   EMAX   =-10.00  energy-range for DOS
   EFERMI =   0.00
   ISMEAR =    -5;   SIGMA  =   0.20  broadening in eV -4-tet -1-fermi 0-gaus

 Electronic relaxation 2 (details)
   IALGO  =     68    algorithm
   LDIAG  =      T    sub-space diagonalisation (order eigenvalues)
   LSUBROT=      F    optimize rotation matrix (better conditioning)
   TURBO    =      0    0=normal 1=particle mesh
   IRESTART =      0    0=no restart 2=restart with 2 vectors
   NREBOOT  =      0    no. of reboots
   NMIN     =      0    reboot dimension
   EREF     =   0.00    reference energy to select bands
   IMIX   =      4    mixing-type and parameters
     AMIX     =   0.40;   BMIX     =  1.00
     AMIX_MAG =   1.60;   BMIX_MAG =  1.00
     AMIN     =   0.10
     WC   =   100.;   INIMIX=   1;  MIXPRE=   1;  MAXMIX= -45

 Intra band minimization:
   WEIMIN = 0.0000     energy-eigenvalue tresh-hold
   EBREAK =  0.11E-08  absolut break condition
   DEPER  =   0.30     relativ break condition  

   TIME   =   0.40     timestep for ELM

  volume/ion in A,a.u.               =      11.38        76.83
  Fermi-wavevector in a.u.,A,eV,Ry     =   1.513744  2.860562 31.176681  2.291421
  Thomas-Fermi vector in A             =   2.623494
 
 Write flags
   LWAVE        =      F    write WAVECAR
   LDOWNSAMPLE  =      F    k-point downsampling of WAVECAR
   LCHARG       =      T    write CHGCAR
   LVTOT        =      F    write LOCPOT, total local potential
   LVHAR        =      F    write LOCPOT, Hartree potential only
   LELF         =      F    write electronic localiz. function (ELF)
   LORBIT       =     11    0 simple, 1 ext, 2 COOP (PROOUT), +10 PAW based schemes


 Dipole corrections
   LMONO  =      F    monopole corrections only (constant potential shift)
   LDIPOL =      F    correct potential (dipole corrections)
   IDIPOL =      0    1-x, 2-y, 3-z, 4-all directions 
   EPSILON=  1.0000000 bulk dielectric constant

 Exchange correlation treatment:
   GGA     =    --    GGA type
   LEXCH   =     8    internal setting for exchange type
   VOSKOWN=      0    Vosko Wilk Nusair interpolation
   LHFCALC =     F    Hartree Fock is set to
   LHFONE  =     F    Hartree Fock one center treatment
   AEXX    =    0.0000 exact exchange contribution

 Linear response parameters
   LEPSILON=     F    determine dielectric tensor
   LRPA    =     F    only Hartree local field effects (RPA)
   LNABLA  =     F    use nabla operator in PAW spheres
   LVEL    =     F    velocity operator in full k-point grid
   LINTERFAST=   F  fast interpolation
   KINTER  =     0    interpolate to denser k-point grid
   CSHIFT  =0.1000    complex shift for real part using Kramers Kronig
   OMEGAMAX=  -1.0    maximum frequency
   DEG_THRESHOLD= 0.2000000E-02 threshold for treating states as degnerate
   RTIME   =   -0.100 relaxation time in fs
  (WPLASMAI=    0.000 imaginary part of plasma frequency in eV, 0.658/RTIME)
   DFIELD  = 0.0000000 0.0000000 0.0000000 field for delta impulse in time
 
 Orbital magnetization related:
   ORBITALMAG=     F  switch on orbital magnetization
   LCHIMAG   =     F  perturbation theory with respect to B field
   DQ        =  0.001000  dq finite difference perturbation B field
   LLRAUG    =     F  two centre corrections for induced B field



--------------------------------------------------------------------------------------------------------


 Static calculation
 charge density and potential will be updated during run
 spin polarized calculation
 RMM-DIIS sequential band-by-band and
  variant of blocked Davidson during initial phase
 perform sub-space diagonalisation
    before iterative eigenvector-optimisation
 modified Broyden-mixing scheme, WC =      100.0
 initial mixing is a Kerker type mixing with AMIX =  0.4000 and BMIX =      1.0000
 Hartree-type preconditioning will be used
 using additional bands           93
 real space projection scheme for non local part
 use partial core corrections
 calculate Harris-corrections to forces 
   (improved forces if not selfconsistent)
 use gradient corrections 
 use of overlap-Matrix (Vanderbilt PP)
 Fermi weights with tetrahedron method with Bloechl corrections


--------------------------------------------------------------------------------------------------------


  energy-cutoff  :      520.00
  volume of cell :      364.30
      direct lattice vectors                 reciprocal lattice vectors
     7.142000000  0.000000000  0.000000000     0.140016802  0.000000000  0.000000000
     0.000000000  7.142000000  0.000000000     0.000000000  0.140016802  0.000000000
     0.000000000  0.000000000  7.142000000     0.000000000  0.000000000  0.140016802

  length of vectors
     7.142000000  7.142000000  7.142000000     0.140016802  0.140016802  0.140016802


 
 k-points in units of 2pi/SCALE and weight: read from INCAR                         
   0.00000000  0.00000000  0.00000000       0.037
   0.16666667  0.00000000  0.00000000       0.074
   0.00000000  0.16666667  0.00000000       0.074
   0.16666667  0.16666667  0.00000000       0.074
  -0.16666667  0.16666667  0.00000000       0.074
   0.00000000  0.00000000  0.16666667       0.074
   0.16666667  0.00000000  0.16666667       0.074
  -0.16666667  0.00000000  0.16666667       0.074
   0.00000000  0.16666667  0.16666667       0.074
   0.16666667  0.16666667  0.16666667       0.074
  -0.16666667  0.16666667  0.16666667       0.074
   0.00000000 -0.16666667  0.16666667       0.074
   0.16666667 -0.16666667  0.16666667       0.074
  -0.16666667 -0.16666667  0.16666667       0.074
 
 k-points in reciprocal lattice and weights: read from INCAR                         
   0.00000000  0.00000000  0.00000000       0.037
   0.33333333  0.00000000  0.00000000       0.074
   0.00000000  0.33333333  0.00000000       0.074
   0.33333333  0.33333333  0.00000000       0.074
  -0.33333333  0.33333333  0.00000000       0.074
   0.00000000  0.00000000  0.33333333       0.074
   0.33333333  0.00000000  0.33333333       0.074
  -0.33333333  0.00000000  0.33333333       0.074
   0.00000000  0.33333333  0.33333333       0.074
   0.33333333  0.33333333  0.33333333       0.074
  -0.33333333  0.33333333  0.33333333       0.074
   0.00000000 -0.33333333  0.33333333       0.074
   0.33333333 -0.33333333  0.33333333       0.074
  -0.33333333 -0.33333333  0.33333333       0.074
 
 position of ions in fractional coordinates (direct lattice) 
   0.99999786  0.99821196  0.50000161
   0.00347326  0.25248865  0.75000005
   0.00000101  0.99821394  0.99999972
   0.99652452  0.25248798  0.25000101
   0.99775554  0.74376684  0.75000284
   0.25396965  0.99918777  0.24999652
   0.25406350  0.25538753  0.50059492
   0.25737441  0.50639448  0.75000412
   0.50000770  0.99346185  0.50000426
   0.74603336  0.99918461  0.75000479
   0.00224450  0.74376930  0.24999687
   0.25405802  0.25538719  0.99940643
   0.49999635  0.99346322  0.99999465
   0.74593727  0.25538856  0.49940670
   0.74594149  0.25538663  0.00059264
   0.74262557  0.50639197  0.24999633
   0.25413704  0.99472621  0.75000064
   0.99999843  0.50121287  0.50000004
   0.49878917  0.25201426  0.75000318
   0.99999983  0.50121468  0.99999933
   0.25155100  0.49910383  0.24999914
   0.25099506  0.74878762  0.50133594
   0.50121113  0.25201295  0.24999678
   0.50000030  0.50204310  0.49999983
   0.50366369  0.74903825  0.75000319
   0.74586135  0.99472602  0.24999765
   0.74844851  0.49910659  0.75000211
   0.25099449  0.74878651  0.99866334
   0.50000006  0.50204173  0.99999984
   0.49633540  0.74904007  0.24999581
   0.74900527  0.74878575  0.49866286
   0.74900523  0.74878708  0.00133687
 
 position of ions in cartesian coordinates  (Angst):
   7.14198470  7.12922982  3.57101152
   0.02480603  1.80327395  5.35650034
   0.00000724  7.12924397  7.14199801
   7.11717814  1.80326919  1.78550723
   7.12597006  5.31198276  5.35652026
   1.81385125  7.13619906  1.78547513
   1.81452154  1.82397774  3.57524890
   1.83816805  3.61666938  5.35652945
   3.57105502  7.09530454  3.57103042
   5.32817027  7.13617645  5.35653419
   0.01603023  5.31200034  1.78547767
   1.81448235  1.82397529  7.13776069
   3.57097395  7.09531430  7.14196177
   5.32748398  1.82398512  3.56676267
   5.32751412  1.82397132  0.00423265
   5.30383180  3.61665143  1.78547378
   1.81504676  7.10433458  5.35650459
   7.14198880  3.57966233  3.57100028
   3.56235227  1.79988582  5.35652273
   7.14199876  3.57967522  7.14199521
   1.79657723  3.56459958  1.78549387
   1.79260675  5.34784116  3.58054127
   3.57964987  1.79987647  1.78547698
   3.57100216  3.58559185  3.57099880
   3.59716608  5.34963118  5.35652279
   5.32694175  7.10433321  1.78548321
   5.34541929  3.56461924  5.35651505
   1.79260266  5.34783328  7.13245360
   3.57100046  3.58558205  7.14199883
   3.54482745  5.34964421  1.78547004
   5.34939562  5.34782785  3.56145017
   5.34939535  5.34783731  0.00954791
 


--------------------------------------------------------------------------------------------------------


 k-point  1 :   0.0000 0.0000 0.0000  plane waves:    9795
 k-point  2 :   0.3333 0.0000 0.0000  plane waves:    9826
 k-point  3 :   0.0000 0.3333 0.0000  plane waves:    9826
 k-point  4 :   0.3333 0.3333 0.0000  plane waves:    9795
 k-point  5 :  -0.3333 0.3333 0.0000  plane waves:    9795
 k-point  6 :   0.0000 0.0000 0.3333  plane waves:    9826
 k-point  7 :   0.3333 0.0000 0.3333  plane waves:    9795
 k-point  8 :  -0.3333 0.0000 0.3333  plane waves:    9795
 k-point  9 :   0.0000 0.3333 0.3333  plane waves:    9795
 k-point 10 :   0.3333 0.3333 0.3333  plane waves:    9823
 k-point 11 :  -0.3333 0.3333 0.3333  plane waves:    9823
 k-point 12 :   0.0000-0.3333 0.3333  plane waves:    9795
 k-point 13 :   0.3333-0.3333 0.3333  plane waves:    9823
 k-point 14 :  -0.3333-0.3333 0.3333  plane waves:    9823

 maximum and minimum number of plane-waves per node :      1243     1206

 maximum number of plane-waves:      9826
 maximum index in each direction: 
   IXMAX=   13   IYMAX=   13   IZMAX=   13
   IXMIN=  -13   IYMIN=  -13   IZMIN=  -13


 real space projection operators:
  total allocation   :      26213.91 KBytes
  max/ min on nodes  :       3422.25       2969.44


 parallel 3D FFT for wavefunctions:
    minimum data exchange during FFTs selected (reduces bandwidth)
 parallel 3D FFT for charge:
    minimum data exchange during FFTs selected (reduces bandwidth)


 total amount of memory used by VASP MPI-rank0    92925. kBytes
=======================================================================

   base      :      30000. kBytes
   nonlr-proj:       7779. kBytes
   fftplans  :       2563. kBytes
   grid      :       6379. kBytes
   one-center:        124. kBytes
   wavefun   :      46080. kBytes
 
     INWAV:  cpu time    0.0000: real time    0.0001
 Broyden mixing: mesh for mixing (old mesh)
   NGX = 27   NGY = 27   NGZ = 27
  (NGX  =108   NGY  =108   NGZ  =108)
  gives a total of  19683 points

 initial charge density was supplied:
 charge density of overlapping atoms calculated
 number of electron     288.0000000 magnetization     128.0000000
 keeping initial charge density in first step


--------------------------------------------------------------------------------------------------------


 Maximum index for non-local projection operator          932
 Maximum index for augmentation-charges         1041 (set IRDMAX)


--------------------------------------------------------------------------------------------------------


 First call to EWALD:  gamma=   0.248
 Maximum number of real-space cells 3x 3x 3
 Maximum number of reciprocal cells 3x 3x 3

    FEWALD:  cpu time    0.0020: real time    0.0017


--------------------------------------- Iteration      1(   1)  ---------------------------------------


    POTLOK:  cpu time    0.0790: real time    0.0845
    SETDIJ:  cpu time    0.0190: real time    0.0182
     EDDAV:  cpu time   15.8656: real time   16.2725
 BZINTS: Fermi energy: 23.849909;288.000000 electrons
         Band energy:4820.412096;  BLOECHL correction: -0.063584
       DOS:  cpu time    0.0940: real time    0.0973
    --------------------------------------------
      LOOP:  cpu time   16.0576: real time   16.4725

 eigenvalue-minimisations  : 13290
 total energy-change (2. order) : 0.2669968E+04  (-0.1140238E+05)
 number of electron     288.0000000 magnetization     128.0000000
 augmentation part      288.0000000 magnetization     128.0000000

 Free energy of the ion-electron system (eV)
  ---------------------------------------------------
  alpha Z        PSCENC =      1737.85356999
  Ewald energy   TEWEN  =    -23952.58598529
  -Hartree energ DENC   =     -6127.89874837
  -exchange      EXHF   =         0.00000000
  -V(xc)+E(xc)   XCENC  =       631.15078651
  PAW double counting   =     24224.18874454   -25414.89041437
  entropy T*S    EENTRO =         0.00000000
  eigenvalues    EBANDS =      4820.41209585
  atomic energy  EATOM  =     26751.73760169
  Solvation  Ediel_sol  =         0.00000000
  ---------------------------------------------------
  free energy    TOTEN  =      2669.96765056 eV

  energy without entropy =     2669.96765056  energy(sigma->0) =     2669.96765056


--------------------------------------------------------------------------------------------------------




--------------------------------------- Iteration      1(   2)  ---------------------------------------


     EDDAV:  cpu time   15.8486: real time   16.3422
 BZINTS: Fermi energy: 12.219600;288.000000 electrons
         Band energy:2348.890629;  BLOECHL correction: -0.018923
       DOS:  cpu time    0.0930: real time    0.0941
    --------------------------------------------
      LOOP:  cpu time   15.9416: real time   16.4363

 eigenvalue-minimisations  : 13272
 total energy-change (2. order) :-0.2471521E+04  (-0.2255420E+04)
 number of electron     288.0000000 magnetization     128.0000000
 augmentation part      288.0000000 magnetization     128.0000000

 Free energy of the ion-electron system (eV)
  ---------------------------------------------------
  alpha Z        PSCENC =      1737.85356999
  Ewald energy   TEWEN  =    -23952.58598529
  -Hartree energ DENC   =     -6127.89874837
  -exchange      EXHF   =         0.00000000
  -V(xc)+E(xc)   XCENC  =       631.15078651
  PAW double counting   =     24224.18874454   -25414.89041437
  entropy T*S    EENTRO =         0.00000000
  eigenvalues    EBANDS =      2348.89062850
  atomic energy  EATOM  =     26751.73760169
  Solvation  Ediel_sol  =         0.00000000
  ---------------------------------------------------
  free energy    TOTEN  =       198.44618322 eV

  energy without entropy =      198.44618322  energy(sigma->0) =      198.44618322


--------------------------------------------------------------------------------------------------------




--------------------------------------- Iteration      1(   3)  ---------------------------------------


     EDDAV:  cpu time   15.9196: real time   16.4344
 BZINTS: Fermi energy: 10.176816;288.000000 electrons
         Band energy:1951.301854;  BLOECHL correction: -0.083588
       DOS:  cpu time    0.0850: real time    0.0871
    --------------------------------------------
      LOOP:  cpu time   16.0046: real time   16.5215

 eigenvalue-minimisations  : 13272
 total energy-change (2. order) :-0.3975888E+03  (-0.3167711E+03)
 number of electron     288.0000000 magnetization     128.0000000
 augmentation part      288.0000000 magnetization     128.0000000

 Free energy of the ion-electron system (eV)
  ---------------------------------------------------
  alpha Z        PSCENC =      1737.85356999
  Ewald energy   TEWEN  =    -23952.58598529
  -Hartree energ DENC   =     -6127.89874837
  -exchange      EXHF   =         0.00000000
  -V(xc)+E(xc)   XCENC  =       631.15078651
  PAW double counting   =     24224.18874454   -25414.89041437
  entropy T*S    EENTRO =         0.00000000
  eigenvalues    EBANDS =      1951.30185424
  atomic energy  EATOM  =     26751.73760169
  Solvation  Ediel_sol  =         0.00000000
  ---------------------------------------------------
  free energy    TOTEN  =      -199.14259104 eV

  energy without entropy =     -199.14259104  energy(sigma->0) =     -199.14259104


--------------------------------------------------------------------------------------------------------




--------------------------------------- Iteration      1(   4)  ---------------------------------------


     EDDAV:  cpu time   16.8274: real time   17.2810
 BZINTS: Fermi energy: 10.089274;288.000000 electrons
         Band energy:1925.554403;  BLOECHL correction: -0.085421
       DOS:  cpu time    0.0890: real time    0.0902
    --------------------------------------------
      LOOP:  cpu time   16.9164: real time   17.3712

 eigenvalue-minimisations  : 14247
 total energy-change (2. order) :-0.2574745E+02  (-0.2486954E+02)
 number of electron     288.0000000 magnetization     128.0000000
 augmentation part      288.0000000 magnetization     128.0000000

 Free energy of the ion-electron system (eV)
  ---------------------------------------------------
  alpha Z        PSCENC =      1737.85356999
  Ewald energy   TEWEN  =    -23952.58598529
  -Hartree energ DENC   =     -6127.89874837
  -exchange      EXHF   =         0.00000000
  -V(xc)+E(xc)   XCENC  =       631.15078651
  PAW double counting   =     24224.18874454   -25414.89041437
  entropy T*S    EENTRO =         0.00000000
  eigenvalues    EBANDS =      1925.55440306
  atomic energy  EATOM  =     26751.73760169
  Solvation  Ediel_sol  =         0.00000000
  ---------------------------------------------------
  free energy    TOTEN  =      -224.89004222 eV

  energy without entropy =     -224.89004222  energy(sigma->0) =     -224.89004222


--------------------------------------------------------------------------------------------------------




--------------------------------------- Iteration      1(   5)  ---------------------------------------


     EDDAV:  cpu time   17.7833: real time   18.2226
 BZINTS: Fermi energy: 10.088301;288.000000 electrons
         Band energy:1925.229158;  BLOECHL correction: -0.085414
       DOS:  cpu time    0.0890: real time    0.0901
    CHARGE:  cpu time    0.4279: real time    0.4332
    MIXING:  cpu time    0.0020: real time    0.0021
    --------------------------------------------
      LOOP:  cpu time   18.3022: real time   18.7480

 eigenvalue-minimisations  : 15267
 total energy-change (2. order) :-0.3252450E+00  (-0.3249304E+00)
 number of electron     287.9999882 magnetization      88.9249305
 augmentation part      145.9206936 magnetization      71.8721648

 Broyden mixing:
  rms(total) = 0.83434E+01    rms(broyden)= 0.83433E+01
  rms(prec ) = 0.10590E+02
  weight for this iteration     100.00

 Free energy of the ion-electron system (eV)
  ---------------------------------------------------
  alpha Z        PSCENC =      1737.85356999
  Ewald energy   TEWEN  =    -23952.58598529
  -Hartree energ DENC   =     -6127.89874837
  -exchange      EXHF   =         0.00000000
  -V(xc)+E(xc)   XCENC  =       631.15078651
  PAW double counting   =     24224.18874454   -25414.89041437
  entropy T*S    EENTRO =         0.00000000
  eigenvalues    EBANDS =      1925.22915809
  atomic energy  EATOM  =     26751.73760169
  Solvation  Ediel_sol  =         0.00000000
  ---------------------------------------------------
  free energy    TOTEN  =      -225.21528720 eV

  energy without entropy =     -225.21528720  energy(sigma->0) =     -225.21528720


--------------------------------------------------------------------------------------------------------




--------------------------------------- Iteration      1(   6)  ---------------------------------------


    POTLOK:  cpu time    0.0750: real time    0.0771
    SETDIJ:  cpu time    0.0180: real time    0.0180
    EDDIAG:  cpu time    2.0907: real time    2.1258
  RMM-DIIS:  cpu time   11.4533: real time   11.7275
    ORTHCH:  cpu time    0.3999: real time    0.4059
 BZINTS: Fermi energy:  8.418378;288.000000 electrons
         Band energy: 946.389041;  BLOECHL correction: -0.016307
       DOS:  cpu time    0.0920: real time    0.0931
    CHARGE:  cpu time    0.4039: real time    0.4084
    MIXING:  cpu time    0.0020: real time    0.0019
    --------------------------------------------
      LOOP:  cpu time   14.5348: real time   14.8579

 eigenvalue-minimisations  : 15076
 total energy-change (2. order) :-0.1126508E+03  (-0.3835126E+02)
 number of electron     287.9999791 magnetization      80.3521628
 augmentation part      169.6919320 magnetization      64.1260102

 Broyden mixing:
  rms(total) = 0.12449E+02    rms(broyden)= 0.12449E+02
  rms(prec ) = 0.18911E+02
  weight for this iteration     100.00

 eigenvalues of (default mixing * dielectric matrix)
  average eigenvalue GAMMA=   0.2808
  0.2808

 Free energy of the ion-electron system (eV)
  ---------------------------------------------------
  alpha Z        PSCENC =      1737.85356999
  Ewald energy   TEWEN  =    -23952.58598529
  -Hartree energ DENC   =     -5316.13790794
  -exchange      EXHF   =         0.00000000
  -V(xc)+E(xc)   XCENC  =       558.28791384
  PAW double counting   =     25973.72159382   -27037.13192689
  entropy T*S    EENTRO =         0.00000000
  eigenvalues    EBANDS =       946.38904056
  atomic energy  EATOM  =     26751.73760169
  Solvation  Ediel_sol  =         0.00000000
  ---------------------------------------------------
  free energy    TOTEN  =      -337.86610023 eV

  energy without entropy =     -337.86610023  energy(sigma->0) =     -337.86610023


--------------------------------------------------------------------------------------------------------




--------------------------------------- Iteration      1(   7)  ---------------------------------------


    POTLOK:  cpu time    0.0760: real time    0.0776
    SETDIJ:  cpu time    0.0180: real time    0.0180
    EDDIAG:  cpu time    2.0537: real time    2.0828
  RMM-DIIS:  cpu time   10.8843: real time   11.0755
    ORTHCH:  cpu time    0.4009: real time    0.4054
 BZINTS: Fermi energy:  6.896144;288.000000 electrons
         Band energy:1287.506963;  BLOECHL correction: -0.083604
       DOS:  cpu time    0.0870: real time    0.0878
    CHARGE:  cpu time    0.4049: real time    0.4069
    MIXING:  cpu time    0.0020: real time    0.0019
    --------------------------------------------
      LOOP:  cpu time   13.9269: real time   14.1560

 eigenvalue-minimisations  : 14309
 total energy-change (2. order) : 0.1119361E+03  (-0.1020857E+02)
 number of electron     287.9999843 magnetization      70.5941849
 augmentation part      171.8885205 magnetization      56.5790699

 Broyden mixing:
  rms(total) = 0.59390E+01    rms(broyden)= 0.59389E+01
  rms(prec ) = 0.94760E+01
  weight for this iteration     100.00

 eigenvalues of (default mixing * dielectric matrix)
  average eigenvalue GAMMA=   0.4776
  0.6602  0.2950

 Free energy of the ion-electron system (eV)
  ---------------------------------------------------
  alpha Z        PSCENC =      1737.85356999
  Ewald energy   TEWEN  =    -23952.58598529
  -Hartree energ DENC   =     -5474.47471021
  -exchange      EXHF   =         0.00000000
  -V(xc)+E(xc)   XCENC  =       560.81377200
  PAW double counting   =     26688.98939252   -27825.77058737
  entropy T*S    EENTRO =         0.00000000
  eigenvalues    EBANDS =      1287.50696270
  atomic energy  EATOM  =     26751.73760169
  Solvation  Ediel_sol  =         0.00000000
  ---------------------------------------------------
  free energy    TOTEN  =      -225.92998398 eV

  energy without entropy =     -225.92998398  energy(sigma->0) =     -225.92998398


--------------------------------------------------------------------------------------------------------




--------------------------------------- Iteration      1(   8)  ---------------------------------------


    POTLOK:  cpu time    0.0770: real time    0.0777
    SETDIJ:  cpu time    0.0180: real time    0.0181
    EDDIAG:  cpu time    2.0557: real time    2.0769
  RMM-DIIS:  cpu time   10.7384: real time   10.7732
    ORTHCH:  cpu time    0.3889: real time    0.3891
 BZINTS: Fermi energy:  7.657729;288.000000 electrons
         Band energy:1372.123841;  BLOECHL correction: -0.025807
       DOS:  cpu time    0.0990: real time    0.0987
    CHARGE:  cpu time    0.4509: real time    0.4514
    MIXING:  cpu time    0.0020: real time    0.0019
    --------------------------------------------
      LOOP:  cpu time   13.8299: real time   13.8869

 eigenvalue-minimisations  : 14280
 total energy-change (2. order) :-0.5819972E+02  (-0.5467792E+01)
 number of electron     287.9999831 magnetization      57.1369352
 augmentation part      167.5619077 magnetization      49.7296166

 Broyden mixing:
  rms(total) = 0.12286E+02    rms(broyden)= 0.12286E+02
  rms(prec ) = 0.20894E+02
  weight for this iteration     100.00

 eigenvalues of (default mixing * dielectric matrix)
  average eigenvalue GAMMA=   0.4634
  0.9720  0.2983  0.1198

 Free energy of the ion-electron system (eV)
  ---------------------------------------------------
  alpha Z        PSCENC =      1737.85356999
  Ewald energy   TEWEN  =    -23952.58598529
  -Hartree energ DENC   =     -5570.58757518
  -exchange      EXHF   =         0.00000000
  -V(xc)+E(xc)   XCENC  =       564.27421218
  PAW double counting   =     27344.85261702   -28531.79798323
  entropy T*S    EENTRO =         0.00000000
  eigenvalues    EBANDS =      1372.12384136
  atomic energy  EATOM  =     26751.73760169
  Solvation  Ediel_sol  =         0.00000000
  ---------------------------------------------------
  free energy    TOTEN  =      -284.12970146 eV

  energy without entropy =     -284.12970146  energy(sigma->0) =     -284.12970146


--------------------------------------------------------------------------------------------------------




--------------------------------------- Iteration      1(   9)  ---------------------------------------


    POTLOK:  cpu time    0.0760: real time    0.0774
    SETDIJ:  cpu time    0.0190: real time    0.0182
    EDDIAG:  cpu time    2.0467: real time    2.0490
  RMM-DIIS:  cpu time   10.5604: real time   10.6227
    ORTHCH:  cpu time    0.3949: real time    0.3967
 BZINTS: Fermi energy:  7.663087;288.000000 electrons
         Band energy:1523.913344;  BLOECHL correction: -0.028045
       DOS:  cpu time    0.0890: real time    0.0903
    CHARGE:  cpu time    0.4109: real time    0.4111
    MIXING:  cpu time    0.0030: real time    0.0020
    --------------------------------------------
      LOOP:  cpu time   13.5999: real time   13.6675

 eigenvalue-minimisations  : 14016
 total energy-change (2. order) : 0.6044795E+02  (-0.2092916E+01)
 number of electron     287.9999854 magnetization      52.8826393
 augmentation part      163.1479020 magnetization      41.9734097

 Broyden mixing:
  rms(total) = 0.47053E+01    rms(broyden)= 0.47050E+01
  rms(prec ) = 0.79024E+01
  weight for this iteration     100.00

 eigenvalues of (default mixing * dielectric matrix)
  average eigenvalue GAMMA=   0.4625
  1.0679  0.3265  0.3265  0.1293

 Free energy of the ion-electron system (eV)
  ---------------------------------------------------
  alpha Z        PSCENC =      1737.85356999
  Ewald energy   TEWEN  =    -23952.58598529
  -Hartree energ DENC   =     -5625.28867708
  -exchange      EXHF   =         0.00000000
  -V(xc)+E(xc)   XCENC  =       558.56825496
  PAW double counting   =     27955.16684897   -29173.04670824
  entropy T*S    EENTRO =         0.00000000
  eigenvalues    EBANDS =      1523.91334408
  atomic energy  EATOM  =     26751.73760169
  Solvation  Ediel_sol  =         0.00000000
  ---------------------------------------------------
  free energy    TOTEN  =      -223.68175092 eV

  energy without entropy =     -223.68175092  energy(sigma->0) =     -223.68175092


--------------------------------------------------------------------------------------------------------




--------------------------------------- Iteration      1(  10)  ---------------------------------------


    POTLOK:  cpu time    0.0770: real time    0.0775
    SETDIJ:  cpu time    0.0180: real time    0.0183
    EDDIAG:  cpu time    2.0837: real time    2.0902
  RMM-DIIS:  cpu time   10.8244: real time   10.8565
    ORTHCH:  cpu time    0.3889: real time    0.3897
 BZINTS: Fermi energy:  7.725246;288.000000 electrons
         Band energy:1522.541780;  BLOECHL correction: -0.023436
       DOS:  cpu time    0.0890: real time    0.0896
    CHARGE:  cpu time    0.4039: real time    0.4039
    MIXING:  cpu time    0.0030: real time    0.0021
    --------------------------------------------
      LOOP:  cpu time   13.8879: real time   13.9279

 eigenvalue-minimisations  : 14347
 total energy-change (2. order) : 0.1744810E+01  (-0.1053856E+01)
 number of electron     287.9999836 magnetization      45.3654867
 augmentation part      162.7194342 magnetization      35.6951436

 Broyden mixing:
  rms(total) = 0.44668E+01    rms(broyden)= 0.44666E+01
  rms(prec ) = 0.74077E+01
  weight for this iteration     100.00

 eigenvalues of (default mixing * dielectric matrix)
  average eigenvalue GAMMA=   0.4347
  1.1470  0.3828  0.3828  0.1535  0.1075

 Free energy of the ion-electron system (eV)
  ---------------------------------------------------
  alpha Z        PSCENC =      1737.85356999
  Ewald energy   TEWEN  =    -23952.58598529
  -Hartree energ DENC   =     -5616.43616362
  -exchange      EXHF   =         0.00000000
  -V(xc)+E(xc)   XCENC  =       557.19489015
  PAW double counting   =     28160.63054941   -29382.87318318
  entropy T*S    EENTRO =         0.00000000
  eigenvalues    EBANDS =      1522.54177986
  atomic energy  EATOM  =     26751.73760169
  Solvation  Ediel_sol  =         0.00000000
  ---------------------------------------------------
  free energy    TOTEN  =      -221.93694099 eV

  energy without entropy =     -221.93694099  energy(sigma->0) =     -221.93694099


--------------------------------------------------------------------------------------------------------




--------------------------------------- Iteration      1(  11)  ---------------------------------------


    POTLOK:  cpu time    0.0780: real time    0.0790
    SETDIJ:  cpu time    0.0190: real time    0.0180
    EDDIAG:  cpu time    2.0767: real time    2.0810
  RMM-DIIS:  cpu time   10.8354: real time   10.9061
    ORTHCH:  cpu time    0.3829: real time    0.3913
 BZINTS: Fermi energy:  7.485853;288.000000 electrons
         Band energy:1495.714807;  BLOECHL correction: -0.043892
       DOS:  cpu time    0.0860: real time    0.0862
    CHARGE:  cpu time    0.4029: real time    0.4062
    MIXING:  cpu time    0.0020: real time    0.0022
    --------------------------------------------
      LOOP:  cpu time   13.8829: real time   13.9700

 eigenvalue-minimisations  : 14293
 total energy-change (2. order) : 0.2120836E+01  (-0.4546794E+00)
 number of electron     287.9999851 magnetization      45.0085921
 augmentation part      163.5526706 magnetization      35.9355613

 Broyden mixing:
  rms(total) = 0.30641E+01    rms(broyden)= 0.30639E+01
  rms(prec ) = 0.50402E+01
  weight for this iteration     100.00

 eigenvalues of (default mixing * dielectric matrix)
  average eigenvalue GAMMA=   0.4220
  1.1373  0.4461  0.4461  0.2609  0.1209  0.1209

 Free energy of the ion-electron system (eV)
  ---------------------------------------------------
  alpha Z        PSCENC =      1737.85356999
  Ewald energy   TEWEN  =    -23952.58598529
  -Hartree energ DENC   =     -5581.09394135
  -exchange      EXHF   =         0.00000000
  -V(xc)+E(xc)   XCENC  =       554.04768221
  PAW double counting   =     28527.62864867   -29753.11848783
  entropy T*S    EENTRO =         0.00000000
  eigenvalues    EBANDS =      1495.71480677
  atomic energy  EATOM  =     26751.73760169
  Solvation  Ediel_sol  =         0.00000000
  ---------------------------------------------------
  free energy    TOTEN  =      -219.81610514 eV

  energy without entropy =     -219.81610514  energy(sigma->0) =     -219.81610514


--------------------------------------------------------------------------------------------------------




--------------------------------------- Iteration      1(  12)  ---------------------------------------


    POTLOK:  cpu time    0.0760: real time    0.0768
    SETDIJ:  cpu time    0.0200: real time    0.0195
    EDDIAG:  cpu time    2.0637: real time    2.0876
  RMM-DIIS:  cpu time   10.9323: real time   11.0370
    ORTHCH:  cpu time    0.3879: real time    0.3886
 BZINTS: Fermi energy:  7.425566;288.000000 electrons
         Band energy:1482.735695;  BLOECHL correction: -0.022988
       DOS:  cpu time    0.0910: real time    0.0917
    CHARGE:  cpu time    0.4059: real time    0.4058
    MIXING:  cpu time    0.0030: real time    0.0023
    --------------------------------------------
      LOOP:  cpu time   13.9799: real time   14.1093

 eigenvalue-minimisations  : 14478
 total energy-change (2. order) : 0.1660796E+01  (-0.2712580E+00)
 number of electron     287.9999851 magnetization      45.7156731
 augmentation part      164.1023160 magnetization      36.7477324

 Broyden mixing:
  rms(total) = 0.19624E+01    rms(broyden)= 0.19623E+01
  rms(prec ) = 0.28361E+01
  weight for this iteration     100.00

 eigenvalues of (default mixing * dielectric matrix)
  average eigenvalue GAMMA=   0.4020
  1.1107  0.5190  0.5190  0.2934  0.1457  0.1130  0.1130

 Free energy of the ion-electron system (eV)
  ---------------------------------------------------
  alpha Z        PSCENC =      1737.85356999
  Ewald energy   TEWEN  =    -23952.58598529
  -Hartree energ DENC   =     -5566.82838330
  -exchange      EXHF   =         0.00000000
  -V(xc)+E(xc)   XCENC  =       554.31801064
  PAW double counting   =     28599.42787007   -29824.81368755
  entropy T*S    EENTRO =         0.00000000
  eigenvalues    EBANDS =      1482.73569480
  atomic energy  EATOM  =     26751.73760169
  Solvation  Ediel_sol  =         0.00000000
  ---------------------------------------------------
  free energy    TOTEN  =      -218.15530895 eV

  energy without entropy =     -218.15530895  energy(sigma->0) =     -218.15530895


--------------------------------------------------------------------------------------------------------




--------------------------------------- Iteration      1(  13)  ---------------------------------------


    POTLOK:  cpu time    0.0760: real time    0.0772
    SETDIJ:  cpu time    0.0190: real time    0.0181
    EDDIAG:  cpu time    2.0517: real time    2.0560
  RMM-DIIS:  cpu time   11.0313: real time   11.0556
    ORTHCH:  cpu time    0.3869: real time    0.3880
 BZINTS: Fermi energy:  7.390637;288.000000 electrons
         Band energy:1468.461410;  BLOECHL correction: -0.036520
       DOS:  cpu time    0.0890: real time    0.0894
    CHARGE:  cpu time    0.4069: real time    0.4063
    MIXING:  cpu time    0.0030: real time    0.0024
    --------------------------------------------
      LOOP:  cpu time   14.0639: real time   14.0931

 eigenvalue-minimisations  : 14531
 total energy-change (2. order) :-0.1096358E+00  (-0.9227324E-01)
 number of electron     287.9999842 magnetization      46.0814440
 augmentation part      164.8356916 magnetization      37.3306693

 Broyden mixing:
  rms(total) = 0.11896E+01    rms(broyden)= 0.11895E+01
  rms(prec ) = 0.16317E+01
  weight for this iteration     100.00

 eigenvalues of (default mixing * dielectric matrix)
  average eigenvalue GAMMA=   0.4106
  1.0610  0.5482  0.5482  0.4884  0.2731  0.1320  0.1258  0.1081

 Free energy of the ion-electron system (eV)
  ---------------------------------------------------
  alpha Z        PSCENC =      1737.85356999
  Ewald energy   TEWEN  =    -23952.58598529
  -Hartree energ DENC   =     -5552.99999679
  -exchange      EXHF   =         0.00000000
  -V(xc)+E(xc)   XCENC  =       555.86124635
  PAW double counting   =     28693.55376863   -29920.14655973
  entropy T*S    EENTRO =         0.00000000
  eigenvalues    EBANDS =      1468.46141042
  atomic energy  EATOM  =     26751.73760169
  Solvation  Ediel_sol  =         0.00000000
  ---------------------------------------------------
  free energy    TOTEN  =      -218.26494472 eV

  energy without entropy =     -218.26494472  energy(sigma->0) =     -218.26494472


--------------------------------------------------------------------------------------------------------




--------------------------------------- Iteration      1(  14)  ---------------------------------------


    POTLOK:  cpu time    0.0760: real time    0.0769
    SETDIJ:  cpu time    0.0190: real time    0.0183
    EDDIAG:  cpu time    2.0467: real time    2.0490
  RMM-DIIS:  cpu time   11.1173: real time   11.1881
    ORTHCH:  cpu time    0.3839: real time    0.3873
 BZINTS: Fermi energy:  7.391744;288.000000 electrons
         Band energy:1469.272016;  BLOECHL correction: -0.026779
       DOS:  cpu time    0.0880: real time    0.0889
    CHARGE:  cpu time    0.4089: real time    0.4097
    MIXING:  cpu time    0.0030: real time    0.0025
    --------------------------------------------
      LOOP:  cpu time   14.1429: real time   14.2206

 eigenvalue-minimisations  : 14747
 total energy-change (2. order) :-0.1343885E+00  (-0.2396809E-01)
 number of electron     287.9999843 magnetization      46.8195869
 augmentation part      164.7701258 magnetization      38.2620903

 Broyden mixing:
  rms(total) = 0.10118E+01    rms(broyden)= 0.10117E+01
  rms(prec ) = 0.12981E+01
  weight for this iteration     100.00

 eigenvalues of (default mixing * dielectric matrix)
  average eigenvalue GAMMA=   0.4299
  0.9789  0.7382  0.7382  0.6182  0.2943  0.1391  0.1391  0.1117  0.1117

 Free energy of the ion-electron system (eV)
  ---------------------------------------------------
  alpha Z        PSCENC =      1737.85356999
  Ewald energy   TEWEN  =    -23952.58598529
  -Hartree energ DENC   =     -5553.93223525
  -exchange      EXHF   =         0.00000000
  -V(xc)+E(xc)   XCENC  =       556.71745426
  PAW double counting   =     28737.40328796   -29964.86504262
  entropy T*S    EENTRO =         0.00000000
  eigenvalues    EBANDS =      1469.27201605
  atomic energy  EATOM  =     26751.73760169
  Solvation  Ediel_sol  =         0.00000000
  ---------------------------------------------------
  free energy    TOTEN  =      -218.39933322 eV

  energy without entropy =     -218.39933322  energy(sigma->0) =     -218.39933322


--------------------------------------------------------------------------------------------------------




--------------------------------------- Iteration      1(  15)  ---------------------------------------


    POTLOK:  cpu time    0.0770: real time    0.0774
    SETDIJ:  cpu time    0.0180: real time    0.0181
    EDDIAG:  cpu time    2.0497: real time    2.0522
  RMM-DIIS:  cpu time   11.0063: real time   11.0363
    ORTHCH:  cpu time    0.3869: real time    0.3874
 BZINTS: Fermi energy:  7.425364;288.000000 electrons
         Band energy:1471.876029;  BLOECHL correction: -0.055729
       DOS:  cpu time    0.0880: real time    0.0878
    CHARGE:  cpu time    0.4109: real time    0.4114
    MIXING:  cpu time    0.0030: real time    0.0027
    --------------------------------------------
      LOOP:  cpu time   14.0399: real time   14.0733

 eigenvalue-minimisations  : 14501
 total energy-change (2. order) :-0.4163301E+00  (-0.2241623E-01)
 number of electron     287.9999847 magnetization      47.5290935
 augmentation part      164.5711126 magnetization      39.4909077

 Broyden mixing:
  rms(total) = 0.89013E+00    rms(broyden)= 0.89012E+00
  rms(prec ) = 0.12272E+01
  weight for this iteration     100.00

 eigenvalues of (default mixing * dielectric matrix)
  average eigenvalue GAMMA=   0.4672
  1.0459  1.0061  1.0061  0.4422  0.4422  0.2407  0.1450  0.1179  0.1179  0.1083

 Free energy of the ion-electron system (eV)
  ---------------------------------------------------
  alpha Z        PSCENC =      1737.85356999
  Ewald energy   TEWEN  =    -23952.58598529
  -Hartree energ DENC   =     -5556.34218033
  -exchange      EXHF   =         0.00000000
  -V(xc)+E(xc)   XCENC  =       558.43580697
  PAW double counting   =     28830.28020810   -30060.07071353
  entropy T*S    EENTRO =         0.00000000
  eigenvalues    EBANDS =      1471.87602909
  atomic energy  EATOM  =     26751.73760169
  Solvation  Ediel_sol  =         0.00000000
  ---------------------------------------------------
  free energy    TOTEN  =      -218.81566331 eV

  energy without entropy =     -218.81566331  energy(sigma->0) =     -218.81566331


--------------------------------------------------------------------------------------------------------




--------------------------------------- Iteration      1(  16)  ---------------------------------------


    POTLOK:  cpu time    0.0760: real time    0.0776
    SETDIJ:  cpu time    0.0190: real time    0.0181
    EDDIAG:  cpu time    2.0567: real time    2.0601
  RMM-DIIS:  cpu time   10.8454: real time   10.8892
    ORTHCH:  cpu time    0.4049: real time    0.4052
 BZINTS: Fermi energy:  7.430715;288.000000 electrons
         Band energy:1468.987517;  BLOECHL correction: -0.115538
       DOS:  cpu time    0.0910: real time    0.0915
    CHARGE:  cpu time    0.4079: real time    0.4073
    MIXING:  cpu time    0.0030: real time    0.0029
    --------------------------------------------
      LOOP:  cpu time   13.9039: real time   13.9518

 eigenvalue-minimisations  : 14384
 total energy-change (2. order) :-0.5259463E+00  (-0.3464647E-01)
 number of electron     287.9999846 magnetization      48.6951019
 augmentation part      164.6958946 magnetization      40.8045732

 Broyden mixing:
  rms(total) = 0.99251E+00    rms(broyden)= 0.99249E+00
  rms(prec ) = 0.14475E+01
  weight for this iteration     100.00

 eigenvalues of (default mixing * dielectric matrix)
  average eigenvalue GAMMA=   0.4973
  1.2152  1.2152  1.1622  0.4909  0.4909  0.2671  0.1547  0.1367  0.1156  0.1156
  0.1062

 Free energy of the ion-electron system (eV)
  ---------------------------------------------------
  alpha Z        PSCENC =      1737.85356999
  Ewald energy   TEWEN  =    -23952.58598529
  -Hartree energ DENC   =     -5552.65865682
  -exchange      EXHF   =         0.00000000
  -V(xc)+E(xc)   XCENC  =       560.04786354
  PAW double counting   =     28962.44896724   -30195.17248707
  entropy T*S    EENTRO =         0.00000000
  eigenvalues    EBANDS =      1468.98751716
  atomic energy  EATOM  =     26751.73760169
  Solvation  Ediel_sol  =         0.00000000
  ---------------------------------------------------
  free energy    TOTEN  =      -219.34160956 eV

  energy without entropy =     -219.34160956  energy(sigma->0) =     -219.34160956


--------------------------------------------------------------------------------------------------------




--------------------------------------- Iteration      1(  17)  ---------------------------------------


    POTLOK:  cpu time    0.0760: real time    0.0774
    SETDIJ:  cpu time    0.0180: real time    0.0180
    EDDIAG:  cpu time    2.0537: real time    2.0557
  RMM-DIIS:  cpu time   10.8034: real time   10.8367
    ORTHCH:  cpu time    0.4039: real time    0.4054
 BZINTS: Fermi energy:  7.424032;288.000000 electrons
         Band energy:1456.632334;  BLOECHL correction: -0.184524
       DOS:  cpu time    0.0900: real time    0.0899
    CHARGE:  cpu time    0.4099: real time    0.4095
    MIXING:  cpu time    0.0030: real time    0.0029
    --------------------------------------------
      LOOP:  cpu time   13.8579: real time   13.8955

 eigenvalue-minimisations  : 14337
 total energy-change (2. order) :-0.1271291E+00  (-0.3780303E-01)
 number of electron     287.9999841 magnetization      49.3174862
 augmentation part      165.2533125 magnetization      41.3690233

 Broyden mixing:
  rms(total) = 0.61404E+00    rms(broyden)= 0.61402E+00
  rms(prec ) = 0.94966E+00
  weight for this iteration     100.00

 eigenvalues of (default mixing * dielectric matrix)
  average eigenvalue GAMMA=   0.5204
  1.3039  1.3039  1.2776  0.5294  0.5294  0.4251  0.2549  0.1449  0.1370  0.1171
  0.1139  0.1079

 Free energy of the ion-electron system (eV)
  ---------------------------------------------------
  alpha Z        PSCENC =      1737.85356999
  Ewald energy   TEWEN  =    -23952.58598529
  -Hartree energ DENC   =     -5538.61064055
  -exchange      EXHF   =         0.00000000
  -V(xc)+E(xc)   XCENC  =       562.14912366
  PAW double counting   =     29195.38655809   -30432.03130021
  entropy T*S    EENTRO =         0.00000000
  eigenvalues    EBANDS =      1456.63233393
  atomic energy  EATOM  =     26751.73760169
  Solvation  Ediel_sol  =         0.00000000
  ---------------------------------------------------
  free energy    TOTEN  =      -219.46873870 eV

  energy without entropy =     -219.46873870  energy(sigma->0) =     -219.46873870


--------------------------------------------------------------------------------------------------------




--------------------------------------- Iteration      1(  18)  ---------------------------------------


    POTLOK:  cpu time    0.0760: real time    0.0771
    SETDIJ:  cpu time    0.0190: real time    0.0181
    EDDIAG:  cpu time    2.0507: real time    2.0542
  RMM-DIIS:  cpu time   11.0993: real time   11.1651
    ORTHCH:  cpu time    0.4049: real time    0.4052
 BZINTS: Fermi energy:  7.429426;288.000000 electrons
         Band energy:1456.566252;  BLOECHL correction: -0.200740
       DOS:  cpu time    0.0840: real time    0.0844
    CHARGE:  cpu time    0.4069: real time    0.4068
    MIXING:  cpu time    0.0030: real time    0.0031
    --------------------------------------------
      LOOP:  cpu time   14.1438: real time   14.2141

 eigenvalue-minimisations  : 14738
 total energy-change (2. order) :-0.1229885E+00  (-0.1206614E-01)
 number of electron     287.9999841 magnetization      50.5025776
 augmentation part      165.2408565 magnetization      42.5316192

 Broyden mixing:
  rms(total) = 0.65287E+00    rms(broyden)= 0.65286E+00
  rms(prec ) = 0.10990E+01
  weight for this iteration     100.00

 eigenvalues of (default mixing * dielectric matrix)
  average eigenvalue GAMMA=   0.5210
  1.4141  1.3351  1.3351  0.5926  0.5352  0.5352  0.2590  0.1555  0.1386  0.1336
  0.1160  0.1160  0.1073

 Free energy of the ion-electron system (eV)
  ---------------------------------------------------
  alpha Z        PSCENC =      1737.85356999
  Ewald energy   TEWEN  =    -23952.58598529
  -Hartree energ DENC   =     -5537.60356339
  -exchange      EXHF   =         0.00000000
  -V(xc)+E(xc)   XCENC  =       562.89207974
  PAW double counting   =     29281.40870998   -30519.86039201
  entropy T*S    EENTRO =         0.00000000
  eigenvalues    EBANDS =      1456.56625208
  atomic energy  EATOM  =     26751.73760169
  Solvation  Ediel_sol  =         0.00000000
  ---------------------------------------------------
  free energy    TOTEN  =      -219.59172721 eV

  energy without entropy =     -219.59172721  energy(sigma->0) =     -219.59172721


--------------------------------------------------------------------------------------------------------




--------------------------------------- Iteration      1(  19)  ---------------------------------------


    POTLOK:  cpu time    0.0760: real time    0.0768
    SETDIJ:  cpu time    0.0190: real time    0.0180
    EDDIAG:  cpu time    2.0417: real time    2.0445
  RMM-DIIS:  cpu time   11.2413: real time   11.7709
    ORTHCH:  cpu time    0.3879: real time    0.3885
 BZINTS: Fermi energy:  7.447106;288.000000 electrons
         Band energy:1460.041749;  BLOECHL correction: -0.205512
       DOS:  cpu time    0.0810: real time    0.0812
    CHARGE:  cpu time    0.4039: real time    0.4045
    MIXING:  cpu time    0.0040: real time    0.0033
    --------------------------------------------
      LOOP:  cpu time   14.2548: real time   14.7877

 eigenvalue-minimisations  : 14563
 total energy-change (2. order) : 0.1020021E+00  (-0.8064937E-02)
 number of electron     287.9999842 magnetization      50.8890290
 augmentation part      165.0553040 magnetization      42.9017420

 Broyden mixing:
  rms(total) = 0.30312E+00    rms(broyden)= 0.30310E+00
  rms(prec ) = 0.47477E+00
  weight for this iteration     100.00

 eigenvalues of (default mixing * dielectric matrix)
  average eigenvalue GAMMA=   0.5524
  1.4578  1.4578  1.4103  0.7044  0.7044  0.4918  0.4918  0.2589  0.1494  0.1071
  0.1151  0.1151  0.1394  0.1307

 Free energy of the ion-electron system (eV)
  ---------------------------------------------------
  alpha Z        PSCENC =      1737.85356999
  Ewald energy   TEWEN  =    -23952.58598529
  -Hartree energ DENC   =     -5539.11081924
  -exchange      EXHF   =         0.00000000
  -V(xc)+E(xc)   XCENC  =       564.25230389
  PAW double counting   =     29423.78486672   -30665.46301146
  entropy T*S    EENTRO =         0.00000000
  eigenvalues    EBANDS =      1460.04174863
  atomic energy  EATOM  =     26751.73760169
  Solvation  Ediel_sol  =         0.00000000
  ---------------------------------------------------
  free energy    TOTEN  =      -219.48972508 eV

  energy without entropy =     -219.48972508  energy(sigma->0) =     -219.48972508


--------------------------------------------------------------------------------------------------------




--------------------------------------- Iteration      1(  20)  ---------------------------------------


    POTLOK:  cpu time    0.0760: real time    0.0773
    SETDIJ:  cpu time    0.0190: real time    0.0179
    EDDIAG:  cpu time    2.0487: real time    2.0505
  RMM-DIIS:  cpu time   11.1283: real time   11.1664
    ORTHCH:  cpu time    0.3859: real time    0.3869
 BZINTS: Fermi energy:  7.449129;288.000000 electrons
         Band energy:1459.310531;  BLOECHL correction: -0.205965
       DOS:  cpu time    0.0870: real time    0.0875
    CHARGE:  cpu time    0.4069: real time    0.4069
    MIXING:  cpu time    0.0030: real time    0.0039
    --------------------------------------------
      LOOP:  cpu time   14.1548: real time   14.1974

 eigenvalue-minimisations  : 14721
 total energy-change (2. order) :-0.4095427E-01  (-0.6870240E-02)
 number of electron     287.9999843 magnetization      51.1770072
 augmentation part      165.0516366 magnetization      43.1775016

 Broyden mixing:
  rms(total) = 0.39924E+00    rms(broyden)= 0.39923E+00
  rms(prec ) = 0.62553E+00
  weight for this iteration     100.00

 eigenvalues of (default mixing * dielectric matrix)
  average eigenvalue GAMMA=   0.5584
  1.5892  1.5892  1.4412  0.7920  0.7920  0.4966  0.4966  0.2591  0.1685  0.1434
  0.1434  0.1264  0.1072  0.1159  0.1159

 Free energy of the ion-electron system (eV)
  ---------------------------------------------------
  alpha Z        PSCENC =      1737.85356999
  Ewald energy   TEWEN  =    -23952.58598529
  -Hartree energ DENC   =     -5537.89265110
  -exchange      EXHF   =         0.00000000
  -V(xc)+E(xc)   XCENC  =       564.47455518
  PAW double counting   =     29478.35506392   -30720.78336446
  entropy T*S    EENTRO =         0.00000000
  eigenvalues    EBANDS =      1459.31053073
  atomic energy  EATOM  =     26751.73760169
  Solvation  Ediel_sol  =         0.00000000
  ---------------------------------------------------
  free energy    TOTEN  =      -219.53067934 eV

  energy without entropy =     -219.53067934  energy(sigma->0) =     -219.53067934


--------------------------------------------------------------------------------------------------------




--------------------------------------- Iteration      1(  21)  ---------------------------------------


    POTLOK:  cpu time    0.1070: real time    0.1069
    SETDIJ:  cpu time    0.0190: real time    0.0180
    EDDIAG:  cpu time    2.0547: real time    2.0587
  RMM-DIIS:  cpu time   11.1213: real time   11.2489
    ORTHCH:  cpu time    0.3849: real time    0.3897
 BZINTS: Fermi energy:  7.442173;288.000000 electrons
         Band energy:1457.389622;  BLOECHL correction: -0.206864
       DOS:  cpu time    0.0860: real time    0.0870
    CHARGE:  cpu time    0.4039: real time    0.4067
    MIXING:  cpu time    0.0040: real time    0.0036
    --------------------------------------------
      LOOP:  cpu time   14.1808: real time   14.3193

 eigenvalue-minimisations  : 14683
 total energy-change (2. order) : 0.4993516E-01  (-0.4028747E-02)
 number of electron     287.9999843 magnetization      51.2282049
 augmentation part      165.1255805 magnetization      43.1766168

 Broyden mixing:
  rms(total) = 0.18772E+00    rms(broyden)= 0.18770E+00
  rms(prec ) = 0.28347E+00
  weight for this iteration     100.00

 eigenvalues of (default mixing * dielectric matrix)
  average eigenvalue GAMMA=   0.5691
  1.6791  1.5651  1.5651  0.8058  0.8058  0.5149  0.5149  0.4920  0.2587  0.1578
  0.1413  0.1400  0.1265  0.1071  0.1153  0.1153

 Free energy of the ion-electron system (eV)
  ---------------------------------------------------
  alpha Z        PSCENC =      1737.85356999
  Ewald energy   TEWEN  =    -23952.58598529
  -Hartree energ DENC   =     -5535.06666450
  -exchange      EXHF   =         0.00000000
  -V(xc)+E(xc)   XCENC  =       564.34240455
  PAW double counting   =     29544.49729397   -30787.64858626
  entropy T*S    EENTRO =         0.00000000
  eigenvalues    EBANDS =      1457.38962167
  atomic energy  EATOM  =     26751.73760169
  Solvation  Ediel_sol  =         0.00000000
  ---------------------------------------------------
  free energy    TOTEN  =      -219.48074418 eV

  energy without entropy =     -219.48074418  energy(sigma->0) =     -219.48074418


--------------------------------------------------------------------------------------------------------




--------------------------------------- Iteration      1(  22)  ---------------------------------------


    POTLOK:  cpu time    0.0760: real time    0.0773
    SETDIJ:  cpu time    0.0180: real time    0.0180
    EDDIAG:  cpu time    2.0507: real time    2.0690
  RMM-DIIS:  cpu time   11.1283: real time   11.3257
    ORTHCH:  cpu time    0.3889: real time    0.3947
 BZINTS: Fermi energy:  7.440755;288.000000 electrons
         Band energy:1457.058627;  BLOECHL correction: -0.206684
       DOS:  cpu time    0.0850: real time    0.0862
    CHARGE:  cpu time    0.4109: real time    0.4120
    MIXING:  cpu time    0.0040: real time    0.0039
    --------------------------------------------
      LOOP:  cpu time   14.1618: real time   14.3869

 eigenvalue-minimisations  : 14714
 total energy-change (2. order) :-0.6280393E-02  (-0.2090411E-02)
 number of electron     287.9999843 magnetization      51.3451400
 augmentation part      165.1343021 magnetization      43.3082538

 Broyden mixing:
  rms(total) = 0.20260E+00    rms(broyden)= 0.20260E+00
  rms(prec ) = 0.31329E+00
  weight for this iteration     100.00

 eigenvalues of (default mixing * dielectric matrix)
  average eigenvalue GAMMA=   0.5729
  1.9040  1.5595  1.5595  0.8413  0.8413  0.6951  0.5055  0.5055  0.2589  0.1746
  0.1513  0.1398  0.1398  0.1072  0.1155  0.1155  0.1246

 Free energy of the ion-electron system (eV)
  ---------------------------------------------------
  alpha Z        PSCENC =      1737.85356999
  Ewald energy   TEWEN  =    -23952.58598529
  -Hartree energ DENC   =     -5534.43544202
  -exchange      EXHF   =         0.00000000
  -V(xc)+E(xc)   XCENC  =       564.38681147
  PAW double counting   =     29566.68534390   -30810.18755145
  entropy T*S    EENTRO =         0.00000000
  eigenvalues    EBANDS =      1457.05862714
  atomic energy  EATOM  =     26751.73760169
  Solvation  Ediel_sol  =         0.00000000
  ---------------------------------------------------
  free energy    TOTEN  =      -219.48702457 eV

  energy without entropy =     -219.48702457  energy(sigma->0) =     -219.48702457


--------------------------------------------------------------------------------------------------------




--------------------------------------- Iteration      1(  23)  ---------------------------------------


    POTLOK:  cpu time    0.0750: real time    0.0768
    SETDIJ:  cpu time    0.0180: real time    0.0181
    EDDIAG:  cpu time    2.0537: real time    2.0730
  RMM-DIIS:  cpu time   11.0393: real time   11.2193
    ORTHCH:  cpu time    0.3849: real time    0.3901
 BZINTS: Fermi energy:  7.444005;288.000000 electrons
         Band energy:1457.350371;  BLOECHL correction: -0.214819
       DOS:  cpu time    0.0870: real time    0.0870
    CHARGE:  cpu time    0.4089: real time    0.4111
    MIXING:  cpu time    0.0040: real time    0.0041
    --------------------------------------------
      LOOP:  cpu time   14.0709: real time   14.2794

 eigenvalue-minimisations  : 14606
 total energy-change (2. order) : 0.5583397E-02  (-0.8758504E-03)
 number of electron     287.9999843 magnetization      51.3976923
 augmentation part      165.1073119 magnetization      43.3824985

 Broyden mixing:
  rms(total) = 0.76718E-01    rms(broyden)= 0.76713E-01
  rms(prec ) = 0.10606E+00
  weight for this iteration     100.00

 eigenvalues of (default mixing * dielectric matrix)
  average eigenvalue GAMMA=   0.5919
  1.8661  1.5619  1.5619  0.9188  0.9188  0.8111  0.7055  0.4975  0.4975  0.2589
  0.1662  0.1486  0.1411  0.1377  0.1072  0.1154  0.1154  0.1250

 Free energy of the ion-electron system (eV)
  ---------------------------------------------------
  alpha Z        PSCENC =      1737.85356999
  Ewald energy   TEWEN  =    -23952.58598529
  -Hartree energ DENC   =     -5534.24447229
[...]
 -0.000  -0.000  -0.046   0.063   2.790   0.000   0.000   0.043  -0.011  -1.215  -0.029   0.015  -0.002  -0.000   0.000   0.003
 -1.079   0.002  -0.001  -0.001   0.000   0.208   0.022   0.001   0.001   0.000  -0.000  -0.000  -0.000   0.000   0.010  -0.000
 -0.002  -1.045  -0.000   0.000   0.000   0.022   0.234   0.000  -0.000  -0.000  -0.000  -0.000  -0.000  -0.010   0.001  -0.000
 -0.001  -0.000  -1.206   0.000   0.043   0.001   0.000   0.319   0.003  -0.058   0.004   0.001  -0.006   0.000   0.000   0.001
 -0.001   0.000  -0.006  -1.076  -0.011   0.001  -0.000   0.003   0.215  -0.008   0.019  -0.002   0.002  -0.000  -0.000  -0.000
 -0.000   0.000   0.045  -0.006  -1.215   0.000  -0.000  -0.058  -0.008   0.348   0.033  -0.004   0.016   0.000  -0.000  -0.002
  0.001   0.000   0.000  -0.001  -0.029  -0.000  -0.000   0.004   0.019   0.033  -0.336   0.107  -0.012  -0.000  -0.000  -0.000
  0.000   0.000  -0.004   0.008   0.015  -0.000  -0.000   0.001  -0.002  -0.004   0.107  -0.019  -0.000  -0.000  -0.000   0.000
  0.000   0.000   0.011  -0.001  -0.002  -0.000  -0.000  -0.006   0.002   0.016  -0.012  -0.000  -0.030  -0.000   0.000   0.006
  0.002   0.008  -0.000  -0.000  -0.000   0.000  -0.010   0.000  -0.000   0.000  -0.000  -0.000  -0.000  -0.024   0.001   0.000
 -0.017  -0.003  -0.000   0.000   0.000   0.010   0.001   0.000  -0.000  -0.000  -0.000  -0.000   0.000   0.001  -0.030   0.000
  0.000   0.000  -0.000   0.000   0.003  -0.000  -0.000   0.001  -0.000  -0.002  -0.000   0.000   0.006   0.000   0.000  -0.001
  0.000  -0.002   0.000   0.000  -0.000  -0.000   0.002  -0.000  -0.000   0.000   0.000  -0.000   0.000   0.006   0.000  -0.000
  0.001   0.000  -0.000   0.000   0.000  -0.001  -0.000   0.000  -0.000  -0.000   0.000  -0.000   0.000   0.000   0.007  -0.000


------------------------ aborting loop because EDIFF is reached ----------------------------------------


 


 total charge     
 
# of ion       s       p       d       tot
------------------------------------------
    1        0.469   0.495   6.184   7.148
    2        0.469   0.498   6.195   7.162
    3        0.469   0.495   6.184   7.148
    4        0.469   0.497   6.195   7.162
    5        0.467   0.494   6.181   7.143
    6        0.478   0.504   6.205   7.188
    7        0.470   0.499   6.184   7.152
    8        0.481   0.507   6.183   7.171
    9        0.470   0.499   6.185   7.154
   10        0.478   0.504   6.205   7.188
   11        0.467   0.494   6.181   7.143
   12        0.470   0.499   6.184   7.152
   13        0.470   0.499   6.185   7.154
   14        0.470   0.499   6.184   7.152
   15        0.470   0.499   6.184   7.152
   16        0.481   0.507   6.183   7.171
   17        0.501   0.505   8.307   9.314
   18        0.511   0.517   8.312   9.341
   19        0.512   0.519   8.310   9.341
   20        0.511   0.517   8.312   9.341
   21        0.497   0.499   8.314   9.309
   22        0.508   0.511   8.318   9.336
   23        0.512   0.519   8.310   9.341
   24        0.507   0.507   8.322   9.336
   25        0.507   0.507   8.325   9.339
   26        0.501   0.506   8.307   9.314
   27        0.497   0.498   8.314   9.309
   28        0.508   0.511   8.318   9.336
   29        0.507   0.507   8.322   9.336
   30        0.507   0.507   8.325   9.339
   31        0.508   0.511   8.318   9.336
   32        0.508   0.511   8.318   9.336
--------------------------------------------------
tot         15.649  16.141 232.055 263.846
 


 magnetization (x)
 
# of ion       s       p       d       tot
------------------------------------------
    1       -0.009  -0.036   2.644   2.600
    2       -0.009  -0.039   2.611   2.563
    3       -0.009  -0.036   2.644   2.599
    4       -0.009  -0.039   2.611   2.563
    5       -0.000  -0.023   2.669   2.646
    6       -0.011  -0.037   2.559   2.512
    7       -0.005  -0.031   2.660   2.624
    8       -0.005  -0.020   2.676   2.651
    9        0.000  -0.023   2.658   2.636
   10       -0.011  -0.037   2.560   2.512
   11       -0.000  -0.023   2.669   2.646
   12       -0.005  -0.031   2.660   2.625
   13       -0.000  -0.023   2.659   2.636
   14       -0.005  -0.031   2.660   2.624
   15       -0.005  -0.031   2.660   2.624
   16       -0.005  -0.020   2.675   2.650
   17       -0.023  -0.057   0.736   0.656
   18       -0.027  -0.057   0.717   0.634
   19       -0.027  -0.056   0.730   0.647
   20       -0.027  -0.057   0.717   0.633
   21       -0.016  -0.045   0.701   0.641
   22       -0.024  -0.049   0.684   0.611
   23       -0.027  -0.056   0.730   0.647
   24       -0.021  -0.041   0.680   0.619
   25       -0.021  -0.040   0.662   0.601
   26       -0.023  -0.057   0.736   0.656
   27       -0.016  -0.045   0.701   0.640
   28       -0.024  -0.049   0.684   0.611
   29       -0.021  -0.040   0.681   0.619
   30       -0.021  -0.040   0.663   0.602
   31       -0.024  -0.049   0.685   0.611
   32       -0.024  -0.049   0.685   0.611
--------------------------------------------------
tot         -0.453  -1.266  53.467  51.748
 
    CHARGE:  cpu time    0.4089: real time    0.4098
    FORLOC:  cpu time    0.0160: real time    0.0150
    FORNL :  cpu time    4.4413: real time    4.4476
    STRESS:  cpu time   13.5809: real time   13.6572
    FORCOR:  cpu time    0.0960: real time    0.0958
    FORHAR:  cpu time    0.0180: real time    0.0187
    MIXING:  cpu time    0.0080: real time    0.0078
    OFIELD:  cpu time    0.0000: real time    0.0001

  FORCE on cell =-STRESS in cart. coord.  units (eV):
  Direction    XX          YY          ZZ          XY          YZ          ZX
  --------------------------------------------------------------------------------------
  Alpha Z  1737.85357  1737.85357  1737.85357
  Ewald   -7990.25244 -8110.81911 -7851.61358    -0.00044     0.00185     0.00193
  Hartree  1839.27699  1724.13001  1971.34122     0.02289     0.01333    -0.03690
  E(xc)   -1518.27408 -1518.58966 -1518.26959     0.00013    -0.00052     0.00069
  Local     620.19336   850.78704   351.19063    -0.05651    -0.03901     0.09594
  n-local  -530.82458  -531.74762  -532.66233     0.02403     0.02330    -0.02713
  augment  3438.26891  3442.32551  3437.76199     0.00554     0.01051    -0.02620
  Kinetic  2403.25482  2407.48343  2400.38115     0.00851     0.01851    -0.03755
  Fock        0.00000     0.00000     0.00000     0.00000     0.00000     0.00000
  -------------------------------------------------------------------------------------
  Total      -0.50346     1.42316    -4.01694     0.00415     0.02796    -0.02923
  in kB      -2.21419     6.25900   -17.66634     0.01826     0.12296    -0.12854
  external pressure =       -4.54 kB  Pullay stress =        0.00 kB


 VOLUME and BASIS-vectors are now :
 -----------------------------------------------------------------------------
  energy-cutoff  :      520.00
  volume of cell :      364.30
      direct lattice vectors                 reciprocal lattice vectors
     7.142000000  0.000000000  0.000000000     0.140016802  0.000000000  0.000000000
     0.000000000  7.142000000  0.000000000     0.000000000  0.140016802  0.000000000
     0.000000000  0.000000000  7.142000000     0.000000000  0.000000000  0.140016802

  length of vectors
     7.142000000  7.142000000  7.142000000     0.140016802  0.140016802  0.140016802


 FORCES acting on ions
    electron-ion (+dipol)            ewald-force                    non-local-force                 convergence-correction
 -----------------------------------------------------------------------------------------------
   -.111E-01 -.716E+02 0.381E-02   0.774E-02 0.720E+02 -.617E-02   0.217E-02 -.494E+00 0.136E-02   -.188E-04 -.465E-04 0.139E-03
   0.139E+01 0.742E+02 0.180E-01   -.123E+01 -.746E+02 -.144E-01   -.150E+00 0.434E+00 -.440E-02   0.449E-04 0.451E-03 -.366E-04
   -.249E-02 -.716E+02 -.808E-02   -.270E-03 0.720E+02 0.490E-02   0.229E-02 -.495E+00 0.219E-02   -.322E-04 -.373E-04 -.142E-03
   -.140E+01 0.742E+02 -.972E-02   0.124E+01 -.746E+02 0.128E-01   0.148E+00 0.432E+00 -.296E-02   -.312E-03 0.514E-03 0.371E-04
   -.103E+01 -.755E+02 0.174E-01   0.101E+01 0.760E+02 -.197E-01   0.478E-02 -.347E+00 0.268E-02   0.117E-03 -.459E-03 -.517E-04
   0.788E+02 -.727E+02 -.259E-01   -.794E+02 0.732E+02 0.264E-01   0.556E+00 -.412E+00 0.331E-03   -.117E-03 -.248E-03 0.486E-04
   0.737E+02 0.801E+02 -.130E+01   -.742E+02 -.805E+02 0.132E+01   0.451E+00 0.400E+00 -.210E-01   -.325E-03 0.348E-03 0.324E-03
   0.793E+02 0.711E+02 0.234E-01   -.798E+02 -.716E+02 -.239E-01   0.460E+00 0.399E+00 0.741E-03   -.365E-03 0.484E-04 -.228E-04
   0.164E-01 -.837E+02 0.158E-01   -.121E-01 0.838E+02 -.895E-02   -.422E-02 -.148E+00 -.668E-02   0.196E-04 -.242E-03 -.233E-04
   -.788E+02 -.727E+02 0.126E-01   0.794E+02 0.732E+02 -.159E-01   -.556E+00 -.411E+00 0.288E-02   0.275E-03 -.200E-04 -.324E-04
   0.102E+01 -.755E+02 -.210E-01   -.100E+01 0.760E+02 0.197E-01   0.659E-03 -.347E+00 0.138E-02   -.311E-03 -.517E-03 0.400E-04
   0.737E+02 0.801E+02 0.130E+01   -.742E+02 -.805E+02 -.132E+01   0.452E+00 0.400E+00 0.239E-01   -.302E-03 0.369E-03 -.321E-03
   -.112E-02 -.837E+02 -.739E-02   0.524E-02 0.838E+02 0.131E-01   -.304E-02 -.149E+00 -.688E-02   0.374E-04 -.234E-03 0.304E-04
   -.737E+02 0.801E+02 0.130E+01   0.742E+02 -.805E+02 -.132E+01   -.453E+00 0.406E+00 0.244E-01   0.325E-03 0.521E-03 -.810E-04
   -.737E+02 0.801E+02 -.131E+01   0.742E+02 -.805E+02 0.133E+01   -.450E+00 0.405E+00 -.187E-01   0.298E-03 0.541E-03 0.784E-04
   -.793E+02 0.711E+02 -.162E-01   0.798E+02 -.716E+02 0.167E-01   -.460E+00 0.395E+00 -.299E-03   0.203E-03 0.191E-03 0.137E-04
   0.954E+02 -.969E+02 0.268E-01   -.959E+02 0.972E+02 -.261E-01   0.473E+00 -.274E+00 -.463E-03   -.318E-03 -.120E-03 -.562E-04
   -.583E-02 0.860E+02 0.865E-02   0.105E-01 -.863E+02 -.438E-02   -.260E-02 0.279E+00 -.544E-02   -.234E-03 0.677E-04 0.114E-03
   0.905E+00 0.925E+02 0.189E-01   -.847E+00 -.930E+02 -.197E-01   -.736E-01 0.500E+00 0.200E-03   -.859E-04 0.481E-03 -.191E-04
   0.766E-03 0.860E+02 -.201E-03   0.215E-02 -.863E+02 0.735E-02   -.327E-02 0.280E+00 -.648E-02   -.257E-03 0.565E-04 -.100E-03
   0.869E+02 0.815E+02 -.254E-01   -.870E+02 -.816E+02 0.202E-01   0.107E+00 0.636E-01 0.561E-02   -.208E-03 0.351E-03 0.335E-04
   0.907E+02 -.829E+02 0.439E+01   -.911E+02 0.832E+02 -.452E+01   0.376E+00 -.318E+00 0.112E+00   -.191E-03 -.428E-03 0.185E-03
   -.904E+00 0.925E+02 -.224E-01   0.842E+00 -.930E+02 0.189E-01   0.770E-01 0.502E+00 0.288E-02   0.436E-03 0.571E-03 0.879E-05
   0.356E-02 0.803E+02 0.267E-02   -.579E-02 -.804E+02 -.518E-02   0.133E-02 0.108E+00 0.180E-02   0.253E-03 0.267E-03 -.123E-03
   -.481E+01 -.797E+02 0.299E-01   0.493E+01 0.800E+02 -.252E-01   -.110E+00 -.247E+00 -.508E-02   -.136E-03 -.482E-03 -.236E-04
   -.954E+02 -.969E+02 -.149E-01   0.959E+02 0.972E+02 0.135E-01   -.474E+00 -.269E+00 0.189E-02   0.108E-03 -.315E-03 0.437E-04
   -.869E+02 0.816E+02 0.192E-01   0.870E+02 -.816E+02 -.177E-01   -.108E+00 0.623E-01 -.648E-03   0.427E-03 0.589E-04 -.928E-05
   0.907E+02 -.829E+02 -.440E+01   -.911E+02 0.832E+02 0.452E+01   0.370E+00 -.315E+00 -.103E+00   -.149E-03 -.457E-03 -.194E-03
   -.314E-02 0.803E+02 -.902E-02   -.184E-02 -.804E+02 0.676E-02   0.446E-02 0.109E+00 0.162E-02   0.267E-03 0.258E-03 0.116E-03
   0.482E+01 -.797E+02 -.204E-01   -.494E+01 0.800E+02 0.258E-01   0.108E+00 -.244E+00 -.509E-02   0.388E-03 -.576E-03 0.237E-04
   -.907E+02 -.829E+02 -.439E+01   0.911E+02 0.832E+02 0.451E+01   -.372E+00 -.323E+00 -.105E+00   0.179E-03 -.649E-03 -.358E-03
   -.907E+02 -.829E+02 0.439E+01   0.911E+02 0.832E+02 -.451E+01   -.374E+00 -.323E+00 0.107E+00   0.149E-03 -.680E-03 0.354E-03
 -----------------------------------------------------------------------------------------------
   -.215E-02 -.557E-01 -.821E-03   0.426E-12 -.298E-12 0.117E-12   0.184E-02 0.582E-01 0.823E-03   0.167E-03 -.415E-03 -.446E-05
 
 
 POSITION                                       TOTAL-FORCE (eV/Angst)
 -----------------------------------------------------------------------------------
      7.14198      7.12923      3.57101        -0.001238     -0.025551     -0.000865
      0.02481      1.80327      5.35650         0.011327     -0.042943     -0.000766
      0.00001      7.12924      7.14200        -0.000500     -0.026316     -0.001132
      7.11718      1.80327      1.78551        -0.010655     -0.041751      0.000157
      7.12597      5.31198      5.35652        -0.019951      0.081304      0.000322
      1.81385      7.13620      1.78548        -0.019069      0.032107      0.000941
      1.81452      1.82398      3.57525        -0.044867     -0.003302      0.000930
      1.83817      3.61667      5.35653        -0.024888     -0.055377      0.000306
      3.57106      7.09530      3.57103         0.000122     -0.017574      0.000145
      5.32817      7.13618      5.35653         0.019518      0.034362     -0.000470
      0.01603      5.31200      1.78548         0.021337      0.081626      0.000150
      1.81448      1.82398      7.13776        -0.044584     -0.002443      0.000353
      3.57097      7.09531      7.14196         0.001125     -0.017611     -0.001107
      5.32748      1.82399      3.56676         0.044199     -0.004484      0.002138
      5.32751      1.82397      0.00423         0.044697     -0.003150     -0.000689
      5.30383      3.61665      1.78547         0.025567     -0.055999      0.000252
      1.81505      7.10433      5.35650        -0.027391      0.020931      0.000191
      7.14199      3.57966      3.57100         0.001818     -0.021002     -0.001060
      3.56235      1.79989      5.35652        -0.015183     -0.007816     -0.000585
      7.14200      3.57968      7.14200        -0.000600     -0.021005      0.000564
      1.79658      3.56460      1.78549        -0.003278     -0.029364      0.000416
      1.79261      5.34784      3.58054        -0.001524      0.026394     -0.017405
      3.57965      1.79988      1.78548         0.014890     -0.006866     -0.000549
      3.57100      3.58559      3.57100        -0.000648     -0.022290     -0.000833
      3.59717      5.34963      5.35652         0.011047      0.040438     -0.000444
      5.32694      7.10433      1.78548         0.026956      0.021448      0.000480
      5.34542      3.56462      5.35652         0.001613     -0.030854      0.000823
      1.79260      5.34783      7.13245        -0.001241      0.025650      0.018071
      3.57100      3.58558      7.14200        -0.000243     -0.022140     -0.000523
      3.54483      5.34964      1.78547        -0.010829      0.039445      0.000297
      5.34940      5.34783      3.56145         0.001238      0.027758      0.016423
      5.34940      5.34784      0.00955         0.001235      0.026371     -0.016532
 -----------------------------------------------------------------------------------
    total drift:                               -0.000143      0.002124     -0.000002


--------------------------------------------------------------------------------------------------------



  FREE ENERGIE OF THE ION-ELECTRON SYSTEM (eV)
  ---------------------------------------------------
  free  energy   TOTEN  =      -219.49435911 eV

  energy  without entropy=     -219.49435911  energy(sigma->0) =     -219.49435911
 


--------------------------------------------------------------------------------------------------------


    POTLOK:  cpu time    0.0950: real time    0.0954


--------------------------------------------------------------------------------------------------------


     LOOP+:  cpu time  566.8898: real time  573.7327
    4ORBIT:  cpu time    0.0000: real time    0.0000
 


 total charge     
 
# of ion       s       p       d       tot
------------------------------------------
    1        0.469   0.495   6.184   7.148
    2        0.469   0.498   6.195   7.162
    3        0.469   0.495   6.184   7.148
    4        0.469   0.497   6.195   7.162
    5        0.467   0.494   6.181   7.143
    6        0.478   0.504   6.205   7.188
    7        0.470   0.499   6.184   7.152
    8        0.481   0.507   6.183   7.171
    9        0.470   0.499   6.185   7.154
   10        0.478   0.504   6.205   7.188
   11        0.467   0.494   6.181   7.143
   12        0.470   0.499   6.184   7.152
   13        0.470   0.499   6.185   7.154
   14        0.470   0.499   6.184   7.152
   15        0.470   0.499   6.184   7.152
   16        0.481   0.507   6.183   7.171
   17        0.501   0.505   8.307   9.314
   18        0.511   0.517   8.312   9.341
   19        0.512   0.519   8.310   9.341
   20        0.511   0.517   8.312   9.341
   21        0.497   0.499   8.314   9.309
   22        0.508   0.511   8.318   9.336
   23        0.512   0.519   8.310   9.341
   24        0.507   0.507   8.322   9.336
   25        0.507   0.507   8.325   9.339
   26        0.501   0.506   8.307   9.314
   27        0.497   0.498   8.314   9.309
   28        0.508   0.511   8.318   9.336
   29        0.507   0.507   8.322   9.336
   30        0.507   0.507   8.325   9.339
   31        0.508   0.511   8.318   9.336
   32        0.508   0.511   8.318   9.336
--------------------------------------------------
tot         15.649  16.141 232.055 263.846
 


 magnetization (x)
 
# of ion       s       p       d       tot
------------------------------------------
    1       -0.009  -0.036   2.644   2.600
    2       -0.009  -0.039   2.611   2.563
    3       -0.009  -0.036   2.644   2.599
    4       -0.009  -0.039   2.611   2.563
    5       -0.000  -0.023   2.669   2.646
    6       -0.011  -0.037   2.559   2.512
    7       -0.005  -0.031   2.660   2.624
    8       -0.005  -0.020   2.676   2.651
    9        0.000  -0.023   2.658   2.636
   10       -0.011  -0.037   2.560   2.512
   11       -0.000  -0.023   2.669   2.646
   12       -0.005  -0.031   2.660   2.625
   13       -0.000  -0.023   2.659   2.636
   14       -0.005  -0.031   2.660   2.624
   15       -0.005  -0.031   2.660   2.624
   16       -0.005  -0.020   2.675   2.650
   17       -0.023  -0.057   0.736   0.656
   18       -0.027  -0.057   0.717   0.634
   19       -0.027  -0.056   0.730   0.647
   20       -0.027  -0.057   0.717   0.633
   21       -0.016  -0.045   0.701   0.641
   22       -0.024  -0.049   0.684   0.611
   23       -0.027  -0.056   0.730   0.647
   24       -0.021  -0.041   0.680   0.619
   25       -0.021  -0.040   0.662   0.601
   26       -0.023  -0.057   0.736   0.656
   27       -0.016  -0.045   0.701   0.640
   28       -0.024  -0.049   0.684   0.611
   29       -0.021  -0.040   0.681   0.619
   30       -0.021  -0.040   0.663   0.602
   31       -0.024  -0.049   0.685   0.611
   32       -0.024  -0.049   0.685   0.611
--------------------------------------------------
tot         -0.453  -1.266  53.467  51.748
 
 BZINTS: Fermi energy:  7.449572;288.000000 electrons
         Band energy:1458.032946;  BLOECHL correction: -0.227766

 total amount of memory used by VASP MPI-rank0    92925. kBytes
=======================================================================

   base      :      30000. kBytes
   nonlr-proj:       7779. kBytes
   fftplans  :       2563. kBytes
   grid      :       6379. kBytes
   one-center:        124. kBytes
   wavefun   :      46080. kBytes
 
  
  
 General timing and accounting informations for this job:
 ========================================================
  
                  Total CPU time used (sec):      584.350
                            User time (sec):      571.447
                          System time (sec):       12.903
                         Elapsed time (sec):      591.417
  
                   Maximum memory used (kb):      148104.
                   Average memory used (kb):           0.
  
                          Minor page faults:        14699
                          Major page faults:            0
                 Voluntary context switches:         1814
