       N       E                     dE             d eps       ncg     rms          rms(c)
DAV:   1     0.447925183658E+04    0.44793E+04   -0.24900E+05  8220   0.151E+03
DAV:   2     0.186385456119E+02   -0.44606E+04   -0.41776E+04  8220   0.344E+02
DAV:   3    -0.394825409318E+03   -0.41346E+03   -0.35462E+03  8541   0.145E+02
DAV:   4    -0.411928346145E+03   -0.17103E+02   -0.16743E+02  8727   0.321E+01
DAV:   5    -0.412238763130E+03   -0.31042E+00   -0.31021E+00  9474   0.359E+00    0.346E-01
RMM:   6    -0.412313021757E+03   -0.74259E-01   -0.16821E-01  8497   0.997E-01    0.837E-01
RMM:   7    -0.412321534710E+03   -0.85130E-02   -0.43972E-02 12136   0.323E-01    0.112E+00
RMM:   8    -0.412318705339E+03    0.28294E-02   -0.45452E-03  8722   0.145E-01    0.874E-01
RMM:   9    -0.412316027445E+03    0.26779E-02   -0.24074E-03  8693   0.112E-01    0.224E-01
RMM:  10    -0.412316237308E+03   -0.20986E-03   -0.73764E-04  8699   0.616E-02    0.275E-01
RMM:  11    -0.412316021403E+03    0.21591E-03   -0.28985E-04  8737   0.402E-02    0.122E-01
RMM:  12    -0.412316030288E+03   -0.88848E-05   -0.82133E-05  8800   0.194E-02    0.893E-02
RMM:  13    -0.412316062037E+03   -0.31750E-04   -0.28034E-05 10065   0.954E-03    0.780E-02
RMM:  14    -0.412316075420E+03   -0.13383E-04   -0.78042E-06  8428   0.591E-03    0.661E-02
RMM:  15    -0.412316110163E+03   -0.34742E-04   -0.42474E-06  7004   0.477E-03    0.585E-02
RMM:  16    -0.412316140600E+03   -0.30437E-04   -0.48984E-06  7640   0.529E-03    0.428E-02
RMM:  17    -0.412316162591E+03   -0.21991E-04   -0.27669E-06  5926   0.407E-03    0.357E-02
RMM:  18    -0.412316185098E+03   -0.22507E-04   -0.34842E-06  6535   0.449E-03    0.216E-02
RMM:  19    -0.412316186089E+03   -0.99107E-06   -0.76935E-07  5082   0.228E-03
   1 F= -.42744007E+03 E0= -.42744007E+03  d E =0.000000E+00  mag=   103.9526
