 vasp.5.4.4.18Apr17-6-g9f103f2a35 (build Sep 06 2021 19:49:22) complex          
  
 executed on             LinuxIFC date 2022.01.03  16:52:11
 running on   72 total cores
 distrk:  each k-point on   72 cores,    1 groups
 distr:  one band on NCORES_PER_BAND=  24 cores,    3 groups


--------------------------------------------------------------------------------------------------------


 INCAR:
 POTCAR:    PAW_PBE Ni 02Aug2007                  
 POTCAR:    PAW_PBE Fe 06Sep2000                  

 ----------------------------------------------------------------------------- 
|                                                                             |
|           W    W    AA    RRRRR   N    N  II  N    N   GGGG   !!!           |
|           W    W   A  A   R    R  NN   N  II  NN   N  G    G  !!!           |
|           W    W  A    A  R    R  N N  N  II  N N  N  G       !!!           |
|           W WW W  AAAAAA  RRRRR   N  N N  II  N  N N  G  GGG   !            |
|           WW  WW  A    A  R   R   N   NN  II  N   NN  G    G                |
|           W    W  A    A  R    R  N    N  II  N    N   GGGG   !!!           |
|                                                                             |
|      For optimal performance we recommend to set                            |
|        NCORE= 4 - approx SQRT( number of cores)                             |
|      NCORE specifies how many cores store one orbital (NPAR=cpu/NCORE).     |
|      This setting can  greatly improve the performance of VASP for DFT.     |
|      The default,   NCORE=1            might be grossly inefficient         |
|      on modern multi-core architectures or massively parallel machines.     |
|      Do your own testing !!!!                                               |
|      Unfortunately you need to use the default for GW and RPA calculations. |
|      (for HF NCORE is supported but not extensively tested yet)             |
|                                                                             |
 ----------------------------------------------------------------------------- 

 POTCAR:    PAW_PBE Ni 02Aug2007                  
   VRHFIN =Ni:                                                                  
   LEXCH  = PE                                                                  
   EATOM  =  1077.6739 eV,   79.2068 Ry                                         
                                                                                
   TITEL  = PAW_PBE Ni 02Aug2007                                                
   LULTRA =        F    use ultrasoft PP ?                                      
   IUNSCR =        1    unscreen: 0-lin 1-nonlin 2-no                           
   RPACOR =    2.000    partial core radius                                     
   POMASS =   58.690; ZVAL   =   10.000    mass and valenz                      
   RCORE  =    2.300    outmost cutoff radius                                   
   RWIGS  =    2.430; RWIGS  =    1.286    wigner-seitz radius (au A)           
   ENMAX  =  269.532; ENMIN  =  202.149 eV                                      
   RCLOC  =    1.201    cutoff for local pot                                    
   LCOR   =        T    correct aug charges                                     
   LPAW   =        T    paw PP                                                  
   EAUG   =  544.565                                                            
   DEXC   =    0.000                                                            
   RMAX   =    2.357    core radius for proj-oper                               
   RAUG   =    1.300    factor for augmentation sphere                          
   RDEP   =    2.390    radius for radial grids                                 
   RDEPT  =    1.838    core radius for aug-charge                              
                                                                                
   Atomic configuration                                                         
    9 entries                                                                   
     n  l   j            E        occ.                                          
     1  0  0.50     -8206.4253   2.0000                                         
     2  0  0.50      -976.1748   2.0000                                         
     2  1  1.50      -839.0571   6.0000                                         
     3  0  0.50      -105.9991   2.0000                                         
     3  1  1.50       -66.4603   6.0000                                         
     3  2  2.50        -4.6458   9.0000                                         
     4  0  0.50        -4.4926   1.0000                                         
     4  1  1.50        -4.0817   0.0000                                         
     4  3  2.50        -1.3606   0.0000                                         
   Description                                                                  
     l       E           TYP  RCUT    TYP  RCUT                                 
     2     -4.6457903     23  2.300                                             
     2     -6.0063729     23  2.300                                             
     0     -4.4925590     23  2.300                                             
     0      5.0102601     23  2.300                                             
     1     -2.7211652     23  2.300                                             
     1     16.5183231     23  2.300                                             
  local pseudopotential read in
  partial core-charges read in
  partial kinetic energy density read in
  atomic valenz-charges read in
  non local Contribution for L=           2  read in
    real space projection operators read in
  non local Contribution for L=           2  read in
    real space projection operators read in
  non local Contribution for L=           0  read in
    real space projection operators read in
  non local Contribution for L=           0  read in
    real space projection operators read in
  non local Contribution for L=           1  read in
    real space projection operators read in
  non local Contribution for L=           1  read in
    real space projection operators read in
    PAW grid and wavefunctions read in
 
   number of l-projection  operators is LMAX  =           6
   number of lm-projection operators is LMMAX =          18
 
 POTCAR:    PAW_PBE Fe 06Sep2000                  
   VRHFIN =Fe:  d7 s1                                                           
   LEXCH  = PE                                                                  
   EATOM  =   594.3153 eV,   43.6809 Ry                                         
                                                                                
   TITEL  = PAW_PBE Fe 06Sep2000                                                
   LULTRA =        F    use ultrasoft PP ?                                      
   IUNSCR =        1    unscreen: 0-lin 1-nonlin 2-no                           
   RPACOR =    2.000    partial core radius                                     
   POMASS =   55.847; ZVAL   =    8.000    mass and valenz                      
   RCORE  =    2.300    outmost cutoff radius                                   
   RWIGS  =    2.460; RWIGS  =    1.302    wigner-seitz radius (au A)           
   ENMAX  =  267.882; ENMIN  =  200.911 eV                                      
   RCLOC  =    1.701    cutoff for local pot                                    
   LCOR   =        T    correct aug charges                                     
   LPAW   =        T    paw PP                                                  
   EAUG   =  511.368                                                            
   DEXC   =    0.000                                                            
   RMAX   =    2.356    core radius for proj-oper                               
   RAUG   =    1.300    factor for augmentation sphere                          
   RDEP   =    2.442    radius for radial grids                                 
   RDEPT  =    1.890    core radius for aug-charge                              
                                                                                
   Atomic configuration                                                         
    9 entries                                                                   
     n  l   j            E        occ.                                          
     1  0  0.50     -6993.8440   2.0000                                         
     2  0  0.50      -814.6047   2.0000                                         
     2  1  1.50      -693.3689   6.0000                                         
     3  0  0.50       -89.4732   2.0000                                         
     3  1  1.50       -55.6373   6.0000                                         
     3  2  2.50        -3.8151   7.0000                                         
     4  0  0.50        -4.2551   1.0000                                         
     4  1  1.50        -3.4015   0.0000                                         
     4  3  2.50        -1.3606   0.0000                                         
   Description                                                                  
     l       E           TYP  RCUT    TYP  RCUT                                 
     2     -3.8151135     23  2.300                                             
     2     -5.1756961     23  2.300                                             
     0     -4.2550963     23  2.300                                             
     0      7.2035603     23  2.300                                             
     1     -2.7211652     23  2.300                                             
     1     18.4316424     23  2.300                                             
  local pseudopotential read in
  partial core-charges read in
  partial kinetic energy density read in
  atomic valenz-charges read in
  non local Contribution for L=           2  read in
    real space projection operators read in
  non local Contribution for L=           2  read in
    real space projection operators read in
  non local Contribution for L=           0  read in
    real space projection operators read in
  non local Contribution for L=           0  read in
    real space projection operators read in
  non local Contribution for L=           1  read in
    real space projection operators read in
  non local Contribution for L=           1  read in
    real space projection operators read in
    PAW grid and wavefunctions read in
 
   number of l-projection  operators is LMAX  =           6
   number of lm-projection operators is LMMAX =          18
 
 Optimization of the real space projectors (new method)

 maximal supplied QI-value         = 16.25
 optimisation between [QCUT,QGAM] = [ 11.54, 23.24] = [ 37.28,151.24] Ry 
 Optimized for a Real-space Cutoff    1.45 Angstroem

   l    n(q)    QCUT    max X(q) W(low)/X(q) W(high)/X(q)  e(spline) 
   2      9    11.539    60.317    0.19E-03    0.47E-04    0.16E-06
   2      9    11.539    55.921    0.19E-03    0.48E-04    0.16E-06
   0     10    11.539    51.690    0.80E-04    0.50E-04    0.24E-06
   0     10    11.539    30.015    0.73E-04    0.45E-04    0.22E-06
   1     10    11.539    18.849    0.87E-04    0.16E-03    0.71E-07
   1     10    11.539    14.624    0.73E-04    0.13E-03    0.64E-07
 Optimization of the real space projectors (new method)

 maximal supplied QI-value         = 16.25
 optimisation between [QCUT,QGAM] = [ 11.54, 23.24] = [ 37.28,151.24] Ry 
 Optimized for a Real-space Cutoff    1.53 Angstroem

   l    n(q)    QCUT    max X(q) W(low)/X(q) W(high)/X(q)  e(spline) 
   2     10    11.539    80.901    0.11E-03    0.14E-03    0.21E-06
   2     10    11.539    75.754    0.11E-03    0.14E-03    0.22E-06
   0     11    11.539    58.752    0.52E-04    0.18E-04    0.33E-06
   0     11    11.539    30.679    0.44E-04    0.16E-04    0.30E-06
   1     10    11.539    17.977    0.53E-04    0.29E-04    0.13E-06
   1     10    11.539    13.559    0.44E-04    0.25E-04    0.11E-06
  PAW_PBE Ni 02Aug2007                  :
 energy of atom  1       EATOM=-1077.6739
 kinetic energy error for atom=    0.0030 (will be added to EATOM!!)
  PAW_PBE Fe 06Sep2000                  :
 energy of atom  2       EATOM= -594.3153
 kinetic energy error for atom=    0.0026 (will be added to EATOM!!)
 
 
 POSCAR: POSCAR                                  
  positions in direct lattice
  velocities in cartesian coordinates
 exchange correlation table for  LEXCH =        8
   RHO(1)=    0.500       N(1)  =     2000
   RHO(2)=  100.500       N(2)  =     4000
 


--------------------------------------------------------------------------------------------------------


 ion  position               nearest neighbor table
   1  0.999  0.001  0.094-  28 2.50  37 2.51   9 2.52  60 2.53   3 2.53   7 2.53  25 2.54  63 2.54
                            35 2.54
   2  0.002  0.000  0.383-  40 2.46  34 2.48  42 2.48   4 2.50  10 2.51  29 2.52   8 2.53  26 2.54
                            36 2.55
   3  0.248  0.999  0.096-  51 2.47  38 2.48  60 2.49   5 2.51  11 2.52   9 2.52  25 2.53   1 2.53
                            61 2.56
   4  0.249  0.999  0.384-  40 2.44  52 2.47  39 2.47  32 2.48   2 2.50  14 2.50  26 2.53  10 2.54
                             6 2.57
   5  0.499  0.002  0.095-  38 2.49  35 2.51   3 2.51  41 2.52  12 2.53  51 2.54  53 2.54  61 2.55
                            62 2.57
   6  0.502  0.998  0.383-  33 2.44  16 2.45  39 2.48  14 2.48  36 2.49  52 2.52  13 2.53  54 2.55
                             4 2.57
   7  0.998  0.251  0.096-  37 2.48  43 2.49  35 2.50  17 2.50  12 2.53  45 2.53   1 2.53   9 2.55
                            15 2.55
   8  0.000  0.250  0.383-  24 2.46  42 2.47  49 2.48  44 2.51  10 2.51  36 2.51  18 2.52   2 2.53
                            13 2.54
   9  0.249  0.249  0.095-  37 2.48  38 2.48   1 2.52  43 2.52   3 2.52  48 2.54  11 2.54   7 2.55
                            46 2.55
  10  0.249  0.251  0.385-  49 2.46  40 2.47   8 2.51   2 2.51  22 2.52  47 2.53  44 2.54   4 2.54
                            39 2.55
  11  0.334  0.165  0.192-  38 2.48  48 2.50  21 2.51  14 2.51  61 2.52   3 2.52  40 2.52  22 2.53
                            41 2.54  60 2.54  37 2.54   9 2.54
  12  0.749  0.253  0.097-  41 2.47  19 2.49  17 2.51  35 2.51  23 2.51   7 2.53   5 2.53  38 2.55
                            15 2.55
  13  0.750  0.251  0.384-  50 2.43  16 2.49  24 2.49  18 2.51  39 2.51  20 2.52  36 2.52   6 2.53
                             8 2.54
  14  0.418  0.084  0.289-   6 2.48  39 2.49  40 2.49  61 2.49   4 2.50  22 2.50  11 2.51  32 2.52
                            16 2.53  41 2.53  33 2.55  50 2.56
  15  0.832  0.166  0.194-  16 2.48  45 2.48  41 2.49  42 2.49  35 2.51  62 2.51  24 2.51  23 2.52
                            37 2.54  12 2.55   7 2.55  63 2.55
  16  0.669  0.084  0.290-   6 2.45  62 2.48  15 2.48  13 2.49  42 2.50  64 2.52  36 2.52  14 2.53
                            24 2.53  41 2.53  50 2.53  33 2.55
  17  0.999  0.499  0.097-  45 2.48   7 2.50  43 2.51  12 2.51  27 2.52  51 2.52  25 2.53  19 2.53
                            23 2.54
  18  0.999  0.499  0.384-  56 2.42  24 2.46  44 2.49  31 2.49  13 2.51  26 2.51   8 2.52  20 2.53
                            52 2.55
  19  0.748  0.499  0.096-  46 2.48  12 2.49  58 2.49  21 2.52  25 2.52  28 2.53  17 2.53  23 2.56
                            38 2.57
  20  0.750  0.500  0.385-  50 2.45  47 2.49  59 2.49  31 2.50  26 2.51  29 2.51  13 2.52  18 2.53
                            39 2.59
  21  0.583  0.413  0.193-  48 2.47  41 2.49  58 2.49  22 2.50  23 2.50  11 2.51  19 2.52  38 2.54
                            46 2.54  59 2.56  50 2.56  57 2.56
  22  0.421  0.333  0.289-  21 2.50  47 2.50  48 2.50  14 2.50  40 2.51  59 2.52  10 2.52  50 2.52
                            39 2.53  30 2.53  11 2.53  49 2.54
  23  0.831  0.415  0.194-  45 2.45  58 2.47  41 2.47  50 2.49  21 2.50  31 2.51  24 2.51  12 2.51
                            15 2.52  27 2.53  17 2.54  19 2.56
  24  0.919  0.334  0.290-   8 2.46  18 2.46  45 2.46  13 2.49  50 2.50  42 2.50  23 2.51  15 2.51
                            56 2.52  16 2.53  49 2.54  31 2.55
  25  0.998  0.749  0.096-  60 2.47  51 2.48  28 2.48  58 2.51  19 2.52   3 2.53  17 2.53  27 2.53
                             1 2.54
  26  0.999  0.748  0.383-  31 2.44  34 2.48  52 2.48  32 2.49  29 2.50  20 2.51  18 2.51   4 2.53
                             2 2.54
  27  0.082  0.666  0.193-  45 2.49  51 2.50  58 2.50  31 2.50  32 2.51  60 2.51  17 2.52  25 2.53
                            23 2.53  61 2.54  55 2.54  56 2.55
  28  0.753  0.752  0.095-  25 2.48   1 2.50  63 2.51  19 2.53  46 2.54  57 2.54  58 2.55  53 2.57
                            35 2.58
  29  0.752  0.750  0.384-  64 2.44  59 2.47  26 2.50  20 2.51  34 2.51   2 2.52  47 2.54  36 2.55
                            54 2.56
  30  0.417  0.582  0.292-  49 2.46  54 2.48  47 2.48  33 2.51  55 2.51  59 2.51  64 2.53  22 2.53
                            48 2.56  56 2.56  57 2.57  44 2.60
  31  0.916  0.585  0.289-  26 2.44  58 2.49  50 2.49  18 2.49  20 2.50  27 2.50  34 2.51  23 2.51
                            59 2.51  56 2.52  32 2.53  24 2.55
  32  0.168  0.834  0.289-   4 2.48  61 2.48  26 2.49  56 2.50  27 2.51  40 2.51  34 2.51  52 2.52
                            14 2.52  33 2.53  31 2.53  60 2.54
  33  0.416  0.830  0.291-   6 2.44  56 2.50  62 2.51  64 2.51  30 2.51  55 2.51  54 2.52  52 2.53
                            32 2.53  61 2.53  14 2.55  16 2.55
  34  0.920  0.835  0.288-   2 2.48  26 2.48  63 2.50  31 2.51  32 2.51  29 2.51  60 2.51  59 2.54
                            40 2.54  42 2.54  58 2.55  64 2.56
  35  0.749  0.005  0.097-   7 2.50  15 2.51  12 2.51   5 2.51   1 2.54  63 2.55  62 2.55  53 2.55
                            28 2.58
  36  0.751  0.002  0.387-  64 2.48   6 2.49   8 2.51  16 2.52  13 2.52  42 2.54   2 2.55  29 2.55
                            54 2.60
  37  0.085  0.169  0.190-   9 2.48   7 2.48   1 2.51  48 2.53  15 2.54  45 2.54  11 2.54  63 2.55
                            60 2.56  42 2.57  40 2.62  49 2.62
  38  0.493  0.245  0.095-   9 2.48   3 2.48  11 2.48   5 2.49  46 2.52  21 2.54  41 2.54  12 2.55
                            19 2.57
  39  0.496  0.241  0.386-   4 2.47   6 2.48  14 2.49  13 2.51  22 2.53  50 2.54  10 2.55  47 2.57
                            20 2.59
  40  0.172  0.085  0.291-   4 2.44   2 2.46  10 2.47  14 2.49  22 2.51  32 2.51  11 2.52  34 2.54
                            49 2.57  42 2.58  60 2.60  37 2.62
  41  0.588  0.169  0.192-  12 2.47  23 2.47  15 2.49  21 2.49  62 2.51   5 2.52  16 2.53  14 2.53
                            11 2.54  38 2.54  61 2.56  50 2.57
  42  0.917  0.085  0.289-   8 2.47   2 2.48  15 2.49  16 2.50  24 2.50  36 2.54  64 2.54  34 2.54
                            63 2.54  37 2.57  49 2.58  40 2.58
  43  0.246  0.497  0.097-   7 2.49  17 2.51   9 2.52  45 2.53  55 2.54  48 2.54  53 2.55  46 2.58
                            51 2.59
  44  0.245  0.499  0.392-  18 2.49  54 2.49   8 2.51  10 2.54  49 2.55  56 2.55  52 2.56  30 2.60
                            47 2.61
  45  0.074  0.415  0.193-  23 2.45  24 2.46  17 2.48  15 2.48  27 2.49   7 2.53  43 2.53  37 2.54
                            55 2.55  49 2.58  56 2.59  48 2.67
  46  0.503  0.500  0.095-  19 2.48  38 2.52  48 2.53  28 2.54  21 2.54   9 2.55  53 2.55  57 2.55
                            43 2.58
  47  0.502  0.498  0.385-  30 2.48  20 2.49  59 2.49  22 2.50  54 2.50  10 2.53  29 2.54  39 2.57
                            44 2.61
  48  0.339  0.415  0.193-  21 2.47  11 2.50  22 2.50  57 2.52  37 2.53  46 2.53  55 2.54  43 2.54
                             9 2.54  49 2.55  30 2.56  45 2.67
  49  0.173  0.340  0.291-  30 2.46  10 2.46   8 2.48  56 2.52  24 2.54  22 2.54  48 2.55  44 2.55
                            40 2.57  42 2.58  45 2.58  37 2.62
  50  0.672  0.336  0.292-  13 2.43  20 2.45  31 2.49  23 2.49  24 2.50  22 2.52  16 2.53  39 2.54
                            59 2.54  14 2.56  21 2.56  41 2.57
  51  0.245  0.753  0.097-   3 2.47  25 2.48  27 2.50  61 2.51  17 2.52   5 2.54  53 2.57  43 2.59
                            55 2.60
  52  0.247  0.754  0.387-   4 2.47  26 2.48  56 2.50  32 2.52   6 2.52  33 2.53  18 2.55  44 2.56
                            54 2.57
  53  0.498  0.750  0.096-  57 2.53   5 2.54  46 2.55  35 2.55  43 2.55  55 2.56  62 2.57  28 2.57
                            51 2.57
  54  0.496  0.742  0.388-  30 2.48  44 2.49  47 2.50  64 2.51  33 2.52   6 2.55  29 2.56  52 2.57
                            36 2.60
  55  0.332  0.663  0.195-  33 2.51  30 2.51  56 2.53  57 2.54  48 2.54  43 2.54  27 2.54  61 2.55
                            45 2.55  62 2.56  53 2.56  51 2.60
  56  0.166  0.585  0.293-  18 2.42  52 2.50  32 2.50  33 2.50  24 2.52  31 2.52  49 2.52  55 2.53
                            27 2.55  44 2.55  30 2.56  45 2.59
  57  0.586  0.668  0.193-  63 2.50  59 2.52  48 2.52  58 2.52  53 2.53  55 2.54  28 2.54  62 2.55
                            46 2.55  21 2.56  30 2.57  64 2.57
  58  0.831  0.659  0.192-  23 2.47  31 2.49  19 2.49  21 2.49  27 2.50  25 2.51  59 2.52  57 2.52
                            28 2.55  34 2.55  60 2.56  63 2.57
  59  0.668  0.585  0.290-  29 2.47  47 2.49  20 2.49  31 2.51  30 2.51  64 2.52  58 2.52  57 2.52
                            22 2.52  34 2.54  50 2.54  21 2.56
  60  0.082  0.914  0.191-  25 2.47   3 2.49  63 2.51  27 2.51  34 2.51   1 2.53  61 2.53  11 2.54
                            32 2.54  58 2.56  37 2.56  40 2.60
  61  0.334  0.916  0.194-  32 2.48  14 2.49  62 2.49  51 2.51  11 2.52  33 2.53  60 2.53  27 2.54
                             5 2.55  55 2.55   3 2.56  41 2.56
  62  0.582  0.919  0.195-  16 2.48  61 2.49  41 2.51  33 2.51  15 2.51  35 2.55  57 2.55  64 2.55
                            55 2.56  53 2.57  63 2.57   5 2.57
  63  0.834  0.914  0.192-  57 2.50  34 2.50  60 2.51  28 2.51   1 2.54  42 2.54  35 2.55  15 2.55
                            37 2.55  62 2.57  58 2.57  64 2.59
  64  0.667  0.834  0.293-  29 2.44  36 2.48  33 2.51  54 2.51  16 2.52  59 2.52  30 2.53  42 2.54
                            62 2.55  34 2.56  57 2.57  63 2.59
 

IMPORTANT INFORMATION: All symmetrisations will be switched off!
NOSYMM: (Re-)initialisation of all symmetry stuff for point group C_1.

 
 

Automatic generation of k-mesh.
 generate k-points for:    3    3    1
Space group operators:
 irot       det(A)        alpha          n_x          n_y          n_z        tau_x        tau_y        tau_z
    1     1.000000     0.000001     1.000000     0.000000     0.000000     0.000000     0.000000     0.000000
 
 Subroutine IBZKPT returns following result:
 ===========================================
 
 Found      5 irreducible k-points:
 
 Following reciprocal coordinates:
            Coordinates               Weight
  0.000000  0.000000  0.000000      1.000000
  0.333333  0.000000  0.000000      2.000000
  0.000000  0.333333  0.000000      2.000000
  0.333333  0.333333  0.000000      2.000000
 -0.333333  0.333333  0.000000      2.000000
 
 Following cartesian coordinates:
            Coordinates               Weight
  0.000000  0.000000  0.000000      1.000000
  0.033002  0.019054  0.000000      2.000000
  0.000000  0.038108  0.000000      2.000000
  0.033002  0.057162  0.000000      2.000000
 -0.033002  0.019054  0.000000      2.000000
 
 TETIRR: Found     24 inequivalent tetrahedra from       54


--------------------------------------------------------------------------------------------------------




 Dimension of arrays:
   k-points           NKPTS =      5   k-points in BZ     NKDIM =      5   number of bands    NBANDS=    411
   number of dos      NEDOS =    301   number of ions     NIONS =     64
   non local maximal  LDIM  =      6   non local SUM 2l+1 LMDIM =     18
   total plane-waves  NPLWV = ******
   max r-space proj   IRMAX =   8293   max aug-charges    IRDMAX=  19624
   dimension x,y,z NGX =    80 NGY =   80 NGZ =  160
   dimension x,y,z NGXF=   160 NGYF=  160 NGZF=  320
   support grid    NGXF=   160 NGYF=  160 NGZF=  320
   ions per type =              34  30
   NGX,Y,Z   is equivalent  to a cutoff of  13.17, 13.17, 12.52 a.u.
   NGXF,Y,Z  is equivalent  to a cutoff of  26.34, 26.34, 25.03 a.u.

 SYSTEM =  SQS-NiFe                                
 POSCAR =  POSCAR                                  

 Startparameter for this run:
   NWRITE =      2    write-flag & timer
   PREC   = accura    normal or accurate (medium, high low for compatibility)
   ISTART =      0    job   : 0-new  1-cont  2-samecut
   ICHARG =      1    charge: 1-file 2-atom 10-const
   ISPIN  =      2    spin polarized calculation?
   LNONCOLLINEAR =      F non collinear calculations
   LSORBIT =      F    spin-orbit coupling
   INIWAV =      1    electr: 0-lowe 1-rand  2-diag
   LASPH  =      F    aspherical Exc in radial PAW
   METAGGA=      F    non-selfconsistent MetaGGA calc.

 Electronic Relaxation 1
   ENCUT  =  520.0 eV  38.22 Ry    6.18 a.u.  18.78 18.78 39.52*2*pi/ulx,y,z
   ENINI  =  520.0     initial cutoff
   ENAUG  =  544.6 eV  augmentation charge cutoff
   NELM   =    200;   NELMIN=  2; NELMDL= -5     # of ELM steps 
   EDIFF  = 0.1E-05   stopping-criterion for ELM
   LREAL  =      T    real-space projection
   NLSPLINE    = F    spline interpolate recip. space projectors
   LCOMPAT=      F    compatible to vasp.4.4
   GGA_COMPAT  = T    GGA compatible to vasp.4.4-vasp.4.6
   LMAXPAW     = -100 max onsite density
   LMAXMIX     =    2 max onsite mixed and CHGCAR
   VOSKOWN=      0    Vosko Wilk Nusair interpolation
   ROPT   =   -0.00025  -0.00025
 Ionic relaxation
   EDIFFG = -.2E-01   stopping-criterion for IOM
   NSW    =      0    number of steps for IOM
   NBLOCK =      1;   KBLOCK =      1    inner block; outer block 
   IBRION =     -1    ionic relax: 0-MD 1-quasi-New 2-CG
   NFREE  =      0    steps in history (QN), initial steepest desc. (CG)
   ISIF   =      2    stress and relaxation
   IWAVPR =     10    prediction:  0-non 1-charg 2-wave 3-comb
   ISYM   =      0    0-nonsym 1-usesym 2-fastsym
   LCORR  =      T    Harris-Foulkes like correction to forces

   POTIM  = 0.5000    time-step for ionic-motion
   TEIN   =    0.0    initial temperature
   TEBEG  =    0.0;   TEEND  =   0.0 temperature during run
   SMASS  =  -3.00    Nose mass-parameter (am)
   estimated Nose-frequenzy (Omega)   =  0.10E-29 period in steps =****** mass=  -0.233E-26a.u.
   SCALEE = 1.0000    scale energy and forces
   NPACO  =    256;   APACO  = 16.0  distance and # of slots for P.C.
   PSTRESS=    0.0 pullay stress

  Mass of Ions in am
   POMASS =  58.69 55.85
  Ionic Valenz
   ZVAL   =  10.00  8.00
  Atomic Wigner-Seitz radii
   RWIGS  =  -1.00 -1.00
  virtual crystal weights 
   VCA    =   1.00  1.00
   NELECT =     580.0000    total number of electrons
   NUPDOWN=      -1.0000    fix difference up-down

 DOS related values:
   EMIN   =  10.00;   EMAX   =-10.00  energy-range for DOS
   EFERMI =   0.00
   ISMEAR =    -5;   SIGMA  =   0.20  broadening in eV -4-tet -1-fermi 0-gaus

 Electronic relaxation 2 (details)
   IALGO  =     68    algorithm
   LDIAG  =      T    sub-space diagonalisation (order eigenvalues)
   LSUBROT=      F    optimize rotation matrix (better conditioning)
   TURBO    =      0    0=normal 1=particle mesh
   IRESTART =      0    0=no restart 2=restart with 2 vectors
   NREBOOT  =      0    no. of reboots
   NMIN     =      0    reboot dimension
   EREF     =   0.00    reference energy to select bands
   IMIX   =      4    mixing-type and parameters
     AMIX     =   0.40;   BMIX     =  1.00
     AMIX_MAG =   1.60;   BMIX_MAG =  1.00
     AMIN     =   0.10
     WC   =   100.;   INIMIX=   1;  MIXPRE=   1;  MAXMIX= -45

 Intra band minimization:
   WEIMIN = 0.0000     energy-eigenvalue tresh-hold
   EBREAK =  0.61E-09  absolut break condition
   DEPER  =   0.30     relativ break condition  

   TIME   =   0.40     timestep for ELM

  volume/ion in A,a.u.               =      29.34       197.98
  Fermi-wavevector in a.u.,A,eV,Ry     =   1.106657  2.091279 16.662916  1.224690
  Thomas-Fermi vector in A             =   2.243161
 
 Write flags
   LWAVE        =      F    write WAVECAR
   LDOWNSAMPLE  =      F    k-point downsampling of WAVECAR
   LCHARG       =      F    write CHGCAR
   LVTOT        =      F    write LOCPOT, total local potential
   LVHAR        =      F    write LOCPOT, Hartree potential only
   LELF         =      F    write electronic localiz. function (ELF)
   LORBIT       =     11    0 simple, 1 ext, 2 COOP (PROOUT), +10 PAW based schemes


 Dipole corrections
   LMONO  =      F    monopole corrections only (constant potential shift)
   LDIPOL =      T    correct potential (dipole corrections)
   IDIPOL =      3    1-x, 2-y, 3-z, 4-all directions 
   EPSILON=  1.0000000 bulk dielectric constant

 Exchange correlation treatment:
   GGA     =    --    GGA type
   LEXCH   =     8    internal setting for exchange type
   VOSKOWN=      0    Vosko Wilk Nusair interpolation
   LHFCALC =     F    Hartree Fock is set to
   LHFONE  =     F    Hartree Fock one center treatment
   AEXX    =    0.0000 exact exchange contribution

 Linear response parameters
   LEPSILON=     F    determine dielectric tensor
   LRPA    =     F    only Hartree local field effects (RPA)
   LNABLA  =     F    use nabla operator in PAW spheres
   LVEL    =     F    velocity operator in full k-point grid
   LINTERFAST=   F  fast interpolation
   KINTER  =     0    interpolate to denser k-point grid
   CSHIFT  =0.1000    complex shift for real part using Kramers Kronig
   OMEGAMAX=  -1.0    maximum frequency
   DEG_THRESHOLD= 0.2000000E-02 threshold for treating states as degnerate
   RTIME   =   -0.100 relaxation time in fs
  (WPLASMAI=    0.000 imaginary part of plasma frequency in eV, 0.658/RTIME)
   DFIELD  = 0.0000000 0.0000000 0.0000000 field for delta impulse in time
 
 Orbital magnetization related:
   ORBITALMAG=     F  switch on orbital magnetization
   LCHIMAG   =     F  perturbation theory with respect to B field
   DQ        =  0.001000  dq finite difference perturbation B field
   LLRAUG    =     F  two centre corrections for induced B field



--------------------------------------------------------------------------------------------------------


 Static calculation
 charge density and potential will be updated during run
 spin polarized calculation
 RMM-DIIS sequential band-by-band and
  variant of blocked Davidson during initial phase
 perform sub-space diagonalisation
    before iterative eigenvector-optimisation
 modified Broyden-mixing scheme, WC =      100.0
 initial mixing is a Kerker type mixing with AMIX =  0.4000 and BMIX =      1.0000
 Hartree-type preconditioning will be used
 using additional bands          121
 real space projection scheme for non local part
 use partial core corrections
 calculate Harris-corrections to forces 
   (improved forces if not selfconsistent)
 use gradient corrections 
 use of overlap-Matrix (Vanderbilt PP)
 Fermi weights with tetrahedron method with Bloechl corrections


--------------------------------------------------------------------------------------------------------


  energy-cutoff  :      520.00
  volume of cell :     1877.64
      direct lattice vectors                 reciprocal lattice vectors
    10.100310000  0.000000000  0.000000000     0.099006862  0.057161638  0.000000000
    -5.050155000  8.747125050  0.000000000     0.000000000  0.114323277  0.000000000
     0.000000000  0.000000000 21.252660910     0.000000000  0.000000000  0.047052932

  length of vectors
    10.100310000 10.100310003 21.252660910     0.114323277  0.114323277  0.047052932


 
 k-points in units of 2pi/SCALE and weight: read from INCAR                         
   0.00000000  0.00000000  0.00000000       0.111
   0.03300229  0.01905388  0.00000000       0.222
   0.00000000  0.03810776  0.00000000       0.222
   0.03300229  0.05716164  0.00000000       0.222
  -0.03300229  0.01905388  0.00000000       0.222
 
 k-points in reciprocal lattice and weights: read from INCAR                         
   0.00000000  0.00000000  0.00000000       0.111
   0.33333333  0.00000000  0.00000000       0.222
   0.00000000  0.33333333  0.00000000       0.222
   0.33333333  0.33333333  0.00000000       0.222
  -0.33333333  0.33333333  0.00000000       0.222
 
 position of ions in fractional coordinates (direct lattice) 
   0.99904300  0.00064200  0.09410586
   0.00195388  0.00049582  0.38263438
   0.24849100  0.99862800  0.09563755
   0.24882230  0.99892072  0.38363891
   0.49902500  0.00192700  0.09538843
   0.50246233  0.99824220  0.38255863
   0.99813900  0.25067400  0.09552521
   0.00010919  0.24981806  0.38349260
   0.24921500  0.24886200  0.09476883
   0.24904143  0.25065165  0.38470360
   0.33446800  0.16514600  0.19222469
   0.74893500  0.25278100  0.09675772
   0.74976383  0.25122302  0.38426045
   0.41848793  0.08401433  0.28886138
   0.83203200  0.16588400  0.19407448
   0.66863160  0.08377378  0.28958192
   0.99908600  0.49910800  0.09662298
   0.99899694  0.49882697  0.38385858
   0.74816900  0.49871100  0.09562882
   0.74953608  0.50019719  0.38513136
   0.58310200  0.41320400  0.19269936
   0.42077520  0.33299548  0.28940857
   0.83119700  0.41475900  0.19429042
   0.91890744  0.33408592  0.28994110
   0.99765800  0.74896900  0.09614336
   0.99864459  0.74754668  0.38272096
   0.08195100  0.66570400  0.19334166
   0.75346500  0.75172800  0.09521148
   0.75238709  0.75014569  0.38421377
   0.41737179  0.58207228  0.29170006
   0.91615226  0.58491842  0.28937747
   0.16828067  0.83445393  0.28874549
   0.41644189  0.83013181  0.29119500
   0.92009313  0.83491829  0.28817985
   0.74918200  0.00453800  0.09669603
   0.75076015  0.00194954  0.38687471
   0.08475800  0.16932700  0.18974338
   0.49319000  0.24544000  0.09526096
   0.49603617  0.24059949  0.38642687
   0.17243779  0.08481553  0.29050527
   0.58776100  0.16931300  0.19204658
   0.91732955  0.08535549  0.28923505
   0.24596400  0.49669300  0.09728245
   0.24538932  0.49945367  0.39157246
   0.07438400  0.41509600  0.19330907
   0.50297300  0.49962100  0.09454619
   0.50230352  0.49806800  0.38546788
   0.33917200  0.41514500  0.19285128
   0.17281644  0.33982342  0.29116224
   0.67221219  0.33629568  0.29166867
   0.24490500  0.75270000  0.09701936
   0.24740871  0.75424745  0.38744251
   0.49840300  0.74988300  0.09618992
   0.49550496  0.74235524  0.38774554
   0.33208500  0.66262100  0.19522695
   0.16555908  0.58538305  0.29270611
   0.58579400  0.66826100  0.19270140
   0.83088100  0.65877500  0.19245024
   0.66762000  0.58517049  0.28994464
   0.08235500  0.91427100  0.19050529
   0.33394400  0.91584300  0.19411435
   0.58231600  0.91865200  0.19488936
   0.83419400  0.91449400  0.19236584
   0.66677887  0.83392042  0.29275936
 
 position of ions in cartesian coordinates  (Angst):
  10.08740180  0.00561565  1.99999993
   0.01723085  0.00433700  8.13199868
  -2.53339006  8.73512399  2.03255242
  -2.53152208  8.73768448  8.15334760
   5.03057555  0.01685571  2.02725796
   0.03374742  8.73174939  8.13038875
   8.81557077  2.19267682  2.03016490
  -1.26051704  2.18518982  8.15023815
   1.26035708  2.17682703  2.01408981
   1.24956595  2.19248131  8.17597518
   2.54421759  1.44455271  4.08528616
   6.28789244  2.21110702  2.05635901
   6.30413193  2.19747916  8.16655711
   3.80257244  0.73488385  6.13907287
   7.56604122  1.45100809  4.12459911
   6.33031581  0.73277975  6.15438635
   7.57050555  4.36576009  2.05349543
   7.57102529  4.36330188  8.15801623
   5.03817098  4.36228748  2.03236688
   5.04447341  4.37528734  8.18506611
   3.80276671  3.61434706  4.09537416
   2.56828119  2.91275313  6.15070218
   6.30075013  3.62794884  4.12918841
   7.59406434  2.92229136  6.16201996
   6.29424553  6.55132550  2.04330223
   6.31139338  6.53888428  8.13383887
  -2.53417788  5.82299613  4.10902474
   3.81388716  6.57545882  2.02349730
   3.81099089  6.56161812  8.16556500
   1.27602928  5.09145902  6.19940256
   6.29949314  5.11635458  6.15004120
  -2.51443480  7.29907287  6.13661004
   0.01389791  7.26126674  6.18866864
   5.07675909  7.30313472  6.12458867
   7.54405284  0.03969445  2.05504794
   7.57306479  0.01705284  8.22211699
   0.00095448  1.48112444  4.03255172
   3.74186185  2.14689437  2.02454888
   3.79505441  2.10455382  8.21259932
   1.31334358  0.74189203  6.17400995
   5.08151141  1.48100198  4.08150084
   8.83425433  0.74661516  6.14701434
  -0.02406399  4.34463578  2.06751092
  -0.04381022  4.36878370  8.32195677
  -1.34499768  3.63089662  4.10833212
   2.55701973  4.37024736  2.00935812
   2.55810067  4.35666304  8.19221813
   1.32919575  3.63132523  4.09860286
   0.02933868  2.97247797  6.18797235
   5.09120614  2.94162039  6.19873525
  -1.32763525  6.58396103  2.06191956
  -1.31016189  6.59749678  8.23418421
   1.24699942  6.55932037  2.04429175
   1.25574468  6.49347415  8.24062458
   0.00782269  5.79602875  4.14909217
  -1.28407711  5.12041872  6.22078380
   2.54187937  5.84536253  4.09541751
   5.06523981  5.76238730  4.09007969
   3.78796729  5.11855944  6.16209502
  -3.78539923  7.99724277  4.04874433
  -1.25221118  8.01099325  4.12544646
   1.24223713  8.03556392  4.14191748
   3.80728155  7.99919338  4.08828597
   2.52324591  7.29440619  6.22191532
 


--------------------------------------------------------------------------------------------------------


 k-point  1 :   0.0000 0.0000 0.0000  plane waves:   50641
 k-point  2 :   0.3333 0.0000 0.0000  plane waves:   50572
 k-point  3 :   0.0000 0.3333 0.0000  plane waves:   50572
 k-point  4 :   0.3333 0.3333 0.0000  plane waves:   50583
 k-point  5 :  -0.3333 0.3333 0.0000  plane waves:   50572

 maximum and minimum number of plane-waves per node :      2130     2087

 maximum number of plane-waves:     50641
 maximum index in each direction: 
   IXMAX=   19   IYMAX=   18   IZMAX=   39
   IXMIN=  -19   IYMIN=  -19   IZMIN=  -39


 real space projection operators:
  total allocation   :      65775.94 KBytes
  max/ min on nodes  :       3277.41       2431.83


 parallel 3D FFT for wavefunctions:
    minimum data exchange during FFTs selected (reduces bandwidth)
 parallel 3D FFT for charge:
    minimum data exchange during FFTs selected (reduces bandwidth)


 total amount of memory used by VASP MPI-rank0   113842. kBytes
=======================================================================

   base      :      30000. kBytes
   nonlr-proj:      13018. kBytes
   fftplans  :       6403. kBytes
   grid      :      16455. kBytes
   one-center:         93. kBytes
   wavefun   :      47873. kBytes
 
     INWAV:  cpu time    0.0000: real time    0.0008
 Broyden mixing: mesh for mixing (old mesh)
   NGX = 37   NGY = 37   NGZ = 79
  (NGX  =160   NGY  =160   NGZ  =320)
  gives a total of 108151 points

 initial charge density was supplied:
 number of electron     580.0000044 magnetization     103.9525808
 keeping initial charge density in first step


--------------------------------------------------------------------------------------------------------


 Maximum index for non-local projection operator          762
 Maximum index for augmentation-charges         1123 (set IRDMAX)


--------------------------------------------------------------------------------------------------------


 First call to EWALD:  gamma=   0.144
 Maximum number of real-space cells 4x 4x 2
 Maximum number of reciprocal cells 2x 2x 4

    FEWALD:  cpu time    0.0050: real time    0.0043


--------------------------------------- Iteration      1(   1)  ---------------------------------------


    POTLOK:  cpu time    0.2450: real time    0.2537
    SETDIJ:  cpu time    0.0190: real time    0.0196
     EDDAV:  cpu time   24.7072: real time   24.9760
 BZINTS: Fermi energy: 10.858896;580.000000 electrons
         Band energy:3598.985452;  BLOECHL correction: -0.014111
       DOS:  cpu time    0.0430: real time    0.0428
    --------------------------------------------
      LOOP:  cpu time   25.0142: real time   25.2922

 eigenvalue-minimisations  :  8220
 total energy-change (2. order) : 0.4479252E+04  (-0.2490045E+05)
 number of electron     580.0000044 magnetization     103.9525808
 augmentation part      580.0000044 magnetization     103.9525808

 DIPCOR: dipole corrections for dipol
 direction  3 min pos   250,
 dipolmoment           0.000000      0.000000     -0.011619 electrons x Angstroem
 Tr[quadrupol]    -10073.762165

 energy correction for charged system         0.000000 eV
 dipol+quadrupol energy correction           -0.000007 eV
 added-field ion interaction         -0.503615 eV  (added to PSCEN)


 Free energy of the ion-electron system (eV)
  ---------------------------------------------------
  alpha Z        PSCENC =      1335.70934052
  Ewald energy   TEWEN  =    188215.90441694
  -Hartree energ DENC   =   -241716.66145703
  -exchange      EXHF   =         0.00000000
  -V(xc)+E(xc)   XCENC  =      1173.10811140
  PAW double counting   =     58897.63473185   -61495.62043978
  entropy T*S    EENTRO =         0.00000000
  eigenvalues    EBANDS =      3598.98545189
  atomic energy  EATOM  =     54470.19168079
  Solvation  Ediel_sol  =         0.00000000
  ---------------------------------------------------
  free energy    TOTEN  =      4479.25183658 eV

  energy without entropy =     4479.25183658  energy(sigma->0) =     4479.25183658


--------------------------------------------------------------------------------------------------------




--------------------------------------- Iteration      1(   2)  ---------------------------------------


     EDDAV:  cpu time   24.7152: real time   24.9649
 BZINTS: Fermi energy:  1.209242;580.000000 electrons
         Band energy:-861.627839;  BLOECHL correction: -0.006176
       DOS:  cpu time    0.0430: real time    0.0433
    --------------------------------------------
      LOOP:  cpu time   24.7582: real time   25.0082

 eigenvalue-minimisations  :  8220
 total energy-change (2. order) :-0.4460613E+04  (-0.4177585E+04)
 number of electron     580.0000044 magnetization     103.9525808
 augmentation part      580.0000044 magnetization     103.9525808

 DIPCOR: dipole corrections for dipol
 direction  3 min pos   250,
 dipolmoment           0.000000      0.000000     -0.011619 electrons x Angstroem
 Tr[quadrupol]    -10073.762165

 energy correction for charged system         0.000000 eV
 dipol+quadrupol energy correction           -0.000007 eV
 added-field ion interaction         -0.503615 eV  (added to PSCEN)


 Free energy of the ion-electron system (eV)
  ---------------------------------------------------
  alpha Z        PSCENC =      1335.70934052
  Ewald energy   TEWEN  =    188215.90441694
  -Hartree energ DENC   =   -241716.66145703
  -exchange      EXHF   =         0.00000000
  -V(xc)+E(xc)   XCENC  =      1173.10811140
  PAW double counting   =     58897.63473185   -61495.62043978
  entropy T*S    EENTRO =         0.00000000
  eigenvalues    EBANDS =      -861.62783908
  atomic energy  EATOM  =     54470.19168079
  Solvation  Ediel_sol  =         0.00000000
  ---------------------------------------------------
  free energy    TOTEN  =        18.63854561 eV

  energy without entropy =       18.63854561  energy(sigma->0) =       18.63854561


--------------------------------------------------------------------------------------------------------




--------------------------------------- Iteration      1(   3)  ---------------------------------------


     EDDAV:  cpu time   25.4411: real time   25.6686
 BZINTS: Fermi energy:  0.079321;580.000000 electrons
         Band energy:***********;  BLOECHL correction: -0.010349
       DOS:  cpu time    0.0390: real time    0.0398
    --------------------------------------------
      LOOP:  cpu time   25.4801: real time   25.7084

 eigenvalue-minimisations  :  8541
 total energy-change (2. order) :-0.4134640E+03  (-0.3546187E+03)
 number of electron     580.0000044 magnetization     103.9525808
 augmentation part      580.0000044 magnetization     103.9525808

 DIPCOR: dipole corrections for dipol
 direction  3 min pos   250,
 dipolmoment           0.000000      0.000000     -0.011619 electrons x Angstroem
 Tr[quadrupol]    -10073.762165

 energy correction for charged system         0.000000 eV
 dipol+quadrupol energy correction           -0.000007 eV
 added-field ion interaction         -0.503615 eV  (added to PSCEN)


 Free energy of the ion-electron system (eV)
  ---------------------------------------------------
  alpha Z        PSCENC =      1335.70934052
  Ewald energy   TEWEN  =    188215.90441694
  -Hartree energ DENC   =   -241716.66145703
  -exchange      EXHF   =         0.00000000
  -V(xc)+E(xc)   XCENC  =      1173.10811140
  PAW double counting   =     58897.63473185   -61495.62043978
  entropy T*S    EENTRO =         0.00000000
  eigenvalues    EBANDS =     -1275.09179401
  atomic energy  EATOM  =     54470.19168079
  Solvation  Ediel_sol  =         0.00000000
  ---------------------------------------------------
  free energy    TOTEN  =      -394.82540932 eV

  energy without entropy =     -394.82540932  energy(sigma->0) =     -394.82540932


--------------------------------------------------------------------------------------------------------




--------------------------------------- Iteration      1(   4)  ---------------------------------------


     EDDAV:  cpu time   25.8801: real time   26.0878
 BZINTS: Fermi energy:  0.043247;580.000000 electrons
         Band energy:***********;  BLOECHL correction: -0.006930
       DOS:  cpu time    0.0420: real time    0.0414
    --------------------------------------------
      LOOP:  cpu time   25.9221: real time   26.1292

 eigenvalue-minimisations  :  8727
 total energy-change (2. order) :-0.1710294E+02  (-0.1674258E+02)
 number of electron     580.0000044 magnetization     103.9525808
 augmentation part      580.0000044 magnetization     103.9525808

 DIPCOR: dipole corrections for dipol
 direction  3 min pos   250,
 dipolmoment           0.000000      0.000000     -0.011619 electrons x Angstroem
 Tr[quadrupol]    -10073.762165

 energy correction for charged system         0.000000 eV
 dipol+quadrupol energy correction           -0.000007 eV
 added-field ion interaction         -0.503615 eV  (added to PSCEN)


 Free energy of the ion-electron system (eV)
  ---------------------------------------------------
  alpha Z        PSCENC =      1335.70934052
  Ewald energy   TEWEN  =    188215.90441694
  -Hartree energ DENC   =   -241716.66145703
  -exchange      EXHF   =         0.00000000
  -V(xc)+E(xc)   XCENC  =      1173.10811140
  PAW double counting   =     58897.63473185   -61495.62043978
  entropy T*S    EENTRO =         0.00000000
  eigenvalues    EBANDS =     -1292.19473084
  atomic energy  EATOM  =     54470.19168079
  Solvation  Ediel_sol  =         0.00000000
  ---------------------------------------------------
  free energy    TOTEN  =      -411.92834615 eV

  energy without entropy =     -411.92834615  energy(sigma->0) =     -411.92834615


--------------------------------------------------------------------------------------------------------




--------------------------------------- Iteration      1(   5)  ---------------------------------------


     EDDAV:  cpu time   27.4108: real time   27.5899
 BZINTS: Fermi energy:  0.042509;580.000000 electrons
         Band energy:***********;  BLOECHL correction: -0.006865
       DOS:  cpu time    0.0400: real time    0.0402
    CHARGE:  cpu time    0.7589: real time    0.7607
    MIXING:  cpu time    0.0130: real time    0.0131
    --------------------------------------------
      LOOP:  cpu time   28.2227: real time   28.4041

 eigenvalue-minimisations  :  9474
 total energy-change (2. order) :-0.3104170E+00  (-0.3102135E+00)
 number of electron     580.0000044 magnetization     103.9524863
 augmentation part      335.0844634 magnetization      86.6181965

 DIPCOR: dipole corrections for dipol
 direction  3 min pos   250,
 dipolmoment           0.000000      0.000000     -0.011619 electrons x Angstroem
 Tr[quadrupol]    -10073.762165

 energy correction for charged system         0.000000 eV
 dipol+quadrupol energy correction           -0.000007 eV
 added-field ion interaction         -0.503615 eV  (added to PSCEN)


 Broyden mixing:
  rms(total) = 0.34632E-01    rms(broyden)= 0.34553E-01
  rms(prec ) = 0.35041E-01
  weight for this iteration     100.00

 Free energy of the ion-electron system (eV)
  ---------------------------------------------------
  alpha Z        PSCENC =      1335.70934052
  Ewald energy   TEWEN  =    188215.90441694
  -Hartree energ DENC   =   -241716.66145703
  -exchange      EXHF   =         0.00000000
  -V(xc)+E(xc)   XCENC  =      1173.10811140
  PAW double counting   =     58897.63473185   -61495.62043978
  entropy T*S    EENTRO =         0.00000000
  eigenvalues    EBANDS =     -1292.50514782
  atomic energy  EATOM  =     54470.19168079
  Solvation  Ediel_sol  =         0.00000000
  ---------------------------------------------------
  free energy    TOTEN  =      -412.23876313 eV

  energy without entropy =     -412.23876313  energy(sigma->0) =     -412.23876313


--------------------------------------------------------------------------------------------------------




--------------------------------------- Iteration      1(   6)  ---------------------------------------


    POTLOK:  cpu time    0.2460: real time    0.2474
    SETDIJ:  cpu time    0.0190: real time    0.0191
    EDDIAG:  cpu time    4.1244: real time    4.1561
  RMM-DIIS:  cpu time   15.4067: real time   15.5189
    ORTHCH:  cpu time    0.6759: real time    0.6799
 BZINTS: Fermi energy:  0.045074;580.000000 electrons
         Band energy:***********;  BLOECHL correction: -0.006532
       DOS:  cpu time    0.0430: real time    0.0434
    CHARGE:  cpu time    0.7359: real time    0.7377
    MIXING:  cpu time    0.0060: real time    0.0050
    --------------------------------------------
      LOOP:  cpu time   21.2568: real time   21.4075

 eigenvalue-minimisations  :  8497
 total energy-change (2. order) :-0.7425863E-01  (-0.1682099E-01)
 number of electron     580.0000044 magnetization     103.9525406
 augmentation part      335.0112141 magnetization      86.5802857

 DIPCOR: dipole corrections for dipol
 direction  3 min pos   239,
 dipolmoment           0.000000      0.000000     -0.003198 electrons x Angstroem
 Tr[quadrupol]    -10073.804428

 energy correction for charged system         0.000000 eV
 dipol+quadrupol energy correction           -0.000000 eV
 added-field ion interaction         -0.008013 eV  (added to PSCEN)


 Broyden mixing:
  rms(total) = 0.83701E-01    rms(broyden)= 0.83682E-01
  rms(prec ) = 0.10033E+00
  weight for this iteration     100.00

 eigenvalues of (default mixing * dielectric matrix)
  average eigenvalue GAMMA=   0.2782
  0.2782

 Free energy of the ion-electron system (eV)
  ---------------------------------------------------
  alpha Z        PSCENC =      1336.20494850
  Ewald energy   TEWEN  =    188215.90441694
  -Hartree energ DENC   =   -241718.50109461
  -exchange      EXHF   =         0.00000000
  -V(xc)+E(xc)   XCENC  =      1173.22159829
  PAW double counting   =     58955.27879338   -61553.37671264
  entropy T*S    EENTRO =         0.00000000
  eigenvalues    EBANDS =     -1291.23665241
  atomic energy  EATOM  =     54470.19168079
  Solvation  Ediel_sol  =         0.00000000
  ---------------------------------------------------
  free energy    TOTEN  =      -412.31302176 eV

  energy without entropy =     -412.31302176  energy(sigma->0) =     -412.31302176


--------------------------------------------------------------------------------------------------------




--------------------------------------- Iteration      1(   7)  ---------------------------------------


    POTLOK:  cpu time    0.2420: real time    0.2447
    SETDIJ:  cpu time    0.0190: real time    0.0188
    EDDIAG:  cpu time    3.6284: real time    3.6464
  RMM-DIIS:  cpu time   21.4677: real time   21.6301
    ORTHCH:  cpu time    0.6329: real time    0.6382
 BZINTS: Fermi energy:  0.041136;580.000000 electrons
         Band energy:***********;  BLOECHL correction: -0.007241
       DOS:  cpu time    0.0420: real time    0.0413
    CHARGE:  cpu time    0.7739: real time    0.7794
    MIXING:  cpu time    0.0060: real time    0.0050
    --------------------------------------------
      LOOP:  cpu time   26.8119: real time   27.0039

 eigenvalue-minimisations  : 12136
 total energy-change (2. order) :-0.8512953E-02  (-0.4397211E-02)
 number of electron     580.0000044 magnetization     103.9524811
 augmentation part      334.9747309 magnetization      86.6001648

 DIPCOR: dipole corrections for dipol
 direction  3 min pos   232,
 dipolmoment           0.000000      0.000000     -0.024858 electrons x Angstroem
 Tr[quadrupol]    -10073.786227

 energy correction for charged system         0.000000 eV
 dipol+quadrupol energy correction           -0.000030 eV
 added-field ion interaction          0.583727 eV  (added to PSCEN)


 Broyden mixing:
  rms(total) = 0.11239E+00    rms(broyden)= 0.11238E+00
  rms(prec ) = 0.15550E+00
  weight for this iteration     100.00

 eigenvalues of (default mixing * dielectric matrix)
  average eigenvalue GAMMA=   0.2302
  0.3782  0.0822

 Free energy of the ion-electron system (eV)
  ---------------------------------------------------
  alpha Z        PSCENC =      1336.79665884
  Ewald energy   TEWEN  =    188215.90441694
  -Hartree energ DENC   =   -241717.38386666
  -exchange      EXHF   =         0.00000000
  -V(xc)+E(xc)   XCENC  =      1173.23128249
  PAW double counting   =     58958.79811653   -61556.88996771
  entropy T*S    EENTRO =         0.00000000
  eigenvalues    EBANDS =     -1292.96985593
  atomic energy  EATOM  =     54470.19168079
  Solvation  Ediel_sol  =         0.00000000
  ---------------------------------------------------
  free energy    TOTEN  =      -412.32153471 eV

  energy without entropy =     -412.32153471  energy(sigma->0) =     -412.32153471


--------------------------------------------------------------------------------------------------------




--------------------------------------- Iteration      1(   8)  ---------------------------------------


    POTLOK:  cpu time    0.2400: real time    0.2444
    SETDIJ:  cpu time    0.0200: real time    0.0190
    EDDIAG:  cpu time    3.5985: real time    3.6231
  RMM-DIIS:  cpu time   15.8636: real time   16.0174
    ORTHCH:  cpu time    0.6589: real time    0.6745
 BZINTS: Fermi energy:  0.042490;580.000000 electrons
         Band energy:***********;  BLOECHL correction: -0.006274
       DOS:  cpu time    0.0420: real time    0.0421
    CHARGE:  cpu time    0.7369: real time    0.7403
    MIXING:  cpu time    0.0050: real time    0.0051
    --------------------------------------------
      LOOP:  cpu time   21.1648: real time   21.3658

 eigenvalue-minimisations  :  8722
 total energy-change (2. order) : 0.2829372E-02  (-0.4545166E-03)
 number of electron     580.0000044 magnetization     103.9525636
 augmentation part      334.9619255 magnetization      86.6170802

 DIPCOR: dipole corrections for dipol
 direction  3 min pos   237,
 dipolmoment           0.000000      0.000000     -0.000335 electrons x Angstroem
 Tr[quadrupol]    -10073.755911

 energy correction for charged system         0.000000 eV
 dipol+quadrupol energy correction           -0.000000 eV
 added-field ion interaction          0.001648 eV  (added to PSCEN)


 Broyden mixing:
  rms(total) = 0.87360E-01    rms(broyden)= 0.87347E-01
  rms(prec ) = 0.11473E+00
  weight for this iteration     100.00

 eigenvalues of (default mixing * dielectric matrix)
  average eigenvalue GAMMA=   0.2010
  0.3808  0.1658  0.0563

 Free energy of the ion-electron system (eV)
  ---------------------------------------------------
  alpha Z        PSCENC =      1336.21460994
  Ewald energy   TEWEN  =    188215.90441694
  -Hartree energ DENC   =   -241716.97767303
  -exchange      EXHF   =         0.00000000
  -V(xc)+E(xc)   XCENC  =      1173.21444255
  PAW double counting   =     58959.01378648   -61557.06008398
  entropy T*S    EENTRO =         0.00000000
  eigenvalues    EBANDS =     -1292.81988503
  atomic energy  EATOM  =     54470.19168079
  Solvation  Ediel_sol  =         0.00000000
  ---------------------------------------------------
  free energy    TOTEN  =      -412.31870534 eV

  energy without entropy =     -412.31870534  energy(sigma->0) =     -412.31870534


--------------------------------------------------------------------------------------------------------




--------------------------------------- Iteration      1(   9)  ---------------------------------------


    POTLOK:  cpu time    0.2430: real time    0.2444
    SETDIJ:  cpu time    0.0200: real time    0.0191
    EDDIAG:  cpu time    3.6574: real time    3.6897
  RMM-DIIS:  cpu time   15.8756: real time   15.9674
    ORTHCH:  cpu time    0.6339: real time    0.6356
 BZINTS: Fermi energy:  0.041184;580.000000 electrons
         Band energy:***********;  BLOECHL correction: -0.006734
       DOS:  cpu time    0.0430: real time    0.0438
    CHARGE:  cpu time    0.7589: real time    0.7618
    MIXING:  cpu time    0.0050: real time    0.0048
    --------------------------------------------
      LOOP:  cpu time   21.2368: real time   21.3667

 eigenvalue-minimisations  :  8693
 total energy-change (2. order) : 0.2677894E-02  (-0.2407450E-03)
 number of electron     580.0000044 magnetization     103.9525603
 augmentation part      335.0062568 magnetization      86.5933766

 DIPCOR: dipole corrections for dipol
 direction  3 min pos   232,
 dipolmoment           0.000000      0.000000     -0.009832 electrons x Angstroem
 Tr[quadrupol]    -10073.785447

 energy correction for charged system         0.000000 eV
 dipol+quadrupol energy correction           -0.000005 eV
 added-field ion interaction          0.230880 eV  (added to PSCEN)


 Broyden mixing:
  rms(total) = 0.22389E-01    rms(broyden)= 0.22380E-01
  rms(prec ) = 0.24622E-01
  weight for this iteration     100.00

 eigenvalues of (default mixing * dielectric matrix)
  average eigenvalue GAMMA=   0.2532
  0.4183  0.4183  0.1211  0.0551

 Free energy of the ion-electron system (eV)
  ---------------------------------------------------
  alpha Z        PSCENC =      1336.44383738
  Ewald energy   TEWEN  =    188215.90441694
  -Hartree energ DENC   =   -241716.97021065
  -exchange      EXHF   =         0.00000000
  -V(xc)+E(xc)   XCENC  =      1173.16199830
  PAW double counting   =     58955.61417806   -61553.49327418
  entropy T*S    EENTRO =         0.00000000
  eigenvalues    EBANDS =     -1293.16865408
  atomic energy  EATOM  =     54470.19168079
  Solvation  Ediel_sol  =         0.00000000
  ---------------------------------------------------
  free energy    TOTEN  =      -412.31602744 eV

  energy without entropy =     -412.31602744  energy(sigma->0) =     -412.31602744


--------------------------------------------------------------------------------------------------------




--------------------------------------- Iteration      1(  10)  ---------------------------------------


    POTLOK:  cpu time    0.2440: real time    0.2452
    SETDIJ:  cpu time    0.0190: real time    0.0191
    EDDIAG:  cpu time    3.6744: real time    3.6941
  RMM-DIIS:  cpu time   16.0346: real time   16.1413
    ORTHCH:  cpu time    0.6749: real time    0.6798
 BZINTS: Fermi energy:  0.041053;580.000000 electrons
         Band energy:***********;  BLOECHL correction: -0.006702
       DOS:  cpu time    0.0390: real time    0.0394
    CHARGE:  cpu time    0.7279: real time    0.7308
    MIXING:  cpu time    0.0050: real time    0.0051
    --------------------------------------------
      LOOP:  cpu time   21.4187: real time   21.5549

 eigenvalue-minimisations  :  8699
 total energy-change (2. order) :-0.2098635E-03  (-0.7376369E-04)
 number of electron     580.0000044 magnetization     103.9525707
 augmentation part      334.9994119 magnetization      86.5979335

 DIPCOR: dipole corrections for dipol
 direction  3 min pos   230,
 dipolmoment           0.000000      0.000000     -0.009950 electrons x Angstroem
 Tr[quadrupol]    -10073.787310

 energy correction for charged system         0.000000 eV
 dipol+quadrupol energy correction           -0.000005 eV
 added-field ion interaction          0.307534 eV  (added to PSCEN)


 Broyden mixing:
  rms(total) = 0.27499E-01    rms(broyden)= 0.27498E-01
  rms(prec ) = 0.30127E-01
  weight for this iteration     100.00

 eigenvalues of (default mixing * dielectric matrix)
  average eigenvalue GAMMA=   0.2815
  0.5472  0.5472  0.0552  0.1432  0.1148

 Free energy of the ion-electron system (eV)
  ---------------------------------------------------
  alpha Z        PSCENC =      1336.52049052
  Ewald energy   TEWEN  =    188215.90441694
  -Hartree energ DENC   =   -241716.90418440
  -exchange      EXHF   =         0.00000000
  -V(xc)+E(xc)   XCENC  =      1173.15234595
  PAW double counting   =     58948.07839325   -61545.95660859
  entropy T*S    EENTRO =         0.00000000
  eigenvalues    EBANDS =     -1293.30277178
  atomic energy  EATOM  =     54470.19168079
  Solvation  Ediel_sol  =         0.00000000
  ---------------------------------------------------
  free energy    TOTEN  =      -412.31623731 eV

  energy without entropy =     -412.31623731  energy(sigma->0) =     -412.31623731


--------------------------------------------------------------------------------------------------------




--------------------------------------- Iteration      1(  11)  ---------------------------------------


    POTLOK:  cpu time    0.2450: real time    0.2458
    SETDIJ:  cpu time    0.0190: real time    0.0193
    EDDIAG:  cpu time    3.6025: real time    3.6230
  RMM-DIIS:  cpu time   16.0736: real time   16.1996
    ORTHCH:  cpu time    0.6319: real time    0.6341
 BZINTS: Fermi energy:  0.040768;580.000000 electrons
         Band energy:***********;  BLOECHL correction: -0.006681
       DOS:  cpu time    0.0420: real time    0.0420
    CHARGE:  cpu time    0.7619: real time    0.7651
    MIXING:  cpu time    0.0050: real time    0.0050
    --------------------------------------------
      LOOP:  cpu time   21.3807: real time   21.5339

 eigenvalue-minimisations  :  8737
 total energy-change (2. order) : 0.2159055E-03  (-0.2898492E-04)
 number of electron     580.0000044 magnetization     103.9525750
 augmentation part      335.0036060 magnetization      86.5960408

 DIPCOR: dipole corrections for dipol
 direction  3 min pos   229,
 dipolmoment           0.000000      0.000000     -0.009433 electrons x Angstroem
 Tr[quadrupol]    -10073.783582

 energy correction for charged system         0.000000 eV
 dipol+quadrupol energy correction           -0.000004 eV
 added-field ion interaction          0.326569 eV  (added to PSCEN)


 Broyden mixing:
  rms(total) = 0.12236E-01    rms(broyden)= 0.12235E-01
  rms(prec ) = 0.12951E-01
  weight for this iteration     100.00

 eigenvalues of (default mixing * dielectric matrix)
  average eigenvalue GAMMA=   0.2755
  0.5738  0.5738  0.1999  0.0552  0.1381  0.1122

 Free energy of the ion-electron system (eV)
  ---------------------------------------------------
  alpha Z        PSCENC =      1336.53952578
  Ewald energy   TEWEN  =    188215.90441694
  -Hartree energ DENC   =   -241716.72375062
  -exchange      EXHF   =         0.00000000
  -V(xc)+E(xc)   XCENC  =      1173.14380396
  PAW double counting   =     58940.26777766   -61538.15354023
  entropy T*S    EENTRO =         0.00000000
  eigenvalues    EBANDS =     -1293.48593568
  atomic energy  EATOM  =     54470.19168079
  Solvation  Ediel_sol  =         0.00000000
  ---------------------------------------------------
  free energy    TOTEN  =      -412.31602140 eV

  energy without entropy =     -412.31602140  energy(sigma->0) =     -412.31602140


--------------------------------------------------------------------------------------------------------




--------------------------------------- Iteration      1(  12)  ---------------------------------------


    POTLOK:  cpu time    0.2440: real time    0.2450
    SETDIJ:  cpu time    0.0190: real time    0.0190
    EDDIAG:  cpu time    3.6434: real time    3.6633
  RMM-DIIS:  cpu time   15.9106: real time   16.0085
    ORTHCH:  cpu time    0.6349: real time    0.6377
 BZINTS: Fermi energy:  0.040781;580.000000 electrons
         Band energy:***********;  BLOECHL correction: -0.006698
       DOS:  cpu time    0.0400: real time    0.0405
    CHARGE:  cpu time    0.7549: real time    0.7584
    MIXING:  cpu time    0.0050: real time    0.0052
    --------------------------------------------
      LOOP:  cpu time   21.2518: real time   21.3776

 eigenvalue-minimisations  :  8800
 total energy-change (2. order) :-0.8884788E-05  (-0.8213332E-05)
 number of electron     580.0000044 magnetization     103.9525792
 augmentation part      335.0000715 magnetization      86.5982598

 DIPCOR: dipole corrections for dipol
 direction  3 min pos   228,
 dipolmoment           0.000000      0.000000     -0.009513 electrons x Angstroem
 Tr[quadrupol]    -10073.786960

 energy correction for charged system         0.000000 eV
 dipol+quadrupol energy correction           -0.000004 eV
 added-field ion interaction          0.364648 eV  (added to PSCEN)


 Broyden mixing:
  rms(total) = 0.89258E-02    rms(broyden)= 0.89256E-02
  rms(prec ) = 0.91602E-02
  weight for this iteration     100.00

 eigenvalues of (default mixing * dielectric matrix)
  average eigenvalue GAMMA=   0.3179
  0.6994  0.6994  0.3700  0.0552  0.1649  0.1268  0.1095

 Free energy of the ion-electron system (eV)
  ---------------------------------------------------
  alpha Z        PSCENC =      1336.57760481
  Ewald energy   TEWEN  =    188215.90441694
  -Hartree energ DENC   =   -241716.82109711
  -exchange      EXHF   =         0.00000000
  -V(xc)+E(xc)   XCENC  =      1173.14404712
  PAW double counting   =     58937.52152328   -61535.42090683
  entropy T*S    EENTRO =         0.00000000
  eigenvalues    EBANDS =     -1293.41329929
  atomic energy  EATOM  =     54470.19168079
  Solvation  Ediel_sol  =         0.00000000
  ---------------------------------------------------
  free energy    TOTEN  =      -412.31603029 eV

  energy without entropy =     -412.31603029  energy(sigma->0) =     -412.31603029


--------------------------------------------------------------------------------------------------------




--------------------------------------- Iteration      1(  13)  ---------------------------------------


    POTLOK:  cpu time    0.2620: real time    0.2632
    SETDIJ:  cpu time    0.0340: real time    0.0332
    EDDIAG:  cpu time    3.5965: real time    3.6113
  RMM-DIIS:  cpu time   17.9133: real time   17.9788
    ORTHCH:  cpu time    0.6519: real time    0.6559
 BZINTS: Fermi energy:  0.040686;580.000000 electrons
         Band energy:***********;  BLOECHL correction: -0.006700
       DOS:  cpu time    0.0400: real time    0.0397
    CHARGE:  cpu time    0.7379: real time    0.7396
    MIXING:  cpu time    0.0060: real time    0.0051
    --------------------------------------------
      LOOP:  cpu time   23.2415: real time   23.3268

 eigenvalue-minimisations  : 10065
 total energy-change (2. order) :-0.3174986E-04  (-0.2803380E-05)
 number of electron     580.0000044 magnetization     103.9525831
 augmentation part      335.0010632 magnetization      86.5982241

 DIPCOR: dipole corrections for dipol
 direction  3 min pos   228,
 dipolmoment           0.000000      0.000000     -0.009598 electrons x Angstroem
 Tr[quadrupol]    -10073.786308

 energy correction for charged system         0.000000 eV
 dipol+quadrupol energy correction           -0.000004 eV
 added-field ion interaction          0.367906 eV  (added to PSCEN)


 Broyden mixing:
  rms(total) = 0.78006E-02    rms(broyden)= 0.78005E-02
  rms(prec ) = 0.79886E-02
  weight for this iteration     100.00

 eigenvalues of (default mixing * dielectric matrix)
  average eigenvalue GAMMA=   0.3112
  0.7509  0.7509  0.3581  0.0552  0.1991  0.1333  0.1333  0.1087

 Free energy of the ion-electron system (eV)
  ---------------------------------------------------
  alpha Z        PSCENC =      1336.58086327
  Ewald energy   TEWEN  =    188215.90441694
  -Hartree energ DENC   =   -241716.76209424
  -exchange      EXHF   =         0.00000000
  -V(xc)+E(xc)   XCENC  =      1173.13857694
  PAW double counting   =     58931.44265615   -61529.34492967
  entropy T*S    EENTRO =         0.00000000
  eigenvalues    EBANDS =     -1293.46723223
  atomic energy  EATOM  =     54470.19168079
  Solvation  Ediel_sol  =         0.00000000
  ---------------------------------------------------
  free energy    TOTEN  =      -412.31606204 eV

  energy without entropy =     -412.31606204  energy(sigma->0) =     -412.31606204


--------------------------------------------------------------------------------------------------------




--------------------------------------- Iteration      1(  14)  ---------------------------------------


    POTLOK:  cpu time    0.2440: real time    0.2456
    SETDIJ:  cpu time    0.0200: real time    0.0186
    EDDIAG:  cpu time    3.7334: real time    3.7446
  RMM-DIIS:  cpu time   15.1647: real time   15.2323
    ORTHCH:  cpu time    0.6719: real time    0.6757
 BZINTS: Fermi energy:  0.040633;580.000000 electrons
         Band energy:***********;  BLOECHL correction: -0.006698
       DOS:  cpu time    0.0450: real time    0.0446
    CHARGE:  cpu time    0.7569: real time    0.7588
    MIXING:  cpu time    0.0060: real time    0.0054
    --------------------------------------------
      LOOP:  cpu time   20.6419: real time   20.7257

 eigenvalue-minimisations  :  8428
 total energy-change (2. order) :-0.1338273E-04  (-0.7804163E-06)
 number of electron     580.0000044 magnetization     103.9525892
 augmentation part      335.0023879 magnetization      86.5977063

 DIPCOR: dipole corrections for dipol
 direction  3 min pos   228,
 dipolmoment           0.000000      0.000000     -0.009664 electrons x Angstroem
 Tr[quadrupol]    -10073.786271

 energy correction for charged system         0.000000 eV
 dipol+quadrupol energy correction           -0.000005 eV
 added-field ion interaction          0.370429 eV  (added to PSCEN)


 Broyden mixing:
  rms(total) = 0.66100E-02    rms(broyden)= 0.66099E-02
  rms(prec ) = 0.67025E-02
  weight for this iteration     100.00

 eigenvalues of (default mixing * dielectric matrix)
  average eigenvalue GAMMA=   0.3468
  0.8576  0.8576  0.4051  0.4051  0.0552  0.1093  0.1229  0.1542  0.1542

 Free energy of the ion-electron system (eV)
  ---------------------------------------------------
  alpha Z        PSCENC =      1336.58338639
  Ewald energy   TEWEN  =    188215.90441694
  -Hartree energ DENC   =   -241716.72574119
  -exchange      EXHF   =         0.00000000
  -V(xc)+E(xc)   XCENC  =      1173.13467258
  PAW double counting   =     58927.80640915   -61525.70693666
  entropy T*S    EENTRO =         0.00000000
  eigenvalues    EBANDS =     -1293.50396342
  atomic energy  EATOM  =     54470.19168079
  Solvation  Ediel_sol  =         0.00000000
  ---------------------------------------------------
  free energy    TOTEN  =      -412.31607542 eV

  energy without entropy =     -412.31607542  energy(sigma->0) =     -412.31607542


--------------------------------------------------------------------------------------------------------




--------------------------------------- Iteration      1(  15)  ---------------------------------------


    POTLOK:  cpu time    0.2460: real time    0.2463
    SETDIJ:  cpu time    0.0180: real time    0.0187
    EDDIAG:  cpu time    3.6614: real time    3.6720
  RMM-DIIS:  cpu time   12.8081: real time   12.8522
    ORTHCH:  cpu time    0.6979: real time    0.7004
 BZINTS: Fermi energy:  0.040561;580.000000 electrons
         Band energy:***********;  BLOECHL correction: -0.006703
       DOS:  cpu time    0.0400: real time    0.0396
    CHARGE:  cpu time    0.7279: real time    0.7302
    MIXING:  cpu time    0.0060: real time    0.0055
    --------------------------------------------
      LOOP:  cpu time   18.2052: real time   18.2648

 eigenvalue-minimisations  :  7004
 total energy-change (2. order) :-0.3474241E-04  (-0.4247382E-06)
 number of electron     580.0000044 magnetization     103.9525960
 augmentation part      335.0029413 magnetization      86.5980534

 DIPCOR: dipole corrections for dipol
 direction  3 min pos   228,
 dipolmoment           0.000000      0.000000     -0.009669 electrons x Angstroem
 Tr[quadrupol]    -10073.786027

 energy correction for charged system         0.000000 eV
 dipol+quadrupol energy correction           -0.000005 eV
 added-field ion interaction          0.370616 eV  (added to PSCEN)


 Broyden mixing:
  rms(total) = 0.58494E-02    rms(broyden)= 0.58494E-02
  rms(prec ) = 0.59964E-02
  weight for this iteration     100.00

 eigenvalues of (default mixing * dielectric matrix)
  average eigenvalue GAMMA=   0.3651
  0.9914  0.9914  0.4616  0.4616  0.0552  0.1651  0.1651  0.1085  0.1254  0.1254

 Free energy of the ion-electron system (eV)
  ---------------------------------------------------
  alpha Z        PSCENC =      1336.58357307
  Ewald energy   TEWEN  =    188215.90441694
  -Hartree energ DENC   =   -241716.68977011
  -exchange      EXHF   =         0.00000000
  -V(xc)+E(xc)   XCENC  =      1173.13074418
  PAW double counting   =     58922.61904556   -61520.52207933
  entropy T*S    EENTRO =         0.00000000
  eigenvalues    EBANDS =     -1293.53372126
  atomic energy  EATOM  =     54470.19168079
  Solvation  Ediel_sol  =         0.00000000
  ---------------------------------------------------
  free energy    TOTEN  =      -412.31611016 eV

  energy without entropy =     -412.31611016  energy(sigma->0) =     -412.31611016


--------------------------------------------------------------------------------------------------------




--------------------------------------- Iteration      1(  16)  ---------------------------------------


    POTLOK:  cpu time    0.2440: real time    0.2450
    SETDIJ:  cpu time    0.0190: real time    0.0185
    EDDIAG:  cpu time    3.6594: real time    3.6728
  RMM-DIIS:  cpu time   13.9379: real time   13.9910
    ORTHCH:  cpu time    0.6339: real time    0.6353
 BZINTS: Fermi energy:  0.040440;580.000000 electrons
         Band energy:***********;  BLOECHL correction: -0.006700
       DOS:  cpu time    0.0400: real time    0.0414
    CHARGE:  cpu time    0.7429: real time    0.7437
    MIXING:  cpu time    0.0070: real time    0.0059
    --------------------------------------------
      LOOP:  cpu time   19.2841: real time   19.3537

 eigenvalue-minimisations  :  7640
 total energy-change (2. order) :-0.3043744E-04  (-0.4898356E-06)
 number of electron     580.0000044 magnetization     103.9526022
 augmentation part      335.0044501 magnetization      86.5979266

 DIPCOR: dipole corrections for dipol
 direction  3 min pos   228,
 dipolmoment           0.000000      0.000000     -0.009760 electrons x Angstroem
 Tr[quadrupol]    -10073.785161

 energy correction for charged system         0.000000 eV
 dipol+quadrupol energy correction           -0.000005 eV
 added-field ion interaction          0.374108 eV  (added to PSCEN)


 Broyden mixing:
  rms(total) = 0.42845E-02    rms(broyden)= 0.42844E-02
  rms(prec ) = 0.43703E-02
  weight for this iteration     100.00

 eigenvalues of (default mixing * dielectric matrix)
  average eigenvalue GAMMA=   0.3850
  1.0961  1.0961  0.4939  0.4939  0.3139  0.0552  0.1845  0.1372  0.1372  0.1094
  0.1178

 Free energy of the ion-electron system (eV)
  ---------------------------------------------------
  alpha Z        PSCENC =      1336.58706467
  Ewald energy   TEWEN  =    188215.90441694
  -Hartree energ DENC   =   -241716.61414298
  -exchange      EXHF   =         0.00000000
  -V(xc)+E(xc)   XCENC  =      1173.12487989
  PAW double counting   =     58915.56079904   -61513.46549440
  entropy T*S    EENTRO =         0.00000000
  eigenvalues    EBANDS =     -1293.60534456
  atomic energy  EATOM  =     54470.19168079
  Solvation  Ediel_sol  =         0.00000000
  ---------------------------------------------------
  free energy    TOTEN  =      -412.31614060 eV

  energy without entropy =     -412.31614060  energy(sigma->0) =     -412.31614060


--------------------------------------------------------------------------------------------------------




--------------------------------------- Iteration      1(  17)  ---------------------------------------


    POTLOK:  cpu time    0.2440: real time    0.2481
    SETDIJ:  cpu time    0.0190: real time    0.0185
    EDDIAG:  cpu time    3.5875: real time    3.5962
  RMM-DIIS:  cpu time   11.0793: real time   11.1256
    ORTHCH:  cpu time    0.6339: real time    0.6357
 BZINTS: Fermi energy:  0.040986;580.000000 electrons
         Band energy:***********;  BLOECHL correction: -0.006704
       DOS:  cpu time    0.0380: real time    0.0384
    CHARGE:  cpu time    0.7539: real time    0.7553
    MIXING:  cpu time    0.0060: real time    0.0058
    --------------------------------------------
      LOOP:  cpu time   16.3615: real time   16.4237

 eigenvalue-minimisations  :  5926
 total energy-change (2. order) :-0.2199130E-04  (-0.2766858E-06)
 number of electron     580.0000044 magnetization     103.9526106
 augmentation part      335.0053555 magnetization      86.5978461

 DIPCOR: dipole corrections for dipol
 direction  3 min pos   238,
 dipolmoment           0.000000      0.000000     -0.010278 electrons x Angstroem
 Tr[quadrupol]    -10073.771464

 energy correction for charged system         0.000000 eV
 dipol+quadrupol energy correction           -0.000005 eV
 added-field ion interaction          0.012409 eV  (added to PSCEN)


 Broyden mixing:
  rms(total) = 0.35717E-02    rms(broyden)= 0.35717E-02
  rms(prec ) = 0.37067E-02
  weight for this iteration     100.00

 eigenvalues of (default mixing * dielectric matrix)
  average eigenvalue GAMMA=   0.4365
  1.3502  1.3502  0.6115  0.6115  0.4279  0.0552  0.1853  0.1478  0.1478  0.1088
  0.1211  0.1211

 Free energy of the ion-electron system (eV)
  ---------------------------------------------------
  alpha Z        PSCENC =      1336.22536544
  Ewald energy   TEWEN  =    188215.90441694
  -Hartree energ DENC   =   -241716.57622859
  -exchange      EXHF   =         0.00000000
  -V(xc)+E(xc)   XCENC  =      1173.12138589
  PAW double counting   =     58911.41433056   -61509.32029021
  entropy T*S    EENTRO =         0.00000000
  eigenvalues    EBANDS =     -1293.27682341
  atomic energy  EATOM  =     54470.19168079
  Solvation  Ediel_sol  =         0.00000000
  ---------------------------------------------------
  free energy    TOTEN  =      -412.31616259 eV

  energy without entropy =     -412.31616259  energy(sigma->0) =     -412.31616259


--------------------------------------------------------------------------------------------------------




--------------------------------------- Iteration      1(  18)  ---------------------------------------


    POTLOK:  cpu time    0.2520: real time    0.2530
    SETDIJ:  cpu time    0.0190: real time    0.0185
    EDDIAG:  cpu time    3.6185: real time    3.6301
[...]
   -.104E+03 -.382E+02 0.272E+04   0.104E+03 0.382E+02 -.271E+04   -.224E+00 0.805E-01 -.113E+01   0.432E-02 -.529E-02 0.101E-01
   -.820E+02 -.232E+02 -.272E+04   0.823E+02 0.235E+02 0.271E+04   -.297E+00 -.245E+00 0.835E+00   -.427E-03 -.367E-02 -.171E-01
   0.812E+02 -.306E+01 0.273E+04   -.815E+02 0.297E+01 -.273E+04   0.235E+00 0.107E+00 -.118E+01   -.760E-04 -.878E-02 0.883E-02
   0.934E+02 0.310E+02 -.272E+04   -.939E+02 -.312E+02 0.272E+04   0.537E+00 0.256E+00 0.150E+01   0.233E-02 -.772E-02 -.150E-01
   0.871E+02 -.566E+02 0.924E+03   -.872E+02 0.569E+02 -.924E+03   0.161E+00 -.297E+00 -.436E+00   -.375E-02 -.434E-02 -.819E-03
   0.524E+02 -.566E+02 -.882E+03   -.524E+02 0.568E+02 0.882E+03   -.456E-01 -.180E+00 0.153E+00   0.205E-02 0.413E-04 -.254E-01
   0.583E+01 0.468E+01 0.883E+03   -.578E+01 -.470E+01 -.883E+03   -.550E-01 0.225E-03 -.318E+00   0.431E-02 -.687E-02 -.158E-02
   -.990E+02 0.158E+02 -.849E+03   0.992E+02 -.157E+02 0.849E+03   -.201E+00 -.665E-01 0.247E+00   -.235E-02 0.121E-04 -.213E-01
   -.154E+02 -.182E+02 0.269E+04   0.153E+02 0.183E+02 -.269E+04   0.495E-01 -.193E-01 -.152E+01   0.620E-02 -.580E-02 0.843E-02
   -.109E+02 -.152E+02 -.272E+04   0.108E+02 0.153E+02 0.272E+04   0.484E-01 -.804E-01 0.125E+01   0.554E-02 -.427E-02 -.130E-01
   -.109E+03 -.324E+02 0.925E+03   0.109E+03 0.326E+02 -.925E+03   -.242E+00 -.108E+00 -.477E+00   0.394E-02 -.758E-02 -.507E-02
   0.135E+03 -.713E+01 0.266E+04   -.136E+03 0.701E+01 -.265E+04   0.613E+00 0.210E-03 -.156E+01   -.819E-02 -.584E-02 0.934E-02
   0.116E+03 -.517E+01 -.268E+04   -.116E+03 0.506E+01 0.267E+04   0.699E+00 0.130E+00 0.109E+01   -.500E-02 -.427E-02 -.147E-01
   0.125E+02 -.957E+01 -.881E+03   -.124E+02 0.963E+01 0.881E+03   -.957E-01 -.241E-01 0.491E+00   0.634E-04 -.266E-02 -.209E-01
   0.221E+02 -.794E+00 -.838E+03   -.222E+02 0.825E+00 0.837E+03   0.113E+00 -.156E-01 0.340E+00   0.202E-02 -.878E-02 -.184E-01
   -.390E+02 -.812E+01 -.808E+03   0.390E+02 0.810E+01 0.807E+03   0.171E-01 0.263E-01 0.311E+00   0.334E-02 0.539E-04 -.160E-01
   -.666E+02 0.828E+02 -.857E+03   0.666E+02 -.830E+02 0.857E+03   0.333E-02 0.260E+00 0.455E+00   0.161E-03 -.858E-03 -.152E-01
   0.107E+03 -.560E+02 -.749E+03   -.107E+03 0.560E+02 0.749E+03   0.217E+00 -.261E-02 0.486E+00   0.455E-03 -.868E-03 -.208E-01
   0.207E+02 0.834E+02 0.213E+04   -.210E+02 -.837E+02 -.212E+04   0.282E+00 0.376E+00 -.286E+01   -.388E-02 0.471E-02 0.534E-02
   -.552E+01 0.540E+02 -.218E+04   0.529E+01 -.544E+02 0.217E+04   0.241E+00 0.322E+00 0.339E+01   -.572E-02 0.142E-02 -.105E-01
   -.127E+00 -.147E+02 0.702E+03   0.205E+00 0.146E+02 -.701E+03   -.144E+00 -.936E-02 -.105E+01   -.943E-04 0.739E-02 -.246E-03
   0.113E+02 -.231E+02 0.218E+04   -.112E+02 0.230E+02 -.218E+04   0.883E-01 0.106E+00 -.266E+01   -.212E-03 0.369E-02 0.791E-02
   0.232E+02 -.497E+02 -.220E+04   -.231E+02 0.498E+02 0.220E+04   -.131E+00 -.140E-01 0.289E+01   0.283E-02 -.538E-03 -.115E-01
   0.784E+02 -.457E+02 -.636E+03   -.788E+02 0.458E+02 0.636E+03   0.398E+00 -.104E+00 0.512E+00   0.302E-02 0.479E-02 -.180E-01
   0.204E+02 0.613E+02 0.752E+03   -.206E+02 -.615E+02 -.752E+03   0.181E+00 0.230E+00 -.279E+00   0.608E-03 0.507E-02 -.189E-02
   -.401E+02 0.293E+02 -.643E+03   0.402E+02 -.295E+02 0.642E+03   -.119E+00 0.302E+00 0.389E+00   -.418E-02 0.618E-02 -.188E-01
   -.636E+02 -.762E+02 0.210E+04   0.639E+02 0.770E+02 -.210E+04   -.375E+00 -.634E+00 -.258E+01   0.121E-02 0.565E-03 0.704E-02
   -.492E+02 -.396E+02 -.220E+04   0.496E+02 0.405E+02 0.220E+04   -.440E+00 -.880E+00 0.321E+01   -.342E-03 0.331E-02 -.987E-02
   -.153E+03 -.246E+02 0.709E+03   0.153E+03 0.248E+02 -.708E+03   -.669E+00 -.234E+00 -.535E+00   -.622E-03 -.208E-02 -.405E-02
   0.849E+02 -.457E+02 0.215E+04   -.852E+02 0.458E+02 -.215E+04   0.402E+00 -.872E-01 -.287E+01   -.488E-02 -.236E-02 0.623E-02
   0.398E+02 -.118E+02 -.216E+04   -.402E+02 0.121E+02 0.216E+04   0.312E+00 -.334E+00 0.233E+01   -.140E-02 -.138E-02 -.108E-01
   0.725E+02 -.667E+02 0.749E+03   -.730E+02 0.671E+02 -.749E+03   0.567E+00 -.431E+00 0.557E-01   0.188E-03 -.167E-02 -.487E-02
   -.139E+02 -.127E+02 -.655E+03   0.138E+02 0.127E+02 0.654E+03   0.132E+00 0.625E-01 0.732E+00   -.860E-03 0.111E-02 -.199E-01
   0.632E+02 0.630E+01 -.727E+03   -.634E+02 -.619E+01 0.727E+03   0.217E+00 -.933E-01 0.772E-01   0.203E-02 -.250E-02 -.167E-01
   -.118E+03 0.297E+02 0.213E+04   0.118E+03 -.299E+02 -.213E+04   -.518E+00 0.231E-02 -.245E+01   0.425E-02 -.616E-02 0.520E-02
   -.780E+02 0.399E+02 -.221E+04   0.785E+02 -.402E+02 0.220E+04   -.529E+00 0.330E+00 0.279E+01   0.312E-02 0.430E-03 -.913E-02
   0.160E+02 0.343E+02 0.210E+04   -.164E+02 -.347E+02 -.210E+04   0.368E+00 0.267E+00 -.280E+01   -.277E-02 -.568E-02 0.391E-02
   -.785E+01 0.189E+02 -.218E+04   0.763E+01 -.193E+02 0.218E+04   0.211E+00 0.427E+00 0.244E+01   -.357E-02 0.956E-03 -.816E-02
   -.600E+02 0.178E+02 0.755E+03   0.600E+02 -.178E+02 -.756E+03   -.101E+00 -.732E-01 0.344E+00   0.826E-03 -.456E-02 -.707E-02
   -.111E+03 0.176E+02 -.720E+03   0.112E+03 -.177E+02 0.720E+03   -.537E+00 0.123E+00 0.189E+00   -.882E-03 -.375E-02 -.152E-01
   0.614E+02 -.311E+02 0.747E+03   -.615E+02 0.313E+02 -.747E+03   0.133E+00 -.163E+00 -.620E+00   -.433E-02 -.575E-02 -.319E-02
   0.926E+02 -.651E+02 0.725E+03   -.930E+02 0.652E+02 -.725E+03   0.242E+00 -.231E+00 -.689E+00   0.516E-03 -.608E-02 -.401E-03
   0.784E+02 -.247E+02 -.669E+03   -.787E+02 0.248E+02 0.668E+03   0.252E+00 -.970E-01 0.444E+00   -.144E-02 -.535E-02 -.177E-01
   0.431E+02 -.395E+02 0.740E+03   -.434E+02 0.397E+02 -.740E+03   0.349E+00 -.189E+00 -.505E+00   0.267E-02 0.333E-02 0.104E-03
   -.597E+02 0.381E+02 0.757E+03   0.600E+02 -.384E+02 -.757E+03   -.385E+00 0.374E+00 -.217E+00   0.110E-02 0.212E-02 -.234E-02
   -.302E+02 0.939E+02 0.747E+03   0.306E+02 -.944E+02 -.747E+03   -.313E+00 0.478E+00 -.125E+00   -.206E-03 0.702E-03 -.268E-02
   0.462E+02 0.139E+02 0.716E+03   -.465E+02 -.140E+02 -.715E+03   0.275E+00 0.363E-01 -.665E+00   -.330E-02 0.398E-02 -.894E-03
   0.273E+01 0.187E+02 -.695E+03   -.261E+01 -.184E+02 0.694E+03   -.869E-01 -.274E+00 0.468E+00   -.387E-02 0.149E-03 -.151E-01
 -----------------------------------------------------------------------------------------------
   -.102E+01 -.141E+00 0.183E+01   -.413E-12 0.497E-13 0.568E-11   0.101E+01 0.139E+00 -.142E+01   0.559E-02 0.334E-03 -.415E+00
 
 
 POSITION                                       TOTAL-FORCE (eV/Angst)
 -----------------------------------------------------------------------------------
     10.08740      0.00562      2.00000         0.009767      0.026358      0.322793
      0.01723      0.00434      8.13200        -0.012638      0.007191     -0.046581
     -2.53339      8.73512      2.03255        -0.067892     -0.088137      0.319182
     -2.53152      8.73768      8.15335         0.040064      0.015971     -0.068739
      5.03058      0.01686      2.02726         0.024463     -0.065221      0.448092
      0.03375      8.73175      8.13039         0.000643     -0.023215     -0.063962
      8.81557      2.19268      2.03016         0.112331     -0.077979      0.362554
     -1.26052      2.18519      8.15024         0.011742      0.005831     -0.065303
      1.26036      2.17683      2.01409        -0.176719      0.134447      0.335900
      1.24957      2.19248      8.17598        -0.007754      0.042247     -0.069588
      2.54422      1.44455      4.08529         0.050591      0.059378      0.044875
      6.28789      2.21111      2.05636        -0.043941      0.045702      0.339680
      6.30413      2.19748      8.16656        -0.015650     -0.003375     -0.065104
      3.80257      0.73488      6.13907        -0.007350      0.031160     -0.116997
      7.56604      1.45101      4.12460        -0.010468     -0.082347     -0.261437
      6.33032      0.73278      6.15439        -0.016025     -0.003772     -0.086399
      7.57051      4.36576      2.05350         0.028967      0.068487      0.372336
      7.57103      4.36330      8.15802         0.045292      0.013764     -0.053766
      5.03817      4.36229      2.03237        -0.100187     -0.009559      0.332483
      5.04447      4.37529      8.18507        -0.036426     -0.013556     -0.054632
      3.80277      3.61435      4.09537        -0.022625      0.015440      0.009699
      2.56828      2.91275      6.15070         0.000962     -0.001813     -0.095331
      6.30075      3.62795      4.12919        -0.011790     -0.031784     -0.052534
      7.59406      2.92229      6.16202         0.008845      0.008187     -0.083938
      6.29425      6.55133      2.04330        -0.084259      0.057567      0.248138
      6.31139      6.53888      8.13384         0.010692     -0.005073     -0.029097
     -2.53418      5.82300      4.10902         0.116371      0.042155      0.006292
      3.81389      6.57546      2.02350        -0.010821     -0.121409      0.268156
      3.81099      6.56162      8.16556        -0.023638      0.013896     -0.045037
      1.27603      5.09146      6.19940        -0.007486      0.030517     -0.102185
      6.29949      5.11635      6.15004        -0.002355      0.009065     -0.109495
     -2.51443      7.29907      6.13661         0.016345     -0.000280     -0.115442
      0.01390      7.26127      6.18867         0.003471     -0.002212     -0.086556
      5.07676      7.30313      6.12459         0.004626      0.005705     -0.103449
      7.54405      0.03969      2.05505         0.014458      0.062172      0.236580
      7.57306      0.01705      8.22212        -0.003438     -0.043636     -0.082465
      0.00095      1.48112      4.03255        -0.067384     -0.035720     -0.164861
      3.74186      2.14689      2.02455         0.218189      0.026483      0.108572
      3.79505      2.10455      8.21260        -0.003425      0.036188     -0.087465
      1.31334      0.74189      6.17401         0.020676     -0.003766     -0.087418
      5.08151      1.48100      4.08150        -0.001950      0.049621     -0.232017
      8.83425      0.74662      6.14701        -0.008137      0.028543     -0.064215
     -0.02406      4.34464      2.06751        -0.042120      0.148492     -0.094165
     -0.04381      4.36878      8.32196         0.000288      0.032992     -0.085185
     -1.34500      3.63090      4.10833         0.068430     -0.006374     -0.128996
      2.55702      4.37025      2.00936         0.086203      0.046406      0.175801
      2.55810      4.35666      8.19222        -0.012740      0.009957     -0.106851
      1.32920      3.63133      4.09860         0.070913     -0.067611      0.057100
      0.02934      2.97248      6.18797         0.006515      0.023588     -0.078583
      5.09121      2.94162      6.19874        -0.001616      0.015373     -0.088624
     -1.32764      6.58396      2.06192         0.110894     -0.191397      0.115916
     -1.31016      6.59750      8.23418        -0.010508      0.009786     -0.066180
      1.24700      6.55932      2.04429        -0.080806     -0.147470      0.152825
      1.25574      6.49347      8.24062        -0.023539     -0.031498     -0.103239
      0.00782      5.79603      4.14909        -0.065714     -0.041303      0.046386
     -1.28408      5.12042      6.22078         0.023379      0.014456     -0.077529
      2.54188      5.84536      4.09542        -0.018226      0.022319     -0.062919
      5.06524      5.76239      4.09008        -0.165466     -0.097707     -0.202879
      3.78797      5.11856      6.16210        -0.006815     -0.005874     -0.090071
     -3.78540      7.99724      4.04874         0.062256      0.074016     -0.162582
     -1.25221      8.01099      4.12545        -0.069951      0.015983     -0.122064
      1.24224      8.03556      4.14192         0.094764     -0.054177     -0.086642
      3.80728      7.99919      4.08829        -0.043620      0.001537     -0.165337
      2.52325      7.29441      6.22192         0.021343      0.005288     -0.087503
 -----------------------------------------------------------------------------------
    total drift:                               -0.001205     -0.001710     -0.004809


--------------------------------------------------------------------------------------------------------



  FREE ENERGIE OF THE ION-ELECTRON SYSTEM (eV)
  ---------------------------------------------------
  free  energy   TOTEN  =      -427.44006753 eV

  energy  without entropy=     -427.44006753  energy(sigma->0) =     -427.44006753
 


--------------------------------------------------------------------------------------------------------


    POTLOK:  cpu time    0.4559: real time    0.4675


--------------------------------------------------------------------------------------------------------


     LOOP+:  cpu time  438.6053: real time  441.6945
    4ORBIT:  cpu time    0.0000: real time    0.0000
 


 total charge     
 
# of ion       s       p       d       tot
------------------------------------------
    1        0.492   0.371   8.309   9.172
    2        0.494   0.384   8.313   9.191
    3        0.499   0.385   8.320   9.204
    4        0.500   0.386   8.333   9.218
    5        0.503   0.394   8.309   9.206
    6        0.501   0.405   8.313   9.219
    7        0.496   0.377   8.317   9.190
    8        0.503   0.392   8.320   9.216
    9        0.498   0.387   8.311   9.197
   10        0.502   0.394   8.313   9.209
   11        0.506   0.507   8.319   9.331
   12        0.490   0.375   8.319   9.184
   13        0.498   0.386   8.320   9.204
   14        0.503   0.504   8.315   9.322
   15        0.511   0.513   8.326   9.349
   16        0.508   0.511   8.323   9.342
   17        0.490   0.373   8.321   9.184
   18        0.500   0.394   8.311   9.206
   19        0.489   0.372   8.313   9.174
   20        0.501   0.385   8.317   9.203
   21        0.513   0.519   8.317   9.349
   22        0.508   0.515   8.313   9.336
   23        0.504   0.501   8.331   9.336
   24        0.506   0.510   8.332   9.348
   25        0.495   0.378   8.314   9.187
   26        0.487   0.378   8.317   9.183
   27        0.506   0.508   8.324   9.339
   28        0.497   0.380   8.316   9.193
   29        0.504   0.391   8.321   9.216
   30        0.517   0.530   8.313   9.361
   31        0.503   0.498   8.336   9.337
   32        0.503   0.504   8.326   9.333
   33        0.509   0.514   8.321   9.345
   34        0.505   0.504   8.331   9.341
   35        0.458   0.380   6.138   6.975
   36        0.463   0.379   6.137   6.980
   37        0.466   0.488   6.189   7.143
   38        0.463   0.388   6.128   6.980
   39        0.461   0.385   6.113   6.959
   40        0.470   0.496   6.160   7.126
   41        0.473   0.498   6.187   7.159
   42        0.471   0.502   6.191   7.164
   43        0.466   0.392   6.151   7.009
   44        0.465   0.380   6.147   6.991
   45        0.473   0.501   6.182   7.156
   46        0.464   0.385   6.148   6.997
   47        0.464   0.395   6.154   7.013
   48        0.470   0.494   6.200   7.165
   49        0.471   0.499   6.193   7.163
   50        0.471   0.502   6.169   7.142
   51        0.462   0.388   6.139   6.990
   52        0.466   0.391   6.131   6.989
   53        0.462   0.386   6.155   7.003
   54        0.467   0.394   6.155   7.016
   55        0.473   0.504   6.205   7.183
   56        0.471   0.503   6.195   7.169
   57        0.476   0.502   6.224   7.202
   58        0.471   0.497   6.185   7.153
   59        0.475   0.501   6.209   7.185
   60        0.468   0.491   6.183   7.142
   61        0.471   0.495   6.188   7.155
   62        0.477   0.506   6.210   7.194
   63        0.471   0.501   6.201   7.173
   64        0.475   0.507   6.213   7.195
--------------------------------------------------
tot         31.102  28.455 468.037 527.594
 


 magnetization (x)
 
# of ion       s       p       d       tot
------------------------------------------
    1       -0.022  -0.029   0.722   0.671
    2       -0.018  -0.029   0.729   0.682
    3       -0.020  -0.032   0.685   0.633
    4       -0.018  -0.025   0.658   0.616
    5       -0.029  -0.044   0.729   0.656
    6       -0.021  -0.041   0.714   0.652
    7       -0.020  -0.027   0.702   0.654
    8       -0.018  -0.026   0.721   0.676
    9       -0.025  -0.038   0.714   0.650
   10       -0.023  -0.035   0.741   0.683
   11       -0.023  -0.050   0.751   0.678
   12       -0.019  -0.028   0.663   0.616
   13       -0.019  -0.029   0.702   0.654
   14       -0.019  -0.045   0.765   0.701
   15       -0.024  -0.048   0.732   0.660
   16       -0.021  -0.044   0.739   0.674
   17       -0.019  -0.028   0.651   0.604
   18       -0.018  -0.031   0.727   0.678
   19       -0.017  -0.027   0.696   0.651
   20       -0.022  -0.029   0.718   0.668
   21       -0.028  -0.059   0.762   0.675
   22       -0.022  -0.055   0.794   0.717
   23       -0.017  -0.037   0.694   0.640
   24       -0.017  -0.039   0.709   0.652
   25       -0.019  -0.026   0.704   0.659
   26       -0.012  -0.024   0.673   0.638
   27       -0.024  -0.048   0.721   0.648
   28       -0.027  -0.034   0.693   0.633
   29       -0.026  -0.033   0.695   0.636
   30       -0.030  -0.071   0.789   0.688
   31       -0.017  -0.032   0.675   0.626
   32       -0.019  -0.042   0.717   0.657
   33       -0.024  -0.055   0.748   0.669
   34       -0.023  -0.045   0.684   0.616
   35        0.009  -0.009   2.823   2.823
   36        0.008  -0.006   2.852   2.854
   37       -0.007  -0.028   2.682   2.647
   38        0.012  -0.008   2.854   2.858
   39        0.014  -0.009   2.909   2.914
   40        0.003  -0.016   2.794   2.781
   41       -0.002  -0.021   2.710   2.688
   42       -0.003  -0.027   2.700   2.670
   43       -0.003  -0.025   2.788   2.760
   44        0.001  -0.018   2.821   2.804
   45       -0.004  -0.028   2.718   2.686
   46        0.002  -0.015   2.794   2.782
   47        0.006  -0.017   2.795   2.784
   48       -0.006  -0.033   2.660   2.621
   49       -0.005  -0.031   2.698   2.662
   50        0.004  -0.019   2.775   2.760
   51        0.005  -0.019   2.814   2.801
   52        0.008  -0.015   2.852   2.845
   53       -0.004  -0.027   2.769   2.738
   54        0.000  -0.024   2.791   2.768
   55       -0.013  -0.048   2.635   2.575
   56       -0.002  -0.028   2.696   2.665
   57       -0.014  -0.042   2.562   2.505
   58        0.001  -0.019   2.706   2.688
   59       -0.002  -0.020   2.652   2.630
   60       -0.002  -0.019   2.717   2.697
   61       -0.002  -0.022   2.707   2.683
   62       -0.011  -0.041   2.622   2.570
   63       -0.007  -0.036   2.648   2.605
   64       -0.008  -0.037   2.622   2.578
--------------------------------------------------
tot         -0.743  -1.989 106.485 103.753
 
 BZINTS: Fermi energy:  0.041407;580.000000 electrons
         Band energy:***********;  BLOECHL correction: -0.006703

 total amount of memory used by VASP MPI-rank0   113842. kBytes
=======================================================================

   base      :      30000. kBytes
   nonlr-proj:      13018. kBytes
   fftplans  :       6403. kBytes
   grid      :      16455. kBytes
   one-center:         93. kBytes
   wavefun   :      47873. kBytes
 
  
  
 General timing and accounting informations for this job:
 ========================================================
  
                  Total CPU time used (sec):      474.494
                            User time (sec):      469.335
                          System time (sec):        5.159
                         Elapsed time (sec):      486.186
  
                   Maximum memory used (kb):      192400.
                   Average memory used (kb):           0.
  
                          Minor page faults:        70675
                          Major page faults:            0
                 Voluntary context switches:        10021
