       N       E                     dE             d eps       ncg     rms          rms(c)
DAV:   1    -0.531960342772E+03   -0.53196E+03   -0.37891E-01 10437   0.336E+00    0.109E+00
RMM:   2    -0.532406177920E+03   -0.44584E+00   -0.28305E-01  7253   0.174E+00    0.232E+00
RMM:   3    -0.532427274793E+03   -0.21097E-01   -0.14923E-01  7652   0.807E-01    0.282E+00
RMM:   4    -0.532416976273E+03    0.10299E-01   -0.72159E-02  8139   0.482E-01    0.195E+00
RMM:   5    -0.532400231346E+03    0.16745E-01   -0.22030E-02  7551   0.354E-01    0.588E-01
RMM:   6    -0.532401983990E+03   -0.17526E-02   -0.92828E-03 10331   0.104E-01    0.580E-01
RMM:   7    -0.532402723105E+03   -0.73911E-03   -0.20985E-03  8923   0.759E-02    0.562E-01
RMM:   8    -0.532404097408E+03   -0.13743E-02   -0.24594E-03  7887   0.112E-01    0.546E-01
RMM:   9    -0.532404290873E+03   -0.19347E-03   -0.17440E-03  7747   0.101E-01    0.377E-01
RMM:  10    -0.532404631193E+03   -0.34032E-03   -0.13759E-03  8507   0.736E-02    0.338E-01
RMM:  11    -0.532403260837E+03    0.13704E-02   -0.10595E-03  7888   0.672E-02    0.262E-01
RMM:  12    -0.532401524893E+03    0.17359E-02   -0.11332E-03  7992   0.727E-02    0.293E-01
RMM:  13    -0.532399958819E+03    0.15661E-02   -0.59889E-04  7684   0.607E-02    0.227E-01
RMM:  14    -0.532399106906E+03    0.85191E-03   -0.35352E-04  9239   0.328E-02    0.197E-01
RMM:  15    -0.532398808120E+03    0.29879E-03   -0.14982E-04  8244   0.267E-02    0.171E-01
RMM:  16    -0.532398803537E+03    0.45830E-05   -0.98199E-05  9049   0.172E-02    0.158E-01
RMM:  17    -0.532399033511E+03   -0.22997E-03   -0.64791E-05  8122   0.170E-02    0.152E-01
RMM:  18    -0.532399797813E+03   -0.76430E-03   -0.10989E-04  8249   0.210E-02    0.147E-01
RMM:  19    -0.532400389640E+03   -0.59183E-03   -0.82727E-05  7842   0.207E-02    0.125E-01
RMM:  20    -0.532401267481E+03   -0.87784E-03   -0.11147E-04  8357   0.205E-02    0.100E-01
RMM:  21    -0.532401798974E+03   -0.53149E-03   -0.69847E-05  8046   0.185E-02    0.776E-02
RMM:  22    -0.532403292626E+03   -0.14937E-02   -0.10886E-04  7917   0.201E-02    0.558E-02
RMM:  23    -0.532403962418E+03   -0.66979E-03   -0.71492E-05  8009   0.177E-02    0.492E-02
RMM:  24    -0.532405001596E+03   -0.10392E-02   -0.66720E-05  7988   0.137E-02    0.429E-02
RMM:  25    -0.532405538862E+03   -0.53727E-03   -0.42218E-05  8233   0.119E-02    0.572E-02
RMM:  26    -0.532406010366E+03   -0.47150E-03   -0.25482E-05  7881   0.917E-03    0.537E-02
RMM:  27    -0.532406646376E+03   -0.63601E-03   -0.36355E-05  8108   0.969E-03    0.519E-02
RMM:  28    -0.532407089923E+03   -0.44355E-03   -0.27208E-05  7756   0.930E-03    0.427E-02
RMM:  29    -0.532407686378E+03   -0.59646E-03   -0.40955E-05  8043   0.871E-03    0.261E-02
RMM:  30    -0.532407941981E+03   -0.25560E-03   -0.21987E-05  8006   0.743E-03    0.196E-02
RMM:  31    -0.532408185652E+03   -0.24367E-03   -0.17647E-05  7187   0.512E-03    0.122E-02
RMM:  32    -0.532408256211E+03   -0.70558E-04   -0.69414E-06  6394   0.455E-03    0.119E-02
RMM:  33    -0.532408308736E+03   -0.52525E-04   -0.40287E-06  5466   0.377E-03    0.701E-03
RMM:  34    -0.532408343146E+03   -0.34410E-04   -0.26825E-06  5157   0.282E-03    0.726E-03
RMM:  35    -0.532408360665E+03   -0.17519E-04   -0.17293E-06  4683   0.296E-03    0.462E-03
RMM:  36    -0.532408375763E+03   -0.15098E-04   -0.13517E-06  4530   0.189E-03    0.365E-03
RMM:  37    -0.532408382826E+03   -0.70627E-05   -0.66709E-07  4160   0.186E-03    0.293E-03
RMM:  38    -0.532408390288E+03   -0.74627E-05   -0.56873E-07  4186   0.138E-03    0.235E-03
RMM:  39    -0.532408394200E+03   -0.39118E-05   -0.32556E-07  3951   0.123E-03    0.200E-03
RMM:  40    -0.532408399017E+03   -0.48170E-05   -0.27009E-07  3957   0.982E-04    0.161E-03
RMM:  41    -0.532408402619E+03   -0.36016E-05   -0.21621E-07  3664   0.896E-04    0.127E-03
RMM:  42    -0.532408404690E+03   -0.20709E-05   -0.15771E-07  3304   0.741E-04    0.129E-03
RMM:  43    -0.532408406381E+03   -0.16913E-05   -0.15378E-07  3413   0.706E-04    0.114E-03
RMM:  44    -0.532408407658E+03   -0.12771E-05   -0.11692E-07  3184   0.642E-04    0.995E-04
RMM:  45    -0.532408408871E+03   -0.12130E-05   -0.96661E-08  3102   0.619E-04    0.788E-04
RMM:  46    -0.532408409776E+03   -0.90540E-06   -0.94406E-08  2946   0.557E-04
   1 F= -.54564334E+03 E0= -.54564334E+03  d E =0.000000E+00  mag=   159.2075
