 vasp.5.4.4.18Apr17-6-g9f103f2a35 (build Dec 15 2018 21:27:11) complex          
  
 executed on             LinuxIFC date 2022.03.01  22:40:40
 running on   72 total cores
 distrk:  each k-point on   72 cores,    1 groups
 distr:  one band on NCORES_PER_BAND=  24 cores,    3 groups


--------------------------------------------------------------------------------------------------------


 INCAR:
 POTCAR:    PAW_PBE Fe 06Sep2000                  
 POTCAR:    PAW_PBE O 08Apr2002                   

 ----------------------------------------------------------------------------- 
|                                                                             |
|           W    W    AA    RRRRR   N    N  II  N    N   GGGG   !!!           |
|           W    W   A  A   R    R  NN   N  II  NN   N  G    G  !!!           |
|           W    W  A    A  R    R  N N  N  II  N N  N  G       !!!           |
|           W WW W  AAAAAA  RRRRR   N  N N  II  N  N N  G  GGG   !            |
|           WW  WW  A    A  R   R   N   NN  II  N   NN  G    G                |
|           W    W  A    A  R    R  N    N  II  N    N   GGGG   !!!           |
|                                                                             |
|      For optimal performance we recommend to set                            |
|        NCORE= 4 - approx SQRT( number of cores)                             |
|      NCORE specifies how many cores store one orbital (NPAR=cpu/NCORE).     |
|      This setting can  greatly improve the performance of VASP for DFT.     |
|      The default,   NCORE=1            might be grossly inefficient         |
|      on modern multi-core architectures or massively parallel machines.     |
|      Do your own testing !!!!                                               |
|      Unfortunately you need to use the default for GW and RPA calculations. |
|      (for HF NCORE is supported but not extensively tested yet)             |
|                                                                             |
 ----------------------------------------------------------------------------- 

 POTCAR:    PAW_PBE Fe 06Sep2000                  
   VRHFIN =Fe:  d7 s1                                                           
   LEXCH  = PE                                                                  
   EATOM  =   594.3153 eV,   43.6809 Ry                                         
                                                                                
   TITEL  = PAW_PBE Fe 06Sep2000                                                
   LULTRA =        F    use ultrasoft PP ?                                      
   IUNSCR =        1    unscreen: 0-lin 1-nonlin 2-no                           
   RPACOR =    2.000    partial core radius                                     
   POMASS =   55.847; ZVAL   =    8.000    mass and valenz                      
   RCORE  =    2.300    outmost cutoff radius                                   
   RWIGS  =    2.460; RWIGS  =    1.302    wigner-seitz radius (au A)           
   ENMAX  =  267.882; ENMIN  =  200.911 eV                                      
   RCLOC  =    1.701    cutoff for local pot                                    
   LCOR   =        T    correct aug charges                                     
   LPAW   =        T    paw PP                                                  
   EAUG   =  511.368                                                            
   DEXC   =    0.000                                                            
   RMAX   =    2.356    core radius for proj-oper                               
   RAUG   =    1.300    factor for augmentation sphere                          
   RDEP   =    2.442    radius for radial grids                                 
   RDEPT  =    1.890    core radius for aug-charge                              
                                                                                
   Atomic configuration                                                         
    9 entries                                                                   
     n  l   j            E        occ.                                          
     1  0  0.50     -6993.8440   2.0000                                         
     2  0  0.50      -814.6047   2.0000                                         
     2  1  1.50      -693.3689   6.0000                                         
     3  0  0.50       -89.4732   2.0000                                         
     3  1  1.50       -55.6373   6.0000                                         
     3  2  2.50        -3.8151   7.0000                                         
     4  0  0.50        -4.2551   1.0000                                         
     4  1  1.50        -3.4015   0.0000                                         
     4  3  2.50        -1.3606   0.0000                                         
   Description                                                                  
     l       E           TYP  RCUT    TYP  RCUT                                 
     2     -3.8151135     23  2.300                                             
     2     -5.1756961     23  2.300                                             
     0     -4.2550963     23  2.300                                             
     0      7.2035603     23  2.300                                             
     1     -2.7211652     23  2.300                                             
     1     18.4316424     23  2.300                                             
  local pseudopotential read in
  partial core-charges read in
  partial kinetic energy density read in
  atomic valenz-charges read in
  non local Contribution for L=           2  read in
    real space projection operators read in
  non local Contribution for L=           2  read in
    real space projection operators read in
  non local Contribution for L=           0  read in
    real space projection operators read in
  non local Contribution for L=           0  read in
    real space projection operators read in
  non local Contribution for L=           1  read in
    real space projection operators read in
  non local Contribution for L=           1  read in
    real space projection operators read in
    PAW grid and wavefunctions read in
 
   number of l-projection  operators is LMAX  =           6
   number of lm-projection operators is LMMAX =          18
 
 POTCAR:    PAW_PBE O 08Apr2002                   
   VRHFIN =O: s2p4                                                              
   LEXCH  = PE                                                                  
   EATOM  =   432.3788 eV,   31.7789 Ry                                         
                                                                                
   TITEL  = PAW_PBE O 08Apr2002                                                 
   LULTRA =        F    use ultrasoft PP ?                                      
   IUNSCR =        1    unscreen: 0-lin 1-nonlin 2-no                           
   RPACOR =    1.200    partial core radius                                     
   POMASS =   16.000; ZVAL   =    6.000    mass and valenz                      
   RCORE  =    1.520    outmost cutoff radius                                   
   RWIGS  =    1.550; RWIGS  =    0.820    wigner-seitz radius (au A)           
   ENMAX  =  400.000; ENMIN  =  300.000 eV                                      
   ICORE  =        2    local potential                                         
   LCOR   =        T    correct aug charges                                     
   LPAW   =        T    paw PP                                                  
   EAUG   =  605.392                                                            
   DEXC   =    0.000                                                            
   RMAX   =    1.553    core radius for proj-oper                               
   RAUG   =    1.300    factor for augmentation sphere                          
   RDEP   =    1.550    radius for radial grids                                 
   RDEPT  =    1.329    core radius for aug-charge                              
                                                                                
   Atomic configuration                                                         
    4 entries                                                                   
     n  l   j            E        occ.                                          
     1  0  0.50      -514.6923   2.0000                                         
     2  0  0.50       -23.9615   2.0000                                         
     2  1  0.50        -9.0305   4.0000                                         
     3  2  1.50        -9.5241   0.0000                                         
   Description                                                                  
     l       E           TYP  RCUT    TYP  RCUT                                 
     0    -23.9615318     23  1.200                                             
     0     -9.5240782     23  1.200                                             
     1     -9.0304911     23  1.520                                             
     1      8.1634956     23  1.520                                             
     2     -9.5240782      7  1.500                                             
  local pseudopotential read in
  partial core-charges read in
  partial kinetic energy density read in
  kinetic energy density of atom read in
  atomic valenz-charges read in
  non local Contribution for L=           0  read in
    real space projection operators read in
  non local Contribution for L=           0  read in
    real space projection operators read in
  non local Contribution for L=           1  read in
    real space projection operators read in
  non local Contribution for L=           1  read in
    real space projection operators read in
    PAW grid and wavefunctions read in
 
   number of l-projection  operators is LMAX  =           4
   number of lm-projection operators is LMMAX =           8
 
 Optimization of the real space projectors (new method)

 maximal supplied QI-value         = 16.25
 optimisation between [QCUT,QGAM] = [ 11.54, 23.24] = [ 37.28,151.24] Ry 
 Optimized for a Real-space Cutoff    1.53 Angstroem

   l    n(q)    QCUT    max X(q) W(low)/X(q) W(high)/X(q)  e(spline) 
   2     10    11.539    80.901    0.11E-03    0.14E-03    0.21E-06
   2     10    11.539    75.754    0.11E-03    0.14E-03    0.22E-06
   0     11    11.539    58.752    0.52E-04    0.18E-04    0.33E-06
   0     11    11.539    30.679    0.44E-04    0.16E-04    0.30E-06
   1     10    11.539    17.977    0.53E-04    0.29E-04    0.13E-06
   1     10    11.539    13.559    0.44E-04    0.25E-04    0.11E-06
 Optimization of the real space projectors (new method)

 maximal supplied QI-value         = 24.76
 optimisation between [QCUT,QGAM] = [ 11.64, 23.27] = [ 37.91,151.63] Ry 
 Optimized for a Real-space Cutoff    1.14 Angstroem

   l    n(q)    QCUT    max X(q) W(low)/X(q) W(high)/X(q)  e(spline) 
   0      8    11.635    20.381    0.10E-03    0.33E-03    0.24E-06
   0      8    11.635    15.268    0.11E-03    0.35E-03    0.26E-06
   1      7    11.635     5.964    0.24E-03    0.31E-03    0.30E-06
   1      7    11.635     5.382    0.22E-03    0.25E-03    0.26E-06
  PAW_PBE Fe 06Sep2000                  :
 energy of atom  1       EATOM= -594.3153
 kinetic energy error for atom=    0.0026 (will be added to EATOM!!)
  PAW_PBE O 08Apr2002                   :
 energy of atom  2       EATOM= -432.3788
 kinetic energy error for atom=    0.0208 (will be added to EATOM!!)
 
 
 POSCAR: POSCAR                                  
  positions in direct lattice
  velocities in cartesian coordinates
 exchange correlation table for  LEXCH =        8
   RHO(1)=    0.500       N(1)  =     2000
   RHO(2)=  100.500       N(2)  =     4000

 VTST: version 3.2, (02/03/18)

 CHAIN: initializing optimizer
 
 OPT: Using VASP Dynamics algorithm
 CHAIN: Read ICHAIN            0
 
 POSCAR: POSCAR                                  
  positions in direct lattice
  velocities in cartesian coordinates
 


--------------------------------------------------------------------------------------------------------


 ion  position               nearest neighbor table
   1  0.087  0.163  0.095-   5 2.48  13 2.48  17 2.48  49 2.48  31 2.48   3 2.48  29 2.87  53 2.87
                            15 2.87  19 2.87
   2  0.087  0.162  0.286-  32 2.45   4 2.46  31 2.46   3 2.46  50 2.48  14 2.48  18 2.48   6 2.48
                            16 2.80  20 2.80  15 2.85  19 2.85  54 2.87  30 2.87
   3  0.212  0.038  0.191-   2 2.46  54 2.46  15 2.48   7 2.48  51 2.48  19 2.48  53 2.48   1 2.48
                             6 2.82  50 2.83  31 2.87  55 2.87  49 2.87   5 2.87
   4  0.216  0.041  0.381-  65 2.19  54 2.45   2 2.46  16 2.46  52 2.47  20 2.51   8 2.51   6 2.84
                            56 2.87  32 2.87  50 2.91
   5  0.337  0.163  0.095-   1 2.48   9 2.48  21 2.48  53 2.48   7 2.48  19 2.48  17 2.87  57 2.87
                             3 2.87  23 2.87
   6  0.337  0.162  0.284-   7 2.43  19 2.43  54 2.48  10 2.48   2 2.48  22 2.48  20 2.50   8 2.50
                             3 2.82  23 2.82   4 2.84  24 2.84  58 2.87  18 2.87
   7  0.462  0.038  0.191-   6 2.43  58 2.43  11 2.48   3 2.48  55 2.48  23 2.48  57 2.48   5 2.48
                            54 2.85  10 2.85  19 2.87  59 2.87  53 2.87   9 2.87
   8  0.472  0.028  0.377-  65 1.85  58 2.37  12 2.47  56 2.47   6 2.50  24 2.51   4 2.51  60 2.65
                            10 2.80  54 2.80  20 3.08
   9  0.587  0.163  0.095-   5 2.48  13 2.48  25 2.48  57 2.48  11 2.48  23 2.48  21 2.87  61 2.87
                             7 2.87  27 2.87
  10  0.587  0.163  0.286-  12 2.45  24 2.46  23 2.47  11 2.47  58 2.48  14 2.48   6 2.48  26 2.48
                            28 2.80   8 2.80   7 2.85  27 2.85  22 2.87  62 2.87
  11  0.712  0.038  0.191-  62 2.47  10 2.47  15 2.48   7 2.48  59 2.48  27 2.48  61 2.48   9 2.48
                            14 2.82  58 2.82  23 2.87  63 2.87  57 2.87  13 2.87
  12  0.716  0.041  0.381-  66 2.19  10 2.45  62 2.46   8 2.47  60 2.47  28 2.51  16 2.51  14 2.84
                            24 2.87  64 2.87  58 2.91
  13  0.837  0.163  0.095-   1 2.48   9 2.48  29 2.48  61 2.48  15 2.48  27 2.48  49 2.87  25 2.87
                            11 2.87  31 2.87
  14  0.837  0.163  0.284-  27 2.43  15 2.43  62 2.48  10 2.48   2 2.48  30 2.48  16 2.50  28 2.50
                            11 2.82  31 2.82  32 2.84  12 2.84  26 2.87  50 2.87
  15  0.962  0.038  0.191-  14 2.43  50 2.43   3 2.48  11 2.48  31 2.48  63 2.48  13 2.48  49 2.48
                             2 2.85  62 2.85  27 2.87  51 2.87   1 2.87  61 2.87
  16  0.972  0.028  0.377-  66 1.85  50 2.37   4 2.46  64 2.47  14 2.50  32 2.51  12 2.51  52 2.65
                            62 2.79   2 2.80  28 3.09
  17  0.087  0.413  0.095-  21 2.48  29 2.48   1 2.48  33 2.48  19 2.48  47 2.48  45 2.87   5 2.87
                            31 2.87  35 2.87
  18  0.087  0.413  0.284-  48 2.37  20 2.37  19 2.43  47 2.43  30 2.48   2 2.48  34 2.48  22 2.48
                            31 2.82  35 2.82  46 2.87   6 2.87  32 2.91  36 2.91
  19  0.212  0.288  0.191-   6 2.43  18 2.43  23 2.48  31 2.48   3 2.48  35 2.48   5 2.48  17 2.48
                            22 2.85   2 2.85   7 2.87  47 2.87  21 2.87   1 2.87
  20  0.203  0.297  0.377-  65 1.85  18 2.37  32 2.47  36 2.47   6 2.50   4 2.51  24 2.51  48 2.65
                             2 2.80  22 2.80   8 3.08
  21  0.337  0.413  0.095-  17 2.48  25 2.48   5 2.48  37 2.48  35 2.48  23 2.48   9 2.87  33 2.87
                            19 2.87  39 2.87
  22  0.337  0.413  0.286-  24 2.45  36 2.45  35 2.47  23 2.47  18 2.48  26 2.48   6 2.48  38 2.48
                            40 2.80  20 2.80  19 2.85  39 2.85  10 2.87  34 2.87
  23  0.462  0.288  0.191-  10 2.47  22 2.47  19 2.48  27 2.48   7 2.48  39 2.48  21 2.48   9 2.48
                             6 2.82  26 2.82  35 2.87  11 2.87   5 2.87  25 2.87
  24  0.459  0.285  0.381-  65 2.20  22 2.45  10 2.46  28 2.47  40 2.47  20 2.51   8 2.51   6 2.84
                            36 2.86  12 2.87  26 2.91
  25  0.587  0.413  0.095-  21 2.48  29 2.48   9 2.48  41 2.48  39 2.48  27 2.48  13 2.87  37 2.87
                            23 2.87  43 2.87
  26  0.587  0.413  0.284-  28 2.37  40 2.37  39 2.43  27 2.43  30 2.48  42 2.48  10 2.48  22 2.48
                            43 2.82  23 2.82  14 2.87  38 2.87  44 2.91  24 2.91
  27  0.712  0.288  0.191-  14 2.43  26 2.43  23 2.48  31 2.48  11 2.48  43 2.48  25 2.48  13 2.48
                            30 2.85  10 2.85  39 2.87  15 2.87   9 2.87  29 2.87
  28  0.703  0.297  0.377-  66 1.85  26 2.37  24 2.47  44 2.47  14 2.50  12 2.51  32 2.51  40 2.65
                            10 2.80  30 2.80  16 3.09
  29  0.837  0.413  0.095-  17 2.48  25 2.48  13 2.48  45 2.48  43 2.48  31 2.48   1 2.87  41 2.87
                            27 2.87  47 2.87
  30  0.837  0.413  0.286-  32 2.45  44 2.45  43 2.47  31 2.47  26 2.48  18 2.48  46 2.48  14 2.48
                            48 2.80  28 2.80  27 2.85  47 2.85  42 2.87   2 2.87
  31  0.962  0.288  0.191-   2 2.46  30 2.47  27 2.48  19 2.48  15 2.48  47 2.48   1 2.48  29 2.48
                            14 2.82  18 2.82  43 2.87   3 2.87  17 2.87  13 2.87
  32  0.959  0.284  0.381-  66 2.20   2 2.45  30 2.45  20 2.47  48 2.47  16 2.51  28 2.51  14 2.84
                             4 2.87  44 2.87  18 2.91
  33  0.087  0.663  0.095-  37 2.48  45 2.48  17 2.48  49 2.48  35 2.48  63 2.48  61 2.87  21 2.87
                            47 2.87  51 2.87
  34  0.087  0.663  0.286-  64 2.46  36 2.46  35 2.47  63 2.47  50 2.48  46 2.48  38 2.48  18 2.48
                            48 2.80  52 2.80  51 2.85  47 2.85  22 2.87  62 2.87
  35  0.212  0.538  0.191-  34 2.47  22 2.47  39 2.48  47 2.48  19 2.48  51 2.48  21 2.48  33 2.48
                            38 2.82  18 2.82  23 2.87  63 2.87  37 2.87  17 2.87
  36  0.216  0.541  0.381-  68 2.20  22 2.45  34 2.46  48 2.47  20 2.47  40 2.51  52 2.51  38 2.84
                            24 2.86  64 2.87  18 2.91
  37  0.337  0.663  0.095-  33 2.48  41 2.48  21 2.48  53 2.48  51 2.48  39 2.48  25 2.87  49 2.87
                            35 2.87  55 2.87
  38  0.337  0.663  0.284-  51 2.43  39 2.43  54 2.48  34 2.48  42 2.48  22 2.48  40 2.50  52 2.50
                            55 2.82  35 2.82  56 2.84  36 2.84  50 2.87  26 2.87
  39  0.462  0.538  0.191-  38 2.43  26 2.43  35 2.48  43 2.48  23 2.48  55 2.48  37 2.48  25 2.48
                            22 2.85  42 2.85  51 2.87  27 2.87  21 2.87  41 2.87
  40  0.472  0.528  0.377-  68 1.85  26 2.37  44 2.47  24 2.47  38 2.50  56 2.51  36 2.51  28 2.65
                            22 2.80  42 2.80  52 3.08
  41  0.587  0.663  0.095-  37 2.48  45 2.48  25 2.48  57 2.48  55 2.48  43 2.48  29 2.87  53 2.87
                            39 2.87  59 2.87
  42  0.588  0.663  0.286-  44 2.45  56 2.46  55 2.46  43 2.46  58 2.48  46 2.48  26 2.48  38 2.48
                            60 2.80  40 2.80  59 2.85  39 2.85  54 2.87  30 2.87
  43  0.712  0.538  0.191-  42 2.46  30 2.47  39 2.48  47 2.48  27 2.48  59 2.48  41 2.48  29 2.48
                            46 2.82  26 2.82  55 2.87  31 2.87  25 2.87  45 2.87
  44  0.716  0.541  0.381-  67 2.20  42 2.45  30 2.45  40 2.47  28 2.47  60 2.51  48 2.51  46 2.84
                            56 2.87  32 2.87  26 2.91
  45  0.837  0.663  0.095-  33 2.48  41 2.48  29 2.48  61 2.48  59 2.48  47 2.48  17 2.87  57 2.87
                            43 2.87  63 2.87
  46  0.838  0.663  0.284-  47 2.43  59 2.43  62 2.48  34 2.48  42 2.48  30 2.48  60 2.50  48 2.50
                            63 2.82  43 2.82  44 2.84  64 2.84  18 2.87  58 2.87
  47  0.962  0.538  0.191-  46 2.43  18 2.43  43 2.48  35 2.48  31 2.48  63 2.48  17 2.48  45 2.48
                            30 2.85  34 2.85  59 2.87  19 2.87  33 2.87  29 2.87
  48  0.972  0.528  0.377-  67 1.85  18 2.37  36 2.47  32 2.47  46 2.50  64 2.51  44 2.51  20 2.65
                            34 2.80  30 2.80  60 3.09
  49  0.087  0.913  0.095-  53 2.48  61 2.48   1 2.48  33 2.48  15 2.48  51 2.48  37 2.87  13 2.87
                             3 2.87  63 2.87
  50  0.087  0.912  0.284-  16 2.37  52 2.37  51 2.43  15 2.43  34 2.48  62 2.48   2 2.48  54 2.48
                            63 2.82   3 2.83  38 2.87  14 2.87   4 2.91  64 2.91
  51  0.212  0.788  0.191-  38 2.43  50 2.43  55 2.48  63 2.48   3 2.48  35 2.48  49 2.48  37 2.48
                            54 2.85  34 2.85  39 2.87  15 2.87  53 2.87  33 2.87
  52  0.203  0.797  0.377-  68 1.85  50 2.37  64 2.47   4 2.47  38 2.50  56 2.51  36 2.51  16 2.65
                            34 2.80  54 2.80  40 3.08
  53  0.337  0.913  0.095-  49 2.48  57 2.48   5 2.48  37 2.48  55 2.48   3 2.48  41 2.87   1 2.87
                             7 2.87  51 2.87
  54  0.337  0.913  0.286-  56 2.45   4 2.45   3 2.46  55 2.47  38 2.48   6 2.48  50 2.48  58 2.48
                             8 2.80  52 2.80  51 2.85   7 2.85  42 2.87   2 2.87
  55  0.462  0.788  0.191-  42 2.46  54 2.47  51 2.48  59 2.48   7 2.48  39 2.48  41 2.48  53 2.48
                            38 2.82  58 2.83  43 2.87   3 2.87  37 2.87  57 2.87
  56  0.459  0.785  0.381-  68 2.20  54 2.45  42 2.46  60 2.47   8 2.47  40 2.51  52 2.51  38 2.84
                             4 2.87  44 2.87  58 2.91
  57  0.587  0.913  0.095-  53 2.48  61 2.48   9 2.48  41 2.48  59 2.48   7 2.48  45 2.87   5 2.87
                            11 2.87  55 2.87
  58  0.587  0.913  0.284-  60 2.37   8 2.37   7 2.43  59 2.43  10 2.48  62 2.48  42 2.48  54 2.48
                            11 2.82  55 2.83   6 2.87  46 2.87  56 2.91  12 2.91
  59  0.712  0.788  0.191-  46 2.43  58 2.43  55 2.48  63 2.48  11 2.48  43 2.48  45 2.48  57 2.48
                            42 2.85  62 2.85  47 2.87   7 2.87  41 2.87  61 2.87
  60  0.703  0.797  0.377-  67 1.85  58 2.37  56 2.47  12 2.47  46 2.50  44 2.51  64 2.51   8 2.65
                            62 2.79  42 2.80  48 3.09
  61  0.837  0.913  0.095-  49 2.48  57 2.48  13 2.48  45 2.48  11 2.48  63 2.48   9 2.87  33 2.87
                            59 2.87  15 2.87
  62  0.837  0.913  0.286-  64 2.46  12 2.46  11 2.47  63 2.47  14 2.48  46 2.48  58 2.48  50 2.48
                            16 2.79  60 2.79  59 2.85  15 2.85  10 2.87  34 2.87
  63  0.962  0.788  0.191-  62 2.47  34 2.47  59 2.48  51 2.48  47 2.48  15 2.48  61 2.48  33 2.48
                            46 2.82  50 2.82  35 2.87  11 2.87  49 2.87  45 2.87
  64  0.959  0.784  0.381-  67 2.19  62 2.46  34 2.46  52 2.47  16 2.47  48 2.51  60 2.51  46 2.84
                            36 2.87  12 2.87  50 2.91
  65  0.337  0.162  0.426-   8 1.85  20 1.85   4 2.19  24 2.20
  66  0.837  0.162  0.426-  16 1.85  28 1.85  12 2.19  32 2.20
  67  0.838  0.663  0.426-  60 1.85  48 1.85  64 2.19  44 2.20
  68  0.337  0.663  0.426-  40 1.85  52 1.85  56 2.20  36 2.20
 

IMPORTANT INFORMATION: All symmetrisations will be switched off!
NOSYMM: (Re-)initialisation of all symmetry stuff for point group C_1.

 
 

Automatic generation of k-mesh.
 generate k-points for:    3    3    1
Space group operators:
 irot       det(A)        alpha          n_x          n_y          n_z        tau_x        tau_y        tau_z
    1     1.000000     0.000001     1.000000     0.000000     0.000000     0.000000     0.000000     0.000000
 
 Subroutine IBZKPT returns following result:
 ===========================================
 
 Found      5 irreducible k-points:
 
 Following reciprocal coordinates:
            Coordinates               Weight
  0.000000  0.000000  0.000000      1.000000
  0.333333  0.000000  0.000000      2.000000
  0.000000  0.333333  0.000000      2.000000
  0.333333  0.333333  0.000000      2.000000
 -0.333333  0.333333  0.000000      2.000000
 
 Following cartesian coordinates:
            Coordinates               Weight
  0.000000  0.000000  0.000000      1.000000
  0.033570 -0.011869  0.000000      2.000000
  0.000000  0.035606  0.000000      2.000000
  0.033570  0.023738  0.000000      2.000000
 -0.033570  0.047475  0.000000      2.000000
 
 TETIRR: Found     24 inequivalent tetrahedra from       54


--------------------------------------------------------------------------------------------------------




 Dimension of arrays:
   k-points           NKPTS =      5   k-points in BZ     NKDIM =      5   number of bands    NBANDS=    357
   number of dos      NEDOS =    301   number of ions     NIONS =     68
   non local maximal  LDIM  =      6   non local SUM 2l+1 LMDIM =     18
   total plane-waves  NPLWV = ******
   max r-space proj   IRMAX =   7948   max aug-charges    IRDMAX=  18812
   dimension x,y,z NGX =    80 NGY =   80 NGZ =  160
   dimension x,y,z NGXF=   160 NGYF=  160 NGZF=  320
   support grid    NGXF=   160 NGYF=  160 NGZF=  320
   ions per type =              64   4
   NGX,Y,Z   is equivalent  to a cutoff of  13.39, 13.39, 12.62 a.u.
   NGXF,Y,Z  is equivalent  to a cutoff of  26.79, 26.79, 25.24 a.u.

 SYSTEM =  SQS-NiFe                                
 POSCAR =  POSCAR                                  

 Startparameter for this run:
   NWRITE =      2    write-flag & timer
   PREC   = accura    normal or accurate (medium, high low for compatibility)
   ISTART =      1    job   : 0-new  1-cont  2-samecut
   ICHARG =      1    charge: 1-file 2-atom 10-const
   ISPIN  =      2    spin polarized calculation?
   LNONCOLLINEAR =      F non collinear calculations
   LSORBIT =      F    spin-orbit coupling
   INIWAV =      1    electr: 0-lowe 1-rand  2-diag
   LASPH  =      F    aspherical Exc in radial PAW
   METAGGA=      F    non-selfconsistent MetaGGA calc.

 Electronic Relaxation 1
   ENCUT  =  520.0 eV  38.22 Ry    6.18 a.u.  18.46 18.46 39.20*2*pi/ulx,y,z
   ENINI  =  520.0     initial cutoff
   ENAUG  =  605.4 eV  augmentation charge cutoff
   NELM   =    200;   NELMIN=  2; NELMDL=  0     # of ELM steps 
   EDIFF  = 0.1E-05   stopping-criterion for ELM
   LREAL  =      T    real-space projection
   NLSPLINE    = F    spline interpolate recip. space projectors
   LCOMPAT=      F    compatible to vasp.4.4
   GGA_COMPAT  = T    GGA compatible to vasp.4.4-vasp.4.6
   LMAXPAW     = -100 max onsite density
   LMAXMIX     =    2 max onsite mixed and CHGCAR
   VOSKOWN=      0    Vosko Wilk Nusair interpolation
   ROPT   =   -0.00025  -0.00025
 Ionic relaxation
   EDIFFG = -.2E-01   stopping-criterion for IOM
   NSW    =      0    number of steps for IOM
   NBLOCK =      1;   KBLOCK =      1    inner block; outer block 
   IBRION =     -1    ionic relax: 0-MD 1-quasi-New 2-CG
   NFREE  =      0    steps in history (QN), initial steepest desc. (CG)
   ISIF   =      2    stress and relaxation
   IWAVPR =     10    prediction:  0-non 1-charg 2-wave 3-comb
   ISYM   =      0    0-nonsym 1-usesym 2-fastsym
   LCORR  =      T    Harris-Foulkes like correction to forces

   POTIM  = 0.5000    time-step for ionic-motion
   TEIN   =    0.0    initial temperature
   TEBEG  =    0.0;   TEEND  =   0.0 temperature during run
   SMASS  =  -3.00    Nose mass-parameter (am)
   estimated Nose-frequenzy (Omega)   =  0.10E-29 period in steps =****** mass=  -0.225E-26a.u.
   SCALEE = 1.0000    scale energy and forces
   NPACO  =    256;   APACO  = 16.0  distance and # of slots for P.C.
   PSTRESS=    0.0 pullay stress

  Mass of Ions in am
   POMASS =  55.85 16.00
  Ionic Valenz
   ZVAL   =   8.00  6.00
  Atomic Wigner-Seitz radii
   RWIGS  =  -1.00 -1.00
  virtual crystal weights 
   VCA    =   1.00  1.00
   NELECT =     536.0000    total number of electrons
   NUPDOWN=      -1.0000    fix difference up-down

 DOS related values:
   EMIN   =  10.00;   EMAX   =-10.00  energy-range for DOS
   EFERMI =   0.00
   ISMEAR =    -5;   SIGMA  =   0.20  broadening in eV -4-tet -1-fermi 0-gaus

 Electronic relaxation 2 (details)
   IALGO  =     68    algorithm
   LDIAG  =      T    sub-space diagonalisation (order eigenvalues)
   LSUBROT=      F    optimize rotation matrix (better conditioning)
   TURBO    =      0    0=normal 1=particle mesh
   IRESTART =      0    0=no restart 2=restart with 2 vectors
   NREBOOT  =      0    no. of reboots
   NMIN     =      0    reboot dimension
   EREF     =   0.00    reference energy to select bands
   IMIX   =      4    mixing-type and parameters
     AMIX     =   0.40;   BMIX     =  1.00
     AMIX_MAG =   1.60;   BMIX_MAG =  1.00
     AMIN     =   0.10
     WC   =   100.;   INIMIX=   1;  MIXPRE=   1;  MAXMIX= -45

 Intra band minimization:
   WEIMIN = 0.0000     energy-eigenvalue tresh-hold
   EBREAK =  0.70E-09  absolut break condition
   DEPER  =   0.30     relativ break condition  

   TIME   =   0.40     timestep for ELM

  volume/ion in A,a.u.               =      28.82       194.47
  Fermi-wavevector in a.u.,A,eV,Ry     =   1.062697  2.008207 15.365410  1.129326
  Thomas-Fermi vector in A             =   2.198157
 
 Write flags
   LWAVE        =      T    write WAVECAR
   LDOWNSAMPLE  =      F    k-point downsampling of WAVECAR
   LCHARG       =      T    write CHGCAR
   LVTOT        =      F    write LOCPOT, total local potential
   LVHAR        =      F    write LOCPOT, Hartree potential only
   LELF         =      F    write electronic localiz. function (ELF)
   LORBIT       =     11    0 simple, 1 ext, 2 COOP (PROOUT), +10 PAW based schemes


 Dipole corrections
   LMONO  =      F    monopole corrections only (constant potential shift)
   LDIPOL =      T    correct potential (dipole corrections)
   IDIPOL =      3    1-x, 2-y, 3-z, 4-all directions 
   EPSILON=  1.0000000 bulk dielectric constant

 Exchange correlation treatment:
   GGA     =    --    GGA type
   LEXCH   =     8    internal setting for exchange type
   VOSKOWN=      0    Vosko Wilk Nusair interpolation
   LHFCALC =     F    Hartree Fock is set to
   LHFONE  =     F    Hartree Fock one center treatment
   AEXX    =    0.0000 exact exchange contribution

 Linear response parameters
   LEPSILON=     F    determine dielectric tensor
   LRPA    =     F    only Hartree local field effects (RPA)
   LNABLA  =     F    use nabla operator in PAW spheres
   LVEL    =     F    velocity operator in full k-point grid
   LINTERFAST=   F  fast interpolation
   KINTER  =     0    interpolate to denser k-point grid
   CSHIFT  =0.1000    complex shift for real part using Kramers Kronig
   OMEGAMAX=  -1.0    maximum frequency
   DEG_THRESHOLD= 0.2000000E-02 threshold for treating states as degnerate
   RTIME   =   -0.100 relaxation time in fs
  (WPLASMAI=    0.000 imaginary part of plasma frequency in eV, 0.658/RTIME)
   DFIELD  = 0.0000000 0.0000000 0.0000000 field for delta impulse in time
 
 Orbital magnetization related:
   ORBITALMAG=     F  switch on orbital magnetization
   LCHIMAG   =     F  perturbation theory with respect to B field
   DQ        =  0.001000  dq finite difference perturbation B field
   LLRAUG    =     F  two centre corrections for induced B field



--------------------------------------------------------------------------------------------------------


 Static calculation
 charge density and potential will be updated during run
 spin polarized calculation
 RMM-DIIS sequential band-by-band and
  variant of blocked Davidson during initial phase
 perform sub-space diagonalisation
    before iterative eigenvector-optimisation
 modified Broyden-mixing scheme, WC =      100.0
 initial mixing is a Kerker type mixing with AMIX =  0.4000 and BMIX =      1.0000
 Hartree-type preconditioning will be used
 using additional bands           89
 real space projection scheme for non local part
 use partial core corrections
 calculate Harris-corrections to forces 
   (improved forces if not selfconsistent)
 use gradient corrections 
 use of overlap-Matrix (Vanderbilt PP)
 Fermi weights with tetrahedron method with Bloechl corrections


--------------------------------------------------------------------------------------------------------


  energy-cutoff  :      520.00
  volume of cell :     1959.57
      direct lattice vectors                 reciprocal lattice vectors
     9.929500000  0.000000000  0.000000000     0.100710006 -0.035606363  0.000000000
     3.309833230  9.361622420  0.000000000     0.000000000  0.106819091  0.000000000
     0.000000000  0.000000000 21.080550000     0.000000000  0.000000000  0.047437092

  length of vectors
     9.929500000  9.929500005 21.080550000     0.106819091  0.106819091  0.047437092


 
 old parameters found on file WAVECAR:
  energy-cutoff  :      520.00
  volume of cell :     1959.57
      direct lattice vectors                 reciprocal lattice vectors
     9.929500000  0.000000000  0.000000000     0.100710006 -0.035606363  0.000000000
     3.309833230  9.361622420  0.000000000     0.000000000  0.106819091  0.000000000
     0.000000000  0.000000000 21.080550000     0.000000000  0.000000000  0.047437092

  length of vectors

 
 k-points in units of 2pi/SCALE and weight: read from INCAR                         
   0.00000000  0.00000000  0.00000000       0.111
   0.03357000 -0.01186879  0.00000000       0.222
   0.00000000  0.03560636  0.00000000       0.222
   0.03357000  0.02373758  0.00000000       0.222
  -0.03357000  0.04747515  0.00000000       0.222
 
 k-points in reciprocal lattice and weights: read from INCAR                         
   0.00000000  0.00000000  0.00000000       0.111
   0.33333333  0.00000000  0.00000000       0.222
   0.00000000  0.33333333  0.00000000       0.222
   0.33333333  0.33333333  0.00000000       0.222
  -0.33333333  0.33333333  0.00000000       0.222
 
 position of ions in fractional coordinates (direct lattice) 
   0.08738900  0.16261100  0.09487400
   0.08723758  0.16247069  0.28612732
   0.21238900  0.03761100  0.19102200
   0.21558538  0.04067454  0.38065513
   0.33738900  0.16261100  0.09487400
   0.33733252  0.16249040  0.28398560
   0.46238900  0.03761100  0.19102200
   0.47191325  0.02820072  0.37748355
   0.58738900  0.16261100  0.09487400
   0.58725708  0.16270544  0.28622518
   0.71238900  0.03761100  0.19102200
   0.71551333  0.04100289  0.38075144
   0.83738900  0.16261100  0.09487400
   0.83724125  0.16252360  0.28393063
   0.96238900  0.03761100  0.19102200
   0.97197375  0.02793043  0.37736440
   0.08738900  0.41261100  0.09487400
   0.08729703  0.41251211  0.28428335
   0.21238900  0.28761100  0.19102200
   0.20284031  0.29690137  0.37735165
   0.33738900  0.41261100  0.09487400
   0.33737152  0.41260749  0.28619692
   0.46238900  0.28761100  0.19102200
   0.45902310  0.28462103  0.38074100
   0.58738900  0.41261100  0.09487400
   0.58745238  0.41271138  0.28427978
   0.71238900  0.28761100  0.19102200
   0.70265730  0.29734870  0.37738304
   0.83738900  0.41261100  0.09487400
   0.83737133  0.41261265  0.28616748
   0.96238900  0.28761100  0.19102200
   0.95911570  0.28423859  0.38057998
   0.08738900  0.66261100  0.09487400
   0.08748813  0.66251475  0.28622697
   0.21238900  0.53761100  0.19102200
   0.21569210  0.54057434  0.38074779
   0.33738900  0.66261100  0.09487400
   0.33741622  0.66272789  0.28398604
   0.46238900  0.53761100  0.19102200
   0.47187460  0.52831212  0.37735330
   0.58738900  0.66261100  0.09487400
   0.58750901  0.66274815  0.28612464
   0.71238900  0.53761100  0.19102200
   0.71558480  0.54100605  0.38058420
   0.83738900  0.66261100  0.09487400
   0.83750092  0.66269897  0.28393063
   0.96238900  0.53761100  0.19102200
   0.97205312  0.52789329  0.37738131
   0.08738900  0.91261100  0.09487400
   0.08735398  0.91245202  0.28433170
   0.21238900  0.78761100  0.19102200
   0.20279943  0.79700992  0.37748346
   0.33738900  0.91261100  0.09487400
   0.33737112  0.91260708  0.28616030
   0.46238900  0.78761100  0.19102200
   0.45912101  0.78452154  0.38064941
   0.58738900  0.91261100  0.09487400
   0.58739136  0.91277471  0.28432883
   0.71238900  0.78761100  0.19102200
   0.70272555  0.79731493  0.37736680
   0.83738900  0.91261100  0.09487400
   0.83736831  0.91261328  0.28625252
   0.96238900  0.78761100  0.19102200
   0.95917241  0.78424726  0.38074571
   0.33693731  0.16226400  0.42619542
   0.83694807  0.16215659  0.42602807
   0.83776977  0.66306895  0.42602533
   0.33747055  0.66261882  0.42619978
 
 position of ions in cartesian coordinates  (Angst):
   1.40594437  1.52230278  1.99999610
   1.40397649  1.52098927  6.03172119
   2.23340271  0.35209998  4.02684882
   2.27528093  0.38077967  8.02441954
   3.88831937  1.52230278  1.99999610
   3.88735935  1.52117377  5.98657265
   4.71577771  0.35209998  4.02684882
   4.77920232  0.26400450  7.95756085
   6.37069437  1.52230278  1.99999610
   6.36969710  1.52318693  6.03378415
   7.19815271  0.35209998  4.02684882
   7.24040236  0.38385362  8.02644983
   8.85306937  1.52230278  1.99999610
   8.85131299  1.52148459  5.98541383
   9.68052771  0.35209998  4.02684882
   9.74365840  0.26147413  7.95504918
   2.23340267  3.86270839  1.99999610
   2.23216214  3.86178258  5.99284935
   3.06086102  2.69250559  4.02684882
   2.99679690  2.77947854  7.95478042
   4.71577767  3.86270839  1.99999610
   4.71559248  3.86267553  6.03318858
   5.54323602  2.69250559  4.02684882
   5.49991806  2.66451464  8.02622971
   7.19815267  3.86270839  1.99999610
   7.19911426  3.86364808  5.99277410
   8.02561102  2.69250559  4.02684882
   7.96121031  2.78366628  7.95544212
   9.68052767  3.86270839  1.99999610
   9.68035764  3.86272384  6.03256795
  10.50798602  2.69250559  4.02684882
  10.46432168  2.66093435  8.02283530
   3.06086098  6.20311399  1.99999610
   3.06152671  6.20221294  6.03382199
   3.88831933  5.03291119  4.02684882
   3.93092566  5.06065284  8.02637283
   5.54323598  6.20311399  1.99999610
   5.54389315  6.20420829  5.98658190
   6.37069433  5.03291119  4.02684882
   6.43410382  4.94585858  7.95481507
   8.02561098  6.20311399  1.99999610
   8.02725661  6.20439796  6.03166481
   8.85306933  5.03291119  4.02684882
   8.89603907  5.06469438  8.02292434
  10.50798598  6.20311399  1.99999610
  10.50938844  6.20393751  5.98541393
  11.33544433  5.03291119  4.02684882
  11.39924016  4.94193761  7.95540558
   3.88831929  8.54351960  1.99999610
   3.88744535  8.54203132  5.99386870
   4.71577764  7.37331680  4.02684882
   4.65166684  7.46130597  7.95755887
   6.37069429  8.54351960  1.99999610
   6.37050381  8.54348289  6.03241657
   7.19815264  7.37331680  4.02684882
   7.15547750  7.34439444  8.02429902
   8.85306929  8.54351960  1.99999610
   8.85363460  8.54505215  5.99380815
   9.68052764  7.37331680  4.02684882
   9.61669279  7.46416132  7.95509977
  11.33544429  8.54351960  1.99999610
  11.33524637  8.54354091  6.03436053
  12.16290264  7.37331680  4.02684882
  12.11983012  7.34182673  8.02632889
   3.88268575  1.51905426  8.98443377
   8.84718712  1.51804880  8.98090604
  10.51328261  6.20740117  8.98084835
   5.54407159  6.20318719  8.98452569
 


--------------------------------------------------------------------------------------------------------


 k-point  1 :   0.0000 0.0000 0.0000  plane waves:   52797
 k-point  2 :   0.3333 0.0000 0.0000  plane waves:   52741
 k-point  3 :   0.0000 0.3333 0.0000  plane waves:   52741
 k-point  4 :   0.3333 0.3333 0.0000  plane waves:   52754
 k-point  5 :  -0.3333 0.3333 0.0000  plane waves:   52703

 maximum and minimum number of plane-waves per node :      2214     2178

 maximum number of plane-waves:     52797
 maximum index in each direction: 
   IXMAX=   18   IYMAX=   18   IZMAX=   39
   IXMIN=  -18   IYMIN=  -18   IZMIN=  -39


 real space projection operators:
  total allocation   :      69504.09 KBytes
  max/ min on nodes  :       3514.77       2558.52


 parallel 3D FFT for wavefunctions:
    minimum data exchange during FFTs selected (reduces bandwidth)
 parallel 3D FFT for charge:
    minimum data exchange during FFTs selected (reduces bandwidth)


 total amount of memory used by VASP MPI-rank0   109543. kBytes
=======================================================================

   base      :      30000. kBytes
   nonlr-proj:      13412. kBytes
   fftplans  :       6401. kBytes
   grid      :      16455. kBytes
   one-center:         93. kBytes
   wavefun   :      43182. kBytes
 
     INWAV:  cpu time   10.3672: real time   10.7214
 Broyden mixing: mesh for mixing (old mesh)
   NGX = 37   NGY = 37   NGZ = 79
  (NGX  =160   NGY  =160   NGZ  =320)
  gives a total of 108151 points

 initial charge density was supplied:
 number of electron     536.0000175 magnetization     159.5866316
 keeping initial charge density in first step


--------------------------------------------------------------------------------------------------------


 Maximum index for non-local projection operator          801
 Maximum index for augmentation-charges         1219 (set IRDMAX)


--------------------------------------------------------------------------------------------------------


 First call to EWALD:  gamma=   0.142
 Maximum number of real-space cells 4x 4x 2
 Maximum number of reciprocal cells 2x 2x 4

    FEWALD:  cpu time    0.0033: real time    0.0033


--------------------------------------- Iteration      1(   1)  ---------------------------------------


    POTLOK:  cpu time    0.4217: real time    0.4290
    SETDIJ:  cpu time    0.0246: real time    0.0246
     EDDAV:  cpu time   43.2947: real time   43.3116
 BZINTS: Fermi energy: -0.623056;536.000000 electrons
         Band energy:***********;  BLOECHL correction: -0.034685
       DOS:  cpu time    0.0441: real time    0.0441
    CHARGE:  cpu time    0.9302: real time    0.9304
    MIXING:  cpu time    0.0070: real time    0.0070
    --------------------------------------------
      LOOP:  cpu time   44.7224: real time   44.7469

 eigenvalue-minimisations  : 10437
 total energy-change (2. order) :-0.5319603E+03  (-0.3789117E-01)
 number of electron     536.0000175 magnetization     159.6343540
 augmentation part      269.6872510 magnetization     127.6319937

 DIPCOR: dipole corrections for dipol
 direction  3 min pos   240,
 dipolmoment           0.000000      0.000000      0.172971 electrons x Angstroem
 Tr[quadrupol]     -8729.057099

 energy correction for charged system         0.000000 eV
 dipol+quadrupol energy correction           -0.001382 eV
 added-field ion interaction          0.163772 eV  (added to PSCEN)


 Broyden mixing:
  rms(total) = 0.10904E+00    rms(broyden)= 0.10891E+00
  rms(prec ) = 0.11129E+00
  weight for this iteration     100.00

 Free energy of the ion-electron system (eV)
  ---------------------------------------------------
  alpha Z        PSCENC =      1537.87431478
  Ewald energy   TEWEN  =    148189.10809822
  -Hartree energ DENC   =   -188154.69417609
  -exchange      EXHF   =         0.00000000
  -V(xc)+E(xc)   XCENC  =       391.40686203
  PAW double counting   =     46897.26865216   -47484.60025282
  entropy T*S    EENTRO =         0.00000000
  eigenvalues    EBANDS =     -1673.76735217
  atomic energy  EATOM  =     39765.44351111
  Solvation  Ediel_sol  =         0.00000000
  ---------------------------------------------------
  free energy    TOTEN  =      -531.96034277 eV

  energy without entropy =     -531.96034277  energy(sigma->0) =     -531.96034277


--------------------------------------------------------------------------------------------------------




--------------------------------------- Iteration      1(   2)  ---------------------------------------


    POTLOK:  cpu time    0.4303: real time    0.4309
    SETDIJ:  cpu time    0.0242: real time    0.0242
    EDDIAG:  cpu time    4.7407: real time    4.7480
  RMM-DIIS:  cpu time   17.6066: real time   17.6130
    ORTHCH:  cpu time    1.3038: real time    1.3041
 BZINTS: Fermi energy: -0.609786;536.000000 electrons
         Band energy:***********;  BLOECHL correction: -0.034186
       DOS:  cpu time    0.0412: real time    0.0412
    CHARGE:  cpu time    0.9182: real time    0.9184
    MIXING:  cpu time    0.0064: real time    0.0064
    --------------------------------------------
      LOOP:  cpu time   25.0717: real time   25.0862

 eigenvalue-minimisations  :  7253
 total energy-change (2. order) :-0.4458351E+00  (-0.2830519E-01)
 number of electron     536.0000173 magnetization     159.6378298
 augmentation part      269.4292033 magnetization     127.6116195

 DIPCOR: dipole corrections for dipol
 direction  3 min pos   246,
 dipolmoment           0.000000      0.000000      0.146919 electrons x Angstroem
 Tr[quadrupol]     -8729.341553

 energy correction for charged system         0.000000 eV
 dipol+quadrupol energy correction           -0.000997 eV
 added-field ion interaction          3.013639 eV  (added to PSCEN)


 Broyden mixing:
  rms(total) = 0.23238E+00    rms(broyden)= 0.23235E+00
  rms(prec ) = 0.27290E+00
  weight for this iteration     100.00

 eigenvalues of (default mixing * dielectric matrix)
  average eigenvalue GAMMA=   0.3370
  0.3370

 Free energy of the ion-electron system (eV)
  ---------------------------------------------------
  alpha Z        PSCENC =      1540.72456674
  Ewald energy   TEWEN  =    148189.10809822
  -Hartree energ DENC   =   -188162.55463174
  -exchange      EXHF   =         0.00000000
  -V(xc)+E(xc)   XCENC  =       392.19616082
  PAW double counting   =     46905.98580718   -47493.55460663
  entropy T*S    EENTRO =         0.00000000
  eigenvalues    EBANDS =     -1669.75508363
  atomic energy  EATOM  =     39765.44351111
  Solvation  Ediel_sol  =         0.00000000
  ---------------------------------------------------
  free energy    TOTEN  =      -532.40617792 eV

  energy without entropy =     -532.40617792  energy(sigma->0) =     -532.40617792


--------------------------------------------------------------------------------------------------------




--------------------------------------- Iteration      1(   3)  ---------------------------------------


    POTLOK:  cpu time    0.4221: real time    0.4308
    SETDIJ:  cpu time    0.0241: real time    0.0241
    EDDIAG:  cpu time    4.7604: real time    4.7616
  RMM-DIIS:  cpu time   18.4243: real time   18.4350
    ORTHCH:  cpu time    1.3063: real time    1.3065
 BZINTS: Fermi energy: -0.628543;536.000000 electrons
         Band energy:***********;  BLOECHL correction: -0.017096
       DOS:  cpu time    0.0430: real time    0.0430
    CHARGE:  cpu time    0.9163: real time    0.9164
    MIXING:  cpu time    0.0064: real time    0.0064
    --------------------------------------------
      LOOP:  cpu time   25.9026: real time   25.9239

 eigenvalue-minimisations  :  7652
 total energy-change (2. order) :-0.2109687E-01  (-0.1492310E-01)
 number of electron     536.0000177 magnetization     159.6286604
 augmentation part      269.4369975 magnetization     127.9209968

 DIPCOR: dipole corrections for dipol
 direction  3 min pos   250,
 dipolmoment           0.000000      0.000000      0.214669 electrons x Angstroem
 Tr[quadrupol]     -8729.357894

 energy correction for charged system         0.000000 eV
 dipol+quadrupol energy correction           -0.002128 eV
 added-field ion interaction          7.203421 eV  (added to PSCEN)


 Broyden mixing:
  rms(total) = 0.28153E+00    rms(broyden)= 0.28151E+00
  rms(prec ) = 0.39068E+00
  weight for this iteration     100.00

 eigenvalues of (default mixing * dielectric matrix)
  average eigenvalue GAMMA=   0.2564
  0.4060  0.1069

 Free energy of the ion-electron system (eV)
  ---------------------------------------------------
  alpha Z        PSCENC =      1544.91321805
  Ewald energy   TEWEN  =    148189.10809822
  -Hartree energ DENC   =   -188158.06101963
  -exchange      EXHF   =         0.00000000
  -V(xc)+E(xc)   XCENC  =       392.02925998
  PAW double counting   =     46906.47006024   -47493.70375812
  entropy T*S    EENTRO =         0.00000000
  eigenvalues    EBANDS =     -1678.62664463
  atomic energy  EATOM  =     39765.44351111
  Solvation  Ediel_sol  =         0.00000000
  ---------------------------------------------------
  free energy    TOTEN  =      -532.42727479 eV

  energy without entropy =     -532.42727479  energy(sigma->0) =     -532.42727479


--------------------------------------------------------------------------------------------------------




--------------------------------------- Iteration      1(   4)  ---------------------------------------


    POTLOK:  cpu time    0.4321: real time    0.4328
    SETDIJ:  cpu time    0.0240: real time    0.0240
    EDDIAG:  cpu time    4.7437: real time    4.7455
  RMM-DIIS:  cpu time   19.6837: real time   19.6965
    ORTHCH:  cpu time    1.3037: real time    1.3039
 BZINTS: Fermi energy: -0.615258;536.000000 electrons
         Band energy:***********;  BLOECHL correction: -0.027578
       DOS:  cpu time    0.0442: real time    0.0442
    CHARGE:  cpu time    0.9245: real time    0.9247
    MIXING:  cpu time    0.0066: real time    0.0066
    --------------------------------------------
      LOOP:  cpu time   27.1632: real time   27.1782

 eigenvalue-minimisations  :  8139
 total energy-change (2. order) : 0.1029852E-01  (-0.7215886E-02)
 number of electron     536.0000174 magnetization     159.6326469
 augmentation part      269.5214129 magnetization     127.4351158

 DIPCOR: dipole corrections for dipol
 direction  3 min pos   244,
 dipolmoment           0.000000      0.000000      0.139894 electrons x Angstroem
 Tr[quadrupol]     -8729.108797

 energy correction for charged system         0.000000 eV
 dipol+quadrupol energy correction           -0.000904 eV
 added-field ion interaction          1.957184 eV  (added to PSCEN)


 Broyden mixing:
  rms(total) = 0.19485E+00    rms(broyden)= 0.19482E+00
  rms(prec ) = 0.26535E+00
  weight for this iteration     100.00

 eigenvalues of (default mixing * dielectric matrix)
  average eigenvalue GAMMA=   0.2172
  0.3920  0.1902  0.0694

 Free energy of the ion-electron system (eV)
  ---------------------------------------------------
  alpha Z        PSCENC =      1539.66820541
  Ewald energy   TEWEN  =    148189.10809822
  -Hartree energ DENC   =   -188156.23957199
  -exchange      EXHF   =         0.00000000
  -V(xc)+E(xc)   XCENC  =       391.83275773
  PAW double counting   =     46905.50506777   -47492.54863504
  entropy T*S    EENTRO =         0.00000000
  eigenvalues    EBANDS =     -1675.18640948
  atomic energy  EATOM  =     39765.44351111
  Solvation  Ediel_sol  =         0.00000000
  ---------------------------------------------------
  free energy    TOTEN  =      -532.41697627 eV

  energy without entropy =     -532.41697627  energy(sigma->0) =     -532.41697627


--------------------------------------------------------------------------------------------------------




--------------------------------------- Iteration      1(   5)  ---------------------------------------


    POTLOK:  cpu time    0.4252: real time    0.4348
    SETDIJ:  cpu time    0.0242: real time    0.0242
    EDDIAG:  cpu time    4.7530: real time    4.7543
  RMM-DIIS:  cpu time   18.3681: real time   18.3781
    ORTHCH:  cpu time    1.3016: real time    1.3018
 BZINTS: Fermi energy: -0.620914;536.000000 electrons
         Band energy:***********;  BLOECHL correction: -0.034739
       DOS:  cpu time    0.0441: real time    0.0441
    CHARGE:  cpu time    0.9189: real time    0.9190
    MIXING:  cpu time    0.0066: real time    0.0066
    --------------------------------------------
      LOOP:  cpu time   25.8416: real time   25.8630

 eigenvalue-minimisations  :  7551
 total energy-change (2. order) : 0.1674493E-01  (-0.2202976E-02)
 number of electron     536.0000175 magnetization     159.6276594
 augmentation part      269.4785844 magnetization     127.7118568

 DIPCOR: dipole corrections for dipol
 direction  3 min pos   245,
 dipolmoment           0.000000      0.000000      0.170265 electrons x Angstroem
 Tr[quadrupol]     -8729.237384

 energy correction for charged system         0.000000 eV
 dipol+quadrupol energy correction           -0.001339 eV
 added-field ion interaction          2.937303 eV  (added to PSCEN)


 Broyden mixing:
  rms(total) = 0.58833E-01    rms(broyden)= 0.58808E-01
  rms(prec ) = 0.62968E-01
  weight for this iteration     100.00

 eigenvalues of (default mixing * dielectric matrix)
  average eigenvalue GAMMA=   0.1997
  0.3028  0.3028  0.1312  0.0621

 Free energy of the ion-electron system (eV)
  ---------------------------------------------------
  alpha Z        PSCENC =      1540.64788871
  Ewald energy   TEWEN  =    148189.10809822
  -Hartree energ DENC   =   -188158.54168670
  -exchange      EXHF   =         0.00000000
  -V(xc)+E(xc)   XCENC  =       391.78174636
  PAW double counting   =     46906.36330242   -47493.33550374
  entropy T*S    EENTRO =         0.00000000
  eigenvalues    EBANDS =     -1673.86758771
  atomic energy  EATOM  =     39765.44351111
  Solvation  Ediel_sol  =         0.00000000
  ---------------------------------------------------
  free energy    TOTEN  =      -532.40023135 eV

  energy without entropy =     -532.40023135  energy(sigma->0) =     -532.40023135


--------------------------------------------------------------------------------------------------------




--------------------------------------- Iteration      1(   6)  ---------------------------------------


    POTLOK:  cpu time    0.4251: real time    0.4348
    SETDIJ:  cpu time    0.0244: real time    0.0243
    EDDIAG:  cpu time    4.7558: real time    4.7572
  RMM-DIIS:  cpu time   24.6218: real time   24.6349
    ORTHCH:  cpu time    1.3035: real time    1.3037
 BZINTS: Fermi energy: -0.623450;536.000000 electrons
         Band energy:***********;  BLOECHL correction: -0.034519
       DOS:  cpu time    0.0413: real time    0.0413
    CHARGE:  cpu time    0.9194: real time    0.9196
    MIXING:  cpu time    0.0070: real time    0.0070
    --------------------------------------------
      LOOP:  cpu time   32.0976: real time   32.1228

 eigenvalue-minimisations  : 10331
 total energy-change (2. order) :-0.1752644E-02  (-0.9282785E-03)
 number of electron     536.0000175 magnetization     159.6237774
 augmentation part      269.4833136 magnetization     127.6941952

 DIPCOR: dipole corrections for dipol
 direction  3 min pos   247,
 dipolmoment           0.000000      0.000000      0.171687 electrons x Angstroem
 Tr[quadrupol]     -8729.285625

 energy correction for charged system         0.000000 eV
 dipol+quadrupol energy correction           -0.001361 eV
 added-field ion interaction          4.081558 eV  (added to PSCEN)


 Broyden mixing:
  rms(total) = 0.58011E-01    rms(broyden)= 0.58004E-01
  rms(prec ) = 0.64659E-01
  weight for this iteration     100.00

 eigenvalues of (default mixing * dielectric matrix)
  average eigenvalue GAMMA=   0.1923
  0.2496  0.2496  0.1977  0.1977  0.0668

 Free energy of the ion-electron system (eV)
  ---------------------------------------------------
  alpha Z        PSCENC =      1541.79212128
  Ewald energy   TEWEN  =    148189.10809822
  -Hartree energ DENC   =   -188158.42653271
  -exchange      EXHF   =         0.00000000
  -V(xc)+E(xc)   XCENC  =       391.71319430
  PAW double counting   =     46905.91768198   -47492.84114276
  entropy T*S    EENTRO =         0.00000000
  eigenvalues    EBANDS =     -1675.10891541
  atomic energy  EATOM  =     39765.44351111
  Solvation  Ediel_sol  =         0.00000000
  ---------------------------------------------------
  free energy    TOTEN  =      -532.40198399 eV

  energy without entropy =     -532.40198399  energy(sigma->0) =     -532.40198399


--------------------------------------------------------------------------------------------------------




--------------------------------------- Iteration      1(   7)  ---------------------------------------


    POTLOK:  cpu time    0.4224: real time    0.4319
    SETDIJ:  cpu time    0.0242: real time    0.0242
    EDDIAG:  cpu time    4.7918: real time    4.7932
  RMM-DIIS:  cpu time   21.3557: real time   21.3677
    ORTHCH:  cpu time    1.3078: real time    1.3080
 BZINTS: Fermi energy: -0.624720;536.000000 electrons
         Band energy:***********;  BLOECHL correction: -0.034466
       DOS:  cpu time    0.0442: real time    0.0442
    CHARGE:  cpu time    0.9233: real time    0.9235
    MIXING:  cpu time    0.0070: real time    0.0069
    --------------------------------------------
      LOOP:  cpu time   28.8765: real time   28.8998

 eigenvalue-minimisations  :  8923
 total energy-change (2. order) :-0.7391147E-03  (-0.2098473E-03)
 number of electron     536.0000175 magnetization     159.6149086
 augmentation part      269.4851086 magnetization     127.6801110

 DIPCOR: dipole corrections for dipol
 direction  3 min pos   248,
 dipolmoment           0.000000      0.000000      0.171958 electrons x Angstroem
 Tr[quadrupol]     -8729.312164

 energy correction for charged system         0.000000 eV
 dipol+quadrupol energy correction           -0.001365 eV
 added-field ion interaction          4.648733 eV  (added to PSCEN)


 Broyden mixing:
  rms(total) = 0.56220E-01    rms(broyden)= 0.56214E-01
  rms(prec ) = 0.63210E-01
  weight for this iteration     100.00

 eigenvalues of (default mixing * dielectric matrix)
  average eigenvalue GAMMA=   0.3008
  0.5344  0.5344  0.3907  0.1730  0.0656  0.1069

 Free energy of the ion-electron system (eV)
  ---------------------------------------------------
  alpha Z        PSCENC =      1542.35929201
  Ewald energy   TEWEN  =    148189.10809822
  -Hartree energ DENC   =   -188158.38539433
  -exchange      EXHF   =         0.00000000
  -V(xc)+E(xc)   XCENC  =       391.67217567
  PAW double counting   =     46905.54149322   -47492.43821016
  entropy T*S    EENTRO =         0.00000000
  eigenvalues    EBANDS =     -1675.70368884
  atomic energy  EATOM  =     39765.44351111
  Solvation  Ediel_sol  =         0.00000000
  ---------------------------------------------------
  free energy    TOTEN  =      -532.40272311 eV

  energy without entropy =     -532.40272311  energy(sigma->0) =     -532.40272311


--------------------------------------------------------------------------------------------------------




--------------------------------------- Iteration      1(   8)  ---------------------------------------


    POTLOK:  cpu time    0.4233: real time    0.4326
    SETDIJ:  cpu time    0.0241: real time    0.0241
    EDDIAG:  cpu time    4.7808: real time    4.7822
  RMM-DIIS:  cpu time   18.9953: real time   19.0059
    ORTHCH:  cpu time    1.3092: real time    1.3094
 BZINTS: Fermi energy: -0.625529;536.000000 electrons
         Band energy:***********;  BLOECHL correction: -0.034793
       DOS:  cpu time    0.0434: real time    0.0434
    CHARGE:  cpu time    0.9242: real time    0.9243
    MIXING:  cpu time    0.0072: real time    0.0072
    --------------------------------------------
      LOOP:  cpu time   26.5074: real time   26.5292

 eigenvalue-minimisations  :  7887
 total energy-change (2. order) :-0.1374303E-02  (-0.2459398E-03)
 number of electron     536.0000175 magnetization     159.5973841
 augmentation part      269.4868572 magnetization     127.6565802

 DIPCOR: dipole corrections for dipol
 direction  3 min pos   249,
 dipolmoment           0.000000      0.000000      0.170807 electrons x Angstroem
 Tr[quadrupol]     -8729.345327

 energy correction for charged system         0.000000 eV
 dipol+quadrupol energy correction           -0.001347 eV
 added-field ion interaction          5.174592 eV  (added to PSCEN)


 Broyden mixing:
  rms(total) = 0.54623E-01    rms(broyden)= 0.54617E-01
  rms(prec ) = 0.59665E-01
  weight for this iteration     100.00

 eigenvalues of (default mixing * dielectric matrix)
  average eigenvalue GAMMA=   0.3756
  0.8329  0.8329  0.4365  0.1811  0.1811  0.0657  0.0993

 Free energy of the ion-electron system (eV)
  ---------------------------------------------------
  alpha Z        PSCENC =      1542.88516929
  Ewald energy   TEWEN  =    148189.10809822
  -Hartree energ DENC   =   -188158.58489558
  -exchange      EXHF   =         0.00000000
  -V(xc)+E(xc)   XCENC  =       391.61768556
  PAW double counting   =     46904.57843873   -47491.45261292
  entropy T*S    EENTRO =         0.00000000
  eigenvalues    EBANDS =     -1675.99949183
  atomic energy  EATOM  =     39765.44351111
  Solvation  Ediel_sol  =         0.00000000
  ---------------------------------------------------
  free energy    TOTEN  =      -532.40409741 eV

  energy without entropy =     -532.40409741  energy(sigma->0) =     -532.40409741


--------------------------------------------------------------------------------------------------------




--------------------------------------- Iteration      1(   9)  ---------------------------------------


    POTLOK:  cpu time    0.4253: real time    0.4341
    SETDIJ:  cpu time    0.0241: real time    0.0241
    EDDIAG:  cpu time    4.7765: real time    4.7777
  RMM-DIIS:  cpu time   18.7196: real time   18.7298
    ORTHCH:  cpu time    1.3095: real time    1.3097
 BZINTS: Fermi energy: -0.625448;536.000000 electrons
         Band energy:***********;  BLOECHL correction: -0.034100
       DOS:  cpu time    0.0431: real time    0.0432
    CHARGE:  cpu time    0.9239: real time    0.9239
    MIXING:  cpu time    0.0074: real time    0.0074
    --------------------------------------------
      LOOP:  cpu time   26.2293: real time   26.2499

 eigenvalue-minimisations  :  7747
 total energy-change (2. order) :-0.1934657E-03  (-0.1744009E-03)
 number of electron     536.0000175 magnetization     159.5814418
 augmentation part      269.4988053 magnetization     127.6149549

 DIPCOR: dipole corrections for dipol
 direction  3 min pos   249,
 dipolmoment           0.000000      0.000000      0.170370 electrons x Angstroem
 Tr[quadrupol]     -8729.339752

 energy correction for charged system         0.000000 eV
 dipol+quadrupol energy correction           -0.001340 eV
 added-field ion interaction          5.161361 eV  (added to PSCEN)


 Broyden mixing:
  rms(total) = 0.37747E-01    rms(broyden)= 0.37745E-01
  rms(prec ) = 0.39846E-01
  weight for this iteration     100.00

 eigenvalues of (default mixing * dielectric matrix)
  average eigenvalue GAMMA=   0.4281
  1.0603  1.0603  0.4161  0.3603  0.1929  0.1672  0.0657  0.1020

 Free energy of the ion-electron system (eV)
  ---------------------------------------------------
  alpha Z        PSCENC =      1542.87194601
  Ewald energy   TEWEN  =    148189.10809822
  -Hartree energ DENC   =   -188158.29643320
  -exchange      EXHF   =         0.00000000
  -V(xc)+E(xc)   XCENC  =       391.53545253
  PAW double counting   =     46902.59609394   -47489.42922484
  entropy T*S    EENTRO =         0.00000000
  eigenvalues    EBANDS =     -1676.23373464
  atomic energy  EATOM  =     39765.44351111
  Solvation  Ediel_sol  =         0.00000000
  ---------------------------------------------------
  free energy    TOTEN  =      -532.40429087 eV

  energy without entropy =     -532.40429087  energy(sigma->0) =     -532.40429087


--------------------------------------------------------------------------------------------------------




--------------------------------------- Iteration      1(  10)  ---------------------------------------


    POTLOK:  cpu time    0.4317: real time    0.4324
    SETDIJ:  cpu time    0.0241: real time    0.0241
    EDDIAG:  cpu time    4.7782: real time    4.7794
  RMM-DIIS:  cpu time   20.4776: real time   20.4843
    ORTHCH:  cpu time    1.3059: real time    1.3106
 BZINTS: Fermi energy: -0.625435;536.000000 electrons
         Band energy:***********;  BLOECHL correction: -0.034247
       DOS:  cpu time    0.0432: real time    0.0433
    CHARGE:  cpu time    0.9225: real time    0.9226
    MIXING:  cpu time    0.0074: real time    0.0075
    --------------------------------------------
      LOOP:  cpu time   27.9907: real time   28.0042

 eigenvalue-minimisations  :  8507
 total energy-change (2. order) :-0.3403191E-03  (-0.1375885E-03)
 number of electron     536.0000175 magnetization     159.5606376
 augmentation part      269.5008278 magnetization     127.5922820

 DIPCOR: dipole corrections for dipol
 direction  3 min pos   249,
 dipolmoment           0.000000      0.000000      0.170588 electrons x Angstroem
 Tr[quadrupol]     -8729.350181

 energy correction for charged system         0.000000 eV
 dipol+quadrupol energy correction           -0.001344 eV
 added-field ion interaction          5.167968 eV  (added to PSCEN)


 Broyden mixing:
  rms(total) = 0.33788E-01    rms(broyden)= 0.33787E-01
  rms(prec ) = 0.35803E-01
  weight for this iteration     100.00

 eigenvalues of (default mixing * dielectric matrix)
  average eigenvalue GAMMA=   0.4543
  1.2342  1.2342  0.4463  0.4463  0.0657  0.1976  0.1976  0.1658  0.1012

 Free energy of the ion-electron system (eV)
  ---------------------------------------------------
  alpha Z        PSCENC =      1542.87854888
  Ewald energy   TEWEN  =    148189.10809822
  -Hartree energ DENC   =   -188158.49238101
  -exchange      EXHF   =         0.00000000
  -V(xc)+E(xc)   XCENC  =       391.48178934
  PAW double counting   =     46901.05658592   -47487.85604218
  entropy T*S    EENTRO =         0.00000000
  eigenvalues    EBANDS =     -1676.02474147
  atomic energy  EATOM  =     39765.44351111
  Solvation  Ediel_sol  =         0.00000000
  ---------------------------------------------------
  free energy    TOTEN  =      -532.40463119 eV

  energy without entropy =     -532.40463119  energy(sigma->0) =     -532.40463119


--------------------------------------------------------------------------------------------------------




--------------------------------------- Iteration      1(  11)  ---------------------------------------


    POTLOK:  cpu time    0.4293: real time    0.4302
    SETDIJ:  cpu time    0.0242: real time    0.0241
    EDDIAG:  cpu time    4.7921: real time    4.7936
  RMM-DIIS:  cpu time   19.0411: real time   19.0473
    ORTHCH:  cpu time    1.3089: real time    1.3092
 BZINTS: Fermi energy: -0.625502;536.000000 electrons
         Band energy:***********;  BLOECHL correction: -0.034411
       DOS:  cpu time    0.0444: real time    0.0444
    CHARGE:  cpu time    0.9259: real time    0.9261
    MIXING:  cpu time    0.0078: real time    0.0077
    --------------------------------------------
      LOOP:  cpu time   26.5736: real time   26.5825

 eigenvalue-minimisations  :  7888
 total energy-change (2. order) : 0.1370355E-02  (-0.1059511E-03)
 number of electron     536.0000175 magnetization     159.5345024
 augmentation part      269.5030818 magnetization     127.5660924

 DIPCOR: dipole corrections for dipol
 direction  3 min pos   249,
 dipolmoment           0.000000      0.000000      0.171239 electrons x Angstroem
 Tr[quadrupol]     -8729.361368

 energy correction for charged system         0.000000 eV
 dipol+quadrupol energy correction           -0.001354 eV
 added-field ion interaction          5.187702 eV  (added to PSCEN)


 Broyden mixing:
  rms(total) = 0.26155E-01    rms(broyden)= 0.26154E-01
  rms(prec ) = 0.28575E-01
  weight for this iteration     100.00

 eigenvalues of (default mixing * dielectric matrix)
  average eigenvalue GAMMA=   0.5131
  1.4130  1.4130  0.5917  0.5917  0.4208  0.0657  0.1015  0.1949  0.1692  0.1692

 Free energy of the ion-electron system (eV)
  ---------------------------------------------------
  alpha Z        PSCENC =      1542.89827251
  Ewald energy   TEWEN  =    148189.10809822
  -Hartree energ DENC   =   -188158.66700501
  -exchange      EXHF   =         0.00000000
  -V(xc)+E(xc)   XCENC  =       391.41675719
  PAW double counting   =     46899.18832420   -47485.94440456
  entropy T*S    EENTRO =         0.00000000
  eigenvalues    EBANDS =     -1675.84681450
  atomic energy  EATOM  =     39765.44351111
  Solvation  Ediel_sol  =         0.00000000
  ---------------------------------------------------
  free energy    TOTEN  =      -532.40326084 eV

  energy without entropy =     -532.40326084  energy(sigma->0) =     -532.40326084


--------------------------------------------------------------------------------------------------------




--------------------------------------- Iteration      1(  12)  ---------------------------------------


    POTLOK:  cpu time    0.4219: real time    0.4323
    SETDIJ:  cpu time    0.0241: real time    0.0241
    EDDIAG:  cpu time    4.7980: real time    4.8038
  RMM-DIIS:  cpu time   19.2226: real time   19.2302
    ORTHCH:  cpu time    1.2925: real time    1.2927
 BZINTS: Fermi energy: -0.625686;536.000000 electrons
         Band energy:***********;  BLOECHL correction: -0.034354
       DOS:  cpu time    0.0419: real time    0.0419
    CHARGE:  cpu time    0.9229: real time    0.9230
    MIXING:  cpu time    0.0089: real time    0.0089
    --------------------------------------------
      LOOP:  cpu time   26.7329: real time   26.7570

 eigenvalue-minimisations  :  7992
 total energy-change (2. order) : 0.1735944E-02  (-0.1133217E-03)
 number of electron     536.0000175 magnetization     159.5131116
 augmentation part      269.5088759 magnetization     127.5397223

 DIPCOR: dipole corrections for dipol
 direction  3 min pos   249,
 dipolmoment           0.000000      0.000000      0.171786 electrons x Angstroem
 Tr[quadrupol]     -8729.366527

 energy correction for charged system         0.000000 eV
 dipol+quadrupol energy correction           -0.001363 eV
 added-field ion interaction          5.204257 eV  (added to PSCEN)


 Broyden mixing:
  rms(total) = 0.29280E-01    rms(broyden)= 0.29278E-01
  rms(prec ) = 0.32803E-01
  weight for this iteration     100.00

 eigenvalues of (default mixing * dielectric matrix)
  average eigenvalue GAMMA=   0.5231
  1.5449  1.5449  0.6711  0.6711  0.4313  0.0657  0.1015  0.1977  0.1977  0.1724
  0.1564

 Free energy of the ion-electron system (eV)
  ---------------------------------------------------
  alpha Z        PSCENC =      1542.91481896
  Ewald energy   TEWEN  =    148189.10809822
  -Hartree energ DENC   =   -188158.68962744
  -exchange      EXHF   =         0.00000000
  -V(xc)+E(xc)   XCENC  =       391.35793503
  PAW double counting   =     46897.36602510   -47484.07935707
  entropy T*S    EENTRO =         0.00000000
  eigenvalues    EBANDS =     -1675.82292881
  atomic energy  EATOM  =     39765.44351111
  Solvation  Ediel_sol  =         0.00000000
  ---------------------------------------------------
  free energy    TOTEN  =      -532.40152489 eV

  energy without entropy =     -532.40152489  energy(sigma->0) =     -532.40152489


--------------------------------------------------------------------------------------------------------




--------------------------------------- Iteration      1(  13)  ---------------------------------------


    POTLOK:  cpu time    0.4234: real time    0.4332
    SETDIJ:  cpu time    0.0240: real time    0.0240
    EDDIAG:  cpu time    4.7999: real time    4.8012
  RMM-DIIS:  cpu time   18.6129: real time   18.6248
    ORTHCH:  cpu time    1.2977: real time    1.2979
 BZINTS: Fermi energy: -0.624578;536.000000 electrons
         Band energy:***********;  BLOECHL correction: -0.034422
       DOS:  cpu time    0.0441: real time    0.0441
    CHARGE:  cpu time    0.9229: real time    0.9230
    MIXING:  cpu time    0.0082: real time    0.0082
    --------------------------------------------
      LOOP:  cpu time   26.1331: real time   26.1564

 eigenvalue-minimisations  :  7684
 total energy-change (2. order) : 0.1566074E-02  (-0.5988922E-04)
 number of electron     536.0000175 magnetization     159.4923225
 augmentation part      269.5119794 magnetization     127.5182966

 DIPCOR: dipole corrections for dipol
 direction  3 min pos   248,
 dipolmoment           0.000000      0.000000      0.171559 electrons x Angstroem
 Tr[quadrupol]     -8729.347577

 energy correction for charged system         0.000000 eV
 dipol+quadrupol energy correction           -0.001359 eV
 added-field ion interaction          4.637942 eV  (added to PSCEN)


 Broyden mixing:
  rms(total) = 0.22657E-01    rms(broyden)= 0.22655E-01
  rms(prec ) = 0.25382E-01
  weight for this iteration     100.00

 eigenvalues of (default mixing * dielectric matrix)
  average eigenvalue GAMMA=   0.5518
  1.6932  1.6932  0.7516  0.7516  0.4280  0.4225  0.0657  0.1015  0.2099  0.1723
  0.1723  0.1603

 Free energy of the ion-electron system (eV)
  ---------------------------------------------------
  alpha Z        PSCENC =      1542.34850816
  Ewald energy   TEWEN  =    148189.10809822
  -Hartree energ DENC   =   -188158.76391474
  -exchange      EXHF   =         0.00000000
  -V(xc)+E(xc)   XCENC  =       391.32090641
  PAW double counting   =     46896.09329139   -47482.78286620
  entropy T*S    EENTRO =         0.00000000
  eigenvalues    EBANDS =     -1675.16749318
  atomic energy  EATOM  =     39765.44351111
  Solvation  Ediel_sol  =         0.00000000
  ---------------------------------------------------
  free energy    TOTEN  =      -532.39995882 eV

  energy without entropy =     -532.39995882  energy(sigma->0) =     -532.39995882


--------------------------------------------------------------------------------------------------------




--------------------------------------- Iteration      1(  14)  ---------------------------------------


    POTLOK:  cpu time    0.4246: real time    0.4344
    SETDIJ:  cpu time    0.0240: real time    0.0240
    EDDIAG:  cpu time    4.8009: real time    4.8022
  RMM-DIIS:  cpu time   22.0571: real time   22.0697
    ORTHCH:  cpu time    1.2926: real time    1.2928
 BZINTS: Fermi energy: -0.624297;536.000000 electrons
         Band energy:***********;  BLOECHL correction: -0.034382
       DOS:  cpu time    0.0431: real time    0.0431
    CHARGE:  cpu time    0.9233: real time    0.9235
    MIXING:  cpu time    0.0083: real time    0.0083
    --------------------------------------------
      LOOP:  cpu time   29.5739: real time   29.5979

 eigenvalue-minimisations  :  9239
 total energy-change (2. order) : 0.8519132E-03  (-0.3535242E-04)
 number of electron     536.0000175 magnetization     159.4778649
 augmentation part      269.5135150 magnetization     127.4959725

 DIPCOR: dipole corrections for dipol
 direction  3 min pos   248,
 dipolmoment           0.000000      0.000000      0.171464 electrons x Angstroem
 Tr[quadrupol]     -8729.352135

 energy correction for charged system         0.000000 eV
 dipol+quadrupol energy correction           -0.001358 eV
 added-field ion interaction          4.635389 eV  (added to PSCEN)


 Broyden mixing:
  rms(total) = 0.19723E-01    rms(broyden)= 0.19722E-01
  rms(prec ) = 0.21594E-01
  weight for this iteration     100.00

 eigenvalues of (default mixing * dielectric matrix)
  average eigenvalue GAMMA=   0.5525
  1.7880  1.7880  0.7960  0.7960  0.4613  0.3357  0.3357  0.0657  0.1015  0.1955
  0.1955  0.1673  0.1567

 Free energy of the ion-electron system (eV)
  ---------------------------------------------------
  alpha Z        PSCENC =      1542.34595616
  Ewald energy   TEWEN  =    148189.10809822
  -Hartree energ DENC   =   -188158.89793135
  -exchange      EXHF   =         0.00000000
  -V(xc)+E(xc)   XCENC  =       391.29265259
  PAW double counting   =     46895.07897914   -47481.75895471
  entropy T*S    EENTRO =         0.00000000
  eigenvalues    EBANDS =     -1675.01141806
  atomic energy  EATOM  =     39765.44351111
  Solvation  Ediel_sol  =         0.00000000
  ---------------------------------------------------
  free energy    TOTEN  =      -532.39910691 eV

  energy without entropy =     -532.39910691  energy(sigma->0) =     -532.39910691


--------------------------------------------------------------------------------------------------------




--------------------------------------- Iteration      1(  15)  ---------------------------------------


    POTLOK:  cpu time    0.4223: real time    0.4317
    SETDIJ:  cpu time    0.0241: real time    0.0241
    EDDIAG:  cpu time    4.8094: real time    4.8107
  RMM-DIIS:  cpu time   19.8596: real time   19.8708
    ORTHCH:  cpu time    1.2950: real time    1.2952
 BZINTS: Fermi energy: -0.623049;536.000000 electrons
         Band energy:***********;  BLOECHL correction: -0.034317
       DOS:  cpu time    0.0432: real time    0.0432
    CHARGE:  cpu time    0.9231: real time    0.9232
    MIXING:  cpu time    0.0087: real time    0.0087
    --------------------------------------------
      LOOP:  cpu time   27.3854: real time   27.4076

 eigenvalue-minimisations  :  8244
 total energy-change (2. order) : 0.2987855E-03  (-0.1498167E-04)
 number of electron     536.0000175 magnetization     159.4632764
 augmentation part      269.5149926 magnetization     127.4777669

 DIPCOR: dipole corrections for dipol
 direction  3 min pos   247,
 dipolmoment           0.000000      0.000000      0.171565 electrons x Angstroem
 Tr[quadrupol]     -8729.331825

 energy correction for charged system         0.000000 eV
 dipol+quadrupol energy correction           -0.001359 eV
 added-field ion interaction          4.078649 eV  (added to PSCEN)


 Broyden mixing:
  rms(total) = 0.17139E-01    rms(broyden)= 0.17139E-01
  rms(prec ) = 0.18249E-01
  weight for this iteration     100.00

 eigenvalues of (default mixing * dielectric matrix)
  average eigenvalue GAMMA=   0.5638
  1.8750  1.8750  0.8238  0.8238  0.4916  0.4916  0.4524  0.0657  0.1015  0.2005
  0.2005  0.1672  0.1672  0.1579

 Free energy of the ion-electron system (eV)
  ---------------------------------------------------
  alpha Z        PSCENC =      1541.78921451
  Ewald energy   TEWEN  =    148189.10809822
  -Hartree energ DENC   =   -188158.97892931
  -exchange      EXHF   =         0.00000000
  -V(xc)+E(xc)   XCENC  =       391.27686844
  PAW double counting   =     46894.47475057   -47481.14739875
  entropy T*S    EENTRO =         0.00000000
  eigenvalues    EBANDS =     -1674.36492291
  atomic energy  EATOM  =     39765.44351111
  Solvation  Ediel_sol  =         0.00000000
  ---------------------------------------------------
  free energy    TOTEN  =      -532.39880812 eV

  energy without entropy =     -532.39880812  energy(sigma->0) =     -532.39880812


--------------------------------------------------------------------------------------------------------




--------------------------------------- Iteration      1(  16)  ---------------------------------------


    POTLOK:  cpu time    0.4220: real time    0.4316
    SETDIJ:  cpu time    0.0242: real time    0.0242
    EDDIAG:  cpu time    4.8103: real time    4.8117
  RMM-DIIS:  cpu time   21.6970: real time   21.7116
    ORTHCH:  cpu time    1.2910: real time    1.2945
 BZINTS: Fermi energy: -0.622970;536.000000 electrons
         Band energy:***********;  BLOECHL correction: -0.034400
       DOS:  cpu time    0.0442: real time    0.0442
    CHARGE:  cpu time    0.9230: real time    0.9231
    MIXING:  cpu time    0.0089: real time    0.0089
    --------------------------------------------
      LOOP:  cpu time   29.2206: real time   29.2497

 eigenvalue-minimisations  :  9049
 total energy-change (2. order) : 0.4583024E-05  (-0.9819925E-05)
 number of electron     536.0000175 magnetization     159.4494449
 augmentation part      269.5143423 magnetization     127.4645432

 DIPCOR: dipole corrections for dipol
 direction  3 min pos   247,
 dipolmoment           0.000000      0.000000      0.171926 electrons x Angstroem
 Tr[quadrupol]     -8729.336521

 energy correction for charged system         0.000000 eV
 dipol+quadrupol energy correction           -0.001365 eV
[...]
   -.198E-02 -.648E-03 0.191E+04   0.611E-03 -.119E-03 -.190E+04   0.485E-03 0.650E-03 -.334E+01   -.147E-04 -.361E-04 -.280E-03
   0.780E-02 -.551E-02 -.500E+03   -.775E-02 0.676E-02 0.499E+03   -.757E-04 -.218E-02 0.467E+00   -.256E-03 -.637E-04 -.126E-03
   -.255E+00 -.242E+00 0.722E+03   0.299E+00 0.271E+00 -.721E+03   -.323E-01 -.219E-01 -.538E+00   -.242E-04 -.439E-04 -.400E-03
   -.472E+02 -.340E+02 -.176E+04   0.493E+02 0.355E+02 0.175E+04   -.216E+01 -.154E+01 0.425E+01   -.362E-03 -.177E-03 0.443E-04
   -.235E-01 0.148E-01 0.191E+04   0.219E-01 -.126E-01 -.190E+04   -.117E-02 -.132E-02 -.336E+01   0.120E-03 -.380E-04 -.283E-03
   -.160E+00 0.280E+00 -.500E+03   0.159E+00 -.280E+00 0.500E+03   -.190E-02 0.646E-03 0.496E+00   0.140E-03 0.109E-03 -.233E-03
   0.201E+00 0.224E+00 0.721E+03   -.243E+00 -.254E+00 -.721E+03   0.295E-01 0.211E-01 -.538E+00   0.133E-03 -.335E-04 -.573E-03
   0.477E+02 0.339E+02 -.176E+04   -.499E+02 -.355E+02 0.175E+04   0.214E+01 0.154E+01 0.426E+01   0.403E-03 0.182E-03 0.696E-04
   0.328E-01 0.293E-01 0.191E+04   -.276E-01 -.276E-01 -.190E+04   -.279E-02 0.254E-02 -.341E+01   -.122E-03 -.140E-03 -.302E-03
   0.159E+00 0.384E+00 -.466E+03   -.152E+00 -.384E+00 0.465E+03   -.119E-01 -.120E-01 0.129E+01   0.177E-03 -.108E-03 -.226E-04
   -.163E+00 0.592E+00 0.725E+03   0.156E+00 -.582E+00 -.726E+03   0.908E-02 -.951E-02 -.343E+00   -.207E-05 -.606E-04 -.346E-03
   -.578E+02 0.815E+02 -.168E+04   0.592E+02 -.835E+02 0.168E+04   -.143E+01 0.201E+01 0.220E+01   0.131E-03 0.653E-04 -.504E-05
   0.185E-01 0.857E-03 0.191E+04   -.200E-01 -.826E-03 -.190E+04   0.264E-02 -.261E-02 -.334E+01   -.110E-03 -.166E-03 -.252E-03
   0.208E+00 0.954E-01 -.499E+03   -.210E+00 -.956E-01 0.499E+03   -.851E-02 -.301E-02 0.478E+00   -.150E-03 -.198E-03 -.521E-04
   0.256E+00 0.238E+00 0.722E+03   -.300E+00 -.267E+00 -.721E+03   0.306E-01 0.202E-01 -.539E+00   -.115E-03 -.387E-04 -.335E-03
   0.472E+02 0.339E+02 -.176E+04   -.494E+02 -.355E+02 0.175E+04   0.217E+01 0.154E+01 0.425E+01   -.375E-03 -.106E-03 -.105E-04
   -.275E-01 -.112E-01 0.191E+04   0.251E-01 0.103E-01 -.190E+04   0.187E-02 -.305E-03 -.342E+01   0.108E-03 -.937E-04 -.259E-03
   0.186E-01 0.269E+00 -.466E+03   -.292E-01 -.280E+00 0.464E+03   0.336E-02 0.378E-02 0.131E+01   -.170E-03 0.239E-04 -.199E-03
   -.534E+00 0.535E+00 0.726E+03   0.529E+00 -.529E+00 -.726E+03   0.850E-02 -.914E-02 -.346E+00   -.931E-05 -.515E-05 -.514E-03
   -.565E+02 0.818E+02 -.168E+04   0.579E+02 -.838E+02 0.168E+04   -.141E+01 0.204E+01 0.223E+01   -.150E-03 -.596E-05 0.518E-04
   0.115E-01 0.312E-01 0.191E+04   -.806E-02 -.262E-01 -.190E+04   -.287E-03 -.318E-02 -.349E+01   0.262E-05 -.298E-04 -.283E-03
   -.138E+00 0.120E+00 -.468E+03   0.144E+00 -.120E+00 0.468E+03   0.282E-03 0.427E-02 0.117E+00   -.461E-05 0.885E-04 -.424E-04
   0.468E+00 -.436E+00 0.726E+03   -.463E+00 0.429E+00 -.726E+03   -.872E-02 0.983E-02 -.342E+00   -.178E-04 -.106E-04 -.457E-03
   0.575E+02 -.811E+02 -.168E+04   -.589E+02 0.831E+02 0.168E+04   0.143E+01 -.203E+01 0.222E+01   0.120E-03 -.497E-04 0.803E-04
   -.524E-03 0.108E-03 0.191E+04   -.465E-03 -.262E-03 -.190E+04   0.948E-03 -.659E-04 -.334E+01   -.204E-03 0.143E-04 -.279E-03
   -.189E-01 0.229E-01 -.499E+03   0.179E-01 -.216E-01 0.499E+03   0.894E-03 -.190E-02 0.478E+00   -.128E-03 -.151E-03 -.157E-03
   -.234E+00 -.222E+00 0.722E+03   0.275E+00 0.252E+00 -.721E+03   -.266E-01 -.192E-01 -.537E+00   -.896E-04 -.158E-03 -.313E-03
   -.479E+02 -.336E+02 -.176E+04   0.501E+02 0.351E+02 0.175E+04   -.216E+01 -.152E+01 0.424E+01   -.161E-03 -.352E-03 0.573E-04
   -.130E-01 -.318E-01 0.191E+04   0.788E-02 0.255E-01 -.190E+04   0.248E-02 0.432E-02 -.349E+01   0.120E-05 0.356E-04 -.318E-03
   0.156E+00 -.969E-01 -.468E+03   -.161E+00 0.979E-01 0.468E+03   -.109E-02 -.528E-02 0.122E+00   0.252E-04 -.149E-03 -.156E-03
   0.357E+00 -.709E+00 0.726E+03   -.357E+00 0.704E+00 -.726E+03   -.231E-02 0.117E-01 -.349E+00   0.351E-04 -.124E-03 -.317E-03
   0.579E+02 -.805E+02 -.168E+04   -.593E+02 0.825E+02 0.168E+04   0.145E+01 -.201E+01 0.221E+01   -.989E-04 -.508E-04 0.311E-04
   0.153E-02 -.289E-04 0.191E+04   0.717E-03 -.475E-03 -.190E+04   -.209E-02 -.616E-03 -.337E+01   0.204E-03 -.311E-05 -.264E-03
   0.353E-02 -.697E-02 -.500E+03   -.361E-02 0.551E-02 0.500E+03   0.616E-03 0.194E-02 0.488E+00   0.115E-03 0.105E-03 -.122E-03
   -.345E+00 -.202E+00 0.721E+03   0.389E+00 0.230E+00 -.721E+03   -.279E-01 -.202E-01 -.543E+00   0.751E-04 0.227E-04 -.495E-03
   -.486E+02 -.342E+02 -.176E+04   0.507E+02 0.357E+02 0.175E+04   -.214E+01 -.151E+01 0.423E+01   0.134E-03 0.246E-03 0.475E-04
   -.608E-01 -.393E+00 -.169E+04   0.665E-01 0.424E+00 0.171E+04   -.117E-02 -.353E-01 -.230E+02   0.294E-04 -.180E-04 0.199E-03
   -.551E+00 -.756E+00 -.169E+04   0.616E+00 0.817E+00 0.171E+04   -.669E-01 -.500E-01 -.230E+02   -.148E-04 0.194E-04 -.164E-03
   0.618E+00 0.725E+00 -.169E+04   -.685E+00 -.784E+00 0.171E+04   0.692E-01 0.466E-01 -.229E+02   -.147E-03 0.452E-04 0.110E-03
   -.211E+00 0.212E+00 -.169E+04   0.232E+00 -.218E+00 0.171E+04   -.250E-01 0.115E-01 -.230E+02   0.149E-03 -.473E-04 -.191E-03
 -----------------------------------------------------------------------------------------------
   0.532E-01 0.455E-01 0.922E+02   -.422E-12 0.535E-12 0.364E-11   -.463E-01 -.550E-01 -.922E+02   0.143E-04 0.545E-06 -.131E-01
 
 
 POSITION                                       TOTAL-FORCE (eV/Angst)
 -----------------------------------------------------------------------------------
      1.40594      1.52230      2.00000        -0.001471      0.001267      0.357082
      1.40398      1.52099      6.03172         0.008939      0.002848      0.003852
      2.23340      0.35210      4.02685        -0.015438     -0.011633     -0.291350
      2.27528      0.38078      8.02442         0.000149      0.002274     -0.035912
      3.88832      1.52230      2.00000        -0.002090     -0.003402      0.282691
      3.88736      1.52117      5.98657         0.005974      0.011848      0.013931
      4.71578      0.35210      4.02685         0.002745     -0.002536     -0.395853
      4.77920      0.26400      7.95756        -0.016213      0.023490      0.020476
      6.37069      1.52230      2.00000         0.001335      0.000762      0.352269
      6.36970      1.52319      6.03378         0.004852     -0.000116     -0.001592
      7.19815      0.35210      4.02685        -0.015527     -0.007299     -0.286665
      7.24040      0.38385      8.02645        -0.004796     -0.001029     -0.035210
      8.85307      1.52230      2.00000         0.002261      0.001555      0.284986
      8.85131      1.52148      5.98541         0.008267      0.007427      0.021580
      9.68053      0.35210      4.02685         0.001895     -0.006244     -0.394741
      9.74366      0.26147      7.95505        -0.015874      0.013972      0.022146
      2.23340      3.86271      2.00000        -0.001230      0.000189      0.363549
      2.23216      3.86178      5.99285         0.009967      0.000773      0.025459
      3.06086      2.69251      4.02685        -0.003077     -0.000300     -0.397130
      2.99680      2.77948      7.95478         0.014623     -0.009721      0.022847
      4.71578      3.86271      2.00000         0.000921     -0.001005      0.353998
      4.71559      3.86268      6.03319         0.000690      0.000787     -0.001177
      5.54324      2.69251      4.02685         0.012834      0.009683     -0.289191
      5.49992      2.66451      8.02623        -0.002863     -0.007577     -0.033500
      7.19815      3.86271      2.00000         0.001612     -0.000041      0.364770
      7.19911      3.86365      5.99277        -0.009877     -0.000249      0.021383
      8.02561      2.69251      4.02685        -0.004195      0.003426     -0.396709
      7.96121      2.78367      7.95544         0.013613     -0.027585      0.028441
      9.68053      3.86271      2.00000        -0.001002     -0.000013      0.356322
      9.68036      3.86272      6.03257        -0.000386     -0.000851     -0.006057
     10.50799      2.69251      4.02685         0.011146      0.007413     -0.290954
     10.46432      2.66093      8.02284         0.001077      0.003575     -0.036552
      3.06086      6.20311      2.00000        -0.002730      0.000924      0.352843
      3.06153      6.20221      6.03382        -0.002834      0.000523     -0.001679
      3.88832      5.03291      4.02685        -0.012282     -0.009010     -0.288564
      3.93093      5.06065      8.02637        -0.001937      0.004768     -0.036662
      5.54324      6.20311      2.00000         0.002226      0.004201      0.286965
      5.54389      6.20421      5.98658        -0.005420     -0.011838      0.011936
      6.37069      5.03291      4.02685         0.002614      0.000236     -0.396237
      6.43410      4.94586      7.95482        -0.012697      0.006801      0.020988
      8.02561      6.20311      2.00000         0.001006     -0.002607      0.356496
      8.02726      6.20440      6.03166        -0.010331     -0.003209      0.004157
      8.85307      5.03291      4.02685        -0.012760     -0.008252     -0.291356
      8.89604      5.06469      8.02292         0.003046     -0.000249     -0.032848
     10.50799      6.20311      2.00000        -0.000529     -0.001167      0.280833
     10.50939      6.20394      5.98541        -0.007545     -0.007696      0.023689
     11.33544      5.03291      4.02685         0.003853     -0.003212     -0.397718
     11.39924      4.94194      7.95541        -0.014946      0.028777      0.028560
      3.88832      8.54352      2.00000         0.003034      0.001984      0.361487
      3.88745      8.54203      5.99387         0.006947      0.004332      0.016458
      4.71578      7.37332      4.02685        -0.003287      0.002537     -0.394479
      4.65167      7.46131      7.95756         0.015687     -0.022774      0.020436
      6.37069      8.54352      2.00000        -0.000346     -0.000065      0.359844
      6.37050      8.54348      6.03242        -0.000337     -0.000604      0.000042
      7.19815      7.37332      4.02685         0.013901      0.010858     -0.291537
      7.15548      7.34439      8.02430         0.003824      0.001148     -0.039751
      8.85307      8.54352      2.00000        -0.002713     -0.001828      0.362246
      8.85363      8.54505      5.99381        -0.006813     -0.004285      0.020278
      9.68053      7.37332      4.02685        -0.002227      0.006379     -0.395923
      9.61669      7.46416      7.95510         0.017107     -0.016108      0.023480
     11.33544      8.54352      2.00000         0.000265     -0.000983      0.354531
     11.33525      8.54354      6.03436         0.000544      0.000731     -0.007309
     12.16290      7.37332      4.02685         0.016021      0.008039     -0.286758
     12.11983      7.34183      8.02633         0.000464     -0.001749     -0.032221
      3.88269      1.51905      8.98443         0.004566     -0.004266      0.003094
      8.84719      1.51805      8.98091        -0.001960      0.011484      0.000540
     10.51328      6.20740      8.98085         0.001957     -0.011310      0.003517
      5.54407      6.20319      8.98453        -0.004226      0.005802     -0.002566
 -----------------------------------------------------------------------------------
    total drift:                                0.006917     -0.009510     -0.020616


--------------------------------------------------------------------------------------------------------



  FREE ENERGIE OF THE ION-ELECTRON SYSTEM (eV)
  ---------------------------------------------------
  free  energy   TOTEN  =      -545.64333934 eV

  energy  without entropy=     -545.64333934  energy(sigma->0) =     -545.64333934
 


--------------------------------------------------------------------------------------------------------


    POTLOK:  cpu time    0.4401: real time    0.4404


--------------------------------------------------------------------------------------------------------


 stress matrix after NEB project (eV)
    -44.51332     -1.85640      0.00800
     -1.85640    -43.23252      0.00042
      0.00800      0.00042    -11.34704
  FORCES: max atom, RMS     0.043211    0.019009
  FORCE total and by dimension    0.156756    0.039751
  Stress total and by dimension   63.135840   44.513319
 writing wavefunctions
     LOOP+:  cpu time 1224.1159: real time 1240.6364
    4ORBIT:  cpu time    0.0000: real time    0.0000
 


 total charge     
 
# of ion       s       p       d       tot
------------------------------------------
    1        0.466   0.376   6.197   7.039
    2        0.473   0.518   6.240   7.231
    3        0.471   0.510   6.231   7.212
    4        0.437   0.406   6.206   7.049
    5        0.465   0.375   6.198   7.038
    6        0.472   0.512   6.248   7.233
    7        0.475   0.511   6.242   7.228
    8        0.482   0.528   6.256   7.267
    9        0.466   0.375   6.197   7.039
   10        0.473   0.518   6.240   7.231
   11        0.471   0.509   6.231   7.212
   12        0.437   0.406   6.206   7.049
   13        0.465   0.375   6.198   7.038
   14        0.472   0.512   6.249   7.233
   15        0.475   0.512   6.242   7.228
   16        0.482   0.528   6.257   7.267
   17        0.465   0.374   6.200   7.039
   18        0.494   0.539   6.264   7.297
   19        0.475   0.511   6.242   7.228
   20        0.482   0.529   6.257   7.268
   21        0.466   0.375   6.198   7.039
   22        0.473   0.518   6.239   7.230
   23        0.471   0.509   6.231   7.212
   24        0.437   0.404   6.206   7.047
   25        0.465   0.375   6.199   7.039
   26        0.494   0.539   6.264   7.297
   27        0.475   0.512   6.242   7.228
   28        0.482   0.528   6.256   7.266
   29        0.466   0.376   6.197   7.039
   30        0.473   0.518   6.240   7.232
   31        0.471   0.510   6.231   7.212
   32        0.437   0.404   6.206   7.048
   33        0.466   0.375   6.197   7.039
   34        0.473   0.518   6.240   7.231
   35        0.471   0.509   6.231   7.212
   36        0.437   0.404   6.206   7.048
   37        0.465   0.375   6.198   7.038
   38        0.472   0.512   6.248   7.233
   39        0.475   0.511   6.242   7.228
   40        0.482   0.529   6.257   7.268
   41        0.466   0.376   6.197   7.039
   42        0.473   0.518   6.240   7.232
   43        0.471   0.510   6.231   7.212
   44        0.437   0.404   6.206   7.048
   45        0.465   0.375   6.198   7.038
   46        0.472   0.512   6.249   7.233
   47        0.475   0.512   6.242   7.228
   48        0.482   0.528   6.256   7.266
   49        0.465   0.374   6.199   7.039
   50        0.494   0.539   6.264   7.297
   51        0.475   0.511   6.242   7.228
   52        0.482   0.528   6.256   7.266
   53        0.466   0.376   6.197   7.039
   54        0.473   0.518   6.240   7.232
   55        0.471   0.510   6.231   7.212
   56        0.437   0.405   6.206   7.048
   57        0.465   0.374   6.200   7.039
   58        0.494   0.539   6.264   7.298
   59        0.475   0.512   6.242   7.228
   60        0.482   0.528   6.257   7.267
   61        0.466   0.376   6.197   7.039
   62        0.473   0.518   6.240   7.231
   63        0.471   0.509   6.231   7.212
   64        0.437   0.406   6.206   7.049
   65        1.575   3.367   0.000   4.941
   66        1.575   3.367   0.000   4.942
   67        1.575   3.367   0.000   4.942
   68        1.575   3.367   0.000   4.941
--------------------------------------------------
tot         36.324  43.454 398.621 478.399
 


 magnetization (x)
 
# of ion       s       p       d       tot
------------------------------------------
    1       -0.004  -0.015   2.680   2.661
    2       -0.014  -0.057   2.467   2.395
    3       -0.016  -0.057   2.481   2.408
    4       -0.010  -0.019   2.696   2.667
    5       -0.006  -0.015   2.688   2.667
    6       -0.018  -0.059   2.477   2.400
    7       -0.016  -0.059   2.447   2.372
    8       -0.003  -0.027   2.272   2.242
    9       -0.004  -0.014   2.679   2.660
   10       -0.015  -0.057   2.469   2.398
   11       -0.016  -0.057   2.481   2.408
   12       -0.010  -0.018   2.694   2.666
   13       -0.006  -0.015   2.688   2.667
   14       -0.018  -0.059   2.475   2.398
   15       -0.016  -0.059   2.448   2.372
   16       -0.003  -0.028   2.270   2.239
   17       -0.006  -0.015   2.670   2.649
   18       -0.012  -0.059   2.252   2.181
   19       -0.016  -0.059   2.448   2.373
   20       -0.003  -0.027   2.273   2.242
   21       -0.004  -0.015   2.678   2.660
   22       -0.015  -0.057   2.473   2.402
   23       -0.016  -0.057   2.481   2.409
   24       -0.010  -0.018   2.701   2.672
   25       -0.006  -0.015   2.671   2.649
   26       -0.012  -0.059   2.251   2.180
   27       -0.016  -0.059   2.446   2.371
   28       -0.003  -0.028   2.269   2.238
   29       -0.005  -0.015   2.679   2.660
   30       -0.015  -0.057   2.467   2.396
   31       -0.016  -0.057   2.480   2.408
   32       -0.010  -0.019   2.698   2.669
   33       -0.004  -0.014   2.679   2.660
   34       -0.015  -0.057   2.470   2.398
   35       -0.016  -0.057   2.481   2.408
   36       -0.010  -0.018   2.699   2.670
   37       -0.006  -0.015   2.687   2.667
   38       -0.018  -0.059   2.476   2.399
   39       -0.016  -0.059   2.448   2.373
   40       -0.003  -0.027   2.269   2.238
   41       -0.004  -0.015   2.680   2.660
   42       -0.014  -0.057   2.467   2.395
   43       -0.016  -0.057   2.481   2.408
   44       -0.010  -0.019   2.698   2.669
   45       -0.006  -0.015   2.688   2.668
   46       -0.018  -0.059   2.476   2.399
   47       -0.016  -0.059   2.447   2.372
   48       -0.003  -0.027   2.272   2.242
   49       -0.006  -0.015   2.671   2.649
   50       -0.012  -0.059   2.251   2.180
   51       -0.016  -0.059   2.447   2.372
   52       -0.003  -0.028   2.269   2.238
   53       -0.004  -0.015   2.680   2.660
   54       -0.015  -0.057   2.467   2.395
   55       -0.016  -0.057   2.480   2.407
   56       -0.010  -0.019   2.697   2.668
   57       -0.006  -0.015   2.670   2.649
   58       -0.012  -0.059   2.251   2.180
   59       -0.016  -0.059   2.448   2.373
   60       -0.003  -0.027   2.274   2.243
   61       -0.004  -0.015   2.679   2.660
   62       -0.015  -0.057   2.472   2.400
   63       -0.016  -0.057   2.482   2.409
   64       -0.010  -0.018   2.695   2.666
   65        0.004   0.041   0.000   0.045
   66        0.004   0.039   0.000   0.043
   67        0.004   0.040   0.000   0.045
   68        0.004   0.039   0.000   0.043
--------------------------------------------------
tot         -0.665  -2.302 160.700 157.733
 
 BZINTS: Fermi energy: -0.622655;536.000000 electrons
         Band energy:***********;  BLOECHL correction: -0.034858

 total amount of memory used by VASP MPI-rank0   109543. kBytes
=======================================================================

   base      :      30000. kBytes
   nonlr-proj:      13412. kBytes
   fftplans  :       6401. kBytes
   grid      :      16455. kBytes
   one-center:         93. kBytes
   wavefun   :      43182. kBytes
 
  
  
 General timing and accounting informations for this job:
 ========================================================
  
                  Total CPU time used (sec):     1389.837
                            User time (sec):     1216.148
                          System time (sec):      173.689
                         Elapsed time (sec):     1411.190
  
                   Maximum memory used (kb):      341128.
                   Average memory used (kb):           0.
  
                          Minor page faults:     22540086
                          Major page faults:            0
                 Voluntary context switches:         4392
