Automatically generated mesh
      41
Reciprocal lattice
    0.00000000000000    0.00000000000000    0.00000000000000             1
    0.33333333333333    0.00000000000000    0.00000000000000             2
    0.00000000000000    0.33333333333333    0.00000000000000             2
    0.33333333333333    0.33333333333333    0.00000000000000             2
   -0.33333333333333    0.33333333333333    0.00000000000000             2
    0.00000000000000    0.00000000000000    0.11111111111111             2
    0.33333333333333    0.00000000000000    0.11111111111111             2
   -0.33333333333333    0.00000000000000    0.11111111111111             2
    0.00000000000000    0.33333333333333    0.11111111111111             2
    0.33333333333333    0.33333333333333    0.11111111111111             2
   -0.33333333333333    0.33333333333333    0.11111111111111             2
    0.00000000000000   -0.33333333333333    0.11111111111111             2
    0.33333333333333   -0.33333333333333    0.11111111111111             2
   -0.33333333333333   -0.33333333333333    0.11111111111111             2
    0.00000000000000    0.00000000000000    0.22222222222222             2
    0.33333333333333    0.00000000000000    0.22222222222222             2
   -0.33333333333333    0.00000000000000    0.22222222222222             2
    0.00000000000000    0.33333333333333    0.22222222222222             2
    0.33333333333333    0.33333333333333    0.22222222222222             2
   -0.33333333333333    0.33333333333333    0.22222222222222             2
    0.00000000000000   -0.33333333333333    0.22222222222222             2
    0.33333333333333   -0.33333333333333    0.22222222222222             2
   -0.33333333333333   -0.33333333333333    0.22222222222222             2
    0.00000000000000    0.00000000000000    0.33333333333333             2
    0.33333333333333    0.00000000000000    0.33333333333333             2
   -0.33333333333333    0.00000000000000    0.33333333333333             2
    0.00000000000000    0.33333333333333    0.33333333333333             2
    0.33333333333333    0.33333333333333    0.33333333333333             2
   -0.33333333333333    0.33333333333333    0.33333333333333             2
    0.00000000000000   -0.33333333333333    0.33333333333333             2
    0.33333333333333   -0.33333333333333    0.33333333333333             2
   -0.33333333333333   -0.33333333333333    0.33333333333333             2
    0.00000000000000    0.00000000000000    0.44444444444445             2
    0.33333333333333    0.00000000000000    0.44444444444445             2
   -0.33333333333333    0.00000000000000    0.44444444444445             2
    0.00000000000000    0.33333333333333    0.44444444444445             2
    0.33333333333333    0.33333333333333    0.44444444444445             2
   -0.33333333333333    0.33333333333333    0.44444444444445             2
    0.00000000000000   -0.33333333333333    0.44444444444445             2
    0.33333333333333   -0.33333333333333    0.44444444444445             2
   -0.33333333333333   -0.33333333333333    0.44444444444445             2
Tetrahedra
       240    0.00205761316872
         2         2         3         4         9
         2         1         2         3         9
         2         1         2         6         9
         2         2         4         9        10
         2         2         7         9        10
         2         2         6         7         9
         2         2         4         5        10
         2         2         2         4        10
         2         2         2         7        10
         2         2         5        10        11
         2         2         8        10        11
         2         2         7         8        10
         2         1         3         5        11
         2         1         2         5        11
         2         1         2         8        11
         2         1         3         9        11
         2         1         6         9        11
         2         1         6         8        11
         2         3         4         5        12
         2         3         3         4        12
         2         3         4         9        12
         2         4         5        12        13
         2         4        10        12        13
         2         4         9        10        12
         4         4         5         5        13
         2         4         5        10        13
         2         4         5        13        14
         2         5        11        13        14
         2         5        10        11        13
         2         3         3         4        14
         2         3         4         5        14
         2         3         5        11        14
         2         3         3        12        14
         2         3         9        12        14
         2         3         9        11        14
         2         1         2         5         6
         2         1         3         5         6
         2         3         5         6        12
         2         2         5         6         7
         2         5         6         7        13
         2         5         6        12        13
         2         2         2         4         7
         2         2         4         5         7
         2         4         5         7        13
         2         2         4         7         8
         2         4         7         8        14
         2         4         7        13        14
         2         1         2         3         8
         2         2         3         4         8
         2         3         4         8        14
         2         1         3         6         8
         2         3         6         8        12
         2         3         8        12        14
         2         7         9        10        18
         2         6         7         9        18
         2         6         7        15        18
         2         7        10        18        19
         2         7        16        18        19
         2         7        15        16        18
         2         8        10        11        19
         2         7         8        10        19
         2         7         8        16        19
         2         8        11        19        20
         2         8        17        19        20
         2         8        16        17        19
         2         6         9        11        20
         2         6         8        11        20
         2         6         8        17        20
         2         6         9        18        20
         2         6        15        18        20
         2         6        15        17        20
         2        10        12        13        21
         2         9        10        12        21
         2         9        10        18        21
         2        10        13        21        22
         2        10        19        21        22
         2        10        18        19        21
         2        11        13        14        22
         2        10        11        13        22
         2        10        11        19        22
         2        11        14        22        23
         2        11        20        22        23
         2        11        19        20        22
         2         9        12        14        23
         2         9        11        14        23
         2         9        11        20        23
         2         9        12        21        23
         2         9        18        21        23
         2         9        18        20        23
         2         6         7        13        15
         2         6        12        13        15
         2        12        13        15        21
         2         7        13        15        16
         2        13        15        16        22
         2        13        15        21        22
         2         7         8        14        16
         2         7        13        14        16
         2        13        14        16        22
         2         8        14        16        17
         2        14        16        17        23
         2        14        16        22        23
         2         6         8        12        17
         2         8        12        14        17
         2        12        14        17        23
         2         6        12        15        17
         2        12        15        17        21
         2        12        17        21        23
         2        16        18        19        27
         2        15        16        18        27
         2        15        16        24        27
         2        16        19        27        28
         2        16        25        27        28
         2        16        24        25        27
         2        17        19        20        28
         2        16        17        19        28
         2        16        17        25        28
         2        17        20        28        29
         2        17        26        28        29
         2        17        25        26        28
         2        15        18        20        29
         2        15        17        20        29
         2        15        17        26        29
         2        15        18        27        29
         2        15        24        27        29
         2        15        24        26        29
         2        19        21        22        30
         2        18        19        21        30
         2        18        19        27        30
         2        19        22        30        31
         2        19        28        30        31
         2        19        27        28        30
         2        20        22        23        31
         2        19        20        22        31
         2        19        20        28        31
         2        20        23        31        32
         2        20        29        31        32
         2        20        28        29        31
         2        18        21        23        32
         2        18        20        23        32
         2        18        20        29        32
         2        18        21        30        32
         2        18        27        30        32
         2        18        27        29        32
         2        15        16        22        24
         2        15        21        22        24
         2        21        22        24        30
         2        16        22        24        25
         2        22        24        25        31
         2        22        24        30        31
         2        16        17        23        25
         2        16        22        23        25
         2        22        23        25        31
         2        17        23        25        26
         2        23        25        26        32
         2        23        25        31        32
         2        15        17        21        26
         2        17        21        23        26
         2        21        23        26        32
         2        15        21        24        26
         2        21        24        26        30
         2        21        26        30        32
         2        25        27        28        36
         2        24        25        27        36
         2        24        25        33        36
         2        25        28        36        37
         2        25        34        36        37
         2        25        33        34        36
         2        26        28        29        37
         2        25        26        28        37
         2        25        26        34        37
         2        26        29        37        38
         2        26        35        37        38
         2        26        34        35        37
         2        24        27        29        38
         2        24        26        29        38
         2        24        26        35        38
         2        24        27        36        38
         2        24        33        36        38
         2        24        33        35        38
         2        28        30        31        39
         2        27        28        30        39
         2        27        28        36        39
         2        28        31        39        40
         2        28        37        39        40
         2        28        36        37        39
         2        29        31        32        40
         2        28        29        31        40
         2        28        29        37        40
         2        29        32        40        41
         2        29        38        40        41
         2        29        37        38        40
         2        27        30        32        41
         2        27        29        32        41
         2        27        29        38        41
         2        27        30        39        41
         2        27        36        39        41
         2        27        36        38        41
         2        24        25        31        33
         2        24        30        31        33
         2        30        31        33        39
         2        25        31        33        34
         2        31        33        34        40
         2        31        33        39        40
         2        25        26        32        34
         2        25        31        32        34
         2        31        32        34        40
         2        26        32        34        35
         2        32        34        35        41
         2        32        34        40        41
         2        24        26        30        35
         2        26        30        32        35
         2        30        32        35        41
         2        24        30        33        35
         2        30        33        35        39
         2        30        35        39        41
         2        34        36        37        39
         2        33        34        36        39
         2        33        33        34        39
         2        34        37        39        41
         2        34        35        39        41
         2        33        34        35        39
         2        35        37        38        41
         2        34        35        37        41
         4        34        35        35        41
         2        35        38        40        41
         2        34        35        40        41
         2        33        36        38        40
         2        33        35        38        40
         2        33        34        35        40
         2        33        36        39        40
         2        33        33        39        40
         2        33        33        34        40
         2        36        37        39        40
         4        36        36        37        39
         2        36        37        38        40
         2        36        37        38        41
         2        36        37        39        41
         2        38        38        40        41
         2        37        38        38        40
         2        37        38        38        41
