       N       E                     dE             d eps       ncg     rms          rms(c)
DAV:   1     0.124514665051E+04    0.12451E+04   -0.58952E+04 16728   0.194E+03
DAV:   2     0.238927918551E+02   -0.12213E+04   -0.11587E+04 16728   0.407E+02
DAV:   3    -0.120427982005E+03   -0.14432E+03   -0.11959E+03 16731   0.179E+02
DAV:   4    -0.125719674157E+03   -0.52917E+01   -0.51814E+01 18234   0.408E+01
DAV:   5    -0.125810396757E+03   -0.90723E-01   -0.90621E-01 24261   0.459E+00    0.420E+01
RMM:   6    -0.119064519785E+03    0.67459E+01   -0.15663E+02 17304   0.749E+01    0.431E+01
RMM:   7    -0.142315590300E+03   -0.23251E+02   -0.43795E+01 17832   0.348E+01    0.797E+01
RMM:   8    -0.118913800987E+03    0.23402E+02   -0.14791E+01 17479   0.217E+01    0.410E+01
RMM:   9    -0.109744311274E+03    0.91695E+01   -0.81104E+00 16990   0.149E+01    0.155E+01
RMM:  10    -0.115383798785E+03   -0.56395E+01   -0.53775E+00 17519   0.115E+01    0.445E+01
RMM:  11    -0.110344079389E+03    0.50397E+01   -0.47289E+00 17234   0.115E+01    0.116E+01
RMM:  12    -0.110123384331E+03    0.22070E+00   -0.10177E+00 17424   0.524E+00    0.988E+00
RMM:  13    -0.110045217064E+03    0.78167E-01   -0.38356E-01 17236   0.314E+00    0.735E+00
RMM:  14    -0.109921623707E+03    0.12359E+00   -0.17816E-01 17331   0.213E+00    0.534E+00
RMM:  15    -0.109877700942E+03    0.43923E-01   -0.71407E-02 17390   0.130E+00    0.336E+00
RMM:  16    -0.109884117469E+03   -0.64165E-02   -0.82392E-02 17429   0.144E+00    0.286E+00
RMM:  17    -0.109906845981E+03   -0.22729E-01   -0.46634E-02 17571   0.107E+00    0.215E+00
RMM:  18    -0.109899804362E+03    0.70416E-02   -0.32386E-02 17579   0.930E-01    0.155E+00
RMM:  19    -0.109900795927E+03   -0.99156E-03   -0.12377E-02 17484   0.567E-01    0.117E+00
RMM:  20    -0.109895454072E+03    0.53419E-02   -0.75211E-03 17290   0.458E-01    0.483E-01
RMM:  21    -0.109895580066E+03   -0.12599E-03   -0.12743E-03 17570   0.180E-01    0.348E-01
RMM:  22    -0.109895441392E+03    0.13867E-03   -0.88086E-04 17596   0.151E-01    0.230E-01
RMM:  23    -0.109895497113E+03   -0.55722E-04   -0.42967E-04 17610   0.999E-02    0.144E-01
RMM:  24    -0.109895498486E+03   -0.13723E-05   -0.16946E-04 17404   0.661E-02    0.109E-01
RMM:  25    -0.109895535652E+03   -0.37167E-04   -0.46596E-05 17444   0.362E-02    0.499E-02
RMM:  26    -0.109895542850E+03   -0.71975E-05   -0.31992E-05 17616   0.283E-02    0.658E-02
RMM:  27    -0.109895493179E+03    0.49671E-04   -0.19107E-05 17445   0.226E-02    0.163E-02
RMM:  28    -0.109895474140E+03    0.19039E-04   -0.40939E-06 14607   0.988E-03    0.237E-02
RMM:  29    -0.109895459713E+03    0.14428E-04   -0.24647E-06 11030   0.899E-03    0.893E-03
RMM:  30    -0.109895458086E+03    0.16267E-05   -0.55224E-07  9220   0.394E-03    0.821E-03
RMM:  31    -0.109895458973E+03   -0.88701E-06   -0.37311E-07  9106   0.371E-03
   1 F= -.10989546E+03 E0= -.10989546E+03  d E =0.000000E+00  mag=    25.5418
