 vasp.5.4.4.18Apr17-6-g9f103f2a35 (build Sep 06 2021 19:49:22) complex          
  
 executed on             LinuxIFC date 2021.12.28  18:59:27
 running on   24 total cores
 distrk:  each k-point on   24 cores,    1 groups
 distr:  one band on NCORES_PER_BAND=   8 cores,    3 groups


--------------------------------------------------------------------------------------------------------


 INCAR:
 POTCAR:    PAW_PBE Ni 02Aug2007                  
 POTCAR:    PAW_PBE Fe 06Sep2000                  
 POTCAR:    PAW_PBE Ni 02Aug2007                  
   VRHFIN =Ni:                                                                  
   LEXCH  = PE                                                                  
   EATOM  =  1077.6739 eV,   79.2068 Ry                                         
                                                                                
   TITEL  = PAW_PBE Ni 02Aug2007                                                
   LULTRA =        F    use ultrasoft PP ?                                      
   IUNSCR =        1    unscreen: 0-lin 1-nonlin 2-no                           
   RPACOR =    2.000    partial core radius                                     
   POMASS =   58.690; ZVAL   =   10.000    mass and valenz                      
   RCORE  =    2.300    outmost cutoff radius                                   
   RWIGS  =    2.430; RWIGS  =    1.286    wigner-seitz radius (au A)           
   ENMAX  =  269.532; ENMIN  =  202.149 eV                                      
   RCLOC  =    1.201    cutoff for local pot                                    
   LCOR   =        T    correct aug charges                                     
   LPAW   =        T    paw PP                                                  
   EAUG   =  544.565                                                            
   DEXC   =    0.000                                                            
   RMAX   =    2.357    core radius for proj-oper                               
   RAUG   =    1.300    factor for augmentation sphere                          
   RDEP   =    2.390    radius for radial grids                                 
   RDEPT  =    1.838    core radius for aug-charge                              
                                                                                
   Atomic configuration                                                         
    9 entries                                                                   
     n  l   j            E        occ.                                          
     1  0  0.50     -8206.4253   2.0000                                         
     2  0  0.50      -976.1748   2.0000                                         
     2  1  1.50      -839.0571   6.0000                                         
     3  0  0.50      -105.9991   2.0000                                         
     3  1  1.50       -66.4603   6.0000                                         
     3  2  2.50        -4.6458   9.0000                                         
     4  0  0.50        -4.4926   1.0000                                         
     4  1  1.50        -4.0817   0.0000                                         
     4  3  2.50        -1.3606   0.0000                                         
   Description                                                                  
     l       E           TYP  RCUT    TYP  RCUT                                 
     2     -4.6457903     23  2.300                                             
     2     -6.0063729     23  2.300                                             
     0     -4.4925590     23  2.300                                             
     0      5.0102601     23  2.300                                             
     1     -2.7211652     23  2.300                                             
     1     16.5183231     23  2.300                                             
  local pseudopotential read in
  partial core-charges read in
  partial kinetic energy density read in
  atomic valenz-charges read in
  non local Contribution for L=           2  read in
    real space projection operators read in
  non local Contribution for L=           2  read in
    real space projection operators read in
  non local Contribution for L=           0  read in
    real space projection operators read in
  non local Contribution for L=           0  read in
    real space projection operators read in
  non local Contribution for L=           1  read in
    real space projection operators read in
  non local Contribution for L=           1  read in
    real space projection operators read in
    PAW grid and wavefunctions read in
 
   number of l-projection  operators is LMAX  =           6
   number of lm-projection operators is LMMAX =          18
 
 POTCAR:    PAW_PBE Fe 06Sep2000                  
   VRHFIN =Fe:  d7 s1                                                           
   LEXCH  = PE                                                                  
   EATOM  =   594.3153 eV,   43.6809 Ry                                         
                                                                                
   TITEL  = PAW_PBE Fe 06Sep2000                                                
   LULTRA =        F    use ultrasoft PP ?                                      
   IUNSCR =        1    unscreen: 0-lin 1-nonlin 2-no                           
   RPACOR =    2.000    partial core radius                                     
   POMASS =   55.847; ZVAL   =    8.000    mass and valenz                      
   RCORE  =    2.300    outmost cutoff radius                                   
   RWIGS  =    2.460; RWIGS  =    1.302    wigner-seitz radius (au A)           
   ENMAX  =  267.882; ENMIN  =  200.911 eV                                      
   RCLOC  =    1.701    cutoff for local pot                                    
   LCOR   =        T    correct aug charges                                     
   LPAW   =        T    paw PP                                                  
   EAUG   =  511.368                                                            
   DEXC   =    0.000                                                            
   RMAX   =    2.356    core radius for proj-oper                               
   RAUG   =    1.300    factor for augmentation sphere                          
   RDEP   =    2.442    radius for radial grids                                 
   RDEPT  =    1.890    core radius for aug-charge                              
                                                                                
   Atomic configuration                                                         
    9 entries                                                                   
     n  l   j            E        occ.                                          
     1  0  0.50     -6993.8440   2.0000                                         
     2  0  0.50      -814.6047   2.0000                                         
     2  1  1.50      -693.3689   6.0000                                         
     3  0  0.50       -89.4732   2.0000                                         
     3  1  1.50       -55.6373   6.0000                                         
     3  2  2.50        -3.8151   7.0000                                         
     4  0  0.50        -4.2551   1.0000                                         
     4  1  1.50        -3.4015   0.0000                                         
     4  3  2.50        -1.3606   0.0000                                         
   Description                                                                  
     l       E           TYP  RCUT    TYP  RCUT                                 
     2     -3.8151135     23  2.300                                             
     2     -5.1756961     23  2.300                                             
     0     -4.2550963     23  2.300                                             
     0      7.2035603     23  2.300                                             
     1     -2.7211652     23  2.300                                             
     1     18.4316424     23  2.300                                             
  local pseudopotential read in
  partial core-charges read in
  partial kinetic energy density read in
  atomic valenz-charges read in
  non local Contribution for L=           2  read in
    real space projection operators read in
  non local Contribution for L=           2  read in
    real space projection operators read in
  non local Contribution for L=           0  read in
    real space projection operators read in
  non local Contribution for L=           0  read in
    real space projection operators read in
  non local Contribution for L=           1  read in
    real space projection operators read in
  non local Contribution for L=           1  read in
    real space projection operators read in
    PAW grid and wavefunctions read in
 
   number of l-projection  operators is LMAX  =           6
   number of lm-projection operators is LMMAX =          18
 
 Optimization of the real space projectors (new method)

 maximal supplied QI-value         = 16.25
 optimisation between [QCUT,QGAM] = [ 11.54, 23.24] = [ 37.28,151.24] Ry 
 Optimized for a Real-space Cutoff    1.45 Angstroem

   l    n(q)    QCUT    max X(q) W(low)/X(q) W(high)/X(q)  e(spline) 
   2      9    11.539    60.317    0.19E-03    0.47E-04    0.16E-06
   2      9    11.539    55.921    0.19E-03    0.48E-04    0.16E-06
   0     10    11.539    51.690    0.80E-04    0.50E-04    0.24E-06
   0     10    11.539    30.015    0.73E-04    0.45E-04    0.22E-06
   1     10    11.539    18.849    0.87E-04    0.16E-03    0.71E-07
   1     10    11.539    14.624    0.73E-04    0.13E-03    0.64E-07
 Optimization of the real space projectors (new method)

 maximal supplied QI-value         = 16.25
 optimisation between [QCUT,QGAM] = [ 11.54, 23.24] = [ 37.28,151.24] Ry 
 Optimized for a Real-space Cutoff    1.53 Angstroem

   l    n(q)    QCUT    max X(q) W(low)/X(q) W(high)/X(q)  e(spline) 
   2     10    11.539    80.901    0.11E-03    0.14E-03    0.21E-06
   2     10    11.539    75.754    0.11E-03    0.14E-03    0.22E-06
   0     11    11.539    58.752    0.52E-04    0.18E-04    0.33E-06
   0     11    11.539    30.679    0.44E-04    0.16E-04    0.30E-06
   1     10    11.539    17.977    0.53E-04    0.29E-04    0.13E-06
   1     10    11.539    13.559    0.44E-04    0.25E-04    0.11E-06
  PAW_PBE Ni 02Aug2007                  :
 energy of atom  1       EATOM=-1077.6739
 kinetic energy error for atom=    0.0030 (will be added to EATOM!!)
  PAW_PBE Fe 06Sep2000                  :
 energy of atom  2       EATOM= -594.3153
 kinetic energy error for atom=    0.0026 (will be added to EATOM!!)
 
 
 POSCAR: POSCAR                                  
  positions in direct lattice
  velocities in cartesian coordinates
 exchange correlation table for  LEXCH =        8
   RHO(1)=    0.500       N(1)  =     2000
   RHO(2)=  100.500       N(2)  =     4000
 


--------------------------------------------------------------------------------------------------------


 ion  position               nearest neighbor table
   1  0.001  0.750  0.500-  14 2.48   5 2.51   5 2.51   9 2.52   9 2.52   4 2.53   4 2.53  10 2.56
                            10 2.56   6 2.57
   2  0.249  0.502  0.500-  10 2.50  10 2.50  12 2.52  12 2.52  13 2.52  13 2.52  11 2.53   9 2.54
                             9 2.54   3 2.54
   3  0.503  0.751  0.500-  16 2.46  13 2.47  13 2.47  10 2.50  10 2.50   7 2.53   7 2.53   5 2.53
                             5 2.53   2 2.54
   4  0.997  0.999  0.000-   5 2.49  14 2.50  14 2.50  11 2.50  11 2.50   1 2.53   1 2.53  16 2.54
                            16 2.54  12 2.58
   5  0.753  0.749  1.000-   4 2.49  13 2.50   1 2.51   1 2.51   6 2.52   6 2.52   3 2.53   3 2.53
                            16 2.54  16 2.54
   6  0.745  0.497  0.500-  15 2.48  13 2.51  13 2.51   5 2.52   5 2.52   8 2.52   8 2.52   9 2.53
                             9 2.53   1 2.57
   7  0.497  1.000  1.000-  10 2.47  15 2.48  15 2.48  16 2.51  16 2.51   3 2.53   3 2.53  14 2.55
                            14 2.55   8 2.57
   8  0.754  0.251  0.000-   9 2.48  15 2.50  15 2.50  11 2.51  11 2.51   6 2.52   6 2.52  16 2.53
                            16 2.53   7 2.57
   9  0.997  0.500  1.000-   8 2.48   1 2.52   1 2.52   6 2.53   6 2.53   2 2.54   2 2.54  11 2.55
                            11 2.55  10 2.58
  10  0.256  0.750  1.000-   7 2.47   3 2.50   3 2.50   2 2.50   2 2.50  14 2.55  14 2.55   1 2.56
                             1 2.56   9 2.58
  11  0.002  0.248  0.500-   4 2.50   4 2.50  12 2.51  12 2.51   8 2.51   8 2.51   2 2.53   9 2.55
                             9 2.55  16 2.57
  12  0.252  0.254  0.000-  11 2.51  11 2.51   2 2.52   2 2.52  13 2.54  14 2.54  14 2.54  15 2.57
                            15 2.57   4 2.58
  13  0.501  0.508  0.000-   3 2.47   3 2.47   5 2.50   6 2.51   6 2.51   2 2.52   2 2.52  12 2.54
                            15 2.62  15 2.62
  14  0.243  0.999  0.500-   1 2.48   4 2.50   4 2.50  12 2.54  12 2.54  10 2.55  10 2.55   7 2.55
                             7 2.55  15 2.58
  15  0.506  0.246  0.500-   6 2.48   7 2.48   7 2.48   8 2.50   8 2.50  12 2.57  12 2.57  14 2.58
                            13 2.62  13 2.62
  16  0.744  0.997  0.500-   3 2.46   7 2.51   7 2.51   8 2.53   8 2.53   5 2.54   5 2.54   4 2.54
                             4 2.54  11 2.57
 

IMPORTANT INFORMATION: All symmetrisations will be switched off!
NOSYMM: (Re-)initialisation of all symmetry stuff for point group C_1.

 
 

Automatic generation of k-mesh.
 generate k-points for:    3    3    9
Space group operators:
 irot       det(A)        alpha          n_x          n_y          n_z        tau_x        tau_y        tau_z
    1     1.000000     0.000000     1.000000     0.000000     0.000000     0.000000     0.000000     0.000000
 
 Subroutine IBZKPT returns following result:
 ===========================================
 
 Found     41 irreducible k-points:
 
 Following reciprocal coordinates:
            Coordinates               Weight
  0.000000  0.000000  0.000000      1.000000
  0.333333  0.000000  0.000000      2.000000
  0.000000  0.333333  0.000000      2.000000
  0.333333  0.333333  0.000000      2.000000
 -0.333333  0.333333  0.000000      2.000000
  0.000000  0.000000  0.111111      2.000000
  0.333333  0.000000  0.111111      2.000000
 -0.333333  0.000000  0.111111      2.000000
  0.000000  0.333333  0.111111      2.000000
  0.333333  0.333333  0.111111      2.000000
 -0.333333  0.333333  0.111111      2.000000
  0.000000 -0.333333  0.111111      2.000000
  0.333333 -0.333333  0.111111      2.000000
 -0.333333 -0.333333  0.111111      2.000000
  0.000000  0.000000  0.222222      2.000000
  0.333333  0.000000  0.222222      2.000000
 -0.333333  0.000000  0.222222      2.000000
  0.000000  0.333333  0.222222      2.000000
  0.333333  0.333333  0.222222      2.000000
 -0.333333  0.333333  0.222222      2.000000
  0.000000 -0.333333  0.222222      2.000000
  0.333333 -0.333333  0.222222      2.000000
 -0.333333 -0.333333  0.222222      2.000000
  0.000000  0.000000  0.333333      2.000000
  0.333333  0.000000  0.333333      2.000000
 -0.333333  0.000000  0.333333      2.000000
  0.000000  0.333333  0.333333      2.000000
  0.333333  0.333333  0.333333      2.000000
 -0.333333  0.333333  0.333333      2.000000
  0.000000 -0.333333  0.333333      2.000000
  0.333333 -0.333333  0.333333      2.000000
 -0.333333 -0.333333  0.333333      2.000000
  0.000000  0.000000  0.444444      2.000000
  0.333333  0.000000  0.444444      2.000000
 -0.333333  0.000000  0.444444      2.000000
  0.000000  0.333333  0.444444      2.000000
  0.333333  0.333333  0.444444      2.000000
 -0.333333  0.333333  0.444444      2.000000
  0.000000 -0.333333  0.444444      2.000000
  0.333333 -0.333333  0.444444      2.000000
 -0.333333 -0.333333  0.444444      2.000000
 
 Following cartesian coordinates:
            Coordinates               Weight
  0.000000 -0.000000  0.000000      1.000000
  0.083333  0.083333  0.083333      2.000000
 -0.083333  0.083333  0.083333      2.000000
  0.000000  0.166667  0.166667      2.000000
 -0.166667  0.000000  0.000000      2.000000
  0.000000 -0.111111  0.111111      2.000000
  0.083333 -0.027778  0.194444      2.000000
 -0.083333 -0.194444  0.027778      2.000000
 -0.083333 -0.027778  0.194444      2.000000
  0.000000  0.055556  0.277778      2.000000
 -0.166667 -0.111111  0.111111      2.000000
  0.083333 -0.194444  0.027778      2.000000
  0.166667 -0.111111  0.111111      2.000000
  0.000000 -0.277778 -0.055556      2.000000
  0.000000 -0.222222  0.222222      2.000000
  0.083333 -0.138889  0.305556      2.000000
 -0.083333 -0.305556  0.138889      2.000000
 -0.083333 -0.138889  0.305556      2.000000
  0.000000 -0.055556  0.388889      2.000000
 -0.166667 -0.222222  0.222222      2.000000
  0.083333 -0.305556  0.138889      2.000000
  0.166667 -0.222222  0.222222      2.000000
  0.000000 -0.388889  0.055556      2.000000
  0.000000 -0.333333  0.333333      2.000000
  0.083333 -0.250000  0.416667      2.000000
 -0.083333 -0.416667  0.250000      2.000000
 -0.083333 -0.250000  0.416667      2.000000
  0.000000 -0.166667  0.500000      2.000000
 -0.166667 -0.333333  0.333333      2.000000
  0.083333 -0.416667  0.250000      2.000000
  0.166667 -0.333333  0.333333      2.000000
  0.000000 -0.500000  0.166667      2.000000
  0.000000 -0.444444  0.444444      2.000000
  0.083333 -0.361111  0.527778      2.000000
 -0.083333 -0.527778  0.361111      2.000000
 -0.083333 -0.361111  0.527778      2.000000
  0.000000 -0.277778  0.611111      2.000000
 -0.166667 -0.444444  0.444444      2.000000
  0.083333 -0.527778  0.361111      2.000000
  0.166667 -0.444444  0.444444      2.000000
  0.000000 -0.611111  0.277778      2.000000
 
 TETIRR: Found    240 inequivalent tetrahedra from      486


--------------------------------------------------------------------------------------------------------




 Dimension of arrays:
   k-points           NKPTS =     41   k-points in BZ     NKDIM =     41   number of bands    NBANDS=    102
   number of dos      NEDOS =    301   number of ions     NIONS =     16
   non local maximal  LDIM  =      6   non local SUM 2l+1 LMDIM =     18
   total plane-waves  NPLWV =  98000
   max r-space proj   IRMAX =   8182   max aug-charges    IRDMAX=  19363
   dimension x,y,z NGX =    70 NGY =   70 NGZ =   20
   dimension x,y,z NGXF=   140 NGYF=  140 NGZF=   40
   support grid    NGXF=   140 NGYF=  140 NGZF=   40
   ions per type =               8   8
   NGX,Y,Z   is equivalent  to a cutoff of  13.30, 13.30, 13.17 a.u.
   NGXF,Y,Z  is equivalent  to a cutoff of  26.61, 26.61, 26.34 a.u.

 SYSTEM =  SQS-NiFe                                
 POSCAR =  POSCAR                                  

 Startparameter for this run:
   NWRITE =      2    write-flag & timer
   PREC   = accura    normal or accurate (medium, high low for compatibility)
   ISTART =      0    job   : 0-new  1-cont  2-samecut
   ICHARG =      2    charge: 1-file 2-atom 10-const
   ISPIN  =      2    spin polarized calculation?
   LNONCOLLINEAR =      F non collinear calculations
   LSORBIT =      F    spin-orbit coupling
   INIWAV =      1    electr: 0-lowe 1-rand  2-diag
   LASPH  =      F    aspherical Exc in radial PAW
   METAGGA=      F    non-selfconsistent MetaGGA calc.

 Electronic Relaxation 1
   ENCUT  =  520.0 eV  38.22 Ry    6.18 a.u.  16.26 16.26  4.69*2*pi/ulx,y,z
   ENINI  =  520.0     initial cutoff
   ENAUG  =  544.6 eV  augmentation charge cutoff
   NELM   =    200;   NELMIN=  2; NELMDL= -5     # of ELM steps 
   EDIFF  = 0.1E-05   stopping-criterion for ELM
   LREAL  =      T    real-space projection
   NLSPLINE    = F    spline interpolate recip. space projectors
   LCOMPAT=      F    compatible to vasp.4.4
   GGA_COMPAT  = T    GGA compatible to vasp.4.4-vasp.4.6
   LMAXPAW     = -100 max onsite density
   LMAXMIX     =    2 max onsite mixed and CHGCAR
   VOSKOWN=      0    Vosko Wilk Nusair interpolation
   ROPT   =   -0.00025  -0.00025
 Ionic relaxation
   EDIFFG = -.2E-01   stopping-criterion for IOM
   NSW    =      0    number of steps for IOM
   NBLOCK =      1;   KBLOCK =      1    inner block; outer block 
   IBRION =     -1    ionic relax: 0-MD 1-quasi-New 2-CG
   NFREE  =      0    steps in history (QN), initial steepest desc. (CG)
   ISIF   =      2    stress and relaxation
   IWAVPR =     10    prediction:  0-non 1-charg 2-wave 3-comb
   ISYM   =      0    0-nonsym 1-usesym 2-fastsym
   LCORR  =      T    Harris-Foulkes like correction to forces

   POTIM  = 0.5000    time-step for ionic-motion
   TEIN   =    0.0    initial temperature
   TEBEG  =    0.0;   TEEND  =   0.0 temperature during run
   SMASS  =  -3.00    Nose mass-parameter (am)
   estimated Nose-frequenzy (Omega)   =  0.10E-29 period in steps =****** mass=  -0.175E-26a.u.
   SCALEE = 1.0000    scale energy and forces
   NPACO  =    256;   APACO  = 16.0  distance and # of slots for P.C.
   PSTRESS=    0.0 pullay stress

  Mass of Ions in am
   POMASS =  58.69 55.85
  Ionic Valenz
   ZVAL   =  10.00  8.00
  Atomic Wigner-Seitz radii
   RWIGS  =  -1.00 -1.00
  virtual crystal weights 
   VCA    =   1.00  1.00
   NELECT =     144.0000    total number of electrons
   NUPDOWN=      -1.0000    fix difference up-down

 DOS related values:
   EMIN   =  10.00;   EMAX   =-10.00  energy-range for DOS
   EFERMI =   0.00
   ISMEAR =    -5;   SIGMA  =   0.20  broadening in eV -4-tet -1-fermi 0-gaus

 Electronic relaxation 2 (details)
   IALGO  =     68    algorithm
   LDIAG  =      T    sub-space diagonalisation (order eigenvalues)
   LSUBROT=      F    optimize rotation matrix (better conditioning)
   TURBO    =      0    0=normal 1=particle mesh
   IRESTART =      0    0=no restart 2=restart with 2 vectors
   NREBOOT  =      0    no. of reboots
   NMIN     =      0    reboot dimension
   EREF     =   0.00    reference energy to select bands
   IMIX   =      4    mixing-type and parameters
     AMIX     =   0.40;   BMIX     =  1.00
     AMIX_MAG =   1.60;   BMIX_MAG =  1.00
     AMIN     =   0.10
     WC   =   100.;   INIMIX=   1;  MIXPRE=   1;  MAXMIX= -45

 Intra band minimization:
   WEIMIN = 0.0000     energy-eigenvalue tresh-hold
   EBREAK =  0.25E-08  absolut break condition
   DEPER  =   0.30     relativ break condition  

   TIME   =   0.40     timestep for ELM

  volume/ion in A,a.u.               =      11.38        76.83
  Fermi-wavevector in a.u.,A,eV,Ry     =   1.513744  2.860562 31.176681  2.291421
  Thomas-Fermi vector in A             =   2.623494
 
 Write flags
   LWAVE        =      F    write WAVECAR
   LDOWNSAMPLE  =      F    k-point downsampling of WAVECAR
   LCHARG       =      T    write CHGCAR
   LVTOT        =      F    write LOCPOT, total local potential
   LVHAR        =      F    write LOCPOT, Hartree potential only
   LELF         =      F    write electronic localiz. function (ELF)
   LORBIT       =     11    0 simple, 1 ext, 2 COOP (PROOUT), +10 PAW based schemes


 Dipole corrections
   LMONO  =      F    monopole corrections only (constant potential shift)
   LDIPOL =      F    correct potential (dipole corrections)
   IDIPOL =      0    1-x, 2-y, 3-z, 4-all directions 
   EPSILON=  1.0000000 bulk dielectric constant

 Exchange correlation treatment:
   GGA     =    --    GGA type
   LEXCH   =     8    internal setting for exchange type
   VOSKOWN=      0    Vosko Wilk Nusair interpolation
   LHFCALC =     F    Hartree Fock is set to
   LHFONE  =     F    Hartree Fock one center treatment
   AEXX    =    0.0000 exact exchange contribution

 Linear response parameters
   LEPSILON=     F    determine dielectric tensor
   LRPA    =     F    only Hartree local field effects (RPA)
   LNABLA  =     F    use nabla operator in PAW spheres
   LVEL    =     F    velocity operator in full k-point grid
   LINTERFAST=   F  fast interpolation
   KINTER  =     0    interpolate to denser k-point grid
   CSHIFT  =0.1000    complex shift for real part using Kramers Kronig
   OMEGAMAX=  -1.0    maximum frequency
   DEG_THRESHOLD= 0.2000000E-02 threshold for treating states as degnerate
   RTIME   =   -0.100 relaxation time in fs
  (WPLASMAI=    0.000 imaginary part of plasma frequency in eV, 0.658/RTIME)
   DFIELD  = 0.0000000 0.0000000 0.0000000 field for delta impulse in time
 
 Orbital magnetization related:
   ORBITALMAG=     F  switch on orbital magnetization
   LCHIMAG   =     F  perturbation theory with respect to B field
   DQ        =  0.001000  dq finite difference perturbation B field
   LLRAUG    =     F  two centre corrections for induced B field



--------------------------------------------------------------------------------------------------------


 Static calculation
 charge density and potential will be updated during run
 spin polarized calculation
 RMM-DIIS sequential band-by-band and
  variant of blocked Davidson during initial phase
 perform sub-space diagonalisation
    before iterative eigenvector-optimisation
 modified Broyden-mixing scheme, WC =      100.0
 initial mixing is a Kerker type mixing with AMIX =  0.4000 and BMIX =      1.0000
 Hartree-type preconditioning will be used
 using additional bands           30
 real space projection scheme for non local part
 use partial core corrections
 calculate Harris-corrections to forces 
   (improved forces if not selfconsistent)
 use gradient corrections 
 use of overlap-Matrix (Vanderbilt PP)
 Fermi weights with tetrahedron method with Bloechl corrections


--------------------------------------------------------------------------------------------------------


  energy-cutoff  :      520.00
  volume of cell :      182.15
      direct lattice vectors                 reciprocal lattice vectors
     7.142000000  3.571000000  3.571000000     0.070008401  0.070008401  0.070008401
    -7.142000000  3.571000000  3.571000000    -0.070008401  0.070008401  0.070008401
     0.000000000 -1.785500000  1.785500000     0.000000000 -0.280033604  0.280033604

  length of vectors
     8.747127871  8.747127871  2.525078316     0.121258108  0.121258108  0.396027321


 
 k-points in units of 2pi/SCALE and weight: read from INCAR                         
   0.00000000 -0.00000000  0.00000000       0.012
   0.08333333  0.08333333  0.08333333       0.025
  -0.08333333  0.08333333  0.08333333       0.025
   0.00000000  0.16666667  0.16666667       0.025
  -0.16666667  0.00000000  0.00000000       0.025
   0.00000000 -0.11111111  0.11111111       0.025
   0.08333333 -0.02777778  0.19444444       0.025
  -0.08333333 -0.19444444  0.02777778       0.025
  -0.08333333 -0.02777778  0.19444444       0.025
   0.00000000  0.05555556  0.27777778       0.025
  -0.16666667 -0.11111111  0.11111111       0.025
   0.08333333 -0.19444444  0.02777778       0.025
   0.16666667 -0.11111111  0.11111111       0.025
   0.00000000 -0.27777778 -0.05555556       0.025
   0.00000000 -0.22222222  0.22222222       0.025
   0.08333333 -0.13888889  0.30555556       0.025
  -0.08333333 -0.30555556  0.13888889       0.025
  -0.08333333 -0.13888889  0.30555556       0.025
   0.00000000 -0.05555556  0.38888889       0.025
  -0.16666667 -0.22222222  0.22222222       0.025
   0.08333333 -0.30555556  0.13888889       0.025
   0.16666667 -0.22222222  0.22222222       0.025
   0.00000000 -0.38888889  0.05555556       0.025
   0.00000000 -0.33333333  0.33333333       0.025
   0.08333333 -0.25000000  0.41666667       0.025
  -0.08333333 -0.41666667  0.25000000       0.025
  -0.08333333 -0.25000000  0.41666667       0.025
   0.00000000 -0.16666667  0.50000000       0.025
  -0.16666667 -0.33333333  0.33333333       0.025
   0.08333333 -0.41666667  0.25000000       0.025
   0.16666667 -0.33333333  0.33333333       0.025
   0.00000000 -0.50000000  0.16666667       0.025
   0.00000000 -0.44444444  0.44444444       0.025
   0.08333333 -0.36111111  0.52777778       0.025
  -0.08333333 -0.52777778  0.36111111       0.025
  -0.08333333 -0.36111111  0.52777778       0.025
   0.00000000 -0.27777778  0.61111111       0.025
  -0.16666667 -0.44444444  0.44444444       0.025
   0.08333333 -0.52777778  0.36111111       0.025
   0.16666667 -0.44444444  0.44444444       0.025
   0.00000000 -0.61111111  0.27777778       0.025
 
 k-points in reciprocal lattice and weights: read from INCAR                         
   0.00000000  0.00000000  0.00000000       0.012
   0.33333333  0.00000000  0.00000000       0.025
   0.00000000  0.33333333  0.00000000       0.025
   0.33333333  0.33333333  0.00000000       0.025
  -0.33333333  0.33333333  0.00000000       0.025
   0.00000000  0.00000000  0.11111111       0.025
   0.33333333  0.00000000  0.11111111       0.025
  -0.33333333  0.00000000  0.11111111       0.025
   0.00000000  0.33333333  0.11111111       0.025
   0.33333333  0.33333333  0.11111111       0.025
  -0.33333333  0.33333333  0.11111111       0.025
   0.00000000 -0.33333333  0.11111111       0.025
   0.33333333 -0.33333333  0.11111111       0.025
  -0.33333333 -0.33333333  0.11111111       0.025
   0.00000000  0.00000000  0.22222222       0.025
   0.33333333  0.00000000  0.22222222       0.025
  -0.33333333  0.00000000  0.22222222       0.025
   0.00000000  0.33333333  0.22222222       0.025
   0.33333333  0.33333333  0.22222222       0.025
  -0.33333333  0.33333333  0.22222222       0.025
   0.00000000 -0.33333333  0.22222222       0.025
   0.33333333 -0.33333333  0.22222222       0.025
  -0.33333333 -0.33333333  0.22222222       0.025
   0.00000000  0.00000000  0.33333333       0.025
   0.33333333  0.00000000  0.33333333       0.025
  -0.33333333  0.00000000  0.33333333       0.025
   0.00000000  0.33333333  0.33333333       0.025
   0.33333333  0.33333333  0.33333333       0.025
  -0.33333333  0.33333333  0.33333333       0.025
   0.00000000 -0.33333333  0.33333333       0.025
   0.33333333 -0.33333333  0.33333333       0.025
  -0.33333333 -0.33333333  0.33333333       0.025
   0.00000000  0.00000000  0.44444444       0.025
   0.33333333  0.00000000  0.44444444       0.025
  -0.33333333  0.00000000  0.44444444       0.025
   0.00000000  0.33333333  0.44444444       0.025
   0.33333333  0.33333333  0.44444444       0.025
  -0.33333333  0.33333333  0.44444444       0.025
   0.00000000 -0.33333333  0.44444444       0.025
   0.33333333 -0.33333333  0.44444444       0.025
  -0.33333333 -0.33333333  0.44444444       0.025
 
 position of ions in fractional coordinates (direct lattice) 
   0.00105968  0.75004768  0.49999983
   0.24900968  0.50156929  0.50000025
   0.50286851  0.75148499  0.50000009
   0.99666281  0.99892245  0.00000000
   0.75330046  0.74896337  0.99999972
   0.74539952  0.49725579  0.49999980
   0.49657044  0.99958674  0.99999999
   0.75413919  0.25054794  0.00000012
   0.99650921  0.49985552  0.99999998
   0.25623239  0.75045574  0.99999989
   0.00176940  0.24777721  0.50000010
   0.25221662  0.25382241  0.00000018
   0.50066592  0.50763437  0.00000007
   0.24335898  0.99850032  0.49999998
   0.50605166  0.24637763  0.50000004
   0.74418555  0.99719856  0.49999996
 
 position of ions in cartesian coordinates  (Angst):
  -5.34927225  1.78945470  3.57495409
  -1.80378073  1.78756703  3.57306792
  -1.77561893  3.58654618  5.37204650
  -0.01613838  7.12623495  7.12623497
   0.03097544  3.57908464  7.15008364
   1.77224253  3.54477249  5.33027177
  -3.59254242  3.55727729  7.12827726
   3.59664867  3.58773752  3.58773794
   3.54710064  3.55801847  7.12901840
  -3.52974317  1.80938349  5.38038310
  -1.75698775 -0.00161925  1.78388110
  -0.01146852  1.80706506  1.80706572
  -0.04976868  3.60064018  3.60064043
  -5.39321944  3.54192963  5.32742954
   1.85459189  1.79417491  3.57967504
  -1.80701890  5.32573271  7.11123257
 


--------------------------------------------------------------------------------------------------------


 k-point  1 :   0.0000 0.0000 0.0000  plane waves:    4905
 k-point  2 :   0.3333 0.0000 0.0000  plane waves:    4928
 k-point  3 :   0.0000 0.3333 0.0000  plane waves:    4928
 k-point  4 :   0.3333 0.3333 0.0000  plane waves:    4929
 k-point  5 :  -0.3333 0.3333 0.0000  plane waves:    4918
 k-point  6 :   0.0000 0.0000 0.1111  plane waves:    4903
 k-point  7 :   0.3333 0.0000 0.1111  plane waves:    4919
 k-point  8 :  -0.3333 0.0000 0.1111  plane waves:    4919
 k-point  9 :   0.0000 0.3333 0.1111  plane waves:    4919
 k-point 10 :   0.3333 0.3333 0.1111  plane waves:    4921
 k-point 11 :  -0.3333 0.3333 0.1111  plane waves:    4921
 k-point 12 :   0.0000-0.3333 0.1111  plane waves:    4919
 k-point 13 :   0.3333-0.3333 0.1111  plane waves:    4921
 k-point 14 :  -0.3333-0.3333 0.1111  plane waves:    4921
 k-point 15 :   0.0000 0.0000 0.2222  plane waves:    4911
 k-point 16 :   0.3333 0.0000 0.2222  plane waves:    4902
 k-point 17 :  -0.3333 0.0000 0.2222  plane waves:    4902
 k-point 18 :   0.0000 0.3333 0.2222  plane waves:    4902
 k-point 19 :   0.3333 0.3333 0.2222  plane waves:    4905
 k-point 20 :  -0.3333 0.3333 0.2222  plane waves:    4899
 k-point 21 :   0.0000-0.3333 0.2222  plane waves:    4902
 k-point 22 :   0.3333-0.3333 0.2222  plane waves:    4899
 k-point 23 :  -0.3333-0.3333 0.2222  plane waves:    4905
 k-point 24 :   0.0000 0.0000 0.3333  plane waves:    4928
 k-point 25 :   0.3333 0.0000 0.3333  plane waves:    4907
 k-point 26 :  -0.3333 0.0000 0.3333  plane waves:    4907
 k-point 27 :   0.0000 0.3333 0.3333  plane waves:    4907
 k-point 28 :   0.3333 0.3333 0.3333  plane waves:    4881
 k-point 29 :  -0.3333 0.3333 0.3333  plane waves:    4900
 k-point 30 :   0.0000-0.3333 0.3333  plane waves:    4907
 k-point 31 :   0.3333-0.3333 0.3333  plane waves:    4900
 k-point 32 :  -0.3333-0.3333 0.3333  plane waves:    4881
 k-point 33 :   0.0000 0.0000 0.4444  plane waves:    4914
 k-point 34 :   0.3333 0.0000 0.4444  plane waves:    4904
 k-point 35 :  -0.3333 0.0000 0.4444  plane waves:    4904
 k-point 36 :   0.0000 0.3333 0.4444  plane waves:    4904
 k-point 37 :   0.3333 0.3333 0.4444  plane waves:    4906
 k-point 38 :  -0.3333 0.3333 0.4444  plane waves:    4895
 k-point 39 :   0.0000-0.3333 0.4444  plane waves:    4904
 k-point 40 :   0.3333-0.3333 0.4444  plane waves:    4895
 k-point 41 :  -0.3333-0.3333 0.4444  plane waves:    4906

 maximum and minimum number of plane-waves per node :       666      584

 maximum number of plane-waves:      4929
 maximum index in each direction: 
   IXMAX=   16   IYMAX=   16   IZMAX=    4
   IXMIN=  -16   IYMIN=  -16   IZMIN=   -5


 real space projection operators:
  total allocation   :      16310.39 KBytes
  max/ min on nodes  :       2147.20       1819.69


 parallel 3D FFT for wavefunctions:
    minimum data exchange during FFTs selected (reduces bandwidth)
 parallel 3D FFT for charge:
    minimum data exchange during FFTs selected (reduces bandwidth)


 total amount of memory used by VASP MPI-rank0    69378. kBytes
=======================================================================

   base      :      30000. kBytes
   nonlr-proj:       4765. kBytes
   fftplans  :       1555. kBytes
   grid      :       3823. kBytes
   one-center:         62. kBytes
   wavefun   :      29173. kBytes
 
     INWAV:  cpu time    0.0010: real time    0.0001
 Broyden mixing: mesh for mixing (old mesh)
   NGX = 33   NGY = 33   NGZ =  9
  (NGX  =140   NGY  =140   NGZ  = 40)
  gives a total of   9801 points

 initial charge density was supplied:
 charge density of overlapping atoms calculated
 number of electron     144.0000000 magnetization      32.0000000
 keeping initial charge density in first step


--------------------------------------------------------------------------------------------------------


 Maximum index for non-local projection operator         1108
 Maximum index for augmentation-charges          834 (set IRDMAX)


--------------------------------------------------------------------------------------------------------


 First call to EWALD:  gamma=   0.313
 Maximum number of real-space cells 2x 2x 6
 Maximum number of reciprocal cells 4x 4x 1

    FEWALD:  cpu time    0.0020: real time    0.0014


--------------------------------------- Iteration      1(   1)  ---------------------------------------


    POTLOK:  cpu time    0.0460: real time    0.0510
    SETDIJ:  cpu time    0.0110: real time    0.0101
     EDDAV:  cpu time   10.8414: real time   10.8662
 BZINTS: Fermi energy: 22.772489;144.000000 electrons
         Band energy:2343.516797;  BLOECHL correction: -0.083292
       DOS:  cpu time    0.1170: real time    0.1198
    --------------------------------------------
      LOOP:  cpu time   11.0153: real time   11.0471

 eigenvalue-minimisations  : 16728
 total energy-change (2. order) : 0.1245147E+04  (-0.5895185E+04)
 number of electron     144.0000000 magnetization      32.0000000
 augmentation part      144.0000000 magnetization      32.0000000

 Free energy of the ion-electron system (eV)
  ---------------------------------------------------
  alpha Z        PSCENC =       868.92678499
  Ewald energy   TEWEN  =    -11987.95434162
  -Hartree energ DENC   =     -3052.23371130
  -exchange      EXHF   =         0.00000000
  -V(xc)+E(xc)   XCENC  =       293.53079191
  PAW double counting   =     12132.73952366   -12729.24799506
  entropy T*S    EENTRO =         0.00000000
  eigenvalues    EBANDS =      2343.51679709
  atomic energy  EATOM  =     13375.86880085
  Solvation  Ediel_sol  =         0.00000000
  ---------------------------------------------------
  free energy    TOTEN  =      1245.14665051 eV

  energy without entropy =     1245.14665051  energy(sigma->0) =     1245.14665051


--------------------------------------------------------------------------------------------------------




--------------------------------------- Iteration      1(   2)  ---------------------------------------


     EDDAV:  cpu time   10.8723: real time   10.8997
 BZINTS: Fermi energy: 11.323834;144.000000 electrons
         Band energy:1122.262938;  BLOECHL correction: -0.058022
       DOS:  cpu time    0.1200: real time    0.1197
    --------------------------------------------
      LOOP:  cpu time   10.9923: real time   11.0194

 eigenvalue-minimisations  : 16728
 total energy-change (2. order) :-0.1221254E+04  (-0.1158671E+04)
 number of electron     144.0000000 magnetization      32.0000000
 augmentation part      144.0000000 magnetization      32.0000000

 Free energy of the ion-electron system (eV)
  ---------------------------------------------------
  alpha Z        PSCENC =       868.92678499
  Ewald energy   TEWEN  =    -11987.95434162
  -Hartree energ DENC   =     -3052.23371130
  -exchange      EXHF   =         0.00000000
  -V(xc)+E(xc)   XCENC  =       293.53079191
  PAW double counting   =     12132.73952366   -12729.24799506
  entropy T*S    EENTRO =         0.00000000
  eigenvalues    EBANDS =      1122.26293844
  atomic energy  EATOM  =     13375.86880085
  Solvation  Ediel_sol  =         0.00000000
  ---------------------------------------------------
  free energy    TOTEN  =        23.89279186 eV

  energy without entropy =       23.89279186  energy(sigma->0) =       23.89279186


--------------------------------------------------------------------------------------------------------




--------------------------------------- Iteration      1(   3)  ---------------------------------------


     EDDAV:  cpu time   11.9222: real time   12.1214
 BZINTS: Fermi energy:  9.617255;144.000000 electrons
         Band energy: 977.942165;  BLOECHL correction: -0.130557
       DOS:  cpu time    0.1220: real time    0.1214
    --------------------------------------------
      LOOP:  cpu time   12.0442: real time   12.2427

 eigenvalue-minimisations  : 16731
 total energy-change (2. order) :-0.1443208E+03  (-0.1195857E+03)
 number of electron     144.0000000 magnetization      32.0000000
 augmentation part      144.0000000 magnetization      32.0000000

 Free energy of the ion-electron system (eV)
  ---------------------------------------------------
  alpha Z        PSCENC =       868.92678499
  Ewald energy   TEWEN  =    -11987.95434162
  -Hartree energ DENC   =     -3052.23371130
  -exchange      EXHF   =         0.00000000
  -V(xc)+E(xc)   XCENC  =       293.53079191
  PAW double counting   =     12132.73952366   -12729.24799506
  entropy T*S    EENTRO =         0.00000000
  eigenvalues    EBANDS =       977.94216458
  atomic energy  EATOM  =     13375.86880085
  Solvation  Ediel_sol  =         0.00000000
  ---------------------------------------------------
  free energy    TOTEN  =      -120.42798200 eV

  energy without entropy =     -120.42798200  energy(sigma->0) =     -120.42798200


--------------------------------------------------------------------------------------------------------




--------------------------------------- Iteration      1(   4)  ---------------------------------------


     EDDAV:  cpu time   11.5972: real time   11.6138
 BZINTS: Fermi energy:  9.573281;144.000000 electrons
         Band energy: 972.650472;  BLOECHL correction: -0.133515
       DOS:  cpu time    0.1150: real time    0.1155
    --------------------------------------------
      LOOP:  cpu time   11.7122: real time   11.7294

 eigenvalue-minimisations  : 18234
 total energy-change (2. order) :-0.5291692E+01  (-0.5181366E+01)
 number of electron     144.0000000 magnetization      32.0000000
 augmentation part      144.0000000 magnetization      32.0000000

 Free energy of the ion-electron system (eV)
  ---------------------------------------------------
  alpha Z        PSCENC =       868.92678499
  Ewald energy   TEWEN  =    -11987.95434162
  -Hartree energ DENC   =     -3052.23371130
  -exchange      EXHF   =         0.00000000
  -V(xc)+E(xc)   XCENC  =       293.53079191
  PAW double counting   =     12132.73952366   -12729.24799506
  entropy T*S    EENTRO =         0.00000000
  eigenvalues    EBANDS =       972.65047242
  atomic energy  EATOM  =     13375.86880085
  Solvation  Ediel_sol  =         0.00000000
  ---------------------------------------------------
  free energy    TOTEN  =      -125.71967416 eV

  energy without entropy =     -125.71967416  energy(sigma->0) =     -125.71967416


--------------------------------------------------------------------------------------------------------




--------------------------------------- Iteration      1(   5)  ---------------------------------------


     EDDAV:  cpu time   14.6378: real time   14.7338
 BZINTS: Fermi energy:  9.572495;144.000000 electrons
         Band energy: 972.559750;  BLOECHL correction: -0.133512
       DOS:  cpu time    0.1130: real time    0.1135
    CHARGE:  cpu time    0.3929: real time    0.3944
    MIXING:  cpu time    0.0030: real time    0.0025
    --------------------------------------------
      LOOP:  cpu time   15.1467: real time   15.2443

 eigenvalue-minimisations  : 24261
 total energy-change (2. order) :-0.9072260E-01  (-0.9062100E-01)
 number of electron     144.0000006 magnetization      27.8026889
 augmentation part       73.6747084 magnetization      21.5457386

 Broyden mixing:
  rms(total) = 0.42024E+01    rms(broyden)= 0.42023E+01
  rms(prec ) = 0.52676E+01
  weight for this iteration     100.00

 Free energy of the ion-electron system (eV)
  ---------------------------------------------------
  alpha Z        PSCENC =       868.92678499
  Ewald energy   TEWEN  =    -11987.95434162
  -Hartree energ DENC   =     -3052.23371130
  -exchange      EXHF   =         0.00000000
  -V(xc)+E(xc)   XCENC  =       293.53079191
  PAW double counting   =     12132.73952366   -12729.24799506
  entropy T*S    EENTRO =         0.00000000
  eigenvalues    EBANDS =       972.55974982
  atomic energy  EATOM  =     13375.86880085
  Solvation  Ediel_sol  =         0.00000000
  ---------------------------------------------------
  free energy    TOTEN  =      -125.81039676 eV

  energy without entropy =     -125.81039676  energy(sigma->0) =     -125.81039676


--------------------------------------------------------------------------------------------------------




--------------------------------------- Iteration      1(   6)  ---------------------------------------


    POTLOK:  cpu time    0.0430: real time    0.0440
    SETDIJ:  cpu time    0.0100: real time    0.0099
    EDDIAG:  cpu time    1.4388: real time    1.4469
  RMM-DIIS:  cpu time    7.6048: real time    7.6442
    ORTHCH:  cpu time    0.1610: real time    0.1619
 BZINTS: Fermi energy:  6.793685;144.000000 electrons
         Band energy: 603.652973;  BLOECHL correction: -0.066349
       DOS:  cpu time    0.1160: real time    0.1162
    CHARGE:  cpu time    0.3669: real time    0.3665
    MIXING:  cpu time    0.0010: real time    0.0012
    --------------------------------------------
      LOOP:  cpu time    9.7415: real time    9.7908

 eigenvalue-minimisations  : 17304
 total energy-change (2. order) : 0.6745877E+01  (-0.1566278E+02)
 number of electron     144.0000008 magnetization      26.5113044
 augmentation part       86.6769134 magnetization      21.6063005

 Broyden mixing:
  rms(total) = 0.43105E+01    rms(broyden)= 0.43104E+01
  rms(prec ) = 0.66787E+01
  weight for this iteration     100.00

 eigenvalues of (default mixing * dielectric matrix)
  average eigenvalue GAMMA=   0.4130
  0.4130

 Free energy of the ion-electron system (eV)
  ---------------------------------------------------
  alpha Z        PSCENC =       868.92678499
  Ewald energy   TEWEN  =    -11987.95434162
  -Hartree energ DENC   =     -2713.95672172
  -exchange      EXHF   =         0.00000000
  -V(xc)+E(xc)   XCENC  =       276.30646779
  PAW double counting   =     13013.63437130   -13555.54285401
  entropy T*S    EENTRO =         0.00000000
  eigenvalues    EBANDS =       603.65297264
  atomic energy  EATOM  =     13375.86880085
  Solvation  Ediel_sol  =         0.00000000
  ---------------------------------------------------
  free energy    TOTEN  =      -119.06451978 eV

  energy without entropy =     -119.06451978  energy(sigma->0) =     -119.06451978


--------------------------------------------------------------------------------------------------------




--------------------------------------- Iteration      1(   7)  ---------------------------------------


    POTLOK:  cpu time    0.0440: real time    0.0440
    SETDIJ:  cpu time    0.0100: real time    0.0099
    EDDIAG:  cpu time    1.4818: real time    1.4860
  RMM-DIIS:  cpu time    7.8758: real time    7.9026
    ORTHCH:  cpu time    0.1610: real time    0.1630
 BZINTS: Fermi energy:  7.601929;144.000000 electrons
         Band energy: 686.655600;  BLOECHL correction: -0.055622
       DOS:  cpu time    0.1190: real time    0.1184
    CHARGE:  cpu time    0.3689: real time    0.3698
    MIXING:  cpu time    0.0020: real time    0.0011
    --------------------------------------------
      LOOP:  cpu time   10.0625: real time   10.0948

 eigenvalue-minimisations  : 17832
 total energy-change (2. order) :-0.2325107E+02  (-0.4379517E+01)
 number of electron     144.0000008 magnetization      24.4496596
 augmentation part       82.4102728 magnetization      21.4812412

 Broyden mixing:
  rms(total) = 0.79658E+01    rms(broyden)= 0.79657E+01
  rms(prec ) = 0.14149E+02
  weight for this iteration     100.00

 eigenvalues of (default mixing * dielectric matrix)
  average eigenvalue GAMMA=   0.3634
  0.5957  0.1310

 Free energy of the ion-electron system (eV)
  ---------------------------------------------------
  alpha Z        PSCENC =       868.92678499
  Ewald energy   TEWEN  =    -11987.95434162
  -Hartree energ DENC   =     -2790.11995759
  -exchange      EXHF   =         0.00000000
  -V(xc)+E(xc)   XCENC  =       280.13394932
  PAW double counting   =     13406.70622104   -13982.53264721
  entropy T*S    EENTRO =         0.00000000
  eigenvalues    EBANDS =       686.65559992
  atomic energy  EATOM  =     13375.86880085
  Solvation  Ediel_sol  =         0.00000000
  ---------------------------------------------------
  free energy    TOTEN  =      -142.31559030 eV

  energy without entropy =     -142.31559030  energy(sigma->0) =     -142.31559030


--------------------------------------------------------------------------------------------------------




--------------------------------------- Iteration      1(   8)  ---------------------------------------


    POTLOK:  cpu time    0.0430: real time    0.0438
    SETDIJ:  cpu time    0.0100: real time    0.0099
    EDDIAG:  cpu time    1.4748: real time    1.4765
  RMM-DIIS:  cpu time    7.8238: real time    7.8622
    ORTHCH:  cpu time    0.1630: real time    0.1629
 BZINTS: Fermi energy:  7.600370;144.000000 electrons
         Band energy: 730.270961;  BLOECHL correction: -0.083259
       DOS:  cpu time    0.1190: real time    0.1194
    CHARGE:  cpu time    0.3679: real time    0.3677
    MIXING:  cpu time    0.0010: real time    0.0014
    --------------------------------------------
      LOOP:  cpu time   10.0025: real time   10.0438

 eigenvalue-minimisations  : 17479
 total energy-change (2. order) : 0.2340179E+02  (-0.1479117E+01)
 number of electron     144.0000006 magnetization      24.0140998
 augmentation part       82.1131615 magnetization      19.3208605

 Broyden mixing:
  rms(total) = 0.40961E+01    rms(broyden)= 0.40960E+01
  rms(prec ) = 0.64756E+01
  weight for this iteration     100.00

 eigenvalues of (default mixing * dielectric matrix)
  average eigenvalue GAMMA=   0.3528
  0.6281  0.3087  0.1215

 Free energy of the ion-electron system (eV)
  ---------------------------------------------------
  alpha Z        PSCENC =       868.92678499
  Ewald energy   TEWEN  =    -11987.95434162
  -Hartree energ DENC   =     -2793.06770300
  -exchange      EXHF   =         0.00000000
  -V(xc)+E(xc)   XCENC  =       279.16429293
  PAW double counting   =     13723.45547077   -14315.57806691
  entropy T*S    EENTRO =         0.00000000
  eigenvalues    EBANDS =       730.27096100
  atomic energy  EATOM  =     13375.86880085
  Solvation  Ediel_sol  =         0.00000000
  ---------------------------------------------------
  free energy    TOTEN  =      -118.91380099 eV

  energy without entropy =     -118.91380099  energy(sigma->0) =     -118.91380099


--------------------------------------------------------------------------------------------------------




--------------------------------------- Iteration      1(   9)  ---------------------------------------


    POTLOK:  cpu time    0.0440: real time    0.0442
    SETDIJ:  cpu time    0.0100: real time    0.0100
    EDDIAG:  cpu time    1.4798: real time    1.4846
  RMM-DIIS:  cpu time    7.5788: real time    7.5980
    ORTHCH:  cpu time    0.1620: real time    0.1627
 BZINTS: Fermi energy:  7.490644;144.000000 electrons
         Band energy: 737.963449;  BLOECHL correction: -0.126202
       DOS:  cpu time    0.1220: real time    0.1220
    CHARGE:  cpu time    0.3669: real time    0.3665
    MIXING:  cpu time    0.0010: real time    0.0012
    --------------------------------------------
      LOOP:  cpu time    9.7645: real time    9.7892

 eigenvalue-minimisations  : 16990
 total energy-change (2. order) : 0.9169490E+01  (-0.8110430E+00)
 number of electron     144.0000007 magnetization      23.4532844
 augmentation part       82.3290350 magnetization      18.5619728

 Broyden mixing:
  rms(total) = 0.15457E+01    rms(broyden)= 0.15456E+01
  rms(prec ) = 0.20974E+01
  weight for this iteration     100.00

 eigenvalues of (default mixing * dielectric matrix)
  average eigenvalue GAMMA=   0.4512
  1.0382  0.5120  0.1273  0.1273

 Free energy of the ion-electron system (eV)
  ---------------------------------------------------
  alpha Z        PSCENC =       868.92678499
  Ewald energy   TEWEN  =    -11987.95434162
  -Hartree energ DENC   =     -2788.22564227
  -exchange      EXHF   =         0.00000000
  -V(xc)+E(xc)   XCENC  =       279.09200583
  PAW double counting   =     13822.14206163   -14417.55742933
  entropy T*S    EENTRO =         0.00000000
  eigenvalues    EBANDS =       737.96344865
  atomic energy  EATOM  =     13375.86880085
  Solvation  Ediel_sol  =         0.00000000
  ---------------------------------------------------
  free energy    TOTEN  =      -109.74431127 eV

  energy without entropy =     -109.74431127  energy(sigma->0) =     -109.74431127


--------------------------------------------------------------------------------------------------------




--------------------------------------- Iteration      1(  10)  ---------------------------------------


    POTLOK:  cpu time    0.0450: real time    0.0449
    SETDIJ:  cpu time    0.0100: real time    0.0100
    EDDIAG:  cpu time    1.4728: real time    1.4745
  RMM-DIIS:  cpu time    7.7378: real time    7.7542
    ORTHCH:  cpu time    0.1770: real time    0.1769
 BZINTS: Fermi energy:  7.631233;144.000000 electrons
         Band energy: 739.845952;  BLOECHL correction: -0.072030
       DOS:  cpu time    0.1150: real time    0.1161
    CHARGE:  cpu time    0.3699: real time    0.3695
    MIXING:  cpu time    0.0010: real time    0.0012
    --------------------------------------------
      LOOP:  cpu time    9.9285: real time    9.9473

 eigenvalue-minimisations  : 17519
 total energy-change (2. order) :-0.5639488E+01  (-0.5377502E+00)
 number of electron     144.0000007 magnetization      22.9733530
 augmentation part       81.6908078 magnetization      19.4889037

 Broyden mixing:
  rms(total) = 0.44497E+01    rms(broyden)= 0.44496E+01
  rms(prec ) = 0.74059E+01
  weight for this iteration     100.00

 eigenvalues of (default mixing * dielectric matrix)
  average eigenvalue GAMMA=   0.4195
  1.1775  0.5274  0.1378  0.1378  0.1170

 Free energy of the ion-electron system (eV)
  ---------------------------------------------------
  alpha Z        PSCENC =       868.92678499
  Ewald energy   TEWEN  =    -11987.95434162
  -Hartree energ DENC   =     -2786.15923904
  -exchange      EXHF   =         0.00000000
  -V(xc)+E(xc)   XCENC  =       280.38999740
  PAW double counting   =     14107.74039325   -14714.04214621
  entropy T*S    EENTRO =         0.00000000
  eigenvalues    EBANDS =       739.84595160
  atomic energy  EATOM  =     13375.86880085
  Solvation  Ediel_sol  =         0.00000000
  ---------------------------------------------------
  free energy    TOTEN  =      -115.38379878 eV

  energy without entropy =     -115.38379878  energy(sigma->0) =     -115.38379878


--------------------------------------------------------------------------------------------------------




--------------------------------------- Iteration      1(  11)  ---------------------------------------


    POTLOK:  cpu time    0.0440: real time    0.0444
    SETDIJ:  cpu time    0.0100: real time    0.0099
    EDDIAG:  cpu time    1.4688: real time    1.4710
  RMM-DIIS:  cpu time    7.7398: real time    7.7637
    ORTHCH:  cpu time    0.1630: real time    0.1626
 BZINTS: Fermi energy:  7.469548;144.000000 electrons
         Band energy: 737.898275;  BLOECHL correction: -0.142552
       DOS:  cpu time    0.1160: real time    0.1161
    CHARGE:  cpu time    0.3809: real time    0.3811
    MIXING:  cpu time    0.0010: real time    0.0012
    --------------------------------------------
      LOOP:  cpu time    9.9235: real time    9.9499

 eigenvalue-minimisations  : 17234
 total energy-change (2. order) : 0.5039719E+01  (-0.4728855E+00)
 number of electron     144.0000007 magnetization      22.9944503
 augmentation part       82.2255698 magnetization      18.8698103

 Broyden mixing:
  rms(total) = 0.11597E+01    rms(broyden)= 0.11596E+01
  rms(prec ) = 0.16875E+01
  weight for this iteration     100.00

 eigenvalues of (default mixing * dielectric matrix)
  average eigenvalue GAMMA=   0.4308
  1.2884  0.4723  0.4723  0.1494  0.1011  0.1011

 Free energy of the ion-electron system (eV)
  ---------------------------------------------------
  alpha Z        PSCENC =       868.92678499
  Ewald energy   TEWEN  =    -11987.95434162
  -Hartree energ DENC   =     -2775.57450700
  -exchange      EXHF   =         0.00000000
  -V(xc)+E(xc)   XCENC  =       280.37866026
  PAW double counting   =     14253.08528761   -14862.97303986
  entropy T*S    EENTRO =         0.00000000
  eigenvalues    EBANDS =       737.89827539
  atomic energy  EATOM  =     13375.86880085
  Solvation  Ediel_sol  =         0.00000000
  ---------------------------------------------------
  free energy    TOTEN  =      -110.34407939 eV

  energy without entropy =     -110.34407939  energy(sigma->0) =     -110.34407939


--------------------------------------------------------------------------------------------------------




--------------------------------------- Iteration      1(  12)  ---------------------------------------


    POTLOK:  cpu time    0.0430: real time    0.0437
    SETDIJ:  cpu time    0.0110: real time    0.0100
    EDDIAG:  cpu time    1.5018: real time    1.5033
  RMM-DIIS:  cpu time    7.7738: real time    7.7923
    ORTHCH:  cpu time    0.1880: real time    0.1888
 BZINTS: Fermi energy:  7.440330;144.000000 electrons
         Band energy: 732.752107;  BLOECHL correction: -0.150726
       DOS:  cpu time    0.1190: real time    0.1189
    CHARGE:  cpu time    0.3729: real time    0.3727
    MIXING:  cpu time    0.0010: real time    0.0013
    --------------------------------------------
      LOOP:  cpu time   10.0105: real time   10.0309

 eigenvalue-minimisations  : 17424
 total energy-change (2. order) : 0.2206951E+00  (-0.1017721E+00)
 number of electron     144.0000007 magnetization      23.2147438
 augmentation part       82.5291008 magnetization      19.0144434

 Broyden mixing:
  rms(total) = 0.98787E+00    rms(broyden)= 0.98783E+00
  rms(prec ) = 0.15194E+01
  weight for this iteration     100.00

 eigenvalues of (default mixing * dielectric matrix)
  average eigenvalue GAMMA=   0.4870
  1.5532  0.6666  0.6666  0.1737  0.1336  0.1076  0.1076

 Free energy of the ion-electron system (eV)
  ---------------------------------------------------
  alpha Z        PSCENC =       868.92678499
  Ewald energy   TEWEN  =    -11987.95434162
  -Hartree energ DENC   =     -2768.92858483
  -exchange      EXHF   =         0.00000000
  -V(xc)+E(xc)   XCENC  =       280.33802810
  PAW double counting   =     14330.88164024   -14942.00781923
  entropy T*S    EENTRO =         0.00000000
  eigenvalues    EBANDS =       732.75210718
  atomic energy  EATOM  =     13375.86880085
  Solvation  Ediel_sol  =         0.00000000
  ---------------------------------------------------
  free energy    TOTEN  =      -110.12338433 eV

  energy without entropy =     -110.12338433  energy(sigma->0) =     -110.12338433


--------------------------------------------------------------------------------------------------------




--------------------------------------- Iteration      1(  13)  ---------------------------------------


    POTLOK:  cpu time    0.0430: real time    0.0439
    SETDIJ:  cpu time    0.0110: real time    0.0100
    EDDIAG:  cpu time    1.4728: real time    1.4769
  RMM-DIIS:  cpu time    7.6598: real time    7.6795
    ORTHCH:  cpu time    0.1610: real time    0.1616
 BZINTS: Fermi energy:  7.438557;144.000000 electrons
         Band energy: 731.439168;  BLOECHL correction: -0.178582
       DOS:  cpu time    0.1110: real time    0.1114
    CHARGE:  cpu time    0.3839: real time    0.3833
    MIXING:  cpu time    0.0020: real time    0.0014
    --------------------------------------------
      LOOP:  cpu time    9.8445: real time    9.8680

 eigenvalue-minimisations  : 17236
 total energy-change (2. order) : 0.7816727E-01  (-0.3835592E-01)
 number of electron     144.0000007 magnetization      23.3970105
 augmentation part       82.5568611 magnetization      19.4157580

 Broyden mixing:
  rms(total) = 0.73550E+00    rms(broyden)= 0.73547E+00
  rms(prec ) = 0.11850E+01
  weight for this iteration     100.00

 eigenvalues of (default mixing * dielectric matrix)
  average eigenvalue GAMMA=   0.4969
  1.6465  0.7356  0.7356  0.3614  0.1426  0.1426  0.1054  0.1054

 Free energy of the ion-electron system (eV)
  ---------------------------------------------------
  alpha Z        PSCENC =       868.92678499
  Ewald energy   TEWEN  =    -11987.95434162
  -Hartree energ DENC   =     -2762.51096555
  -exchange      EXHF   =         0.00000000
  -V(xc)+E(xc)   XCENC  =       280.99555741
  PAW double counting   =     14538.24930175   -15155.05952294
  entropy T*S    EENTRO =         0.00000000
  eigenvalues    EBANDS =       731.43916805
  atomic energy  EATOM  =     13375.86880085
  Solvation  Ediel_sol  =         0.00000000
  ---------------------------------------------------
  free energy    TOTEN  =      -110.04521706 eV

  energy without entropy =     -110.04521706  energy(sigma->0) =     -110.04521706


--------------------------------------------------------------------------------------------------------




--------------------------------------- Iteration      1(  14)  ---------------------------------------


    POTLOK:  cpu time    0.0430: real time    0.0438
    SETDIJ:  cpu time    0.0100: real time    0.0099
    EDDIAG:  cpu time    1.4408: real time    1.4420
  RMM-DIIS:  cpu time    8.1858: real time    8.1971
    ORTHCH:  cpu time    0.1820: real time    0.1823
 BZINTS: Fermi energy:  7.445910;144.000000 electrons
         Band energy: 732.957958;  BLOECHL correction: -0.183550
       DOS:  cpu time    0.1110: real time    0.1112
    CHARGE:  cpu time    0.3769: real time    0.3764
    MIXING:  cpu time    0.0010: real time    0.0014
    --------------------------------------------
      LOOP:  cpu time   10.3504: real time   10.3641

 eigenvalue-minimisations  : 17331
 total energy-change (2. order) : 0.1235934E+00  (-0.1781615E-01)
 number of electron     144.0000007 magnetization      23.9672420
 augmentation part       82.4636086 magnetization      20.1086649

 Broyden mixing:
  rms(total) = 0.53422E+00    rms(broyden)= 0.53420E+00
  rms(prec ) = 0.83235E+00
  weight for this iteration     100.00

 eigenvalues of (default mixing * dielectric matrix)
  average eigenvalue GAMMA=   0.5414
  1.7539  0.9591  0.9591  0.5502  0.1055  0.1055  0.1558  0.1418  0.1418

 Free energy of the ion-electron system (eV)
  ---------------------------------------------------
  alpha Z        PSCENC =       868.92678499
  Ewald energy   TEWEN  =    -11987.95434162
  -Hartree energ DENC   =     -2762.32677277
  -exchange      EXHF   =         0.00000000
  -V(xc)+E(xc)   XCENC  =       281.31278797
  PAW double counting   =     14599.68160739   -15218.38844878
  entropy T*S    EENTRO =         0.00000000
  eigenvalues    EBANDS =       732.95795826
  atomic energy  EATOM  =     13375.86880085
  Solvation  Ediel_sol  =         0.00000000
  ---------------------------------------------------
  free energy    TOTEN  =      -109.92162371 eV

  energy without entropy =     -109.92162371  energy(sigma->0) =     -109.92162371


--------------------------------------------------------------------------------------------------------




--------------------------------------- Iteration      1(  15)  ---------------------------------------


    POTLOK:  cpu time    0.0440: real time    0.0440
    SETDIJ:  cpu time    0.0100: real time    0.0099
    EDDIAG:  cpu time    1.4618: real time    1.4631
  RMM-DIIS:  cpu time    7.6238: real time    7.6348
    ORTHCH:  cpu time    0.1610: real time    0.1613
 BZINTS: Fermi energy:  7.447684;144.000000 electrons
         Band energy: 732.149486;  BLOECHL correction: -0.197089
       DOS:  cpu time    0.1230: real time    0.1228
    CHARGE:  cpu time    0.3799: real time    0.3796
    MIXING:  cpu time    0.0010: real time    0.0015
    --------------------------------------------
      LOOP:  cpu time    9.8045: real time    9.8169

 eigenvalue-minimisations  : 17390
 total energy-change (2. order) : 0.4392276E-01  (-0.7140712E-02)
 number of electron     144.0000007 magnetization      24.2580888
 augmentation part       82.4969284 magnetization      20.4066464

 Broyden mixing:
  rms(total) = 0.33575E+00    rms(broyden)= 0.33574E+00
  rms(prec ) = 0.47865E+00
  weight for this iteration     100.00

 eigenvalues of (default mixing * dielectric matrix)
  average eigenvalue GAMMA=   0.5484
  1.7261  1.0932  1.0932  0.5153  0.4095  0.1056  0.1056  0.1567  0.1392  0.1392

 Free energy of the ion-electron system (eV)
  ---------------------------------------------------
  alpha Z        PSCENC =       868.92678499
  Ewald energy   TEWEN  =    -11987.95434162
  -Hartree energ DENC   =     -2759.88198407
  -exchange      EXHF   =         0.00000000
  -V(xc)+E(xc)   XCENC  =       281.65667648
  PAW double counting   =     14693.25763281   -15313.90075634
  entropy T*S    EENTRO =         0.00000000
  eigenvalues    EBANDS =       732.14948597
  atomic energy  EATOM  =     13375.86880085
  Solvation  Ediel_sol  =         0.00000000
  ---------------------------------------------------
  free energy    TOTEN  =      -109.87770094 eV

  energy without entropy =     -109.87770094  energy(sigma->0) =     -109.87770094


--------------------------------------------------------------------------------------------------------




--------------------------------------- Iteration      1(  16)  ---------------------------------------


    POTLOK:  cpu time    0.0450: real time    0.0454
    SETDIJ:  cpu time    0.0100: real time    0.0099
    EDDIAG:  cpu time    1.4668: real time    1.4673
  RMM-DIIS:  cpu time    7.6548: real time    7.6665
    ORTHCH:  cpu time    0.1610: real time    0.1618
 BZINTS: Fermi energy:  7.451296;144.000000 electrons
         Band energy: 731.348926;  BLOECHL correction: -0.200952
       DOS:  cpu time    0.1160: real time    0.1164
    CHARGE:  cpu time    0.3719: real time    0.3710
    MIXING:  cpu time    0.0020: real time    0.0016
    --------------------------------------------
      LOOP:  cpu time    9.8275: real time    9.8399

 eigenvalue-minimisations  : 17429
 total energy-change (2. order) :-0.6416527E-02  (-0.8239195E-02)
 number of electron     144.0000007 magnetization      24.9511812
 augmentation part       82.5222022 magnetization      21.0783807

 Broyden mixing:
  rms(total) = 0.28563E+00    rms(broyden)= 0.28562E+00
  rms(prec ) = 0.41302E+00
  weight for this iteration     100.00

 eigenvalues of (default mixing * dielectric matrix)
  average eigenvalue GAMMA=   0.5917
  1.5995  1.5995  1.2813  0.6094  0.6094  0.1055  0.1055  0.1660  0.1548  0.1410
  0.1362

 Free energy of the ion-electron system (eV)
  ---------------------------------------------------
  alpha Z        PSCENC =       868.92678499
  Ewald energy   TEWEN  =    -11987.95434162
  -Hartree energ DENC   =     -2758.92497667
  -exchange      EXHF   =         0.00000000
  -V(xc)+E(xc)   XCENC  =       281.77400506
  PAW double counting   =     14719.24037571   -15340.16369144
  entropy T*S    EENTRO =         0.00000000
  eigenvalues    EBANDS =       731.34892565
  atomic energy  EATOM  =     13375.86880085
  Solvation  Ediel_sol  =         0.00000000
  ---------------------------------------------------
  free energy    TOTEN  =      -109.88411747 eV

  energy without entropy =     -109.88411747  energy(sigma->0) =     -109.88411747


--------------------------------------------------------------------------------------------------------




--------------------------------------- Iteration      1(  17)  ---------------------------------------


    POTLOK:  cpu time    0.0430: real time    0.0438
    SETDIJ:  cpu time    0.0100: real time    0.0099
    EDDIAG:  cpu time    1.4648: real time    1.4670
  RMM-DIIS:  cpu time    7.7298: real time    7.7972
    ORTHCH:  cpu time    0.1610: real time    0.1618
 BZINTS: Fermi energy:  7.463351;144.000000 electrons
         Band energy: 730.526839;  BLOECHL correction: -0.207264
       DOS:  cpu time    0.1170: real time    0.1178
    CHARGE:  cpu time    0.3679: real time    0.3682
    MIXING:  cpu time    0.0020: real time    0.0016
    --------------------------------------------
      LOOP:  cpu time    9.8955: real time    9.9673

 eigenvalue-minimisations  : 17571
 total energy-change (2. order) :-0.2272851E-01  (-0.4663359E-02)
 number of electron     144.0000007 magnetization      25.1021883
 augmentation part       82.5183388 magnetization      21.1995267

 Broyden mixing:
  rms(total) = 0.21475E+00    rms(broyden)= 0.21474E+00
  rms(prec ) = 0.32827E+00
  weight for this iteration     100.00

 eigenvalues of (default mixing * dielectric matrix)
  average eigenvalue GAMMA=   0.6028
  1.7383  1.7383  1.2707  0.6296  0.6296  0.4214  0.1056  0.1056  0.1675  0.1480
  0.1392  0.1392

 Free energy of the ion-electron system (eV)
  ---------------------------------------------------
  alpha Z        PSCENC =       868.92678499
  Ewald energy   TEWEN  =    -11987.95434162
  -Hartree energ DENC   =     -2758.13088512
  -exchange      EXHF   =         0.00000000
  -V(xc)+E(xc)   XCENC  =       282.09234667
  PAW double counting   =     14761.18154618   -15382.41793646
  entropy T*S    EENTRO =         0.00000000
  eigenvalues    EBANDS =       730.52683853
  atomic energy  EATOM  =     13375.86880085
  Solvation  Ediel_sol  =         0.00000000
  ---------------------------------------------------
  free energy    TOTEN  =      -109.90684598 eV

  energy without entropy =     -109.90684598  energy(sigma->0) =     -109.90684598


--------------------------------------------------------------------------------------------------------




--------------------------------------- Iteration      1(  18)  ---------------------------------------


    POTLOK:  cpu time    0.0430: real time    0.0439
    SETDIJ:  cpu time    0.0110: real time    0.0099
    EDDIAG:  cpu time    1.4618: real time    1.4653
  RMM-DIIS:  cpu time    7.7778: real time    7.7906
    ORTHCH:  cpu time    0.1630: real time    0.1626
 BZINTS: Fermi energy:  7.463406;144.000000 electrons
         Band energy: 730.228500;  BLOECHL correction: -0.209240
       DOS:  cpu time    0.1170: real time    0.1169
    CHARGE:  cpu time    0.3769: real time    0.3774
    MIXING:  cpu time    0.0020: real time    0.0018
    --------------------------------------------
      LOOP:  cpu time    9.9525: real time    9.9685

 eigenvalue-minimisations  : 17579
 total energy-change (2. order) : 0.7041619E-02  (-0.3238606E-02)
 number of electron     144.0000007 magnetization      25.3919806
 augmentation part       82.5238887 magnetization      21.4824440

 Broyden mixing:
  rms(total) = 0.15521E+00    rms(broyden)= 0.15520E+00
  rms(prec ) = 0.23740E+00
  weight for this iteration     100.00

 eigenvalues of (default mixing * dielectric matrix)
  average eigenvalue GAMMA=   0.6487
  1.9997  1.9997  1.3497  0.7658  0.7658  0.5977  0.1055  0.1055  0.1734  0.1529
  0.1416  0.1416  0.1343

 Free energy of the ion-electron system (eV)
  ---------------------------------------------------
  alpha Z        PSCENC =       868.92678499
  Ewald energy   TEWEN  =    -11987.95434162
  -Hartree energ DENC   =     -2757.80565345
  -exchange      EXHF   =         0.00000000
  -V(xc)+E(xc)   XCENC  =       282.15685588
  PAW double counting   =     14770.87991979   -15392.20067123
  entropy T*S    EENTRO =         0.00000000
  eigenvalues    EBANDS =       730.22850044
  atomic energy  EATOM  =     13375.86880085
  Solvation  Ediel_sol  =         0.00000000
  ---------------------------------------------------
  free energy    TOTEN  =      -109.89980436 eV

  energy without entropy =     -109.89980436  energy(sigma->0) =     -109.89980436


--------------------------------------------------------------------------------------------------------




--------------------------------------- Iteration      1(  19)  ---------------------------------------


    POTLOK:  cpu time    0.0440: real time    0.0440
    SETDIJ:  cpu time    0.0100: real time    0.0100
    EDDIAG:  cpu time    1.4628: real time    1.4667
  RMM-DIIS:  cpu time    7.7458: real time    7.7580
    ORTHCH:  cpu time    0.1620: real time    0.1628
 BZINTS: Fermi energy:  7.462351;144.000000 electrons
         Band energy: 729.720838;  BLOECHL correction: -0.210968
       DOS:  cpu time    0.1170: real time    0.1170
    CHARGE:  cpu time    0.3759: real time    0.3757
    MIXING:  cpu time    0.0020: real time    0.0018
    --------------------------------------------
      LOOP:  cpu time    9.9195: real time    9.9358

 eigenvalue-minimisations  : 17484
 total energy-change (2. order) :-0.9915650E-03  (-0.1237676E-02)
 number of electron     144.0000007 magnetization      25.4503882
 augmentation part       82.5342428 magnetization      21.5310392

 Broyden mixing:
  rms(total) = 0.11688E+00    rms(broyden)= 0.11688E+00
  rms(prec ) = 0.18595E+00
  weight for this iteration     100.00

 eigenvalues of (default mixing * dielectric matrix)
  average eigenvalue GAMMA=   0.6279
  2.0509  2.0509  1.3028  0.7750  0.7750  0.6051  0.2844  0.1055  0.1055  0.1702
  0.1544  0.1398  0.1398  0.1313

 Free energy of the ion-electron system (eV)
  ---------------------------------------------------
  alpha Z        PSCENC =       868.92678499
  Ewald energy   TEWEN  =    -11987.95434162
  -Hartree energ DENC   =     -2757.05325771
  -exchange      EXHF   =         0.00000000
  -V(xc)+E(xc)   XCENC  =       282.27019575
  PAW double counting   =     14794.94989354   -15416.62970960
  entropy T*S    EENTRO =         0.00000000
  eigenvalues    EBANDS =       729.72083789
  atomic energy  EATOM  =     13375.86880085
  Solvation  Ediel_sol  =         0.00000000
  ---------------------------------------------------
  free energy    TOTEN  =      -109.90079593 eV

  energy without entropy =     -109.90079593  energy(sigma->0) =     -109.90079593


--------------------------------------------------------------------------------------------------------




--------------------------------------- Iteration      1(  20)  ---------------------------------------


    POTLOK:  cpu time    0.0440: real time    0.0440
    SETDIJ:  cpu time    0.0100: real time    0.0100
    EDDIAG:  cpu time    1.4618: real time    1.4638
  RMM-DIIS:  cpu time    7.6398: real time    7.6495
    ORTHCH:  cpu time    0.1610: real time    0.1626
 BZINTS: Fermi energy:  7.463289;144.000000 electrons
         Band energy: 729.561168;  BLOECHL correction: -0.211544
       DOS:  cpu time    0.1170: real time    0.1166
    CHARGE:  cpu time    0.3769: real time    0.3767
    MIXING:  cpu time    0.0030: real time    0.0020
    --------------------------------------------
      LOOP:  cpu time    9.8135: real time    9.8252

 eigenvalue-minimisations  : 17290
 total energy-change (2. order) : 0.5341855E-02  (-0.7521114E-03)
 number of electron     144.0000007 magnetization      25.4919096
 augmentation part       82.5385128 magnetization      21.5622340

 Broyden mixing:
  rms(total) = 0.48312E-01    rms(broyden)= 0.48308E-01
  rms(prec ) = 0.71848E-01
  weight for this iteration     100.00

 eigenvalues of (default mixing * dielectric matrix)
  average eigenvalue GAMMA=   0.6228
  1.9660  1.9660  1.4168  0.7964  0.7964  0.6765  0.6136  0.1055  0.1055  0.1767
  0.1636  0.1460  0.1408  0.1408  0.1311

 Free energy of the ion-electron system (eV)
  ---------------------------------------------------
  alpha Z        PSCENC =       868.92678499
  Ewald energy   TEWEN  =    -11987.95434162
  -Hartree energ DENC   =     -2756.85171967
  -exchange      EXHF   =         0.00000000
  -V(xc)+E(xc)   XCENC  =       282.27753785
  PAW double counting   =     14799.63050812   -15421.35419227
  entropy T*S    EENTRO =         0.00000000
  eigenvalues    EBANDS =       729.56116768
  atomic energy  EATOM  =     13375.86880085
  Solvation  Ediel_sol  =         0.00000000
  ---------------------------------------------------
  free energy    TOTEN  =      -109.89545407 eV

  energy without entropy =     -109.89545407  energy(sigma->0) =     -109.89545407


--------------------------------------------------------------------------------------------------------




--------------------------------------- Iteration      1(  21)  ---------------------------------------


    POTLOK:  cpu time    0.0430: real time    0.0439
    SETDIJ:  cpu time    0.0100: real time    0.0100
    EDDIAG:  cpu time    1.4698: real time    1.4700
  RMM-DIIS:  cpu time    7.8248: real time    7.8392
    ORTHCH:  cpu time    0.1630: real time    0.1638
 BZINTS: Fermi energy:  7.462351;144.000000 electrons
         Band energy: 729.493765;  BLOECHL correction: -0.211462
       DOS:  cpu time    0.1090: real time    0.1090
    CHARGE:  cpu time    0.3699: real time    0.3697
    MIXING:  cpu time    0.0020: real time    0.0019
    --------------------------------------------
      LOOP:  cpu time    9.9915: real time   10.0073

 eigenvalue-minimisations  : 17570
 total energy-change (2. order) :-0.1259943E-03  (-0.1274273E-03)
 number of electron     144.0000007 magnetization      25.5024773
 augmentation part       82.5404401 magnetization      21.5631657

 Broyden mixing:
  rms(total) = 0.34770E-01    rms(broyden)= 0.34769E-01
  rms(prec ) = 0.51447E-01
  weight for this iteration     100.00

 eigenvalues of (default mixing * dielectric matrix)
  average eigenvalue GAMMA=   0.6116
  1.9810  1.9810  1.3643  0.8442  0.8442  0.6460  0.6460  0.3705  0.1055  0.1055
  0.1750  0.1616  0.1498  0.1400  0.1400  0.1310

 Free energy of the ion-electron system (eV)
  ---------------------------------------------------
  alpha Z        PSCENC =       868.92678499
  Ewald energy   TEWEN  =    -11987.95434162
  -Hartree energ DENC   =     -2756.67985437
  -exchange      EXHF   =         0.00000000
  -V(xc)+E(xc)   XCENC  =       282.27255966
  PAW double counting   =     14805.22326547   -15427.04656018
  entropy T*S    EENTRO =         0.00000000
  eigenvalues    EBANDS =       729.49376513
  atomic energy  EATOM  =     13375.86880085
  Solvation  Ediel_sol  =         0.00000000
  ---------------------------------------------------
  free energy    TOTEN  =      -109.89558007 eV

  energy without entropy =     -109.89558007  energy(sigma->0) =     -109.89558007


--------------------------------------------------------------------------------------------------------




--------------------------------------- Iteration      1(  22)  ---------------------------------------


    POTLOK:  cpu time    0.0440: real time    0.0440
    SETDIJ:  cpu time    0.0100: real time    0.0100
    EDDIAG:  cpu time    1.4688: real time    1.4702
  RMM-DIIS:  cpu time    7.7968: real time    7.8091
    ORTHCH:  cpu time    0.1620: real time    0.1623
 BZINTS: Fermi energy:  7.462135;144.000000 electrons
         Band energy: 729.521616;  BLOECHL correction: -0.211388
       DOS:  cpu time    0.1080: real time    0.1089
    CHARGE:  cpu time    0.3729: real time    0.3719
    MIXING:  cpu time    0.0020: real time    0.0020
    --------------------------------------------
      LOOP:  cpu time    9.9645: real time    9.9783

 eigenvalue-minimisations  : 17596
 total energy-change (2. order) : 0.1386745E-03  (-0.8808554E-04)
 number of electron     144.0000007 magnetization      25.5325172
 augmentation part       82.5394169 magnetization      21.5910636

 Broyden mixing:
  rms(total) = 0.23043E-01    rms(broyden)= 0.23041E-01
  rms(prec ) = 0.35305E-01
  weight for this iteration     100.00

 eigenvalues of (default mixing * dielectric matrix)
[...]
     96      12.9173      0.00000
     97      14.5759      0.00000
     98      14.6388      0.00000
     99      15.0707      0.00000
    100      15.1067      0.00000
    101      15.4506      0.00000
    102      15.5115      0.00000


--------------------------------------------------------------------------------------------------------


 soft charge-density along one line, spin component           1
         0         1         2         3         4         5         6         7         8         9
 total charge-density along one line
 
 soft charge-density along one line, spin component           2
         0         1         2         3         4         5         6         7         8         9
 total charge-density along one line
 
 pseudopotential strength for first ion, spin component:           1
 -1.952   0.004   0.001  -0.025   0.006  -2.571   0.004   0.001
  0.004  -1.966   0.001   0.004  -0.002   0.004  -2.584   0.001
  0.001   0.001  -1.893  -0.005   0.032   0.001   0.001  -2.515
 -0.025   0.004  -0.005  -1.952   0.002  -0.024   0.004  -0.005
  0.006  -0.002   0.032   0.002  -1.930   0.005  -0.002   0.030
 -2.571   0.004   0.001  -0.024   0.005  -3.121   0.003   0.001
  0.004  -2.584   0.001   0.004  -0.002   0.003  -3.134   0.001
  0.001   0.001  -2.515  -0.005   0.030   0.001   0.001  -3.068
 -0.024   0.004  -0.005  -2.571   0.002  -0.023   0.003  -0.005
  0.005  -0.002   0.030   0.002  -2.550   0.005  -0.002   0.029
 -0.000   0.003  -0.002  -0.000   0.004  -0.000   0.003  -0.002
 -0.000   0.005  -0.004  -0.000   0.006  -0.000   0.004  -0.003
  0.008   0.004   0.000   0.000  -0.003   0.007   0.004   0.000
  0.000   0.004   0.002   0.008  -0.001   0.000   0.004   0.002
  0.001   0.000  -0.004   0.001   0.007   0.001   0.000  -0.004
  0.010   0.005  -0.000   0.001  -0.003   0.010   0.005  -0.000
  0.001   0.005   0.003   0.010  -0.002   0.000   0.005   0.003
  0.002   0.001  -0.005   0.002   0.009   0.002   0.000  -0.005
 pseudopotential strength for first ion, spin component:           2
 -1.347  -0.000  -0.003   0.005  -0.003  -1.995  -0.000  -0.003
 -0.000  -1.314  -0.007  -0.000   0.012  -0.000  -1.963  -0.007
 -0.003  -0.007  -1.337   0.005  -0.003  -0.003  -0.007  -1.985
  0.005  -0.000   0.005  -1.347   0.002   0.004  -0.000   0.004
 -0.003   0.012  -0.003   0.002  -1.333  -0.003   0.012  -0.003
 -1.995  -0.000  -0.003   0.004  -0.003  -2.573  -0.000  -0.003
 -0.000  -1.963  -0.007  -0.000   0.012  -0.000  -2.542  -0.007
 -0.003  -0.007  -1.985   0.004  -0.003  -0.003  -0.007  -2.563
  0.004  -0.000   0.004  -1.995   0.001   0.004  -0.000   0.004
 -0.003   0.012  -0.003   0.001  -1.982  -0.003   0.011  -0.003
 -0.000   0.000  -0.000  -0.000   0.001  -0.000   0.000  -0.000
 -0.000   0.000  -0.001  -0.000   0.001  -0.000   0.000  -0.001
  0.003   0.001  -0.001  -0.000  -0.001   0.003   0.001  -0.001
 -0.000   0.001   0.001   0.003  -0.000  -0.000   0.001   0.001
  0.001  -0.000  -0.002   0.001   0.003   0.001  -0.000  -0.002
  0.003   0.001  -0.001  -0.000  -0.001   0.003   0.001  -0.001
 -0.000   0.001   0.002   0.003   0.000  -0.000   0.001   0.001
  0.001  -0.000  -0.002   0.001   0.004   0.001  -0.000  -0.002
 total augmentation occupancy for first ion, spin component:           1
  2.681  -0.007  -0.002  -0.036   0.018  -1.129   0.010   0.000   0.003  -0.009   0.010  -0.002   0.020   0.003  -0.007  -0.003
 -0.007   2.629  -0.016  -0.006   0.029   0.010  -1.125   0.017   0.010  -0.030   0.003   0.001   0.017   0.017   0.006  -0.001
 -0.002  -0.016   3.239  -0.013   0.069  -0.000   0.017  -1.385   0.007  -0.030  -0.000   0.000   0.014  -0.003  -0.009  -0.001
 -0.036  -0.006  -0.013   2.682   0.013   0.003   0.010   0.007  -1.130  -0.006   0.011  -0.002   0.003   0.020  -0.007  -0.000
  0.018   0.029   0.069   0.013   3.159  -0.009  -0.029  -0.030  -0.006  -1.350   0.001  -0.000  -0.005  -0.015   0.015   0.001
 -1.129   0.010  -0.000   0.003  -0.009   1.321  -0.012   0.004   0.014   0.006  -0.013   0.002  -0.004  -0.000   0.004   0.001
  0.010  -1.125   0.017   0.010  -0.029  -0.012   1.334  -0.011  -0.012   0.020   0.015  -0.001   0.000   0.000  -0.001   0.001
  0.000   0.017  -1.385   0.007  -0.030   0.004  -0.011   1.333  -0.006   0.013  -0.003  -0.000  -0.005   0.005   0.000   0.001
  0.003   0.010   0.007  -1.130  -0.006   0.014  -0.012  -0.006   1.321   0.000  -0.013   0.002  -0.000  -0.004   0.004   0.000
 -0.009  -0.030  -0.030  -0.006  -1.350   0.006   0.020   0.013   0.000   1.318   0.005   0.000  -0.002   0.003  -0.001   0.000
  0.010   0.003  -0.000   0.011   0.001  -0.013   0.015  -0.003  -0.013   0.005   2.255  -0.300   0.008   0.008   0.019  -0.001
 -0.002   0.001   0.000  -0.002  -0.000   0.002  -0.001  -0.000   0.002   0.000  -0.300   0.047  -0.000  -0.000   0.002   0.000
  0.020   0.017   0.014   0.003  -0.005  -0.004   0.000  -0.005  -0.000  -0.002   0.008  -0.000   0.298   0.002  -0.000  -0.031
  0.003   0.017  -0.003   0.020  -0.015  -0.000   0.000   0.005  -0.004   0.003   0.008  -0.000   0.002   0.298  -0.000   0.000
 -0.007   0.006  -0.009  -0.007   0.015   0.004  -0.001   0.000   0.004  -0.001   0.019   0.002  -0.000  -0.000   0.300   0.000
 -0.003  -0.001  -0.001  -0.000   0.001   0.001   0.001   0.001   0.000   0.000  -0.001   0.000  -0.031   0.000   0.000   0.004
 -0.000  -0.001  -0.000  -0.003   0.001   0.000   0.001  -0.001   0.001  -0.001  -0.001   0.000   0.000  -0.031   0.000  -0.000
  0.000  -0.000   0.002   0.000  -0.003  -0.001   0.000  -0.000  -0.001   0.001   0.000  -0.000   0.000   0.000  -0.031  -0.000
 total augmentation occupancy for first ion, spin component:           2
  1.130  -0.007  -0.002   0.097  -0.028  -0.616   0.002  -0.003  -0.045   0.013   0.010   0.001  -0.029  -0.002   0.004   0.001
 -0.007   1.225   0.014  -0.006  -0.023   0.002  -0.645  -0.020   0.002   0.034  -0.025  -0.001  -0.030  -0.030  -0.007   0.001
 -0.002   0.014   0.824   0.027  -0.113  -0.003  -0.020  -0.421  -0.011   0.054   0.004  -0.000  -0.019   0.001   0.008   0.001
  0.097  -0.006   0.027   1.130  -0.010  -0.045   0.001  -0.011  -0.617   0.008   0.011   0.001  -0.002  -0.029   0.004   0.000
 -0.028  -0.023  -0.113  -0.010   0.954   0.014   0.034   0.054   0.008  -0.484  -0.008   0.000   0.010   0.022  -0.014  -0.000
 -0.616   0.002  -0.003  -0.045   0.014   0.248   0.000   0.005   0.014  -0.005  -0.008  -0.000   0.013  -0.000  -0.005  -0.002
  0.002  -0.645  -0.020   0.001   0.034   0.000   0.242   0.019   0.001  -0.033   0.013  -0.002   0.017   0.017   0.002  -0.002
 -0.003  -0.020  -0.421  -0.011   0.054   0.005   0.019   0.133   0.003  -0.020  -0.002   0.001   0.013  -0.003  -0.001  -0.001
 -0.045   0.002  -0.011  -0.617   0.008   0.014   0.001   0.003   0.248  -0.006  -0.008  -0.000  -0.000   0.013  -0.005  -0.000
  0.013   0.034   0.054   0.008  -0.484  -0.005  -0.033  -0.020  -0.006   0.156   0.003  -0.001  -0.005  -0.014   0.002   0.000
  0.010  -0.025   0.004   0.011  -0.008  -0.008   0.013  -0.002  -0.008   0.003  -0.174   0.042  -0.004  -0.004  -0.015  -0.000
  0.001  -0.001  -0.000   0.001   0.000  -0.000  -0.002   0.001  -0.000  -0.001   0.042  -0.008  -0.000  -0.000  -0.003   0.000
 -0.029  -0.030  -0.019  -0.002   0.010   0.013   0.017   0.013  -0.000  -0.005  -0.004  -0.000  -0.026   0.001  -0.002   0.002
 -0.002  -0.030   0.001  -0.029   0.022  -0.000   0.017  -0.003   0.013  -0.014  -0.004  -0.000   0.001  -0.026  -0.002  -0.000
  0.004  -0.007   0.008   0.004  -0.014  -0.005   0.002  -0.001  -0.005   0.002  -0.015  -0.003  -0.002  -0.002  -0.026   0.000
  0.001   0.001   0.001   0.000  -0.000  -0.002  -0.002  -0.001  -0.000   0.000  -0.000   0.000   0.002  -0.000   0.000  -0.000
  0.000   0.001  -0.000   0.001  -0.001  -0.000  -0.002   0.000  -0.002   0.001  -0.000   0.000  -0.000   0.002   0.000   0.000
 -0.000   0.000  -0.000  -0.000   0.000   0.000  -0.000   0.000   0.000  -0.001  -0.001   0.000   0.000   0.000   0.002  -0.000


------------------------ aborting loop because EDIFF is reached ----------------------------------------


 


 total charge     
 
# of ion       s       p       d       tot
------------------------------------------
    1        0.499   0.493   8.308   9.299
    2        0.515   0.526   8.313   9.353
    3        0.507   0.509   8.328   9.344
    4        0.508   0.507   8.319   9.335
    5        0.492   0.485   8.316   9.293
    6        0.501   0.494   8.320   9.315
    7        0.510   0.515   8.321   9.347
    8        0.510   0.515   8.314   9.340
    9        0.469   0.493   6.183   7.145
   10        0.472   0.501   6.187   7.160
   11        0.477   0.509   6.211   7.197
   12        0.478   0.510   6.211   7.200
   13        0.471   0.499   6.178   7.148
   14        0.475   0.501   6.203   7.179
   15        0.472   0.502   6.187   7.161
   16        0.466   0.491   6.167   7.124
--------------------------------------------------
tot          7.821   8.052 116.066 131.939
 


 magnetization (x)
 
# of ion       s       p       d       tot
------------------------------------------
    1       -0.021  -0.044   0.691   0.625
    2       -0.030  -0.063   0.726   0.633
    3       -0.021  -0.046   0.639   0.572
    4       -0.026  -0.049   0.680   0.605
    5       -0.016  -0.038   0.639   0.585
    6       -0.021  -0.041   0.666   0.604
    7       -0.026  -0.054   0.687   0.607
    8       -0.025  -0.053   0.706   0.629
    9       -0.004  -0.026   2.653   2.623
   10       -0.002  -0.027   2.650   2.620
   11       -0.008  -0.037   2.545   2.499
   12       -0.013  -0.044   2.547   2.490
   13       -0.003  -0.026   2.683   2.654
   14       -0.008  -0.030   2.595   2.557
   15       -0.007  -0.035   2.642   2.600
   16        0.001  -0.019   2.721   2.703
--------------------------------------------------
tot         -0.229  -0.632  26.469  25.608
 
    CHARGE:  cpu time    0.3689: real time    0.3684
    FORLOC:  cpu time    0.0030: real time    0.0036
    FORNL :  cpu time    3.0895: real time    3.1026
    STRESS:  cpu time    9.3296: real time    9.3755
    FORCOR:  cpu time    0.0460: real time    0.0456
    FORHAR:  cpu time    0.0080: real time    0.0081
    MIXING:  cpu time    0.0030: real time    0.0030
    OFIELD:  cpu time    0.0000: real time    0.0001

  FORCE on cell =-STRESS in cart. coord.  units (eV):
  Direction    XX          YY          ZZ          XY          YZ          ZX
  --------------------------------------------------------------------------------------
  Alpha Z   868.92678   868.92678   868.92678
  Ewald   -4038.62404 -3974.68010 -3974.68007   -20.64218   -65.06888   -20.64220
  Hartree   876.52019   940.02528   940.02480   -19.80225   -67.83639   -19.74984
  E(xc)    -758.80988  -759.29968  -759.29916     0.08053     0.22603     0.07965
  Local     398.71673   267.79634   267.79715    41.09570   134.19113    40.96705
  n-local  -264.66705  -268.00644  -267.99759     0.29279     1.73757     0.35247
  augment  1717.05873  1721.02753  1721.02476    -0.49208    -1.31943    -0.47418
  Kinetic  1200.32039  1203.17595  1203.17444    -0.24532    -0.83911    -0.19183
  Fock        0.00000     0.00000     0.00000     0.00000     0.00000     0.00000
  -------------------------------------------------------------------------------------
  Total      -0.55815    -1.03433    -1.02889     0.28719     1.09093     0.34111
  in kB      -4.90946    -9.09784    -9.05001     2.52608     9.59571     3.00040
  external pressure =       -7.69 kB  Pullay stress =        0.00 kB


 VOLUME and BASIS-vectors are now :
 -----------------------------------------------------------------------------
  energy-cutoff  :      520.00
  volume of cell :      182.15
      direct lattice vectors                 reciprocal lattice vectors
     7.142000000  3.571000000  3.571000000     0.070008401  0.070008401  0.070008401
    -7.142000000  3.571000000  3.571000000    -0.070008401  0.070008401  0.070008401
     0.000000000 -1.785500000  1.785500000     0.000000000 -0.280033604  0.280033604

  length of vectors
     8.747127871  8.747127871  2.525078316     0.121258108  0.121258108  0.396027321


 FORCES acting on ions
    electron-ion (+dipol)            ewald-force                    non-local-force                 convergence-correction
 -----------------------------------------------------------------------------------------------
   -.111E+03 -.501E+02 -.501E+02   0.111E+03 0.502E+02 0.502E+02   -.321E+00 -.778E-01 -.773E-01   0.125E-01 0.310E-02 0.310E-02
   -.348E+02 0.604E+02 0.604E+02   0.348E+02 -.606E+02 -.606E+02   -.846E-02 0.199E+00 0.199E+00   -.530E-02 -.491E-02 -.490E-02
   0.327E+02 0.414E+02 0.414E+02   -.328E+02 -.415E+02 -.415E+02   0.574E-01 0.845E-01 0.844E-01   -.570E-02 -.518E-02 -.518E-02
   0.342E+02 -.103E+03 -.103E+03   -.344E+02 0.103E+03 0.103E+03   0.251E+00 -.217E+00 -.217E+00   -.105E-01 0.612E-02 0.612E-02
   0.256E+02 0.186E+01 0.186E+01   -.258E+02 -.177E+01 -.176E+01   0.180E+00 -.110E+00 -.110E+00   -.470E-02 0.256E-02 0.256E-02
   -.327E+02 0.507E+02 0.507E+02   0.326E+02 -.507E+02 -.507E+02   0.888E-01 -.554E-01 -.556E-01   0.165E-01 -.342E-02 -.342E-02
   0.112E+03 0.253E+01 0.253E+01   -.113E+03 -.257E+01 -.257E+01   0.105E+00 0.374E-01 0.368E-01   0.525E-02 0.311E-02 0.311E-02
   -.366E+02 -.460E+01 -.460E+01   0.369E+02 0.459E+01 0.459E+01   -.316E+00 -.273E-02 -.310E-02   0.114E-01 0.558E-02 0.558E-02
   -.814E+02 -.953E+01 -.953E+01   0.818E+02 0.931E+01 0.931E+01   -.403E+00 0.219E+00 0.219E+00   0.872E-02 -.189E-02 -.189E-02
   0.442E+02 0.156E+02 0.156E+02   -.445E+02 -.154E+02 -.154E+02   0.247E+00 -.186E+00 -.187E+00   0.344E-02 -.497E-02 -.496E-02
   -.258E+02 -.382E+02 -.382E+02   0.258E+02 0.387E+02 0.387E+02   0.768E-02 -.495E+00 -.495E+00   -.562E-02 -.537E-03 -.536E-03
   -.414E+02 -.678E+01 -.678E+01   0.416E+02 0.658E+01 0.658E+01   -.269E+00 0.203E+00 0.203E+00   -.885E-02 -.151E-02 -.151E-02
   -.448E+02 0.965E+02 0.965E+02   0.450E+02 -.967E+02 -.967E+02   -.251E+00 0.243E+00 0.243E+00   -.439E-02 -.522E-02 -.522E-02
   0.269E+02 -.530E+02 -.530E+02   -.268E+02 0.531E+02 0.531E+02   -.110E+00 -.133E+00 -.132E+00   -.315E-02 -.231E-02 -.231E-02
   0.107E+03 0.450E+02 0.450E+02   -.108E+03 -.452E+02 -.452E+02   0.733E+00 0.175E+00 0.175E+00   0.710E-03 0.248E-02 0.248E-02
   0.244E+02 -.488E+02 -.488E+02   -.244E+02 0.488E+02 0.488E+02   -.179E-01 0.730E-01 0.732E-01   -.599E-02 0.847E-02 0.847E-02
 -----------------------------------------------------------------------------------------------
   0.206E-01 0.424E-01 0.423E-01   0.242E-12 0.355E-13 0.163E-12   -.269E-01 -.432E-01 -.431E-01   0.433E-02 0.149E-02 0.150E-02
 
 
 POSITION                                       TOTAL-FORCE (eV/Angst)
 -----------------------------------------------------------------------------------
     -5.34927      1.78945      3.57495         0.008732     -0.011411     -0.011625
     -1.80378      1.78757      3.57307        -0.006985     -0.000129      0.000128
     -1.77562      3.58655      5.37205        -0.019254     -0.001762     -0.001543
     -0.01614      7.12623      7.12623        -0.002862     -0.003685     -0.003549
      0.03098      3.57908      7.15008        -0.001075     -0.010808     -0.010296
      1.77224      3.54477      5.33027         0.008971      0.002993      0.002773
     -3.59254      3.55728      7.12828        -0.003822     -0.002835     -0.003196
      3.59665      3.58774      3.58774         0.008172     -0.003634     -0.003970
      3.54710      3.55802      7.12902         0.001011     -0.003531     -0.003585
     -3.52974      1.80938      5.38038        -0.016125      0.005614      0.005695
     -1.75699     -0.00162      1.78388         0.000578      0.007198      0.006596
     -0.01147      1.80707      1.80707         0.005343     -0.004188     -0.003925
     -0.04977      3.60064      3.60064        -0.004192      0.016287      0.016444
     -5.39322      3.54193      5.32743        -0.004689      0.009799      0.009725
      1.85459      1.79417      3.57968         0.004437      0.004403      0.004590
     -1.80702      5.32573      7.11123         0.021757     -0.004311     -0.004262
 -----------------------------------------------------------------------------------
    total drift:                               -0.001956      0.000748      0.000749


--------------------------------------------------------------------------------------------------------



  FREE ENERGIE OF THE ION-ELECTRON SYSTEM (eV)
  ---------------------------------------------------
  free  energy   TOTEN  =      -109.89545897 eV

  energy  without entropy=     -109.89545897  energy(sigma->0) =     -109.89545897
 


--------------------------------------------------------------------------------------------------------


    POTLOK:  cpu time    0.0540: real time    0.0543


--------------------------------------------------------------------------------------------------------


     LOOP+:  cpu time  323.6798: real time  324.7060
    4ORBIT:  cpu time    0.0000: real time    0.0000
 


 total charge     
 
# of ion       s       p       d       tot
------------------------------------------
    1        0.499   0.493   8.308   9.299
    2        0.515   0.526   8.313   9.353
    3        0.507   0.509   8.328   9.344
    4        0.508   0.507   8.319   9.335
    5        0.492   0.485   8.316   9.293
    6        0.501   0.494   8.320   9.315
    7        0.510   0.515   8.321   9.347
    8        0.510   0.515   8.314   9.340
    9        0.469   0.493   6.183   7.145
   10        0.472   0.501   6.187   7.160
   11        0.477   0.509   6.211   7.197
   12        0.478   0.510   6.211   7.200
   13        0.471   0.499   6.178   7.148
   14        0.475   0.501   6.203   7.179
   15        0.472   0.502   6.187   7.161
   16        0.466   0.491   6.167   7.124
--------------------------------------------------
tot          7.821   8.052 116.066 131.939
 


 magnetization (x)
 
# of ion       s       p       d       tot
------------------------------------------
    1       -0.021  -0.044   0.691   0.625
    2       -0.030  -0.063   0.726   0.633
    3       -0.021  -0.046   0.639   0.572
    4       -0.026  -0.049   0.680   0.605
    5       -0.016  -0.038   0.639   0.585
    6       -0.021  -0.041   0.666   0.604
    7       -0.026  -0.054   0.687   0.607
    8       -0.025  -0.053   0.706   0.629
    9       -0.004  -0.026   2.653   2.623
   10       -0.002  -0.027   2.650   2.620
   11       -0.008  -0.037   2.545   2.499
   12       -0.013  -0.044   2.547   2.490
   13       -0.003  -0.026   2.683   2.654
   14       -0.008  -0.030   2.595   2.557
   15       -0.007  -0.035   2.642   2.600
   16        0.001  -0.019   2.721   2.703
--------------------------------------------------
tot         -0.229  -0.632  26.469  25.608
 
 BZINTS: Fermi energy:  7.461777;144.000000 electrons
         Band energy: 729.456676;  BLOECHL correction: -0.211327

 total amount of memory used by VASP MPI-rank0    69378. kBytes
=======================================================================

   base      :      30000. kBytes
   nonlr-proj:       4765. kBytes
   fftplans  :       1555. kBytes
   grid      :       3823. kBytes
   one-center:         62. kBytes
   wavefun   :      29173. kBytes
 
  
  
 General timing and accounting informations for this job:
 ========================================================
  
                  Total CPU time used (sec):      336.053
                            User time (sec):      328.263
                          System time (sec):        7.790
                         Elapsed time (sec):      337.248
  
                   Maximum memory used (kb):      110352.
                   Average memory used (kb):           0.
  
                          Minor page faults:        13868
                          Major page faults:            0
                 Voluntary context switches:         1727
