SQS-NiFe                                
           1
     7.142000    3.571000    3.571000
    -7.142000    3.571000    3.571000
     0.000000   -1.785500    1.785500
   Ni   Fe
   8   8
Direct configuration=     1
   0.00105968  0.75004768  0.49999983
   0.24900968  0.50156929  0.50000025
   0.50286851  0.75148499  0.50000009
   0.99666281  0.99892245  0.00000000
   0.75330046  0.74896337  0.99999972
   0.74539952  0.49725579  0.49999980
   0.49657044  0.99958674  0.99999999
   0.75413919  0.25054794  0.00000012
   0.99650921  0.49985552  0.99999998
   0.25623239  0.75045574  0.99999989
   0.00176940  0.24777721  0.50000010
   0.25221662  0.25382241  0.00000018
   0.50066592  0.50763437  0.00000007
   0.24335898  0.99850032  0.49999998
   0.50605166  0.24637763  0.50000004
   0.74418555  0.99719856  0.49999996
