       N       E                     dE             d eps       ncg     rms          rms(c)
DAV:   1     0.443573380546E+04    0.44357E+04   -0.24310E+05  8220   0.147E+03
DAV:   2    -0.536534027538E+00   -0.44363E+04   -0.41469E+04  8220   0.339E+02
DAV:   3    -0.406845684102E+03   -0.40631E+03   -0.34760E+03  8553   0.143E+02
DAV:   4    -0.423589175371E+03   -0.16743E+02   -0.16374E+02  8700   0.315E+01
DAV:   5    -0.423890704794E+03   -0.30153E+00   -0.30128E+00  9348   0.355E+00    0.300E-01
RMM:   6    -0.423943922557E+03   -0.53218E-01   -0.14708E-01  8480   0.904E-01    0.522E-01
RMM:   7    -0.423952916862E+03   -0.89943E-02   -0.39013E-02 12359   0.290E-01    0.922E-01
RMM:   8    -0.423949359164E+03    0.35577E-02   -0.30621E-03  8768   0.118E-01    0.544E-01
RMM:   9    -0.423948081228E+03    0.12779E-02   -0.16587E-03  8713   0.883E-02    0.178E-01
RMM:  10    -0.423948204078E+03   -0.12285E-03   -0.35727E-04  8719   0.424E-02    0.170E-01
RMM:  11    -0.423948100662E+03    0.10342E-03   -0.14055E-04  8805   0.259E-02    0.804E-02
RMM:  12    -0.423948125185E+03   -0.24523E-04   -0.48439E-05 11387   0.116E-02    0.783E-02
RMM:  13    -0.423948132736E+03   -0.75504E-05   -0.81340E-06  8714   0.572E-03    0.626E-02
RMM:  14    -0.423948144860E+03   -0.12124E-04   -0.23577E-06  5545   0.359E-03    0.585E-02
RMM:  15    -0.423948175303E+03   -0.30444E-04   -0.41539E-06  6978   0.498E-03    0.414E-02
RMM:  16    -0.423948185178E+03   -0.98744E-05   -0.16893E-06  4961   0.339E-03    0.356E-02
RMM:  17    -0.423948203234E+03   -0.18057E-04   -0.26838E-06  5921   0.402E-03    0.225E-02
RMM:  18    -0.423948205491E+03   -0.22562E-05   -0.71379E-07  4829   0.225E-03    0.204E-02
RMM:  19    -0.423948210268E+03   -0.47773E-05   -0.60231E-07  4776   0.203E-03    0.156E-02
RMM:  20    -0.423948213121E+03   -0.28529E-05   -0.33661E-07  4743   0.143E-03    0.137E-02
RMM:  21    -0.423948218415E+03   -0.52938E-05   -0.79807E-07  4849   0.229E-03    0.645E-03
RMM:  22    -0.423948219733E+03   -0.13186E-05   -0.35636E-07  4787   0.145E-03    0.469E-03
RMM:  23    -0.423948220115E+03   -0.38214E-06   -0.23963E-07  4717   0.134E-03
   1 F= -.43887071E+03 E0= -.43887071E+03  d E =0.000000E+00  mag=   113.8140
