 vasp.5.4.4.18Apr17-6-g9f103f2a35 (build Sep 06 2021 19:49:22) complex          
  
 executed on             LinuxIFC date 2022.01.03  17:31:16
 running on   72 total cores
 distrk:  each k-point on   72 cores,    1 groups
 distr:  one band on NCORES_PER_BAND=  24 cores,    3 groups


--------------------------------------------------------------------------------------------------------


 INCAR:
 POTCAR:    PAW_PBE Ni 02Aug2007                  
 POTCAR:    PAW_PBE Fe 06Sep2000                  

 ----------------------------------------------------------------------------- 
|                                                                             |
|           W    W    AA    RRRRR   N    N  II  N    N   GGGG   !!!           |
|           W    W   A  A   R    R  NN   N  II  NN   N  G    G  !!!           |
|           W    W  A    A  R    R  N N  N  II  N N  N  G       !!!           |
|           W WW W  AAAAAA  RRRRR   N  N N  II  N  N N  G  GGG   !            |
|           WW  WW  A    A  R   R   N   NN  II  N   NN  G    G                |
|           W    W  A    A  R    R  N    N  II  N    N   GGGG   !!!           |
|                                                                             |
|      For optimal performance we recommend to set                            |
|        NCORE= 4 - approx SQRT( number of cores)                             |
|      NCORE specifies how many cores store one orbital (NPAR=cpu/NCORE).     |
|      This setting can  greatly improve the performance of VASP for DFT.     |
|      The default,   NCORE=1            might be grossly inefficient         |
|      on modern multi-core architectures or massively parallel machines.     |
|      Do your own testing !!!!                                               |
|      Unfortunately you need to use the default for GW and RPA calculations. |
|      (for HF NCORE is supported but not extensively tested yet)             |
|                                                                             |
 ----------------------------------------------------------------------------- 

 POTCAR:    PAW_PBE Ni 02Aug2007                  
   VRHFIN =Ni:                                                                  
   LEXCH  = PE                                                                  
   EATOM  =  1077.6739 eV,   79.2068 Ry                                         
                                                                                
   TITEL  = PAW_PBE Ni 02Aug2007                                                
   LULTRA =        F    use ultrasoft PP ?                                      
   IUNSCR =        1    unscreen: 0-lin 1-nonlin 2-no                           
   RPACOR =    2.000    partial core radius                                     
   POMASS =   58.690; ZVAL   =   10.000    mass and valenz                      
   RCORE  =    2.300    outmost cutoff radius                                   
   RWIGS  =    2.430; RWIGS  =    1.286    wigner-seitz radius (au A)           
   ENMAX  =  269.532; ENMIN  =  202.149 eV                                      
   RCLOC  =    1.201    cutoff for local pot                                    
   LCOR   =        T    correct aug charges                                     
   LPAW   =        T    paw PP                                                  
   EAUG   =  544.565                                                            
   DEXC   =    0.000                                                            
   RMAX   =    2.357    core radius for proj-oper                               
   RAUG   =    1.300    factor for augmentation sphere                          
   RDEP   =    2.390    radius for radial grids                                 
   RDEPT  =    1.838    core radius for aug-charge                              
                                                                                
   Atomic configuration                                                         
    9 entries                                                                   
     n  l   j            E        occ.                                          
     1  0  0.50     -8206.4253   2.0000                                         
     2  0  0.50      -976.1748   2.0000                                         
     2  1  1.50      -839.0571   6.0000                                         
     3  0  0.50      -105.9991   2.0000                                         
     3  1  1.50       -66.4603   6.0000                                         
     3  2  2.50        -4.6458   9.0000                                         
     4  0  0.50        -4.4926   1.0000                                         
     4  1  1.50        -4.0817   0.0000                                         
     4  3  2.50        -1.3606   0.0000                                         
   Description                                                                  
     l       E           TYP  RCUT    TYP  RCUT                                 
     2     -4.6457903     23  2.300                                             
     2     -6.0063729     23  2.300                                             
     0     -4.4925590     23  2.300                                             
     0      5.0102601     23  2.300                                             
     1     -2.7211652     23  2.300                                             
     1     16.5183231     23  2.300                                             
  local pseudopotential read in
  partial core-charges read in
  partial kinetic energy density read in
  atomic valenz-charges read in
  non local Contribution for L=           2  read in
    real space projection operators read in
  non local Contribution for L=           2  read in
    real space projection operators read in
  non local Contribution for L=           0  read in
    real space projection operators read in
  non local Contribution for L=           0  read in
    real space projection operators read in
  non local Contribution for L=           1  read in
    real space projection operators read in
  non local Contribution for L=           1  read in
    real space projection operators read in
    PAW grid and wavefunctions read in
 
   number of l-projection  operators is LMAX  =           6
   number of lm-projection operators is LMMAX =          18
 
 POTCAR:    PAW_PBE Fe 06Sep2000                  
   VRHFIN =Fe:  d7 s1                                                           
   LEXCH  = PE                                                                  
   EATOM  =   594.3153 eV,   43.6809 Ry                                         
                                                                                
   TITEL  = PAW_PBE Fe 06Sep2000                                                
   LULTRA =        F    use ultrasoft PP ?                                      
   IUNSCR =        1    unscreen: 0-lin 1-nonlin 2-no                           
   RPACOR =    2.000    partial core radius                                     
   POMASS =   55.847; ZVAL   =    8.000    mass and valenz                      
   RCORE  =    2.300    outmost cutoff radius                                   
   RWIGS  =    2.460; RWIGS  =    1.302    wigner-seitz radius (au A)           
   ENMAX  =  267.882; ENMIN  =  200.911 eV                                      
   RCLOC  =    1.701    cutoff for local pot                                    
   LCOR   =        T    correct aug charges                                     
   LPAW   =        T    paw PP                                                  
   EAUG   =  511.368                                                            
   DEXC   =    0.000                                                            
   RMAX   =    2.356    core radius for proj-oper                               
   RAUG   =    1.300    factor for augmentation sphere                          
   RDEP   =    2.442    radius for radial grids                                 
   RDEPT  =    1.890    core radius for aug-charge                              
                                                                                
   Atomic configuration                                                         
    9 entries                                                                   
     n  l   j            E        occ.                                          
     1  0  0.50     -6993.8440   2.0000                                         
     2  0  0.50      -814.6047   2.0000                                         
     2  1  1.50      -693.3689   6.0000                                         
     3  0  0.50       -89.4732   2.0000                                         
     3  1  1.50       -55.6373   6.0000                                         
     3  2  2.50        -3.8151   7.0000                                         
     4  0  0.50        -4.2551   1.0000                                         
     4  1  1.50        -3.4015   0.0000                                         
     4  3  2.50        -1.3606   0.0000                                         
   Description                                                                  
     l       E           TYP  RCUT    TYP  RCUT                                 
     2     -3.8151135     23  2.300                                             
     2     -5.1756961     23  2.300                                             
     0     -4.2550963     23  2.300                                             
     0      7.2035603     23  2.300                                             
     1     -2.7211652     23  2.300                                             
     1     18.4316424     23  2.300                                             
  local pseudopotential read in
  partial core-charges read in
  partial kinetic energy density read in
  atomic valenz-charges read in
  non local Contribution for L=           2  read in
    real space projection operators read in
  non local Contribution for L=           2  read in
    real space projection operators read in
  non local Contribution for L=           0  read in
    real space projection operators read in
  non local Contribution for L=           0  read in
    real space projection operators read in
  non local Contribution for L=           1  read in
    real space projection operators read in
  non local Contribution for L=           1  read in
    real space projection operators read in
    PAW grid and wavefunctions read in
 
   number of l-projection  operators is LMAX  =           6
   number of lm-projection operators is LMMAX =          18
 
 Optimization of the real space projectors (new method)

 maximal supplied QI-value         = 16.25
 optimisation between [QCUT,QGAM] = [ 11.54, 23.24] = [ 37.28,151.24] Ry 
 Optimized for a Real-space Cutoff    1.45 Angstroem

   l    n(q)    QCUT    max X(q) W(low)/X(q) W(high)/X(q)  e(spline) 
   2      9    11.539    60.317    0.19E-03    0.47E-04    0.16E-06
   2      9    11.539    55.921    0.19E-03    0.48E-04    0.16E-06
   0     10    11.539    51.690    0.80E-04    0.50E-04    0.24E-06
   0     10    11.539    30.015    0.73E-04    0.45E-04    0.22E-06
   1     10    11.539    18.849    0.87E-04    0.16E-03    0.71E-07
   1     10    11.539    14.624    0.73E-04    0.13E-03    0.64E-07
 Optimization of the real space projectors (new method)

 maximal supplied QI-value         = 16.25
 optimisation between [QCUT,QGAM] = [ 11.54, 23.24] = [ 37.28,151.24] Ry 
 Optimized for a Real-space Cutoff    1.53 Angstroem

   l    n(q)    QCUT    max X(q) W(low)/X(q) W(high)/X(q)  e(spline) 
   2     10    11.539    80.901    0.11E-03    0.14E-03    0.21E-06
   2     10    11.539    75.754    0.11E-03    0.14E-03    0.22E-06
   0     11    11.539    58.752    0.52E-04    0.18E-04    0.33E-06
   0     11    11.539    30.679    0.44E-04    0.16E-04    0.30E-06
   1     10    11.539    17.977    0.53E-04    0.29E-04    0.13E-06
   1     10    11.539    13.559    0.44E-04    0.25E-04    0.11E-06
  PAW_PBE Ni 02Aug2007                  :
 energy of atom  1       EATOM=-1077.6739
 kinetic energy error for atom=    0.0030 (will be added to EATOM!!)
  PAW_PBE Fe 06Sep2000                  :
 energy of atom  2       EATOM= -594.3153
 kinetic energy error for atom=    0.0026 (will be added to EATOM!!)
 
 
 POSCAR: POSCAR                                  
  positions in direct lattice
  velocities in cartesian coordinates
 exchange correlation table for  LEXCH =        8
   RHO(1)=    0.500       N(1)  =     2000
   RHO(2)=  100.500       N(2)  =     4000
 


--------------------------------------------------------------------------------------------------------


 ion  position               nearest neighbor table
   1  0.000  0.002  0.289-  32 2.48  29 2.50  24 2.51  34 2.52  37 2.52  57 2.52   5 2.52   2 2.52
                             4 2.52  63 2.53  21 2.54  30 2.54
   2  0.248  0.999  0.290-  46 2.46   7 2.46  57 2.47  34 2.48  33 2.50  27 2.51  21 2.52   1 2.52
                             3 2.53   5 2.53  59 2.53   9 2.54
   3  0.501  0.004  0.291-  59 2.47  33 2.48   8 2.50  30 2.51  28 2.52  12 2.52   9 2.53   2 2.53
                            46 2.54  47 2.54  36 2.56  61 2.59
   4  1.000  0.251  0.290-  32 2.47  38 2.49  20 2.49  13 2.50  11 2.50  37 2.52   1 2.52   8 2.52
                            44 2.53  30 2.53   5 2.54  40 2.56
   5  0.251  0.250  0.289-  32 2.48   7 2.49  44 2.49  34 2.49  33 2.50   1 2.52  38 2.52  17 2.53
                             2 2.53  43 2.54  41 2.54   4 2.54
   6  0.334  0.165  0.096-  42 2.50  15 2.51   9 2.51  58 2.52  34 2.52  17 2.52  35 2.54  56 2.54
                            31 2.54
   7  0.335  0.165  0.383-  33 2.42   2 2.46   5 2.49  59 2.50  43 2.51  57 2.52  36 2.53  16 2.54
                            32 2.55
   8  0.750  0.251  0.291-  19 2.44  36 2.48  11 2.48   3 2.50  45 2.51  30 2.51  14 2.52  13 2.52
                             4 2.52  12 2.53  33 2.54  20 2.55
   9  0.418  0.084  0.193-  58 2.49  34 2.49   6 2.51  17 2.51  12 2.52  33 2.52  28 2.53   3 2.53
                            27 2.53  35 2.53   2 2.54  45 2.56
  10  0.832  0.166  0.098-  37 2.48  39 2.48  35 2.49  12 2.50  60 2.51  18 2.52  20 2.52  31 2.54
                            62 2.55
  11  0.832  0.164  0.385-  30 2.44   8 2.48  36 2.50   4 2.50  61 2.51  40 2.51  32 2.53  19 2.54
                            63 2.55
  12  0.668  0.085  0.194-  60 2.49  10 2.50  37 2.51  45 2.51   9 2.52   3 2.52  30 2.53  20 2.53
                             8 2.53  28 2.54  35 2.54  64 2.54
  13  0.001  0.499  0.291-  19 2.46  23 2.47  50 2.48  38 2.48   4 2.50  20 2.51  40 2.51   8 2.52
                            46 2.54  21 2.54  14 2.54  26 2.55
  14  0.750  0.500  0.290-  54 2.47  19 2.48  45 2.48  16 2.48  41 2.50  26 2.50  55 2.50  24 2.52
                            21 2.52   8 2.52  13 2.54  33 2.56
  15  0.583  0.413  0.097-  42 2.47  35 2.49  53 2.49  17 2.49  18 2.50   6 2.51  45 2.54  55 2.55
                            51 2.56
  16  0.585  0.418  0.384-  36 2.48  41 2.48  14 2.48  54 2.49  33 2.50  43 2.50  19 2.52   7 2.54
                            52 2.55
  17  0.420  0.333  0.193-  42 2.48  15 2.49   9 2.51  34 2.52  55 2.52   6 2.52  33 2.53   5 2.53
                            44 2.53  41 2.54  25 2.54  45 2.54
  18  0.831  0.415  0.098-  39 2.45  53 2.47  35 2.47  45 2.47  15 2.50  20 2.51  10 2.52  26 2.52
                            22 2.53
  19  0.834  0.416  0.383-   8 2.44  36 2.44  13 2.46  40 2.47  54 2.47  14 2.48  16 2.52  11 2.54
                            23 2.54
  20  0.919  0.335  0.194-  39 2.47  45 2.49   4 2.49  13 2.51  37 2.51  18 2.51  50 2.51  10 2.52
                            12 2.53  26 2.54  44 2.54   8 2.55
  21  0.999  0.750  0.290-  57 2.47  54 2.48  46 2.48  24 2.49  29 2.49  23 2.49  26 2.51  14 2.52
                             2 2.52  27 2.54   1 2.54  13 2.54
  22  0.082  0.666  0.097-  39 2.49  53 2.50  56 2.51  27 2.52  26 2.52  50 2.53  18 2.53  58 2.54
                            48 2.54
  23  0.086  0.667  0.384-  46 2.43  13 2.47  40 2.49  21 2.49  49 2.51  54 2.51  57 2.52  19 2.54
                            59 2.56
  24  0.753  0.751  0.291-  21 2.49  54 2.50  64 2.51  63 2.51   1 2.51  14 2.52  29 2.52  41 2.53
                            55 2.53  52 2.55  30 2.55  47 2.57
  25  0.417  0.584  0.195-  44 2.49  48 2.49  41 2.50  55 2.52  28 2.52  47 2.53  64 2.53  17 2.54
                            42 2.55  51 2.55  50 2.57  38 2.58
  26  0.916  0.585  0.194-  45 2.48  29 2.48  53 2.50  14 2.50  55 2.50  21 2.51  50 2.51  22 2.52
                            18 2.52  27 2.53  20 2.54  13 2.55
  27  0.167  0.835  0.193-  29 2.48  34 2.49  58 2.49  50 2.50   2 2.51  46 2.51  22 2.52   9 2.53
                            26 2.53  21 2.54  28 2.54  56 2.54
  28  0.417  0.833  0.195-  47 2.50  60 2.51   3 2.52  46 2.52  50 2.52  58 2.52  25 2.52   9 2.53
                            48 2.53  12 2.54  27 2.54  64 2.54
  29  0.920  0.833  0.194-  27 2.48  26 2.48  21 2.49   1 2.50  24 2.52  55 2.53  34 2.54  62 2.54
                            64 2.54  56 2.55  53 2.57  37 2.57
  30  0.749  0.002  0.292-  11 2.44   8 2.51   3 2.51  47 2.53  12 2.53   4 2.53  64 2.53   1 2.54
                            63 2.55  24 2.55  61 2.57  37 2.58
  31  0.085  0.169  0.094-  42 2.53  10 2.54  39 2.54   6 2.54  62 2.55  56 2.56  37 2.56  44 2.59
                            34 2.61
  32  0.084  0.169  0.383-   4 2.47   5 2.48   1 2.48  43 2.50  11 2.53  63 2.53  40 2.53   7 2.55
                            57 2.56
  33  0.496  0.247  0.290-   7 2.42   3 2.48   5 2.50  16 2.50   2 2.50   9 2.52  17 2.53  36 2.53
                            41 2.54   8 2.54  45 2.56  14 2.56
  34  0.171  0.083  0.194-   2 2.48  27 2.49   9 2.49   5 2.49  17 2.52   1 2.52   6 2.52  29 2.54
                            44 2.57  56 2.58  37 2.58  31 2.61
  35  0.588  0.169  0.096-  18 2.47  10 2.49  15 2.49  60 2.51   9 2.53  12 2.54   6 2.54  45 2.55
                            58 2.56
  36  0.591  0.176  0.388-  19 2.44  16 2.48   8 2.48  11 2.50  33 2.53   7 2.53  59 2.56   3 2.56
                            61 2.56
  37  0.917  0.086  0.193-  10 2.48  20 2.51  12 2.51   1 2.52   4 2.52  64 2.53  62 2.54  44 2.55
                            31 2.56  29 2.57  30 2.58  34 2.58
  38  0.246  0.497  0.293-  13 2.48   4 2.49  43 2.52  40 2.52   5 2.52  49 2.53  44 2.53  50 2.55
                            47 2.56  41 2.58  25 2.58  46 2.60
  39  0.074  0.415  0.097-  18 2.45  20 2.47  10 2.48  22 2.49  31 2.54  48 2.55  44 2.56  50 2.58
                            42 2.67
  40  0.077  0.416  0.389-  19 2.47  23 2.49  13 2.51  11 2.51  38 2.52  32 2.53  49 2.54   4 2.56
                            43 2.62
  41  0.503  0.501  0.290-  16 2.48  14 2.50  25 2.50  55 2.50  24 2.53  17 2.54  33 2.54   5 2.54
                            47 2.54  43 2.55  38 2.58  52 2.59
  42  0.339  0.415  0.097-  15 2.47  17 2.48   6 2.50  51 2.52  31 2.53  48 2.54  44 2.54  25 2.55
                            39 2.67
  43  0.335  0.413  0.387-  32 2.50  16 2.50   7 2.51  38 2.52   5 2.54  49 2.54  41 2.55  52 2.59
                            40 2.62
  44  0.171  0.337  0.194-  25 2.49   5 2.49   4 2.53  17 2.53  38 2.53  20 2.54  42 2.54  50 2.55
                            37 2.55  39 2.56  34 2.57  31 2.59
  45  0.673  0.336  0.195-  18 2.47  26 2.48  14 2.48  20 2.49   8 2.51  12 2.51  55 2.53  15 2.54
                            17 2.54  35 2.55   9 2.56  33 2.56
  46  0.247  0.755  0.291-  23 2.43   2 2.46  21 2.48  59 2.49  50 2.51  27 2.51  28 2.52  13 2.54
                             3 2.54  47 2.57  38 2.60  49 2.62
  47  0.499  0.751  0.291-  28 2.50  30 2.53  25 2.53  64 2.53  41 2.54   3 2.54  52 2.55  38 2.56
                            49 2.56  46 2.57  24 2.57  61 2.58
  48  0.332  0.663  0.099-  25 2.49  50 2.52  28 2.53  51 2.54  42 2.54  22 2.54  58 2.55  39 2.55
                            60 2.56
  49  0.333  0.664  0.390-  23 2.51  38 2.53  52 2.54  40 2.54  43 2.54  61 2.54  59 2.56  47 2.56
                            46 2.62
  50  0.165  0.586  0.196-  13 2.48  27 2.50  46 2.51  26 2.51  20 2.51  28 2.52  48 2.52  22 2.53
                            44 2.55  38 2.55  25 2.57  39 2.58
  51  0.586  0.668  0.097-  62 2.50  55 2.52  42 2.52  53 2.52  48 2.54  64 2.54  60 2.55  25 2.55
                            15 2.56
  52  0.588  0.672  0.389-  63 2.49  61 2.52  49 2.54  47 2.55  24 2.55  54 2.55  16 2.55  43 2.59
                            41 2.59
  53  0.831  0.659  0.097-  18 2.47  15 2.49  26 2.50  22 2.50  55 2.52  51 2.52  56 2.56  62 2.57
                            29 2.57
  54  0.834  0.661  0.385-  19 2.47  14 2.47  21 2.48  16 2.49  24 2.50  23 2.51  63 2.55  57 2.55
                            52 2.55
  55  0.668  0.584  0.194-  26 2.50  41 2.50  14 2.50  64 2.51  53 2.52  17 2.52  51 2.52  25 2.52
                            29 2.53  24 2.53  45 2.53  15 2.55
  56  0.082  0.914  0.095-  62 2.51  22 2.51  58 2.53  27 2.54   6 2.54  29 2.55  53 2.56  31 2.56
                            34 2.58
  57  0.085  0.916  0.384-   2 2.47  21 2.47  63 2.49  23 2.52   1 2.52   7 2.52  59 2.55  54 2.55
                            32 2.56
  58  0.334  0.916  0.098-   9 2.49  27 2.49  60 2.49   6 2.52  28 2.52  56 2.53  22 2.54  48 2.55
                            35 2.56
  59  0.340  0.920  0.386-  61 2.46   3 2.47  46 2.49   7 2.50   2 2.53  57 2.55  36 2.56  49 2.56
                            23 2.56
  60  0.582  0.919  0.099-  12 2.49  58 2.49  35 2.51  28 2.51  10 2.51  64 2.54  51 2.55  48 2.56
                            62 2.57
  61  0.582  0.918  0.391-  59 2.46  11 2.51  52 2.52  49 2.54  36 2.56  30 2.57  47 2.58   3 2.59
                            63 2.61
  62  0.834  0.914  0.097-  51 2.50  56 2.51  37 2.54  29 2.54  10 2.55  64 2.55  31 2.55  60 2.57
                            53 2.57
  63  0.838  0.915  0.387-  57 2.49  52 2.49  24 2.51  32 2.53   1 2.53  54 2.55  11 2.55  30 2.55
                            61 2.61
  64  0.668  0.834  0.195-  24 2.51  55 2.51  47 2.53  37 2.53  25 2.53  30 2.53  60 2.54  28 2.54
                            12 2.54  51 2.54  29 2.54  62 2.55
 

IMPORTANT INFORMATION: All symmetrisations will be switched off!
NOSYMM: (Re-)initialisation of all symmetry stuff for point group C_1.

 
 

Automatic generation of k-mesh.
 generate k-points for:    3    3    1
Space group operators:
 irot       det(A)        alpha          n_x          n_y          n_z        tau_x        tau_y        tau_z
    1     1.000000     0.000001     1.000000     0.000000     0.000000     0.000000     0.000000     0.000000
 
 Subroutine IBZKPT returns following result:
 ===========================================
 
 Found      5 irreducible k-points:
 
 Following reciprocal coordinates:
            Coordinates               Weight
  0.000000  0.000000  0.000000      1.000000
  0.333333  0.000000  0.000000      2.000000
  0.000000  0.333333  0.000000      2.000000
  0.333333  0.333333  0.000000      2.000000
 -0.333333  0.333333  0.000000      2.000000
 
 Following cartesian coordinates:
            Coordinates               Weight
  0.000000  0.000000  0.000000      1.000000
  0.033002  0.019054  0.000000      2.000000
  0.000000  0.038108  0.000000      2.000000
  0.033002  0.057162  0.000000      2.000000
 -0.033002  0.019054  0.000000      2.000000
 
 TETIRR: Found     24 inequivalent tetrahedra from       54


--------------------------------------------------------------------------------------------------------




 Dimension of arrays:
   k-points           NKPTS =      5   k-points in BZ     NKDIM =      5   number of bands    NBANDS=    411
   number of dos      NEDOS =    301   number of ions     NIONS =     64
   non local maximal  LDIM  =      6   non local SUM 2l+1 LMDIM =     18
   total plane-waves  NPLWV = ******
   max r-space proj   IRMAX =   8274   max aug-charges    IRDMAX=  19579
   dimension x,y,z NGX =    80 NGY =   80 NGZ =  160
   dimension x,y,z NGXF=   160 NGYF=  160 NGZF=  320
   support grid    NGXF=   160 NGYF=  160 NGZF=  320
   ions per type =              29  35
   NGX,Y,Z   is equivalent  to a cutoff of  13.17, 13.17, 12.49 a.u.
   NGXF,Y,Z  is equivalent  to a cutoff of  26.34, 26.34, 24.97 a.u.

 SYSTEM =  SQS-NiFe                                
 POSCAR =  POSCAR                                  

 Startparameter for this run:
   NWRITE =      2    write-flag & timer
   PREC   = accura    normal or accurate (medium, high low for compatibility)
   ISTART =      0    job   : 0-new  1-cont  2-samecut
   ICHARG =      1    charge: 1-file 2-atom 10-const
   ISPIN  =      2    spin polarized calculation?
   LNONCOLLINEAR =      F non collinear calculations
   LSORBIT =      F    spin-orbit coupling
   INIWAV =      1    electr: 0-lowe 1-rand  2-diag
   LASPH  =      F    aspherical Exc in radial PAW
   METAGGA=      F    non-selfconsistent MetaGGA calc.

 Electronic Relaxation 1
   ENCUT  =  520.0 eV  38.22 Ry    6.18 a.u.  18.78 18.78 39.61*2*pi/ulx,y,z
   ENINI  =  520.0     initial cutoff
   ENAUG  =  544.6 eV  augmentation charge cutoff
   NELM   =    200;   NELMIN=  2; NELMDL= -5     # of ELM steps 
   EDIFF  = 0.1E-05   stopping-criterion for ELM
   LREAL  =      T    real-space projection
   NLSPLINE    = F    spline interpolate recip. space projectors
   LCOMPAT=      F    compatible to vasp.4.4
   GGA_COMPAT  = T    GGA compatible to vasp.4.4-vasp.4.6
   LMAXPAW     = -100 max onsite density
   LMAXMIX     =    2 max onsite mixed and CHGCAR
   VOSKOWN=      0    Vosko Wilk Nusair interpolation
   ROPT   =   -0.00025  -0.00025
 Ionic relaxation
   EDIFFG = -.2E-01   stopping-criterion for IOM
   NSW    =      0    number of steps for IOM
   NBLOCK =      1;   KBLOCK =      1    inner block; outer block 
   IBRION =     -1    ionic relax: 0-MD 1-quasi-New 2-CG
   NFREE  =      0    steps in history (QN), initial steepest desc. (CG)
   ISIF   =      2    stress and relaxation
   IWAVPR =     10    prediction:  0-non 1-charg 2-wave 3-comb
   ISYM   =      0    0-nonsym 1-usesym 2-fastsym
   LCORR  =      T    Harris-Foulkes like correction to forces

   POTIM  = 0.5000    time-step for ionic-motion
   TEIN   =    0.0    initial temperature
   TEBEG  =    0.0;   TEEND  =   0.0 temperature during run
   SMASS  =  -3.00    Nose mass-parameter (am)
   estimated Nose-frequenzy (Omega)   =  0.10E-29 period in steps =****** mass=  -0.233E-26a.u.
   SCALEE = 1.0000    scale energy and forces
   NPACO  =    256;   APACO  = 16.0  distance and # of slots for P.C.
   PSTRESS=    0.0 pullay stress

  Mass of Ions in am
   POMASS =  58.69 55.85
  Ionic Valenz
   ZVAL   =  10.00  8.00
  Atomic Wigner-Seitz radii
   RWIGS  =  -1.00 -1.00
  virtual crystal weights 
   VCA    =   1.00  1.00
   NELECT =     570.0000    total number of electrons
   NUPDOWN=      -1.0000    fix difference up-down

 DOS related values:
   EMIN   =  10.00;   EMAX   =-10.00  energy-range for DOS
   EFERMI =   0.00
   ISMEAR =    -5;   SIGMA  =   0.20  broadening in eV -4-tet -1-fermi 0-gaus

 Electronic relaxation 2 (details)
   IALGO  =     68    algorithm
   LDIAG  =      T    sub-space diagonalisation (order eigenvalues)
   LSUBROT=      F    optimize rotation matrix (better conditioning)
   TURBO    =      0    0=normal 1=particle mesh
   IRESTART =      0    0=no restart 2=restart with 2 vectors
   NREBOOT  =      0    no. of reboots
   NMIN     =      0    reboot dimension
   EREF     =   0.00    reference energy to select bands
   IMIX   =      4    mixing-type and parameters
     AMIX     =   0.40;   BMIX     =  1.00
     AMIX_MAG =   1.60;   BMIX_MAG =  1.00
     AMIN     =   0.10
     WC   =   100.;   INIMIX=   1;  MIXPRE=   1;  MAXMIX= -45

 Intra band minimization:
   WEIMIN = 0.0000     energy-eigenvalue tresh-hold
   EBREAK =  0.61E-09  absolut break condition
   DEPER  =   0.30     relativ break condition  

   TIME   =   0.40     timestep for ELM

  volume/ion in A,a.u.               =      29.41       198.44
  Fermi-wavevector in a.u.,A,eV,Ry     =   1.099415  2.077594 16.445550  1.208714
  Thomas-Fermi vector in A             =   2.235809
 
 Write flags
   LWAVE        =      F    write WAVECAR
   LDOWNSAMPLE  =      F    k-point downsampling of WAVECAR
   LCHARG       =      F    write CHGCAR
   LVTOT        =      F    write LOCPOT, total local potential
   LVHAR        =      F    write LOCPOT, Hartree potential only
   LELF         =      F    write electronic localiz. function (ELF)
   LORBIT       =     11    0 simple, 1 ext, 2 COOP (PROOUT), +10 PAW based schemes


 Dipole corrections
   LMONO  =      F    monopole corrections only (constant potential shift)
   LDIPOL =      T    correct potential (dipole corrections)
   IDIPOL =      3    1-x, 2-y, 3-z, 4-all directions 
   EPSILON=  1.0000000 bulk dielectric constant

 Exchange correlation treatment:
   GGA     =    --    GGA type
   LEXCH   =     8    internal setting for exchange type
   VOSKOWN=      0    Vosko Wilk Nusair interpolation
   LHFCALC =     F    Hartree Fock is set to
   LHFONE  =     F    Hartree Fock one center treatment
   AEXX    =    0.0000 exact exchange contribution

 Linear response parameters
   LEPSILON=     F    determine dielectric tensor
   LRPA    =     F    only Hartree local field effects (RPA)
   LNABLA  =     F    use nabla operator in PAW spheres
   LVEL    =     F    velocity operator in full k-point grid
   LINTERFAST=   F  fast interpolation
   KINTER  =     0    interpolate to denser k-point grid
   CSHIFT  =0.1000    complex shift for real part using Kramers Kronig
   OMEGAMAX=  -1.0    maximum frequency
   DEG_THRESHOLD= 0.2000000E-02 threshold for treating states as degnerate
   RTIME   =   -0.100 relaxation time in fs
  (WPLASMAI=    0.000 imaginary part of plasma frequency in eV, 0.658/RTIME)
   DFIELD  = 0.0000000 0.0000000 0.0000000 field for delta impulse in time
 
 Orbital magnetization related:
   ORBITALMAG=     F  switch on orbital magnetization
   LCHIMAG   =     F  perturbation theory with respect to B field
   DQ        =  0.001000  dq finite difference perturbation B field
   LLRAUG    =     F  two centre corrections for induced B field



--------------------------------------------------------------------------------------------------------


 Static calculation
 charge density and potential will be updated during run
 spin polarized calculation
 RMM-DIIS sequential band-by-band and
  variant of blocked Davidson during initial phase
 perform sub-space diagonalisation
    before iterative eigenvector-optimisation
 modified Broyden-mixing scheme, WC =      100.0
 initial mixing is a Kerker type mixing with AMIX =  0.4000 and BMIX =      1.0000
 Hartree-type preconditioning will be used
 using additional bands          126
 real space projection scheme for non local part
 use partial core corrections
 calculate Harris-corrections to forces 
   (improved forces if not selfconsistent)
 use gradient corrections 
 use of overlap-Matrix (Vanderbilt PP)
 Fermi weights with tetrahedron method with Bloechl corrections


--------------------------------------------------------------------------------------------------------


  energy-cutoff  :      520.00
  volume of cell :     1881.98
      direct lattice vectors                 reciprocal lattice vectors
    10.100310000  0.000000000  0.000000000     0.099006862  0.057161638  0.000000000
    -5.050155000  8.747125050  0.000000000     0.000000000  0.114323277  0.000000000
     0.000000000  0.000000000 21.301690600     0.000000000  0.000000000  0.046944631

  length of vectors
    10.100310000 10.100310003 21.301690600     0.114323277  0.114323277  0.046944631


 
 k-points in units of 2pi/SCALE and weight: read from INCAR                         
   0.00000000  0.00000000  0.00000000       0.111
   0.03300229  0.01905388  0.00000000       0.222
   0.00000000  0.03810776  0.00000000       0.222
   0.03300229  0.05716164  0.00000000       0.222
  -0.03300229  0.01905388  0.00000000       0.222
 
 k-points in reciprocal lattice and weights: read from INCAR                         
   0.00000000  0.00000000  0.00000000       0.111
   0.33333333  0.00000000  0.00000000       0.222
   0.00000000  0.33333333  0.00000000       0.222
   0.33333333  0.33333333  0.00000000       0.222
  -0.33333333  0.33333333  0.00000000       0.222
 
 position of ions in fractional coordinates (direct lattice) 
   0.00002491  0.00157192  0.28884509
   0.24840929  0.99880504  0.28958172
   0.50096960  0.00379305  0.29060861
   0.99964465  0.25121572  0.28963072
   0.25066981  0.25009060  0.28885923
   0.33446800  0.16514600  0.09636487
   0.33496497  0.16516236  0.38285997
   0.74950265  0.25068365  0.29148649
   0.41837500  0.08394000  0.19264317
   0.83203200  0.16588400  0.09821039
   0.83184725  0.16422197  0.38486195
   0.66797000  0.08472300  0.19421489
   0.00093027  0.49899301  0.29081887
   0.74963897  0.50026306  0.28953721
   0.58310200  0.41320400  0.09683844
   0.58475374  0.41773173  0.38444939
   0.41961000  0.33337100  0.19266495
   0.83119700  0.41475900  0.09842584
   0.83350004  0.41645883  0.38346807
   0.91855900  0.33501600  0.19420908
   0.99882332  0.74966461  0.29011353
   0.08195100  0.66570400  0.09747927
   0.08626868  0.66704355  0.38410853
   0.75320424  0.75118201  0.29069871
   0.41737300  0.58352400  0.19475466
   0.91550800  0.58461900  0.19395095
   0.16682900  0.83490800  0.19309090
   0.41715300  0.83338800  0.19531186
   0.91985100  0.83263700  0.19392075
   0.74863750  0.00154921  0.29185211
   0.08475800  0.16932700  0.09388926
   0.08422156  0.16901438  0.38296856
   0.49610340  0.24662106  0.29043757
   0.17139600  0.08339300  0.19388126
   0.58776100  0.16931300  0.09618717
   0.59060578  0.17565665  0.38772357
   0.91693100  0.08581500  0.19262604
   0.24594166  0.49737887  0.29312410
   0.07438400  0.41509600  0.09744675
   0.07711551  0.41599063  0.38888499
   0.50274732  0.50110644  0.28972324
   0.33917200  0.41514500  0.09699001
   0.33479402  0.41309223  0.38745645
   0.17081400  0.33724200  0.19402731
   0.67264700  0.33598100  0.19452441
   0.24713932  0.75497435  0.29090726
   0.49908954  0.75097396  0.29135772
   0.33208500  0.66262100  0.09936022
   0.33258682  0.66360704  0.39032888
   0.16470600  0.58627100  0.19584874
   0.58579400  0.66826100  0.09684048
   0.58772359  0.67194612  0.38902423
   0.83088100  0.65877500  0.09658990
   0.83449940  0.66106946  0.38478658
   0.66762500  0.58426200  0.19372156
   0.08235500  0.91427100  0.09464942
   0.08493504  0.91561237  0.38406719
   0.33394400  0.91584300  0.09825017
   0.33980517  0.92045248  0.38576392
   0.58231600  0.91865200  0.09902340
   0.58151263  0.91800194  0.39133109
   0.83419400  0.91449400  0.09650569
   0.83813477  0.91511588  0.38736462
   0.66841400  0.83351100  0.19511790
 
 position of ions in cartesian coordinates  (Angst):
  -0.00768687  0.01374976  6.15288867
  -2.53510940  8.73667257  6.16858017
   5.04079275  0.03317830  6.19045464
   8.82804254  2.19741534  6.16962390
   1.26884652  2.18757378  6.15318991
   2.54421759  1.44455271  2.05273465
   2.54915450  1.44469578  8.15556464
   6.30421783  2.19276123  6.20915510
   3.80180719  0.73423368  4.10362520
   7.56604122  1.45100809  2.09204734
   7.57256864  1.43647015  8.19821020
   6.31883979  0.74108268  4.13710550
  -2.51059600  4.36475426  6.19493353
   5.04518003  4.37586354  6.16763213
   3.80276671  3.61434706  2.06282249
   3.79658405  3.65395171  8.18942193
   2.55461586  2.91603783  4.10408915
   6.30075013  3.62794884  2.09663679
   6.31542714  3.64281745  8.16851809
   7.58584793  2.93042685  4.13698173
   6.30250272  6.55741006  6.17990857
  -2.53417788  5.82299613  2.07647325
  -2.49733293  5.83471338  8.18216104
   3.81401076  6.57068298  6.19237389
   1.26871004  5.10415740  4.14860351
   6.29449804  5.11373550  4.13148313
  -2.53139019  7.30304468  4.11316261
   0.00463604  7.28974905  4.16047281
   5.08583435  7.28317996  4.13083982
   7.55364713  0.01355112  6.21694340
   0.00095448  1.48112444  1.99999997
  -0.00288494  1.47838996  8.15787769
   3.76532350  2.15722527  6.18681128
   1.31000516  0.72944900  4.12999861
   5.08151141  1.48100198  2.04894934
   5.07820819  1.53649071  8.25916759
   8.82790830  0.75063454  4.10326031
  -0.02775342  4.35063521  6.24403892
  -1.34499768  3.63089662  2.07578052
  -1.32192659  3.63872209  8.28390770
   2.54723861  4.38324070  6.17159489
   1.32919575  3.63132523  2.06605118
   1.29534361  3.61336936  8.25347739
   0.02214998  2.94989795  4.13310973
   5.09718709  2.93886782  4.14369880
  -1.31655377  6.60385502  6.19681645
   1.24842420  6.56886314  6.20641195
   0.00782269  5.79602875  2.11654066
   0.00791161  5.80465377  8.31466506
  -1.29717776  5.12818575  4.17190926
   2.54187937  5.84536253  2.06286594
   2.54275837  5.87759671  8.28687369
   5.06523981  5.76238730  2.05752816
   5.09019942  5.78245726  8.19660465
   3.79260580  5.11061278  4.12659673
  -3.78539923  7.99724277  2.01619266
  -3.76611417  8.00897592  8.18128041
  -1.25221118  8.01099325  2.09289472
  -1.21629012  8.05131294  8.21742366
   1.24223713  8.03556392  2.10936583
   1.23740570  8.02987777  8.33601370
   3.80728155  7.99919338  2.05573435
   3.84394399  8.00463303  8.25152120
   2.54182886  7.29082495  4.15634114
 


--------------------------------------------------------------------------------------------------------


 k-point  1 :   0.0000 0.0000 0.0000  plane waves:   50713
 k-point  2 :   0.3333 0.0000 0.0000  plane waves:   50672
 k-point  3 :   0.0000 0.3333 0.0000  plane waves:   50672
 k-point  4 :   0.3333 0.3333 0.0000  plane waves:   50673
 k-point  5 :  -0.3333 0.3333 0.0000  plane waves:   50672

 maximum and minimum number of plane-waves per node :      2138     2092

 maximum number of plane-waves:     50713
 maximum index in each direction: 
   IXMAX=   19   IYMAX=   18   IZMAX=   39
   IXMIN=  -19   IYMIN=  -19   IZMIN=  -39


 real space projection operators:
  total allocation   :      66542.20 KBytes
  max/ min on nodes  :       3366.84       2437.88


 parallel 3D FFT for wavefunctions:
    minimum data exchange during FFTs selected (reduces bandwidth)
 parallel 3D FFT for charge:
    minimum data exchange during FFTs selected (reduces bandwidth)


 total amount of memory used by VASP MPI-rank0   114063. kBytes
=======================================================================

   base      :      30000. kBytes
   nonlr-proj:      13042. kBytes
   fftplans  :       6403. kBytes
   grid      :      16455. kBytes
   one-center:         93. kBytes
   wavefun   :      48070. kBytes
 
     INWAV:  cpu time    0.0000: real time    0.0001
 Broyden mixing: mesh for mixing (old mesh)
   NGX = 37   NGY = 37   NGZ = 79
  (NGX  =160   NGY  =160   NGZ  =320)
  gives a total of 108151 points

 initial charge density was supplied:
 number of electron     570.0000026 magnetization     113.8140361
 keeping initial charge density in first step


--------------------------------------------------------------------------------------------------------


 Maximum index for non-local projection operator          761
 Maximum index for augmentation-charges         1117 (set IRDMAX)


--------------------------------------------------------------------------------------------------------


 First call to EWALD:  gamma=   0.144
 Maximum number of real-space cells 4x 4x 2
 Maximum number of reciprocal cells 2x 2x 4

    FEWALD:  cpu time    0.0040: real time    0.0034


--------------------------------------- Iteration      1(   1)  ---------------------------------------


    POTLOK:  cpu time    0.2490: real time    0.2506
    SETDIJ:  cpu time    0.0180: real time    0.0191
     EDDAV:  cpu time   24.8972: real time   25.0138
 BZINTS: Fermi energy: 10.722497;570.000000 electrons
         Band energy:3526.659939;  BLOECHL correction: -0.007902
       DOS:  cpu time    0.0430: real time    0.0433
    --------------------------------------------
      LOOP:  cpu time   25.2072: real time   25.3268

 eigenvalue-minimisations  :  8220
 total energy-change (2. order) : 0.4435734E+04  (-0.2431029E+05)
 number of electron     570.0000026 magnetization     113.8140361
 augmentation part      570.0000026 magnetization     113.8140361

 DIPCOR: dipole corrections for dipol
 direction  3 min pos   244,
 dipolmoment           0.000000      0.000000     -0.019908 electrons x Angstroem
 Tr[quadrupol]     -9628.009557

 energy correction for charged system         0.000000 eV
 dipol+quadrupol energy correction           -0.000019 eV
 added-field ion interaction         -0.402177 eV  (added to PSCEN)


 Free energy of the ion-electron system (eV)
  ---------------------------------------------------
  alpha Z        PSCENC =      1363.34777114
  Ewald energy   TEWEN  =    188256.51722113
  -Hartree energ DENC   =   -239502.19261834
  -exchange      EXHF   =         0.00000000
  -V(xc)+E(xc)   XCENC  =      1042.39710618
  PAW double counting   =     56866.51452079   -59170.91062147
  entropy T*S    EENTRO =         0.00000000
  eigenvalues    EBANDS =      3526.65993874
  atomic energy  EATOM  =     52053.40048729
  Solvation  Ediel_sol  =         0.00000000
  ---------------------------------------------------
  free energy    TOTEN  =      4435.73380546 eV

  energy without entropy =     4435.73380546  energy(sigma->0) =     4435.73380546


--------------------------------------------------------------------------------------------------------




--------------------------------------- Iteration      1(   2)  ---------------------------------------


     EDDAV:  cpu time   24.6682: real time   24.7427
 BZINTS: Fermi energy:  1.097895;570.000000 electrons
         Band energy:-909.610401;  BLOECHL correction: -0.008256
       DOS:  cpu time    0.0440: real time    0.0438
    --------------------------------------------
      LOOP:  cpu time   24.7122: real time   24.7865

 eigenvalue-minimisations  :  8220
 total energy-change (2. order) :-0.4436270E+04  (-0.4146878E+04)
 number of electron     570.0000026 magnetization     113.8140361
 augmentation part      570.0000026 magnetization     113.8140361

 DIPCOR: dipole corrections for dipol
 direction  3 min pos   244,
 dipolmoment           0.000000      0.000000     -0.019908 electrons x Angstroem
 Tr[quadrupol]     -9628.009557

 energy correction for charged system         0.000000 eV
 dipol+quadrupol energy correction           -0.000019 eV
 added-field ion interaction         -0.402177 eV  (added to PSCEN)


 Free energy of the ion-electron system (eV)
  ---------------------------------------------------
  alpha Z        PSCENC =      1363.34777114
  Ewald energy   TEWEN  =    188256.51722113
  -Hartree energ DENC   =   -239502.19261834
  -exchange      EXHF   =         0.00000000
  -V(xc)+E(xc)   XCENC  =      1042.39710618
  PAW double counting   =     56866.51452079   -59170.91062147
  entropy T*S    EENTRO =         0.00000000
  eigenvalues    EBANDS =      -909.61040075
  atomic energy  EATOM  =     52053.40048729
  Solvation  Ediel_sol  =         0.00000000
  ---------------------------------------------------
  free energy    TOTEN  =        -0.53653403 eV

  energy without entropy =       -0.53653403  energy(sigma->0) =       -0.53653403


--------------------------------------------------------------------------------------------------------




--------------------------------------- Iteration      1(   3)  ---------------------------------------


     EDDAV:  cpu time   25.4831: real time   25.5681
 BZINTS: Fermi energy: -0.003100;570.000000 electrons
         Band energy:***********;  BLOECHL correction: -0.009521
       DOS:  cpu time    0.0430: real time    0.0434
    --------------------------------------------
      LOOP:  cpu time   25.5261: real time   25.6116

 eigenvalue-minimisations  :  8553
 total energy-change (2. order) :-0.4063092E+03  (-0.3475954E+03)
 number of electron     570.0000026 magnetization     113.8140361
 augmentation part      570.0000026 magnetization     113.8140361

 DIPCOR: dipole corrections for dipol
 direction  3 min pos   244,
 dipolmoment           0.000000      0.000000     -0.019908 electrons x Angstroem
 Tr[quadrupol]     -9628.009557

 energy correction for charged system         0.000000 eV
 dipol+quadrupol energy correction           -0.000019 eV
 added-field ion interaction         -0.402177 eV  (added to PSCEN)


 Free energy of the ion-electron system (eV)
  ---------------------------------------------------
  alpha Z        PSCENC =      1363.34777114
  Ewald energy   TEWEN  =    188256.51722113
  -Hartree energ DENC   =   -239502.19261834
  -exchange      EXHF   =         0.00000000
  -V(xc)+E(xc)   XCENC  =      1042.39710618
  PAW double counting   =     56866.51452079   -59170.91062147
  entropy T*S    EENTRO =         0.00000000
  eigenvalues    EBANDS =     -1315.91955082
  atomic energy  EATOM  =     52053.40048729
  Solvation  Ediel_sol  =         0.00000000
  ---------------------------------------------------
  free energy    TOTEN  =      -406.84568410 eV

  energy without entropy =     -406.84568410  energy(sigma->0) =     -406.84568410


--------------------------------------------------------------------------------------------------------




--------------------------------------- Iteration      1(   4)  ---------------------------------------


     EDDAV:  cpu time   26.3120: real time   26.5221
 BZINTS: Fermi energy: -0.046305;570.000000 electrons
         Band energy:***********;  BLOECHL correction: -0.008485
       DOS:  cpu time    0.0390: real time    0.0390
    --------------------------------------------
      LOOP:  cpu time   26.3510: real time   26.5611

 eigenvalue-minimisations  :  8700
 total energy-change (2. order) :-0.1674349E+02  (-0.1637430E+02)
 number of electron     570.0000026 magnetization     113.8140361
 augmentation part      570.0000026 magnetization     113.8140361

 DIPCOR: dipole corrections for dipol
 direction  3 min pos   244,
 dipolmoment           0.000000      0.000000     -0.019908 electrons x Angstroem
 Tr[quadrupol]     -9628.009557

 energy correction for charged system         0.000000 eV
 dipol+quadrupol energy correction           -0.000019 eV
 added-field ion interaction         -0.402177 eV  (added to PSCEN)


 Free energy of the ion-electron system (eV)
  ---------------------------------------------------
  alpha Z        PSCENC =      1363.34777114
  Ewald energy   TEWEN  =    188256.51722113
  -Hartree energ DENC   =   -239502.19261834
  -exchange      EXHF   =         0.00000000
  -V(xc)+E(xc)   XCENC  =      1042.39710618
  PAW double counting   =     56866.51452079   -59170.91062147
  entropy T*S    EENTRO =         0.00000000
  eigenvalues    EBANDS =     -1332.66304209
  atomic energy  EATOM  =     52053.40048729
  Solvation  Ediel_sol  =         0.00000000
  ---------------------------------------------------
  free energy    TOTEN  =      -423.58917537 eV

  energy without entropy =     -423.58917537  energy(sigma->0) =     -423.58917537


--------------------------------------------------------------------------------------------------------




--------------------------------------- Iteration      1(   5)  ---------------------------------------


     EDDAV:  cpu time   26.9829: real time   27.0839
 BZINTS: Fermi energy: -0.047117;570.000000 electrons
         Band energy:***********;  BLOECHL correction: -0.008434
       DOS:  cpu time    0.0390: real time    0.0387
    CHARGE:  cpu time    0.7309: real time    0.7340
    MIXING:  cpu time    0.0050: real time    0.0046
    --------------------------------------------
      LOOP:  cpu time   27.7578: real time   27.8614

 eigenvalue-minimisations  :  9348
 total energy-change (2. order) :-0.3015294E+00  (-0.3012821E+00)
 number of electron     570.0000026 magnetization     113.8135411
 augmentation part      324.9371990 magnetization      94.1738429

 DIPCOR: dipole corrections for dipol
 direction  3 min pos   244,
 dipolmoment           0.000000      0.000000     -0.019908 electrons x Angstroem
 Tr[quadrupol]     -9628.009557

 energy correction for charged system         0.000000 eV
 dipol+quadrupol energy correction           -0.000019 eV
 added-field ion interaction         -0.402177 eV  (added to PSCEN)


 Broyden mixing:
  rms(total) = 0.29984E-01    rms(broyden)= 0.29918E-01
  rms(prec ) = 0.30174E-01
  weight for this iteration     100.00

 Free energy of the ion-electron system (eV)
  ---------------------------------------------------
  alpha Z        PSCENC =      1363.34777114
  Ewald energy   TEWEN  =    188256.51722113
  -Hartree energ DENC   =   -239502.19261834
  -exchange      EXHF   =         0.00000000
  -V(xc)+E(xc)   XCENC  =      1042.39710618
  PAW double counting   =     56866.51452079   -59170.91062147
  entropy T*S    EENTRO =         0.00000000
  eigenvalues    EBANDS =     -1332.96457152
  atomic energy  EATOM  =     52053.40048729
  Solvation  Ediel_sol  =         0.00000000
  ---------------------------------------------------
  free energy    TOTEN  =      -423.89070479 eV

  energy without entropy =     -423.89070479  energy(sigma->0) =     -423.89070479


--------------------------------------------------------------------------------------------------------




--------------------------------------- Iteration      1(   6)  ---------------------------------------


    POTLOK:  cpu time    0.2450: real time    0.2463
    SETDIJ:  cpu time    0.0190: real time    0.0185
    EDDIAG:  cpu time    3.7184: real time    3.7404
  RMM-DIIS:  cpu time   15.7426: real time   15.8628
    ORTHCH:  cpu time    0.6309: real time    0.6321
 BZINTS: Fermi energy: -0.044800;570.000000 electrons
         Band energy:***********;  BLOECHL correction: -0.008175
       DOS:  cpu time    0.0420: real time    0.0423
    CHARGE:  cpu time    0.7329: real time    0.7352
    MIXING:  cpu time    0.0060: real time    0.0049
    --------------------------------------------
      LOOP:  cpu time   21.1368: real time   21.2824

 eigenvalue-minimisations  :  8480
 total energy-change (2. order) :-0.5321776E-01  (-0.1470779E-01)
 number of electron     570.0000026 magnetization     113.8136234
 augmentation part      324.8669140 magnetization      94.1449042

 DIPCOR: dipole corrections for dipol
 direction  3 min pos   243,
 dipolmoment           0.000000      0.000000     -0.015554 electrons x Angstroem
 Tr[quadrupol]     -9628.024197

 energy correction for charged system         0.000000 eV
 dipol+quadrupol energy correction           -0.000012 eV
 added-field ion interaction         -0.257470 eV  (added to PSCEN)


 Broyden mixing:
  rms(total) = 0.52224E-01    rms(broyden)= 0.52205E-01
  rms(prec ) = 0.60203E-01
  weight for this iteration     100.00

 eigenvalues of (default mixing * dielectric matrix)
  average eigenvalue GAMMA=   0.3447
  0.3447

 Free energy of the ion-electron system (eV)
  ---------------------------------------------------
  alpha Z        PSCENC =      1363.49248551
  Ewald energy   TEWEN  =    188256.51722113
  -Hartree energ DENC   =   -239503.27509716
  -exchange      EXHF   =         0.00000000
  -V(xc)+E(xc)   XCENC  =      1042.47707137
  PAW double counting   =     56916.51445625   -59221.05478410
  entropy T*S    EENTRO =         0.00000000
  eigenvalues    EBANDS =     -1332.01576285
  atomic energy  EATOM  =     52053.40048729
  Solvation  Ediel_sol  =         0.00000000
  ---------------------------------------------------
  free energy    TOTEN  =      -423.94392256 eV

  energy without entropy =     -423.94392256  energy(sigma->0) =     -423.94392256


--------------------------------------------------------------------------------------------------------




--------------------------------------- Iteration      1(   7)  ---------------------------------------


    POTLOK:  cpu time    0.2860: real time    0.2877
    SETDIJ:  cpu time    0.0190: real time    0.0186
    EDDIAG:  cpu time    3.7034: real time    3.7149
  RMM-DIIS:  cpu time   22.7465: real time   22.8790
    ORTHCH:  cpu time    0.6299: real time    0.6327
 BZINTS: Fermi energy: -0.046169;570.000000 electrons
         Band energy:***********;  BLOECHL correction: -0.008276
       DOS:  cpu time    0.0400: real time    0.0398
    CHARGE:  cpu time    0.7329: real time    0.7376
    MIXING:  cpu time    0.0060: real time    0.0048
    --------------------------------------------
      LOOP:  cpu time   28.1637: real time   28.3150

 eigenvalue-minimisations  : 12359
 total energy-change (2. order) :-0.8994305E-02  (-0.3901313E-02)
 number of electron     570.0000026 magnetization     113.8136481
 augmentation part      324.8346097 magnetization      94.1671613

 DIPCOR: dipole corrections for dipol
 direction  3 min pos   242,
 dipolmoment           0.000000      0.000000     -0.034393 electrons x Angstroem
 Tr[quadrupol]     -9628.006766

 energy correction for charged system         0.000000 eV
 dipol+quadrupol energy correction           -0.000057 eV
 added-field ion interaction         -0.443843 eV  (added to PSCEN)


 Broyden mixing:
  rms(total) = 0.92175E-01    rms(broyden)= 0.92168E-01
  rms(prec ) = 0.13276E+00
  weight for this iteration     100.00

 eigenvalues of (default mixing * dielectric matrix)
  average eigenvalue GAMMA=   0.2416
  0.3880  0.0951

 Free energy of the ion-electron system (eV)
  ---------------------------------------------------
  alpha Z        PSCENC =      1363.30606734
  Ewald energy   TEWEN  =    188256.51722113
  -Hartree energ DENC   =   -239503.07498755
  -exchange      EXHF   =         0.00000000
  -V(xc)+E(xc)   XCENC  =      1042.48453188
  PAW double counting   =     56920.99538861   -59225.51967122
  entropy T*S    EENTRO =         0.00000000
  eigenvalues    EBANDS =     -1332.06195433
  atomic energy  EATOM  =     52053.40048729
  Solvation  Ediel_sol  =         0.00000000
  ---------------------------------------------------
  free energy    TOTEN  =      -423.95291686 eV

  energy without entropy =     -423.95291686  energy(sigma->0) =     -423.95291686


--------------------------------------------------------------------------------------------------------




--------------------------------------- Iteration      1(   8)  ---------------------------------------


    POTLOK:  cpu time    0.2760: real time    0.2815
    SETDIJ:  cpu time    0.0190: real time    0.0185
    EDDIAG:  cpu time    3.7764: real time    3.8027
  RMM-DIIS:  cpu time   16.4625: real time   16.6183
    ORTHCH:  cpu time    0.6439: real time    0.6461
 BZINTS: Fermi energy: -0.047072;570.000000 electrons
         Band energy:***********;  BLOECHL correction: -0.008232
       DOS:  cpu time    0.0400: real time    0.0397
    CHARGE:  cpu time    0.7409: real time    0.7418
    MIXING:  cpu time    0.0050: real time    0.0053
    --------------------------------------------
      LOOP:  cpu time   21.9637: real time   22.1539

 eigenvalue-minimisations  :  8768
 total energy-change (2. order) : 0.3557697E-02  (-0.3062082E-03)
 number of electron     570.0000026 magnetization     113.8136568
 augmentation part      324.8362362 magnetization      94.1719627

 DIPCOR: dipole corrections for dipol
 direction  3 min pos   239,
 dipolmoment           0.000000      0.000000     -0.012513 electrons x Angstroem
 Tr[quadrupol]     -9628.019500

 energy correction for charged system         0.000000 eV
 dipol+quadrupol energy correction           -0.000008 eV
 added-field ion interaction         -0.024521 eV  (added to PSCEN)


 Broyden mixing:
  rms(total) = 0.54352E-01    rms(broyden)= 0.54342E-01
  rms(prec ) = 0.72524E-01
  weight for this iteration     100.00

 eigenvalues of (default mixing * dielectric matrix)
  average eigenvalue GAMMA=   0.2102
  0.3401  0.2305  0.0602

 Free energy of the ion-electron system (eV)
  ---------------------------------------------------
  alpha Z        PSCENC =      1363.72543891
  Ewald energy   TEWEN  =    188256.51722113
  -Hartree energ DENC   =   -239502.76587264
  -exchange      EXHF   =         0.00000000
  -V(xc)+E(xc)   XCENC  =      1042.46526400
  PAW double counting   =     56920.95682878   -59225.41016003
  entropy T*S    EENTRO =         0.00000000
  eigenvalues    EBANDS =     -1332.83856660
  atomic energy  EATOM  =     52053.40048729
  Solvation  Ediel_sol  =         0.00000000
  ---------------------------------------------------
  free energy    TOTEN  =      -423.94935916 eV

  energy without entropy =     -423.94935916  energy(sigma->0) =     -423.94935916


--------------------------------------------------------------------------------------------------------




--------------------------------------- Iteration      1(   9)  ---------------------------------------


    POTLOK:  cpu time    0.2470: real time    0.2495
    SETDIJ:  cpu time    0.0200: real time    0.0184
    EDDIAG:  cpu time    3.8064: real time    3.8346
  RMM-DIIS:  cpu time   16.4075: real time   16.5310
    ORTHCH:  cpu time    0.6729: real time    0.6767
 BZINTS: Fermi energy: -0.047697;570.000000 electrons
         Band energy:***********;  BLOECHL correction: -0.008244
       DOS:  cpu time    0.0410: real time    0.0402
    CHARGE:  cpu time    0.7469: real time    0.7497
    MIXING:  cpu time    0.0060: real time    0.0052
    --------------------------------------------
      LOOP:  cpu time   21.9477: real time   22.1054

 eigenvalue-minimisations  :  8713
 total energy-change (2. order) : 0.1277937E-02  (-0.1658748E-03)
 number of electron     570.0000026 magnetization     113.8136909
 augmentation part      324.8690058 magnetization      94.1533179

 DIPCOR: dipole corrections for dipol
 direction  3 min pos   240,
 dipolmoment           0.000000      0.000000     -0.020014 electrons x Angstroem
 Tr[quadrupol]     -9628.016787

 energy correction for charged system         0.000000 eV
 dipol+quadrupol energy correction           -0.000019 eV
 added-field ion interaction         -0.112244 eV  (added to PSCEN)


 Broyden mixing:
  rms(total) = 0.17757E-01    rms(broyden)= 0.17753E-01
  rms(prec ) = 0.19304E-01
  weight for this iteration     100.00

 eigenvalues of (default mixing * dielectric matrix)
  average eigenvalue GAMMA=   0.3148
  0.5280  0.5280  0.1444  0.0589

 Free energy of the ion-electron system (eV)
  ---------------------------------------------------
  alpha Z        PSCENC =      1363.63770388
  Ewald energy   TEWEN  =    188256.51722113
  -Hartree energ DENC   =   -239502.26189265
  -exchange      EXHF   =         0.00000000
  -V(xc)+E(xc)   XCENC  =      1042.42750496
  PAW double counting   =     56917.54154359   -59221.86213115
  entropy T*S    EENTRO =         0.00000000
  eigenvalues    EBANDS =     -1333.34851827
  atomic energy  EATOM  =     52053.40048729
  Solvation  Ediel_sol  =         0.00000000
  ---------------------------------------------------
  free energy    TOTEN  =      -423.94808123 eV

  energy without entropy =     -423.94808123  energy(sigma->0) =     -423.94808123


--------------------------------------------------------------------------------------------------------




--------------------------------------- Iteration      1(  10)  ---------------------------------------


    POTLOK:  cpu time    0.2500: real time    0.2512
    SETDIJ:  cpu time    0.0180: real time    0.0186
    EDDIAG:  cpu time    3.7334: real time    3.7522
  RMM-DIIS:  cpu time   16.4845: real time   16.5886
    ORTHCH:  cpu time    0.6699: real time    0.6760
 BZINTS: Fermi energy: -0.047775;570.000000 electrons
         Band energy:***********;  BLOECHL correction: -0.008267
       DOS:  cpu time    0.0400: real time    0.0404
    CHARGE:  cpu time    0.7339: real time    0.7386
    MIXING:  cpu time    0.0060: real time    0.0052
    --------------------------------------------
      LOOP:  cpu time   21.9357: real time   22.0709

 eigenvalue-minimisations  :  8719
 total energy-change (2. order) :-0.1228504E-03  (-0.3572743E-04)
 number of electron     570.0000026 magnetization     113.8136852
 augmentation part      324.8602464 magnetization      94.1610641

 DIPCOR: dipole corrections for dipol
 direction  3 min pos   240,
 dipolmoment           0.000000      0.000000     -0.019889 electrons x Angstroem
 Tr[quadrupol]     -9628.018035

 energy correction for charged system         0.000000 eV
 dipol+quadrupol energy correction           -0.000019 eV
 added-field ion interaction         -0.111538 eV  (added to PSCEN)


 Broyden mixing:
  rms(total) = 0.17038E-01    rms(broyden)= 0.17037E-01
  rms(prec ) = 0.18649E-01
  weight for this iteration     100.00

 eigenvalues of (default mixing * dielectric matrix)
  average eigenvalue GAMMA=   0.2948
  0.5599  0.5599  0.0589  0.1606  0.1347

 Free energy of the ion-electron system (eV)
  ---------------------------------------------------
  alpha Z        PSCENC =      1363.63841050
  Ewald energy   TEWEN  =    188256.51722113
  -Hartree energ DENC   =   -239502.34231476
  -exchange      EXHF   =         0.00000000
  -V(xc)+E(xc)   XCENC  =      1042.42365073
  PAW double counting   =     56906.89431312   -59211.24004803
  entropy T*S    EENTRO =         0.00000000
  eigenvalues    EBANDS =     -1333.23992406
  atomic energy  EATOM  =     52053.40048729
  Solvation  Ediel_sol  =         0.00000000
  ---------------------------------------------------
  free energy    TOTEN  =      -423.94820408 eV

  energy without entropy =     -423.94820408  energy(sigma->0) =     -423.94820408


--------------------------------------------------------------------------------------------------------




--------------------------------------- Iteration      1(  11)  ---------------------------------------


    POTLOK:  cpu time    0.2460: real time    0.2483
    SETDIJ:  cpu time    0.0190: real time    0.0189
    EDDIAG:  cpu time    3.7554: real time    3.7923
  RMM-DIIS:  cpu time   16.5205: real time   16.7989
    ORTHCH:  cpu time    0.6609: real time    0.7094
 BZINTS: Fermi energy: -0.048234;570.000000 electrons
         Band energy:***********;  BLOECHL correction: -0.008252
       DOS:  cpu time    0.0410: real time    0.0410
    CHARGE:  cpu time    0.7429: real time    0.7526
    MIXING:  cpu time    0.0060: real time    0.0061
    --------------------------------------------
      LOOP:  cpu time   21.9917: real time   22.3674

 eigenvalue-minimisations  :  8805
 total energy-change (2. order) : 0.1034160E-03  (-0.1405476E-04)
 number of electron     570.0000026 magnetization     113.8136947
 augmentation part      324.8632579 magnetization      94.1585558

 DIPCOR: dipole corrections for dipol
 direction  3 min pos   237,
 dipolmoment           0.000000      0.000000     -0.019612 electrons x Angstroem
 Tr[quadrupol]     -9628.024093

 energy correction for charged system         0.000000 eV
 dipol+quadrupol energy correction           -0.000018 eV
 added-field ion interaction          0.104675 eV  (added to PSCEN)


 Broyden mixing:
  rms(total) = 0.80420E-02    rms(broyden)= 0.80415E-02
  rms(prec ) = 0.81549E-02
  weight for this iteration     100.00

 eigenvalues of (default mixing * dielectric matrix)
  average eigenvalue GAMMA=   0.3184
  0.6232  0.6232  0.3203  0.0589  0.1541  0.1306

 Free energy of the ion-electron system (eV)
  ---------------------------------------------------
  alpha Z        PSCENC =      1363.85462400
  Ewald energy   TEWEN  =    188256.51722113
  -Hartree energ DENC   =   -239502.24577900
  -exchange      EXHF   =         0.00000000
  -V(xc)+E(xc)   XCENC  =      1042.42106073
  PAW double counting   =     56903.66815951   -59208.01279705
  entropy T*S    EENTRO =         0.00000000
  eigenvalues    EBANDS =     -1333.55107727
  atomic energy  EATOM  =     52053.40048729
  Solvation  Ediel_sol  =         0.00000000
  ---------------------------------------------------
  free energy    TOTEN  =      -423.94810066 eV

  energy without entropy =     -423.94810066  energy(sigma->0) =     -423.94810066


--------------------------------------------------------------------------------------------------------




--------------------------------------- Iteration      1(  12)  ---------------------------------------


    POTLOK:  cpu time    0.2460: real time    0.2500
    SETDIJ:  cpu time    0.0190: real time    0.0195
    EDDIAG:  cpu time    3.7524: real time    3.8409
  RMM-DIIS:  cpu time   20.7668: real time   21.4728
    ORTHCH:  cpu time    0.6329: real time    0.6452
 BZINTS: Fermi energy: -0.048473;570.000000 electrons
         Band energy:***********;  BLOECHL correction: -0.008264
       DOS:  cpu time    0.0350: real time    0.0363
    CHARGE:  cpu time    0.7359: real time    0.7515
    MIXING:  cpu time    0.0060: real time    0.0057
    --------------------------------------------
      LOOP:  cpu time   26.1940: real time   27.0219

 eigenvalue-minimisations  : 11387
 total energy-change (2. order) :-0.2452318E-04  (-0.4843880E-05)
 number of electron     570.0000026 magnetization     113.8136977
 augmentation part      324.8615477 magnetization      94.1600361

 DIPCOR: dipole corrections for dipol
 direction  3 min pos   235,
 dipolmoment           0.000000      0.000000     -0.019667 electrons x Angstroem
 Tr[quadrupol]     -9628.028510

 energy correction for charged system         0.000000 eV
 dipol+quadrupol energy correction           -0.000019 eV
 added-field ion interaction          0.248480 eV  (added to PSCEN)


 Broyden mixing:
  rms(total) = 0.78326E-02    rms(broyden)= 0.78325E-02
  rms(prec ) = 0.80116E-02
  weight for this iteration     100.00

 eigenvalues of (default mixing * dielectric matrix)
  average eigenvalue GAMMA=   0.3295
  0.7185  0.7185  0.3805  0.0589  0.1699  0.1378  0.1220

 Free energy of the ion-electron system (eV)
  ---------------------------------------------------
  alpha Z        PSCENC =      1363.99842822
  Ewald energy   TEWEN  =    188256.51722113
  -Hartree energ DENC   =   -239502.26378543
  -exchange      EXHF   =         0.00000000
  -V(xc)+E(xc)   XCENC  =      1042.42025773
  PAW double counting   =     56900.21019923   -59204.56242856
  entropy T*S    EENTRO =         0.00000000
  eigenvalues    EBANDS =     -1333.66850480
  atomic energy  EATOM  =     52053.40048729
  Solvation  Ediel_sol  =         0.00000000
  ---------------------------------------------------
  free energy    TOTEN  =      -423.94812519 eV

  energy without entropy =     -423.94812519  energy(sigma->0) =     -423.94812519


--------------------------------------------------------------------------------------------------------




--------------------------------------- Iteration      1(  13)  ---------------------------------------


    POTLOK:  cpu time    0.2610: real time    0.2697
    SETDIJ:  cpu time    0.0210: real time    0.0205
    EDDIAG:  cpu time    3.6934: real time    3.7949
  RMM-DIIS:  cpu time   16.2795: real time   16.9339
    ORTHCH:  cpu time    0.6279: real time    0.6419
 BZINTS: Fermi energy: -0.048642;570.000000 electrons
         Band energy:***********;  BLOECHL correction: -0.008254
       DOS:  cpu time    0.0420: real time    0.0414
    CHARGE:  cpu time    0.7179: real time    0.7353
    MIXING:  cpu time    0.0050: real time    0.0054
    --------------------------------------------
      LOOP:  cpu time   21.6487: real time   22.4429

 eigenvalue-minimisations  :  8714
 total energy-change (2. order) :-0.7550443E-05  (-0.8133950E-06)
 number of electron     570.0000026 magnetization     113.8137060
 augmentation part      324.8632583 magnetization      94.1590122

 DIPCOR: dipole corrections for dipol
 direction  3 min pos   234,
 dipolmoment           0.000000      0.000000     -0.019645 electrons x Angstroem
 Tr[quadrupol]     -9628.031115

 energy correction for charged system         0.000000 eV
 dipol+quadrupol energy correction           -0.000019 eV
 added-field ion interaction          0.319863 eV  (added to PSCEN)


 Broyden mixing:
  rms(total) = 0.62595E-02    rms(broyden)= 0.62595E-02
  rms(prec ) = 0.63100E-02
  weight for this iteration     100.00

 eigenvalues of (default mixing * dielectric matrix)
  average eigenvalue GAMMA=   0.3279
  0.7566  0.7566  0.3164  0.3164  0.0589  0.1487  0.1487  0.1209

 Free energy of the ion-electron system (eV)
  ---------------------------------------------------
  alpha Z        PSCENC =      1364.06981180
  Ewald energy   TEWEN  =    188256.51722113
  -Hartree energ DENC   =   -239502.22311606
  -exchange      EXHF   =         0.00000000
  -V(xc)+E(xc)   XCENC  =      1042.41595678
  PAW double counting   =     56895.14074087   -59199.49131939
  entropy T*S    EENTRO =         0.00000000
  eigenvalues    EBANDS =     -1333.77791515
  atomic energy  EATOM  =     52053.40048729
  Solvation  Ediel_sol  =         0.00000000
  ---------------------------------------------------
  free energy    TOTEN  =      -423.94813274 eV

  energy without entropy =     -423.94813274  energy(sigma->0) =     -423.94813274


--------------------------------------------------------------------------------------------------------




--------------------------------------- Iteration      1(  14)  ---------------------------------------


    POTLOK:  cpu time    0.2940: real time    0.3001
    SETDIJ:  cpu time    0.0190: real time    0.0192
    EDDIAG:  cpu time    3.7374: real time    3.8354
  RMM-DIIS:  cpu time   10.5784: real time   11.0660
    ORTHCH:  cpu time    0.6269: real time    0.6438
 BZINTS: Fermi energy: -0.048673;570.000000 electrons
         Band energy:***********;  BLOECHL correction: -0.008259
       DOS:  cpu time    0.0420: real time    0.0419
    CHARGE:  cpu time    0.7469: real time    0.7650
    MIXING:  cpu time    0.0060: real time    0.0064
    --------------------------------------------
      LOOP:  cpu time   16.0496: real time   16.6778

 eigenvalue-minimisations  :  5545
 total energy-change (2. order) :-0.1212404E-04  (-0.2357747E-06)
 number of electron     570.0000026 magnetization     113.8137304
 augmentation part      324.8634837 magnetization      94.1592431

 DIPCOR: dipole corrections for dipol
 direction  3 min pos   234,
 dipolmoment           0.000000      0.000000     -0.019670 electrons x Angstroem
 Tr[quadrupol]     -9628.031153

 energy correction for charged system         0.000000 eV
 dipol+quadrupol energy correction           -0.000019 eV
 added-field ion interaction          0.320272 eV  (added to PSCEN)


 Broyden mixing:
  rms(total) = 0.58517E-02    rms(broyden)= 0.58517E-02
  rms(prec ) = 0.59063E-02
  weight for this iteration     100.00

 eigenvalues of (default mixing * dielectric matrix)
  average eigenvalue GAMMA=   0.3801
  0.9415  0.9415  0.4580  0.4580  0.0589  0.1573  0.1573  0.1285  0.1201

 Free energy of the ion-electron system (eV)
  ---------------------------------------------------
  alpha Z        PSCENC =      1364.07022066
  Ewald energy   TEWEN  =    188256.51722113
  -Hartree energ DENC   =   -239502.20969675
  -exchange      EXHF   =         0.00000000
  -V(xc)+E(xc)   XCENC  =      1042.41458800
  PAW double counting   =     56892.70086320   -59197.05178699
  entropy T*S    EENTRO =         0.00000000
  eigenvalues    EBANDS =     -1333.79004140
  atomic energy  EATOM  =     52053.40048729
  Solvation  Ediel_sol  =         0.00000000
  ---------------------------------------------------
  free energy    TOTEN  =      -423.94814486 eV

  energy without entropy =     -423.94814486  energy(sigma->0) =     -423.94814486


--------------------------------------------------------------------------------------------------------




--------------------------------------- Iteration      1(  15)  ---------------------------------------


    POTLOK:  cpu time    0.2420: real time    0.2504
    SETDIJ:  cpu time    0.0190: real time    0.0192
    EDDIAG:  cpu time    3.8224: real time    3.9439
  RMM-DIIS:  cpu time   12.8480: real time   13.4308
    ORTHCH:  cpu time    0.6869: real time    0.7034
 BZINTS: Fermi energy: -0.048777;570.000000 electrons
         Band energy:***********;  BLOECHL correction: -0.008257
       DOS:  cpu time    0.0380: real time    0.0393
    CHARGE:  cpu time    0.7259: real time    0.7435
    MIXING:  cpu time    0.0060: real time    0.0062
    --------------------------------------------
      LOOP:  cpu time   18.3882: real time   19.1367

 eigenvalue-minimisations  :  6978
 total energy-change (2. order) :-0.3044353E-04  (-0.4153869E-06)
 number of electron     570.0000026 magnetization     113.8137440
 augmentation part      324.8653047 magnetization      94.1592959

 DIPCOR: dipole corrections for dipol
 direction  3 min pos   234,
 dipolmoment           0.000000      0.000000     -0.019723 electrons x Angstroem
 Tr[quadrupol]     -9628.031061

 energy correction for charged system         0.000000 eV
 dipol+quadrupol energy correction           -0.000019 eV
 added-field ion interaction          0.321134 eV  (added to PSCEN)


 Broyden mixing:
  rms(total) = 0.41412E-02    rms(broyden)= 0.41411E-02
  rms(prec ) = 0.41867E-02
  weight for this iteration     100.00

 eigenvalues of (default mixing * dielectric matrix)
  average eigenvalue GAMMA=   0.3849
  1.0201  1.0201  0.4682  0.4682  0.2430  0.0589  0.1795  0.1366  0.1366  0.1173

 Free energy of the ion-electron system (eV)
  ---------------------------------------------------
  alpha Z        PSCENC =      1364.07108220
  Ewald energy   TEWEN  =    188256.51722113
  -Hartree energ DENC   =   -239502.14638045
  -exchange      EXHF   =         0.00000000
  -V(xc)+E(xc)   XCENC  =      1042.40920681
  PAW double counting   =     56884.09597309   -59188.44631347
  entropy T*S    EENTRO =         0.00000000
  eigenvalues    EBANDS =     -1333.84945191
  atomic energy  EATOM  =     52053.40048729
  Solvation  Ediel_sol  =         0.00000000
  ---------------------------------------------------
  free energy    TOTEN  =      -423.94817530 eV

  energy without entropy =     -423.94817530  energy(sigma->0) =     -423.94817530


--------------------------------------------------------------------------------------------------------




--------------------------------------- Iteration      1(  16)  ---------------------------------------


    POTLOK:  cpu time    0.2400: real time    0.2493
    SETDIJ:  cpu time    0.0190: real time    0.0186
    EDDIAG:  cpu time    3.6874: real time    3.8129
  RMM-DIIS:  cpu time    9.4886: real time    9.9100
    ORTHCH:  cpu time    0.6199: real time    0.6408
 BZINTS: Fermi energy: -0.048817;570.000000 electrons
         Band energy:***********;  BLOECHL correction: -0.008257
       DOS:  cpu time    0.0410: real time    0.0422
    CHARGE:  cpu time    0.7509: real time    0.7719
    MIXING:  cpu time    0.0060: real time    0.0063
    --------------------------------------------
      LOOP:  cpu time   14.8527: real time   15.4520

 eigenvalue-minimisations  :  4961
 total energy-change (2. order) :-0.9874369E-05  (-0.1689321E-06)
 number of electron     570.0000026 magnetization     113.8137794
 augmentation part      324.8657337 magnetization      94.1593516

 DIPCOR: dipole corrections for dipol
 direction  3 min pos   234,
 dipolmoment           0.000000      0.000000     -0.019721 electrons x Angstroem
 Tr[quadrupol]     -9628.031019

 energy correction for charged system         0.000000 eV
 dipol+quadrupol energy correction           -0.000019 eV
 added-field ion interaction          0.321115 eV  (added to PSCEN)


 Broyden mixing:
  rms(total) = 0.35565E-02    rms(broyden)= 0.35565E-02
  rms(prec ) = 0.36011E-02
  weight for this iteration     100.00

 eigenvalues of (default mixing * dielectric matrix)
  average eigenvalue GAMMA=   0.4486
  1.2782  1.2782  0.5897  0.5897  0.4290  0.0589  0.1756  0.1452  0.1452  0.1267
  0.1183

 Free energy of the ion-electron system (eV)
  ---------------------------------------------------
  alpha Z        PSCENC =      1364.07106363
  Ewald energy   TEWEN  =    188256.51722113
  -Hartree energ DENC   =   -239502.12604970
  -exchange      EXHF   =         0.00000000
  -V(xc)+E(xc)   XCENC  =      1042.40743289
  PAW double counting   =     56880.98600873   -59185.33648711
  entropy T*S    EENTRO =         0.00000000
  eigenvalues    EBANDS =     -1333.86786204
  atomic energy  EATOM  =     52053.40048729
  Solvation  Ediel_sol  =         0.00000000
  ---------------------------------------------------
  free energy    TOTEN  =      -423.94818518 eV

  energy without entropy =     -423.94818518  energy(sigma->0) =     -423.94818518


--------------------------------------------------------------------------------------------------------




--------------------------------------- Iteration      1(  17)  ---------------------------------------


    POTLOK:  cpu time    0.2390: real time    0.2495
    SETDIJ:  cpu time    0.0190: real time    0.0187
    EDDIAG:  cpu time    3.7834: real time    3.9189
  RMM-DIIS:  cpu time   11.1443: real time   11.6072
    ORTHCH:  cpu time    0.6519: real time    0.6686
 BZINTS: Fermi energy: -0.048893;570.000000 electrons
         Band energy:***********;  BLOECHL correction: -0.008258
       DOS:  cpu time    0.0410: real time    0.0423
    CHARGE:  cpu time    0.7279: real time    0.7467
    MIXING:  cpu time    0.0060: real time    0.0066
    --------------------------------------------
      LOOP:  cpu time   16.6125: real time   17.2585

 eigenvalue-minimisations  :  5921
 total energy-change (2. order) :-0.1805677E-04  (-0.2683816E-06)
 number of electron     570.0000026 magnetization     113.8137910
 augmentation part      324.8669637 magnetization      94.1595005

 DIPCOR: dipole corrections for dipol
 direction  3 min pos   234,
 dipolmoment           0.000000      0.000000     -0.019726 electrons x Angstroem
 Tr[quadrupol]     -9628.030916

 energy correction for charged system         0.000000 eV
 dipol+quadrupol energy correction           -0.000019 eV
 added-field ion interaction          0.321186 eV  (added to PSCEN)


 Broyden mixing:
  rms(total) = 0.22510E-02    rms(broyden)= 0.22510E-02
  rms(prec ) = 0.22826E-02
  weight for this iteration     100.00

 eigenvalues of (default mixing * dielectric matrix)
  average eigenvalue GAMMA=   0.4493
  1.3632  1.3632  0.6141  0.6141  0.3933  0.2812  0.0589  0.1617  0.1617  0.1313
  0.1313  0.1172

 Free energy of the ion-electron system (eV)
  ---------------------------------------------------
  alpha Z        PSCENC =      1364.07113473
  Ewald energy   TEWEN  =    188256.51722113
  -Hartree energ DENC   =   -239502.08247257
  -exchange      EXHF   =         0.00000000
  -V(xc)+E(xc)   XCENC  =      1042.40360103
  PAW double counting   =     56875.13570204   -59179.48515537
  entropy T*S    EENTRO =         0.00000000
  eigenvalues    EBANDS =     -1333.90872152
  atomic energy  EATOM  =     52053.40048729
  Solvation  Ediel_sol  =         0.00000000
  ---------------------------------------------------
  free energy    TOTEN  =      -423.94820323 eV

  energy without entropy =     -423.94820323  energy(sigma->0) =     -423.94820323


--------------------------------------------------------------------------------------------------------




--------------------------------------- Iteration      1(  18)  ---------------------------------------


    POTLOK:  cpu time    0.2400: real time    0.2505
    SETDIJ:  cpu time    0.0190: real time    0.0188
    EDDIAG:  cpu time    3.6834: real time    3.8029
[...]
   0.579E+02 -.554E+02 0.925E+03   -.578E+02 0.555E+02 -.924E+03   -.124E+00 0.145E-01 -.469E+00   -.316E-03 -.158E-03 -.249E-04
   -.719E+01 -.895E+00 0.273E+04   0.700E+01 0.729E+00 -.273E+04   0.206E+00 0.209E+00 -.656E+00   0.322E-03 -.510E-03 -.309E-03
   -.524E+01 -.714E+01 -.275E+04   0.524E+01 0.722E+01 0.275E+04   -.867E-02 -.948E-01 0.734E+00   0.606E-03 -.118E-02 0.568E-04
   -.104E+03 0.195E+02 0.948E+03   0.104E+03 -.194E+02 -.948E+03   -.211E+00 -.683E-01 -.371E+00   0.606E-03 -.104E-02 0.619E-03
   0.174E+01 -.344E+02 -.952E+03   -.179E+01 0.344E+02 0.952E+03   0.374E-01 0.956E-02 0.245E+00   -.460E-03 0.877E-03 0.118E-02
   -.681E+02 -.295E+02 0.274E+04   0.685E+02 0.296E+02 -.274E+04   -.337E+00 -.169E+00 -.168E-01   0.337E-03 -.649E-03 -.452E-03
   -.733E+02 -.556E+02 -.273E+04   0.734E+02 0.560E+02 0.273E+04   -.904E-01 -.444E+00 -.121E+00   -.980E-03 -.599E-03 0.623E-03
   0.153E+03 -.180E+02 -.946E+03   -.154E+03 0.181E+02 0.946E+03   0.505E+00 -.385E-01 0.201E+00   0.490E-03 0.753E-03 0.179E-03
   0.154E+02 -.180E+02 0.895E+03   -.154E+02 0.180E+02 -.895E+03   -.237E-01 0.214E-01 -.285E+00   0.553E-03 -.988E-03 -.882E-03
   0.139E+02 -.932E+01 0.961E+03   -.140E+02 0.934E+01 -.961E+03   0.113E+00 0.720E-01 -.382E+00   -.105E-03 -.830E-03 -.283E-03
   -.343E+02 -.774E+01 0.988E+03   0.344E+02 0.781E+01 -.988E+03   -.548E-01 -.412E-01 -.375E+00   0.108E-03 0.824E-03 0.748E-04
   -.715E+02 0.823E+02 0.910E+03   0.716E+02 -.824E+02 -.910E+03   -.899E-01 0.149E+00 -.922E-01   0.129E-03 0.530E-03 -.518E-03
   0.112E+03 -.660E+02 0.102E+04   -.112E+03 0.662E+02 -.102E+04   0.250E+00 -.179E+00 0.333E-01   -.678E-03 0.714E-03 0.502E-03
   -.477E+01 0.947E+02 -.757E+03   0.474E+01 -.953E+02 0.756E+03   0.600E-01 0.585E+00 0.356E+00   0.700E-03 0.163E-02 0.552E-03
   0.349E+01 0.756E-01 0.217E+04   -.338E+01 0.164E+00 -.216E+04   -.159E-01 -.131E+00 -.309E+01   0.112E-04 0.587E-03 0.295E-03
   -.519E+01 -.406E+01 -.218E+04   0.528E+01 0.407E+01 0.218E+04   -.111E+00 -.158E-01 0.189E+01   -.523E-03 -.342E-03 -.453E-03
   0.156E+02 -.322E+02 -.722E+03   -.155E+02 0.322E+02 0.722E+03   -.135E+00 0.116E-01 0.274E-01   -.282E-04 -.250E-03 0.463E-03
   0.872E+02 -.372E+02 0.808E+03   -.877E+02 0.374E+02 -.808E+03   0.508E+00 -.158E+00 -.754E-01   -.208E-03 0.773E-03 0.731E-03
   0.416E+01 0.601E+02 0.221E+04   -.434E+01 -.603E+02 -.220E+04   -.486E-03 0.308E+00 -.272E+01   0.678E-04 0.219E-03 -.117E-04
   0.216E+02 0.756E+02 -.222E+04   -.217E+02 -.759E+02 0.222E+04   0.117E+00 0.335E+00 0.265E+01   0.615E-03 0.561E-03 -.239E-03
   -.437E+02 0.348E+02 0.795E+03   0.438E+02 -.349E+02 -.795E+03   -.227E+00 0.104E+00 -.100E+00   -.903E-04 0.798E-03 0.888E-03
   -.683E+02 -.636E+02 -.790E+03   0.684E+02 0.640E+02 0.790E+03   -.938E-01 -.385E+00 0.858E-01   -.349E-03 -.159E-02 -.449E-04
   -.122E+03 -.792E+01 0.216E+04   0.123E+03 0.796E+01 -.216E+04   -.713E+00 -.181E+00 -.256E+01   0.701E-04 -.218E-03 0.198E-03
   -.111E+03 -.132E+02 -.222E+04   0.112E+03 0.133E+02 0.222E+04   -.104E+01 -.710E-01 0.273E+01   -.877E-03 -.150E-02 -.130E-04
   0.830E+02 -.537E+02 -.741E+03   -.834E+02 0.539E+02 0.741E+03   0.434E+00 -.192E+00 -.158E-01   0.342E-03 -.941E-03 -.264E-03
   0.816E+02 -.377E+02 0.217E+04   -.825E+02 0.378E+02 -.216E+04   0.609E+00 -.254E+00 -.215E+01   0.650E-04 -.494E-05 0.541E-04
   0.397E+02 -.643E+02 -.216E+04   -.405E+02 0.647E+02 0.216E+04   0.833E+00 -.321E+00 0.266E+01   -.112E-03 -.147E-02 0.153E-03
   -.708E+01 -.101E+02 0.786E+03   0.681E+01 0.100E+02 -.787E+03   0.245E+00 0.179E+00 0.144E+00   -.253E-03 -.578E-03 0.217E-03
   0.561E+02 0.964E+01 0.731E+03   -.561E+02 -.981E+01 -.731E+03   -.455E-01 0.313E-01 -.184E+00   0.545E-04 -.503E-03 0.247E-03
   -.125E+03 0.416E+02 -.772E+03   0.125E+03 -.417E+02 0.771E+03   -.504E+00 0.187E+00 0.137E+00   -.467E-03 0.279E-03 0.307E-03
   -.541E+01 0.378E+02 -.797E+03   0.553E+01 -.379E+02 0.797E+03   -.162E+00 0.172E-01 -.315E-01   0.425E-03 0.394E-03 -.130E-03
   -.389E+02 0.153E+02 0.215E+04   0.394E+02 -.155E+02 -.215E+04   -.299E+00 0.641E-01 -.189E+01   0.284E-03 -.507E-03 -.415E-03
   -.573E+02 -.111E+01 -.216E+04   0.578E+02 0.107E+01 0.216E+04   -.484E+00 0.540E-01 0.269E+01   -.530E-03 -.283E-03 0.591E-03
   -.111E+03 0.182E+02 0.720E+03   0.111E+03 -.187E+02 -.720E+03   -.537E+00 0.417E+00 -.331E+00   0.161E-03 -.100E-02 -.466E-03
   0.286E+02 -.413E+02 0.216E+04   -.288E+02 0.420E+02 -.215E+04   -.128E-01 -.614E+00 -.249E+01   -.384E-04 -.474E-03 -.113E-03
   0.554E+02 -.148E+02 -.216E+04   -.556E+02 0.154E+02 0.216E+04   0.224E+00 -.560E+00 0.232E+01   0.695E-03 0.532E-04 0.330E-03
   0.698E+02 -.742E+02 0.220E+04   -.701E+02 0.747E+02 -.219E+04   0.486E+00 -.493E+00 -.224E+01   -.524E-03 -.423E-03 -.295E-03
   0.612E+02 -.684E+02 -.221E+04   -.616E+02 0.690E+02 0.221E+04   0.428E+00 -.567E+00 0.208E+01   0.590E-03 0.146E-04 0.446E-03
   0.795E+02 -.375E+02 0.764E+03   -.796E+02 0.377E+02 -.764E+03   0.128E+00 -.263E+00 -.544E-01   -.528E-03 -.308E-03 -.354E-03
   0.491E+02 -.319E+02 0.221E+04   -.499E+02 0.319E+02 -.221E+04   0.576E+00 -.197E-01 -.247E+01   0.104E-04 0.322E-03 -.227E-03
   0.271E+02 -.145E+02 -.221E+04   -.277E+02 0.147E+02 0.221E+04   0.677E+00 -.151E+00 0.218E+01   -.537E-03 0.774E-03 0.171E-04
   -.370E+02 0.254E+02 0.220E+04   0.377E+02 -.254E+02 -.220E+04   -.678E+00 0.946E-02 -.194E+01   0.164E-03 0.283E-03 -.209E-03
   -.387E+02 0.355E+02 -.219E+04   0.392E+02 -.356E+02 0.219E+04   -.491E+00 0.119E+00 0.202E+01   -.574E-03 0.964E-03 0.397E-03
   -.272E+02 0.664E+02 0.216E+04   0.269E+02 -.670E+02 -.216E+04   0.252E+00 0.535E+00 -.197E+01   0.118E-03 0.303E-04 -.135E-03
   -.120E+02 0.646E+02 -.219E+04   0.117E+02 -.652E+02 0.219E+04   0.259E+00 0.644E+00 0.271E+01   0.460E-03 0.153E-02 0.320E-03
   0.121E+02 0.114E+02 0.216E+04   -.120E+02 -.118E+02 -.216E+04   -.888E-01 0.425E+00 -.215E+01   -.297E-03 0.121E-04 -.274E-04
   0.277E+02 0.169E+02 -.219E+04   -.273E+02 -.173E+02 0.219E+04   -.482E+00 0.456E+00 0.208E+01   0.609E-03 0.137E-02 -.762E-04
   0.151E+01 0.135E+02 0.741E+03   -.145E+01 -.133E+02 -.741E+03   -.482E-01 -.194E+00 -.548E-02   0.367E-03 0.269E-03 -.173E-03
 -----------------------------------------------------------------------------------------------
   0.240E+00 -.350E-01 -.499E+00   -.624E-12 0.316E-12 0.682E-12   -.237E+00 0.408E-01 0.483E+00   -.414E-04 -.117E-03 0.109E-01
 
 
 POSITION                                       TOTAL-FORCE (eV/Angst)
 -----------------------------------------------------------------------------------
     -0.00769      0.01375      6.15289        -0.005223     -0.013674     -0.091815
     -2.53511      8.73667      6.16858         0.026927      0.010529     -0.086034
      5.04079      0.03318      6.19045         0.007464     -0.004505     -0.053527
      8.82804      2.19742      6.16962         0.042290     -0.035098     -0.076896
      1.26885      2.18757      6.15319         0.003299     -0.005580     -0.072558
      2.54422      1.44455      2.05273        -0.031477     -0.146993      0.463339
      2.54915      1.44470      8.15556        -0.008718      0.003987     -0.066389
      6.30422      2.19276      6.20916        -0.047760     -0.005541     -0.075758
      3.80181      0.73423      4.10363         0.075888     -0.018028      0.036933
      7.56604      1.45101      2.09205         0.008468      0.015265      0.342157
      7.57257      1.43647      8.19821        -0.014530     -0.003734     -0.054419
      6.31884      0.74108      4.13711         0.003818      0.036282      0.058513
     -2.51060      4.36475      6.19493        -0.017124      0.007748     -0.103181
      5.04518      4.37586      6.16763         0.000720     -0.018037     -0.105309
      3.80277      3.61435      2.06282         0.044792      0.105146      0.356073
      3.79658      3.65395      8.18942         0.002462      0.021183     -0.051690
      2.55462      2.91604      4.10409        -0.055935      0.064080      0.038057
      6.30075      3.62795      2.09664         0.008993      0.039142      0.388948
      6.31543      3.64282      8.16852        -0.014660     -0.014449     -0.018464
      7.58585      2.93043      4.13698         0.021797     -0.047599     -0.107583
      6.30250      6.55741      6.17991        -0.017212      0.000039     -0.081465
     -2.53418      5.82300      2.07647         0.072600     -0.014785      0.474454
     -2.49733      5.83471      8.18216         0.030847     -0.000494     -0.035231
      3.81401      6.57068      6.19237         0.021410      0.011157     -0.056740
      1.26871      5.10416      4.14860        -0.051535     -0.023140      0.039876
      6.29450      5.11374      4.13148         0.005739      0.090464     -0.163193
     -2.53139      7.30304      4.11316        -0.003128      0.038142     -0.104433
      0.00464      7.28975      4.16047        -0.016825      0.030008      0.010323
      5.08583      7.28318      4.13084        -0.002358     -0.016446     -0.005617
      7.55365      0.01355      6.21694         0.033414     -0.008378     -0.057431
      0.00095      1.48112      2.00000         0.096424      0.109685      0.218934
     -0.00288      1.47839      8.15788        -0.016300      0.001806     -0.076634
      3.76532      2.15723      6.18681        -0.024772     -0.042189     -0.112287
      1.31001      0.72945      4.13000         0.019234      0.069434     -0.196682
      5.08151      1.48100      2.04895        -0.176132      0.114947      0.084910
      5.07821      1.53649      8.25917         0.020068     -0.044534     -0.076799
      8.82791      0.75063      4.10326        -0.044833     -0.024753      0.030586
     -0.02775      4.35064      6.24404        -0.019998     -0.003496     -0.068168
     -1.34500      3.63090      2.07578         0.220090     -0.143576      0.068167
     -1.32193      3.63872      8.28391         0.020277     -0.000551     -0.102473
      2.54724      4.38324      6.17159        -0.006548      0.012650     -0.061187
      1.32920      3.63133      2.06605        -0.315354     -0.086035      0.095376
      1.29534      3.61337      8.25348        -0.025190      0.033171     -0.074593
      0.02215      2.94990      4.13311        -0.022699      0.089922     -0.017517
      5.09719      2.93887      4.14370        -0.076077     -0.134291     -0.296446
     -1.31655      6.60386      6.19682        -0.016249     -0.003437     -0.065141
      1.24842      6.56886      6.20641        -0.046852     -0.027761     -0.016574
      0.00782      5.79603      2.11654         0.198433     -0.061303     -0.000413
      0.00791      5.80465      8.31467         0.004339      0.003531     -0.064910
     -1.29718      5.12819      4.17191         0.060145     -0.040481     -0.010145
      2.54188      5.84536      2.06287        -0.158386      0.105365     -0.066860
      2.54276      5.87760      8.28687         0.030967      0.006697     -0.076181
      5.06524      5.76239      2.05753         0.177208      0.012294      0.179931
      5.09020      5.78246      8.19660         0.002599      0.029812     -0.083646
      3.79261      5.11061      4.12660         0.023968     -0.016937     -0.044026
     -3.78540      7.99724      2.01619        -0.188258     -0.020721      0.162746
     -3.76611      8.00898      8.18128         0.006942      0.009491     -0.072181
     -1.25221      8.01099      2.09289         0.062129      0.028902      0.230286
     -1.21629      8.05131      8.21742         0.014471     -0.003040     -0.107566
      1.24224      8.03556      2.10937        -0.062659     -0.108877     -0.025404
      1.23741      8.02988      8.33601         0.007096      0.003201     -0.065204
      3.80728      7.99919      2.05573         0.100991     -0.037681      0.078542
      3.84394      8.00463      8.25152        -0.008573      0.006308     -0.108326
      2.54183      7.29082      4.15634         0.019053      0.065759     -0.001054
 -----------------------------------------------------------------------------------
    total drift:                                0.002722      0.005628     -0.004858


--------------------------------------------------------------------------------------------------------



  FREE ENERGIE OF THE ION-ELECTRON SYSTEM (eV)
  ---------------------------------------------------
  free  energy   TOTEN  =      -438.87071344 eV

  energy  without entropy=     -438.87071344  energy(sigma->0) =     -438.87071344
 


--------------------------------------------------------------------------------------------------------


    POTLOK:  cpu time    0.3030: real time    0.3051


--------------------------------------------------------------------------------------------------------


     LOOP+:  cpu time  493.3940: real time  503.7774
    4ORBIT:  cpu time    0.0000: real time    0.0000
 


 total charge     
 
# of ion       s       p       d       tot
------------------------------------------
    1        0.503   0.504   8.318   9.326
    2        0.508   0.509   8.338   9.356
    3        0.505   0.511   8.312   9.328
    4        0.506   0.506   8.324   9.336
    5        0.510   0.515   8.328   9.353
    6        0.504   0.395   8.311   9.210
    7        0.513   0.416   8.311   9.240
    8        0.502   0.499   8.328   9.330
    9        0.498   0.495   8.318   9.311
   10        0.509   0.404   8.320   9.233
   11        0.516   0.406   8.317   9.239
   12        0.501   0.500   8.318   9.319
   13        0.501   0.500   8.321   9.322
   14        0.507   0.508   8.327   9.341
   15        0.509   0.402   8.314   9.225
   16        0.513   0.407   8.318   9.238
   17        0.507   0.507   8.318   9.333
   18        0.507   0.402   8.324   9.233
   19        0.508   0.400   8.336   9.244
   20        0.502   0.499   8.327   9.328
   21        0.498   0.498   8.322   9.319
   22        0.506   0.397   8.309   9.212
   23        0.512   0.413   8.315   9.239
   24        0.509   0.514   8.317   9.340
   25        0.514   0.523   8.312   9.349
   26        0.500   0.494   8.325   9.320
   27        0.505   0.498   8.326   9.329
   28        0.504   0.507   8.316   9.328
   29        0.503   0.503   8.316   9.322
   30        0.469   0.492   6.189   7.149
   31        0.464   0.378   6.161   7.002
   32        0.469   0.399   6.163   7.031
   33        0.470   0.499   6.177   7.146
   34        0.467   0.488   6.162   7.117
   35        0.467   0.391   6.136   6.994
   36        0.468   0.394   6.137   6.999
   37        0.468   0.489   6.192   7.149
   38        0.474   0.505   6.205   7.184
   39        0.467   0.391   6.148   7.006
   40        0.465   0.387   6.149   7.000
   41        0.470   0.494   6.195   7.159
   42        0.466   0.386   6.163   7.015
   43        0.466   0.389   6.162   7.018
   44        0.470   0.496   6.197   7.163
   45        0.468   0.494   6.174   7.135
   46        0.475   0.500   6.198   7.173
   47        0.470   0.497   6.191   7.158
   48        0.467   0.394   6.165   7.026
   49        0.470   0.396   6.163   7.029
   50        0.471   0.495   6.189   7.155
   51        0.474   0.396   6.182   7.053
   52        0.469   0.391   6.164   7.024
   53        0.466   0.395   6.150   7.011
   54        0.470   0.401   6.141   7.012
   55        0.474   0.496   6.205   7.175
   56        0.464   0.380   6.149   6.992
   57        0.467   0.396   6.158   7.021
   58        0.467   0.390   6.155   7.012
   59        0.473   0.399   6.170   7.042
   60        0.472   0.400   6.174   7.047
   61        0.469   0.389   6.164   7.023
   62        0.470   0.393   6.168   7.031
   63        0.470   0.393   6.168   7.031
   64        0.474   0.500   6.206   7.180
--------------------------------------------------
tot         31.099  28.708 457.255 517.062
 


 magnetization (x)
 
# of ion       s       p       d       tot
------------------------------------------
    1       -0.022  -0.053   0.740   0.665
    2       -0.021  -0.044   0.686   0.621
    3       -0.025  -0.059   0.771   0.686
    4       -0.022  -0.047   0.726   0.656
    5       -0.025  -0.053   0.722   0.644
    6       -0.032  -0.046   0.698   0.620
    7       -0.031  -0.048   0.733   0.653
    8       -0.020  -0.040   0.696   0.637
    9       -0.022  -0.047   0.737   0.668
   10       -0.030  -0.043   0.684   0.611
   11       -0.034  -0.038   0.706   0.633
   12       -0.022  -0.048   0.732   0.662
   13       -0.018  -0.040   0.720   0.663
   14       -0.020  -0.041   0.717   0.656
   15       -0.029  -0.042   0.713   0.642
   16       -0.030  -0.040   0.723   0.653
   17       -0.025  -0.050   0.757   0.682
   18       -0.021  -0.036   0.674   0.617
   19       -0.020  -0.029   0.630   0.582
   20       -0.020  -0.043   0.705   0.641
   21       -0.016  -0.040   0.721   0.665
   22       -0.031  -0.043   0.719   0.645
   23       -0.032  -0.045   0.722   0.644
   24       -0.027  -0.060   0.751   0.663
   25       -0.031  -0.069   0.775   0.675
   26       -0.019  -0.036   0.713   0.657
   27       -0.022  -0.042   0.713   0.649
   28       -0.024  -0.058   0.750   0.667
   29       -0.026  -0.058   0.742   0.658
   30       -0.003  -0.026   2.691   2.662
   31       -0.006  -0.026   2.746   2.713
   32        0.001  -0.022   2.749   2.729
   33        0.003  -0.017   2.753   2.739
   34       -0.001  -0.022   2.777   2.754
   35        0.006  -0.015   2.829   2.820
   36        0.007  -0.014   2.843   2.836
   37       -0.006  -0.029   2.677   2.642
   38       -0.011  -0.043   2.642   2.588
   39       -0.000  -0.022   2.789   2.766
   40        0.003  -0.019   2.794   2.778
   41       -0.004  -0.026   2.689   2.659
   42       -0.001  -0.020   2.737   2.716
   43       -0.003  -0.025   2.754   2.725
   44       -0.009  -0.038   2.665   2.618
   45        0.002  -0.018   2.746   2.731
   46       -0.003  -0.025   2.681   2.652
   47       -0.010  -0.041   2.697   2.647
   48       -0.005  -0.029   2.733   2.699
   49       -0.008  -0.034   2.750   2.707
   50       -0.003  -0.026   2.694   2.665
   51       -0.010  -0.028   2.681   2.642
   52       -0.006  -0.027   2.749   2.716
   53        0.004  -0.020   2.785   2.769
   54        0.006  -0.017   2.820   2.809
   55       -0.004  -0.021   2.665   2.640
   56        0.001  -0.016   2.784   2.769
   57        0.003  -0.018   2.771   2.756
   58        0.004  -0.014   2.772   2.762
   59       -0.001  -0.018   2.745   2.726
   60       -0.005  -0.026   2.707   2.676
   61       -0.005  -0.027   2.755   2.724
   62       -0.006  -0.028   2.722   2.688
   63       -0.004  -0.026   2.737   2.707
   64       -0.009  -0.038   2.637   2.590
--------------------------------------------------
tot         -0.800  -2.204 116.641 113.637
 
 BZINTS: Fermi energy: -0.048408;570.000000 electrons
         Band energy:***********;  BLOECHL correction: -0.008259

 total amount of memory used by VASP MPI-rank0   114063. kBytes
=======================================================================

   base      :      30000. kBytes
   nonlr-proj:      13042. kBytes
   fftplans  :       6403. kBytes
   grid      :      16455. kBytes
   one-center:         93. kBytes
   wavefun   :      48070. kBytes
 
  
  
 General timing and accounting informations for this job:
 ========================================================
  
                  Total CPU time used (sec):      528.983
                            User time (sec):      519.514
                          System time (sec):        9.469
                         Elapsed time (sec):      547.785
  
                   Maximum memory used (kb):      193572.
                   Average memory used (kb):           0.
  
                          Minor page faults:        82608
                          Major page faults:            0
                 Voluntary context switches:        10602
