  69  69   1   0
  0.2721370E+02  0.1010031E-08  0.1010031E-08  0.2125380E-08  0.5000000E-15
  1.000000000000000E-004
  CAR 
 SQS-NiFe                                
      6.88532104    -21.42082028  301     -0.07443441      1.00000000
    -21.421  0.0000E+00  0.0000E+00  0.0000E+00  0.0000E+00
    -21.326  0.0000E+00  0.0000E+00  0.0000E+00  0.0000E+00
    -21.232  0.0000E+00  0.0000E+00  0.0000E+00  0.0000E+00
    -21.138  0.0000E+00  0.0000E+00  0.0000E+00  0.0000E+00
    -21.043 -0.5780E-29  0.0000E+00 -0.5454E-30  0.0000E+00
    -20.949 -0.9245E-26 -0.2210E-30 -0.8728E-27 -0.2086E-31
    -20.855 -0.9441E-23 -0.4276E-27 -0.8917E-24 -0.4037E-28
    -20.760 -0.6149E-20 -0.5282E-24 -0.5811E-21 -0.4988E-25
    -20.666 -0.2553E-17 -0.4164E-21 -0.2415E-18 -0.3934E-22
    -20.572 -0.6551E-15 -0.2092E-18 -0.6205E-16 -0.1978E-19
    -20.477 -0.1095E-12 -0.6699E-16 -0.1039E-13 -0.6341E-17
    -20.383 -0.1160E-10 -0.1320E-13 -0.1105E-11 -0.1252E-14
    -20.289 -0.7761E-09 -0.1698E-11 -0.7434E-10 -0.1614E-12
    -20.194 -0.3266E-07 -0.1381E-09 -0.3155E-08 -0.1319E-10
    -20.100 -0.8573E-06 -0.7080E-08 -0.8405E-07 -0.6812E-09
    -20.006 -0.1387E-04 -0.2273E-06 -0.1393E-05 -0.2213E-07
    -19.911 -0.1351E-03 -0.4528E-05 -0.1414E-04 -0.4493E-06
    -19.817 -0.7555E-03 -0.5498E-04 -0.8543E-04 -0.5637E-05
    -19.722 -0.2113E-02 -0.3936E-03 -0.2848E-03 -0.4278E-04
    -19.628 -0.1043E-02 -0.1532E-02 -0.3832E-03 -0.1873E-03
    -19.534  0.9801E-02 -0.2337E-02  0.5415E-03 -0.4078E-03
    -19.439  0.2907E-01  0.3671E-02  0.3285E-02 -0.6148E-04
    -19.345  0.4793E-01  0.2157E-01  0.7807E-02  0.1974E-02
    -19.251  0.7707E-01  0.4206E-01  0.1508E-01  0.5942E-02
    -19.156  0.1177E+00  0.6042E-01  0.2618E-01  0.1164E-01
    -19.062  0.1285E+00  0.9167E-01  0.3831E-01  0.2029E-01
    -18.968  0.9114E-01  0.1269E+00  0.4691E-01  0.3226E-01
    -18.873  0.3924E-01  0.1218E+00  0.5061E-01  0.4376E-01
    -18.779  0.6090E-02  0.6773E-01  0.5118E-01  0.5015E-01
    -18.685 -0.3671E-02  0.1431E-01  0.5084E-01  0.5150E-01
    -18.590 -0.2619E-02 -0.5079E-02  0.5059E-01  0.5102E-01
    -18.496 -0.7570E-03 -0.4111E-02  0.5052E-01  0.5063E-01
    -18.401 -0.1214E-03 -0.1156E-02  0.5051E-01  0.5052E-01
    -18.307 -0.1160E-04 -0.1752E-03  0.5051E-01  0.5051E-01
    -18.213 -0.6783E-06 -0.1568E-04  0.5051E-01  0.5051E-01
    -18.118 -0.2465E-07 -0.8579E-06  0.5051E-01  0.5051E-01
    -18.024 -0.5616E-09 -0.2917E-07  0.5051E-01  0.5051E-01
    -17.930 -0.8061E-11 -0.6225E-09  0.5051E-01  0.5051E-01
    -17.835 -0.7320E-13 -0.8382E-11  0.5051E-01  0.5051E-01
    -17.741 -0.4200E-15 -0.7148E-13  0.5051E-01  0.5051E-01
    -17.647  0.0000E+00 -0.4067E-15  0.5051E-01  0.5051E-01
    -17.552  0.0000E+00  0.0000E+00  0.5051E-01  0.5051E-01
    -17.458  0.0000E+00  0.0000E+00  0.5051E-01  0.5051E-01
    -17.364  0.0000E+00  0.0000E+00  0.5051E-01  0.5051E-01
    -17.269  0.0000E+00  0.0000E+00  0.5051E-01  0.5051E-01
    -17.175  0.0000E+00  0.0000E+00  0.5051E-01  0.5051E-01
    -17.081  0.0000E+00  0.0000E+00  0.5051E-01  0.5051E-01
    -16.986  0.0000E+00  0.0000E+00  0.5051E-01  0.5051E-01
    -16.892  0.0000E+00  0.0000E+00  0.5051E-01  0.5051E-01
    -16.797  0.0000E+00  0.0000E+00  0.5051E-01  0.5051E-01
    -16.703  0.0000E+00  0.0000E+00  0.5051E-01  0.5051E-01
    -16.609  0.0000E+00  0.0000E+00  0.5051E-01  0.5051E-01
    -16.514  0.0000E+00  0.0000E+00  0.5051E-01  0.5051E-01
    -16.420  0.0000E+00  0.0000E+00  0.5051E-01  0.5051E-01
    -16.326  0.0000E+00  0.0000E+00  0.5051E-01  0.5051E-01
    -16.231  0.0000E+00  0.0000E+00  0.5051E-01  0.5051E-01
    -16.137  0.0000E+00  0.0000E+00  0.5051E-01  0.5051E-01
    -16.043  0.0000E+00  0.0000E+00  0.5051E-01  0.5051E-01
    -15.948  0.0000E+00  0.0000E+00  0.5051E-01  0.5051E-01
    -15.854  0.0000E+00  0.0000E+00  0.5051E-01  0.5051E-01
    -15.760  0.0000E+00  0.0000E+00  0.5051E-01  0.5051E-01
    -15.665  0.0000E+00  0.0000E+00  0.5051E-01  0.5051E-01
    -15.571  0.0000E+00  0.0000E+00  0.5051E-01  0.5051E-01
    -15.477  0.0000E+00  0.0000E+00  0.5051E-01  0.5051E-01
    -15.382  0.0000E+00  0.0000E+00  0.5051E-01  0.5051E-01
    -15.288  0.0000E+00  0.0000E+00  0.5051E-01  0.5051E-01
    -15.193  0.0000E+00  0.0000E+00  0.5051E-01  0.5051E-01
    -15.099  0.0000E+00  0.0000E+00  0.5051E-01  0.5051E-01
    -15.005  0.0000E+00  0.0000E+00  0.5051E-01  0.5051E-01
    -14.910  0.0000E+00  0.0000E+00  0.5051E-01  0.5051E-01
    -14.816  0.0000E+00  0.0000E+00  0.5051E-01  0.5051E-01
    -14.722  0.0000E+00  0.0000E+00  0.5051E-01  0.5051E-01
    -14.627  0.0000E+00  0.0000E+00  0.5051E-01  0.5051E-01
    -14.533  0.0000E+00  0.0000E+00  0.5051E-01  0.5051E-01
    -14.439  0.0000E+00  0.0000E+00  0.5051E-01  0.5051E-01
    -14.344  0.0000E+00  0.0000E+00  0.5051E-01  0.5051E-01
    -14.250  0.0000E+00  0.0000E+00  0.5051E-01  0.5051E-01
    -14.156  0.0000E+00  0.0000E+00  0.5051E-01  0.5051E-01
    -14.061  0.0000E+00  0.0000E+00  0.5051E-01  0.5051E-01
    -13.967  0.0000E+00  0.0000E+00  0.5051E-01  0.5051E-01
    -13.873  0.0000E+00  0.0000E+00  0.5051E-01  0.5051E-01
    -13.778  0.0000E+00  0.0000E+00  0.5051E-01  0.5051E-01
    -13.684  0.0000E+00  0.0000E+00  0.5051E-01  0.5051E-01
    -13.589  0.0000E+00  0.0000E+00  0.5051E-01  0.5051E-01
    -13.495  0.0000E+00  0.0000E+00  0.5051E-01  0.5051E-01
    -13.401  0.0000E+00  0.0000E+00  0.5051E-01  0.5051E-01
    -13.306  0.0000E+00  0.0000E+00  0.5051E-01  0.5051E-01
    -13.212  0.0000E+00  0.0000E+00  0.5051E-01  0.5051E-01
    -13.118  0.0000E+00  0.0000E+00  0.5051E-01  0.5051E-01
    -13.023  0.0000E+00  0.0000E+00  0.5051E-01  0.5051E-01
    -12.929  0.0000E+00  0.0000E+00  0.5051E-01  0.5051E-01
    -12.835  0.0000E+00  0.0000E+00  0.5051E-01  0.5051E-01
    -12.740  0.0000E+00  0.0000E+00  0.5051E-01  0.5051E-01
    -12.646  0.0000E+00  0.0000E+00  0.5051E-01  0.5051E-01
    -12.552  0.0000E+00  0.0000E+00  0.5051E-01  0.5051E-01
    -12.457  0.0000E+00  0.0000E+00  0.5051E-01  0.5051E-01
    -12.363  0.0000E+00  0.0000E+00  0.5051E-01  0.5051E-01
    -12.269  0.0000E+00  0.0000E+00  0.5051E-01  0.5051E-01
    -12.174  0.0000E+00  0.0000E+00  0.5051E-01  0.5051E-01
    -12.080  0.0000E+00  0.0000E+00  0.5051E-01  0.5051E-01
    -11.985  0.0000E+00  0.0000E+00  0.5051E-01  0.5051E-01
    -11.891  0.0000E+00  0.0000E+00  0.5051E-01  0.5051E-01
    -11.797  0.0000E+00  0.0000E+00  0.5051E-01  0.5051E-01
    -11.702  0.0000E+00  0.0000E+00  0.5051E-01  0.5051E-01
    -11.608  0.0000E+00  0.0000E+00  0.5051E-01  0.5051E-01
    -11.514  0.0000E+00  0.0000E+00  0.5051E-01  0.5051E-01
    -11.419  0.0000E+00  0.0000E+00  0.5051E-01  0.5051E-01
    -11.325  0.0000E+00  0.0000E+00  0.5051E-01  0.5051E-01
    -11.231  0.0000E+00  0.0000E+00  0.5051E-01  0.5051E-01
    -11.136  0.0000E+00  0.0000E+00  0.5051E-01  0.5051E-01
    -11.042  0.0000E+00  0.0000E+00  0.5051E-01  0.5051E-01
    -10.948  0.0000E+00  0.0000E+00  0.5051E-01  0.5051E-01
    -10.853  0.0000E+00  0.0000E+00  0.5051E-01  0.5051E-01
    -10.759  0.0000E+00  0.0000E+00  0.5051E-01  0.5051E-01
    -10.664  0.0000E+00  0.0000E+00  0.5051E-01  0.5051E-01
    -10.570  0.0000E+00  0.0000E+00  0.5051E-01  0.5051E-01
    -10.476  0.0000E+00  0.0000E+00  0.5051E-01  0.5051E-01
    -10.381  0.0000E+00  0.0000E+00  0.5051E-01  0.5051E-01
    -10.287  0.0000E+00  0.0000E+00  0.5051E-01  0.5051E-01
    -10.193  0.0000E+00  0.0000E+00  0.5051E-01  0.5051E-01
    -10.098 -0.2693E-31  0.0000E+00  0.5051E-01  0.5051E-01
    -10.004 -0.5183E-28 -0.6943E-30  0.5051E-01  0.5051E-01
     -9.910 -0.6370E-25 -0.1105E-26  0.5051E-01  0.5051E-01
     -9.815 -0.4995E-22 -0.1124E-23  0.5051E-01  0.5051E-01
     -9.721 -0.2497E-19 -0.7287E-21  0.5051E-01  0.5051E-01
     -9.627 -0.7952E-17 -0.3011E-18  0.5051E-01  0.5051E-01
     -9.532 -0.1559E-14 -0.7660E-16  0.5051E-01  0.5051E-01
     -9.438 -0.1994E-12 -0.1279E-13  0.5051E-01  0.5051E-01
     -9.344 -0.1613E-10 -0.1349E-11  0.5051E-01  0.5051E-01
     -9.249 -0.8226E-09 -0.8987E-10  0.5051E-01  0.5051E-01
     -9.155 -0.2627E-07 -0.3764E-08  0.5051E-01  0.5051E-01
     -9.060 -0.5205E-06 -0.9838E-07  0.5050E-01  0.5051E-01
     -8.966 -0.6297E-05 -0.1586E-05  0.5050E-01  0.5050E-01
     -8.872 -0.4522E-04 -0.1546E-04  0.5050E-01  0.5050E-01
     -8.777 -0.1818E-03 -0.8771E-04  0.5048E-01  0.5050E-01
     -8.683 -0.3466E-03 -0.2654E-03  0.5045E-01  0.5047E-01
     -8.589 -0.2316E-04 -0.3063E-03  0.5045E-01  0.5044E-01
     -8.494  0.1477E-02  0.4378E-03  0.5059E-01  0.5048E-01
     -8.400  0.5647E-02  0.2714E-02  0.5112E-01  0.5074E-01
     -8.306  0.1547E-01  0.8915E-02  0.5258E-01  0.5158E-01
     -8.211  0.2620E-01  0.2051E-01  0.5505E-01  0.5351E-01
     -8.117  0.2394E-01  0.2738E-01  0.5731E-01  0.5610E-01
     -8.023  0.1086E-01  0.1910E-01  0.5834E-01  0.5790E-01
     -7.928  0.5983E-02  0.7303E-02  0.5890E-01  0.5859E-01
     -7.834  0.1427E-01  0.7555E-02  0.6025E-01  0.5930E-01
     -7.740  0.2526E-01  0.1689E-01  0.6263E-01  0.6090E-01
     -7.645  0.3343E-01  0.2703E-01  0.6578E-01  0.6345E-01
     -7.551  0.3493E-01  0.3479E-01  0.6908E-01  0.6673E-01
     -7.456  0.2343E-01  0.3328E-01  0.7129E-01  0.6987E-01
     -7.362  0.5812E-02  0.1871E-01  0.7184E-01  0.7164E-01
     -7.268 -0.3655E-02  0.2367E-02  0.7149E-01  0.7186E-01
     -7.173  0.3766E-02 -0.4109E-02  0.7185E-01  0.7147E-01
     -7.079  0.3329E-01  0.4772E-02  0.7499E-01  0.7192E-01
     -6.985  0.6956E-01  0.3349E-01  0.8155E-01  0.7508E-01
     -6.890  0.7686E-01  0.6689E-01  0.8881E-01  0.8139E-01
     -6.796  0.5350E-01  0.7288E-01  0.9385E-01  0.8827E-01
     -6.702  0.4146E-01  0.5055E-01  0.9777E-01  0.9304E-01
     -6.607  0.6107E-01  0.3355E-01  0.1035E+00  0.9620E-01
     -6.513  0.8589E-01  0.3879E-01  0.1116E+00  0.9986E-01
     -6.419  0.8853E-01  0.5276E-01  0.1200E+00  0.1048E+00
     -6.324  0.7668E-01  0.6171E-01  0.1272E+00  0.1107E+00
     -6.230  0.7311E-01  0.6662E-01  0.1341E+00  0.1170E+00
     -6.136  0.8764E-01  0.7184E-01  0.1424E+00  0.1237E+00
     -6.041  0.1188E+00  0.7757E-01  0.1536E+00  0.1310E+00
     -5.947  0.1555E+00  0.8449E-01  0.1683E+00  0.1390E+00
     -5.852  0.1829E+00  0.9167E-01  0.1855E+00  0.1477E+00
     -5.758  0.2024E+00  0.9450E-01  0.2046E+00  0.1566E+00
     -5.664  0.2137E+00  0.9847E-01  0.2248E+00  0.1659E+00
     -5.569  0.2009E+00  0.1257E+00  0.2437E+00  0.1777E+00
     -5.475  0.1653E+00  0.1770E+00  0.2593E+00  0.1944E+00
     -5.381  0.1327E+00  0.2119E+00  0.2719E+00  0.2144E+00
     -5.286  0.1211E+00  0.2094E+00  0.2833E+00  0.2342E+00
     -5.192  0.1290E+00  0.1881E+00  0.2955E+00  0.2519E+00
     -5.098  0.1507E+00  0.1588E+00  0.3097E+00  0.2669E+00
     -5.003  0.1861E+00  0.1307E+00  0.3272E+00  0.2792E+00
     -4.909  0.2307E+00  0.1274E+00  0.3490E+00  0.2913E+00
     -4.815  0.2727E+00  0.1502E+00  0.3747E+00  0.3054E+00
     -4.720  0.3002E+00  0.1707E+00  0.4031E+00  0.3215E+00
     -4.626  0.3029E+00  0.1714E+00  0.4317E+00  0.3377E+00
     -4.531  0.2944E+00  0.1669E+00  0.4594E+00  0.3535E+00
     -4.437  0.3099E+00  0.1777E+00  0.4887E+00  0.3702E+00
     -4.343  0.3557E+00  0.2093E+00  0.5222E+00  0.3900E+00
     -4.248  0.4203E+00  0.2471E+00  0.5619E+00  0.4133E+00
     -4.154  0.4989E+00  0.2613E+00  0.6090E+00  0.4380E+00
     -4.060  0.5630E+00  0.2559E+00  0.6621E+00  0.4621E+00
     -3.965  0.5775E+00  0.2661E+00  0.7166E+00  0.4872E+00
     -3.871  0.5557E+00  0.2896E+00  0.7690E+00  0.5145E+00
     -3.777  0.5427E+00  0.3021E+00  0.8202E+00  0.5430E+00
     -3.682  0.5456E+00  0.3143E+00  0.8717E+00  0.5727E+00
     -3.588  0.5411E+00  0.3485E+00  0.9228E+00  0.6056E+00
     -3.494  0.5346E+00  0.3915E+00  0.9732E+00  0.6425E+00
     -3.399  0.5452E+00  0.4153E+00  0.1025E+01  0.6817E+00
     -3.305  0.5721E+00  0.4149E+00  0.1079E+01  0.7208E+00
     -3.211  0.6005E+00  0.4114E+00  0.1135E+01  0.7597E+00
     -3.116  0.6130E+00  0.4303E+00  0.1193E+01  0.8003E+00
     -3.022  0.6103E+00  0.4611E+00  0.1251E+01  0.8438E+00
     -2.927  0.6109E+00  0.4721E+00  0.1308E+01  0.8883E+00
     -2.833  0.6296E+00  0.4657E+00  0.1368E+01  0.9322E+00
     -2.739  0.6743E+00  0.4705E+00  0.1431E+01  0.9766E+00
     -2.644  0.7446E+00  0.5011E+00  0.1502E+01  0.1024E+01
     -2.550  0.8265E+00  0.5422E+00  0.1580E+01  0.1075E+01
     -2.456  0.8972E+00  0.5660E+00  0.1664E+01  0.1128E+01
     -2.361  0.9332E+00  0.5688E+00  0.1752E+01  0.1182E+01
     -2.267  0.9240E+00  0.5682E+00  0.1839E+01  0.1236E+01
     -2.173  0.8814E+00  0.5723E+00  0.1923E+01  0.1290E+01
     -2.078  0.8289E+00  0.5817E+00  0.2001E+01  0.1345E+01
     -1.984  0.7889E+00  0.6056E+00  0.2075E+01  0.1402E+01
     -1.890  0.7739E+00  0.6551E+00  0.2148E+01  0.1464E+01
     -1.795  0.7787E+00  0.7169E+00  0.2222E+01  0.1531E+01
     -1.701  0.7985E+00  0.7602E+00  0.2297E+01  0.1603E+01
     -1.607  0.8293E+00  0.7793E+00  0.2375E+01  0.1676E+01
     -1.512  0.8555E+00  0.7952E+00  0.2456E+01  0.1752E+01
     -1.418  0.8679E+00  0.8101E+00  0.2538E+01  0.1828E+01
     -1.323  0.8717E+00  0.8093E+00  0.2620E+01  0.1904E+01
     -1.229  0.8709E+00  0.7945E+00  0.2702E+01  0.1979E+01
     -1.135  0.8668E+00  0.7702E+00  0.2784E+01  0.2052E+01
     -1.040  0.8714E+00  0.7360E+00  0.2866E+01  0.2121E+01
     -0.946  0.8823E+00  0.7017E+00  0.2950E+01  0.2188E+01
     -0.852  0.8613E+00  0.6732E+00  0.3031E+01  0.2251E+01
     -0.757  0.7847E+00  0.6456E+00  0.3105E+01  0.2312E+01
     -0.663  0.6789E+00  0.6238E+00  0.3169E+01  0.2371E+01
     -0.569  0.5836E+00  0.6152E+00  0.3224E+01  0.2429E+01
     -0.474  0.5095E+00  0.6153E+00  0.3272E+01  0.2487E+01
     -0.380  0.4439E+00  0.6178E+00  0.3314E+01  0.2545E+01
     -0.286  0.3795E+00  0.6144E+00  0.3350E+01  0.2603E+01
     -0.191  0.3229E+00  0.5985E+00  0.3380E+01  0.2660E+01
     -0.097  0.2915E+00  0.5789E+00  0.3408E+01  0.2714E+01
     -0.003  0.2914E+00  0.5616E+00  0.3435E+01  0.2767E+01
      0.092  0.3003E+00  0.5426E+00  0.3464E+01  0.2819E+01
      0.186  0.3026E+00  0.5302E+00  0.3492E+01  0.2869E+01
      0.281  0.3074E+00  0.5333E+00  0.3521E+01  0.2919E+01
      0.375  0.3128E+00  0.5471E+00  0.3551E+01  0.2971E+01
      0.469  0.3022E+00  0.5617E+00  0.3579E+01  0.3024E+01
      0.564  0.2692E+00  0.5650E+00  0.3605E+01  0.3077E+01
      0.658  0.2250E+00  0.5547E+00  0.3626E+01  0.3129E+01
      0.752  0.1914E+00  0.5499E+00  0.3644E+01  0.3181E+01
      0.847  0.1760E+00  0.5624E+00  0.3661E+01  0.3234E+01
      0.941  0.1642E+00  0.5732E+00  0.3676E+01  0.3288E+01
      1.035  0.1494E+00  0.5655E+00  0.3690E+01  0.3342E+01
      1.130  0.1409E+00  0.5493E+00  0.3703E+01  0.3393E+01
      1.224  0.1420E+00  0.5406E+00  0.3717E+01  0.3444E+01
      1.318  0.1445E+00  0.5413E+00  0.3730E+01  0.3495E+01
      1.413  0.1331E+00  0.5235E+00  0.3743E+01  0.3545E+01
      1.507  0.1083E+00  0.4607E+00  0.3753E+01  0.3588E+01
      1.602  0.8967E-01  0.3690E+00  0.3762E+01  0.3623E+01
      1.696  0.8345E-01  0.2836E+00  0.3770E+01  0.3650E+01
      1.790  0.8802E-01  0.2234E+00  0.3778E+01  0.3671E+01
      1.885  0.1077E+00  0.1875E+00  0.3788E+01  0.3689E+01
      1.979  0.1260E+00  0.1691E+00  0.3800E+01  0.3705E+01
      2.073  0.1245E+00  0.1635E+00  0.3812E+01  0.3720E+01
      2.168  0.1244E+00  0.1621E+00  0.3823E+01  0.3735E+01
      2.262  0.1371E+00  0.1505E+00  0.3836E+01  0.3750E+01
      2.356  0.1289E+00  0.1281E+00  0.3849E+01  0.3762E+01
      2.451  0.9374E-01  0.1146E+00  0.3857E+01  0.3772E+01
      2.545  0.7236E-01  0.1242E+00  0.3864E+01  0.3784E+01
      2.639  0.7806E-01  0.1438E+00  0.3872E+01  0.3798E+01
      2.734  0.8696E-01  0.1476E+00  0.3880E+01  0.3812E+01
      2.828  0.8768E-01  0.1368E+00  0.3888E+01  0.3825E+01
      2.922  0.8776E-01  0.1325E+00  0.3896E+01  0.3837E+01
      3.017  0.8680E-01  0.1339E+00  0.3905E+01  0.3850E+01
      3.111  0.8503E-01  0.1241E+00  0.3913E+01  0.3861E+01
      3.206  0.9726E-01  0.1027E+00  0.3922E+01  0.3871E+01
      3.300  0.1165E+00  0.8284E-01  0.3933E+01  0.3879E+01
      3.394  0.1156E+00  0.7279E-01  0.3944E+01  0.3886E+01
      3.489  0.9629E-01  0.7556E-01  0.3953E+01  0.3893E+01
      3.583  0.8232E-01  0.8988E-01  0.3960E+01  0.3901E+01
      3.677  0.8276E-01  0.1114E+00  0.3968E+01  0.3912E+01
      3.772  0.9330E-01  0.1348E+00  0.3977E+01  0.3925E+01
      3.866  0.1070E+00  0.1386E+00  0.3987E+01  0.3938E+01
      3.960  0.1091E+00  0.1109E+00  0.3997E+01  0.3948E+01
      4.055  0.9154E-01  0.8271E-01  0.4006E+01  0.3956E+01
      4.149  0.7103E-01  0.8287E-01  0.4013E+01  0.3964E+01
      4.243  0.6483E-01  0.9860E-01  0.4019E+01  0.3973E+01
      4.338  0.6210E-01  0.1077E+00  0.4025E+01  0.3983E+01
      4.432  0.4443E-01  0.1086E+00  0.4029E+01  0.3994E+01
      4.526  0.1755E-01  0.1022E+00  0.4031E+01  0.4003E+01
      4.621  0.6858E-03  0.8701E-01  0.4031E+01  0.4011E+01
      4.715 -0.2586E-02  0.7314E-01  0.4030E+01  0.4018E+01
      4.810 -0.1191E-02  0.6324E-01  0.4030E+01  0.4024E+01
      4.904 -0.2586E-03  0.4557E-01  0.4030E+01  0.4029E+01
      4.998 -0.3206E-04  0.2033E-01  0.4030E+01  0.4030E+01
      5.093 -0.2400E-05  0.2563E-02  0.4030E+01  0.4031E+01
      5.187 -0.1113E-06 -0.2299E-02  0.4030E+01  0.4030E+01
      5.281 -0.3234E-08 -0.1386E-02  0.4030E+01  0.4030E+01
      5.376 -0.5943E-10 -0.3621E-03  0.4030E+01  0.4030E+01
      5.470 -0.6934E-12 -0.5373E-04  0.4030E+01  0.4030E+01
      5.564 -0.5156E-14 -0.4846E-05  0.4030E+01  0.4030E+01
      5.659 -0.2113E-16 -0.2727E-06  0.4030E+01  0.4030E+01
      5.753  0.0000E+00 -0.9693E-08  0.4030E+01  0.4030E+01
      5.847  0.0000E+00 -0.2189E-09  0.4030E+01  0.4030E+01
      5.942  0.0000E+00 -0.3149E-11  0.4030E+01  0.4030E+01
      6.036  0.0000E+00 -0.2892E-13  0.4030E+01  0.4030E+01
      6.130  0.0000E+00 -0.1743E-15  0.4030E+01  0.4030E+01
      6.225  0.0000E+00  0.0000E+00  0.4030E+01  0.4030E+01
      6.319  0.0000E+00  0.0000E+00  0.4030E+01  0.4030E+01
      6.414  0.0000E+00  0.0000E+00  0.4030E+01  0.4030E+01
      6.508  0.0000E+00  0.0000E+00  0.4030E+01  0.4030E+01
      6.602  0.0000E+00  0.0000E+00  0.4030E+01  0.4030E+01
      6.697  0.0000E+00  0.0000E+00  0.4030E+01  0.4030E+01
      6.791  0.0000E+00  0.0000E+00  0.4030E+01  0.4030E+01
      6.885  0.0000E+00  0.0000E+00  0.4030E+01  0.4030E+01
      6.88532104    -21.42082028  301     -0.07443441      1.00000000
    -21.421  0.0000E+00  0.0000E+00  0.0000E+00  0.0000E+00  0.0000E+00  0.0000E+00
    -21.326  0.0000E+00  0.0000E+00  0.0000E+00  0.0000E+00  0.0000E+00  0.0000E+00
    -21.232  0.0000E+00  0.0000E+00  0.0000E+00  0.0000E+00  0.0000E+00  0.0000E+00
    -21.138  0.0000E+00  0.0000E+00  0.0000E+00  0.0000E+00  0.0000E+00  0.0000E+00
    -21.043 -0.1969E-34  0.0000E+00 -0.1241E-34  0.0000E+00 -0.2441E-35  0.0000E+00
    -20.949 -0.3148E-31 -0.6116E-36 -0.1984E-31 -0.3862E-36 -0.3903E-32 -0.8208E-37
    -20.855 -0.3215E-28 -0.1183E-32 -0.2026E-28 -0.7470E-33 -0.3986E-29 -0.1588E-33
    -20.760 -0.2094E-25 -0.1461E-29 -0.1319E-25 -0.9226E-30 -0.2596E-26 -0.1962E-30
    -20.666 -0.8691E-23 -0.1151E-26 -0.5478E-23 -0.7271E-27 -0.1078E-23 -0.1546E-27
    -20.572 -0.2230E-20 -0.5784E-24 -0.1405E-20 -0.3653E-24 -0.2766E-21 -0.7771E-25
    -20.477 -0.3726E-18 -0.1851E-21 -0.2348E-18 -0.1169E-21 -0.4622E-19 -0.2488E-22
    -20.383 -0.3947E-16 -0.3647E-19 -0.2488E-16 -0.2304E-19 -0.4897E-17 -0.4901E-20
    -20.289 -0.2641E-14 -0.4689E-17 -0.1665E-14 -0.2962E-17 -0.3277E-15 -0.6304E-18
    -20.194 -0.1111E-12 -0.3814E-15 -0.7004E-13 -0.2410E-15 -0.1379E-13 -0.5129E-16
    -20.100 -0.2916E-11 -0.1955E-13 -0.1838E-11 -0.1235E-13 -0.3619E-12 -0.2629E-14
    -20.006 -0.4713E-10 -0.6273E-12 -0.2971E-10 -0.3964E-12 -0.5851E-11 -0.8441E-13
    -19.911 -0.4581E-09 -0.1248E-10 -0.2888E-09 -0.7890E-11 -0.5689E-10 -0.1680E-11
    -19.817 -0.2539E-08 -0.1513E-09 -0.1602E-08 -0.9566E-10 -0.3158E-09 -0.2038E-10
    -19.722 -0.6821E-08 -0.1078E-08 -0.4308E-08 -0.6820E-09 -0.8536E-09 -0.1454E-09
    -19.628 -0.9171E-09 -0.4132E-08 -0.6308E-09 -0.2617E-08 -0.1577E-09 -0.5581E-09
    -19.534  0.4397E-07 -0.5700E-08  0.2755E-07 -0.3639E-08  0.5313E-08 -0.7795E-09
    -19.439  0.1171E-06  0.1367E-07  0.7368E-07  0.8504E-08  0.1440E-07  0.1794E-08
    -19.345  0.1400E-06  0.6862E-07  0.8906E-07  0.4318E-07  0.1800E-07  0.9151E-08
    -19.251  0.8703E-07  0.1215E-06  0.5771E-07  0.7717E-07  0.1313E-07  0.1636E-07
    -19.156  0.2827E-07  0.1228E-06  0.2214E-07  0.7976E-07  0.7272E-08  0.1707E-07
    -19.062  0.4320E-08  0.8496E-07  0.6628E-08  0.5780E-07  0.4489E-08  0.1322E-07
    -18.968 -0.4690E-09  0.4185E-07  0.2312E-08  0.3134E-07  0.3251E-08  0.9230E-08
    -18.873 -0.8746E-09  0.1084E-07  0.7993E-09  0.1102E-07  0.1924E-08  0.5938E-08
    -18.779 -0.5119E-09 -0.1564E-08  0.3442E-10  0.1357E-08  0.5461E-09  0.2888E-08
    -18.685 -0.2116E-09 -0.2322E-08 -0.2137E-09 -0.8867E-09 -0.1131E-09  0.5949E-09
    -18.590 -0.6990E-10 -0.9057E-09 -0.1381E-09 -0.7201E-09 -0.1396E-09 -0.2582E-09
    -18.496 -0.1653E-10 -0.2232E-09 -0.4098E-10 -0.2900E-09 -0.4567E-10 -0.2131E-09
    -18.401 -0.2516E-11 -0.3988E-10 -0.6740E-11 -0.7036E-10 -0.7722E-11 -0.6288E-10
    -18.307 -0.2378E-12 -0.5031E-11 -0.6540E-12 -0.1037E-10 -0.7564E-12 -0.9946E-11
    -18.213 -0.1392E-13 -0.4218E-12 -0.3860E-13 -0.9348E-12 -0.4480E-13 -0.9227E-12
    -18.118 -0.5075E-15 -0.2267E-13 -0.1410E-14 -0.5200E-13 -0.1639E-14 -0.5203E-13
    -18.024 -0.1160E-16 -0.7714E-15 -0.3219E-16 -0.1802E-14 -0.3744E-16 -0.1816E-14
    -17.930 -0.1671E-18 -0.1657E-16 -0.4626E-18 -0.3914E-16 -0.5381E-18 -0.3965E-16
    -17.835 -0.1522E-20 -0.2252E-18 -0.4201E-20 -0.5361E-18 -0.4887E-20 -0.5451E-18
    -17.741 -0.8641E-23 -0.1937E-20 -0.2421E-22 -0.4644E-20 -0.2818E-22 -0.4737E-20
    -17.647  0.0000E+00 -0.1122E-22  0.0000E+00 -0.2692E-22  0.0000E+00 -0.2760E-22
    -17.552  0.0000E+00  0.0000E+00  0.0000E+00  0.0000E+00  0.0000E+00  0.0000E+00
    -17.458  0.0000E+00  0.0000E+00  0.0000E+00  0.0000E+00  0.0000E+00  0.0000E+00
    -17.364  0.0000E+00  0.0000E+00  0.0000E+00  0.0000E+00  0.0000E+00  0.0000E+00
    -17.269  0.0000E+00  0.0000E+00  0.0000E+00  0.0000E+00  0.0000E+00  0.0000E+00
    -17.175  0.0000E+00  0.0000E+00  0.0000E+00  0.0000E+00  0.0000E+00  0.0000E+00
    -17.081  0.0000E+00  0.0000E+00  0.0000E+00  0.0000E+00  0.0000E+00  0.0000E+00
    -16.986  0.0000E+00  0.0000E+00  0.0000E+00  0.0000E+00  0.0000E+00  0.0000E+00
    -16.892  0.0000E+00  0.0000E+00  0.0000E+00  0.0000E+00  0.0000E+00  0.0000E+00
    -16.797  0.0000E+00  0.0000E+00  0.0000E+00  0.0000E+00  0.0000E+00  0.0000E+00
    -16.703  0.0000E+00  0.0000E+00  0.0000E+00  0.0000E+00  0.0000E+00  0.0000E+00
    -16.609  0.0000E+00  0.0000E+00  0.0000E+00  0.0000E+00  0.0000E+00  0.0000E+00
    -16.514  0.0000E+00  0.0000E+00  0.0000E+00  0.0000E+00  0.0000E+00  0.0000E+00
    -16.420  0.0000E+00  0.0000E+00  0.0000E+00  0.0000E+00  0.0000E+00  0.0000E+00
    -16.326  0.0000E+00  0.0000E+00  0.0000E+00  0.0000E+00  0.0000E+00  0.0000E+00
    -16.231  0.0000E+00  0.0000E+00  0.0000E+00  0.0000E+00  0.0000E+00  0.0000E+00
    -16.137  0.0000E+00  0.0000E+00  0.0000E+00  0.0000E+00  0.0000E+00  0.0000E+00
    -16.043  0.0000E+00  0.0000E+00  0.0000E+00  0.0000E+00  0.0000E+00  0.0000E+00
    -15.948  0.0000E+00  0.0000E+00  0.0000E+00  0.0000E+00  0.0000E+00  0.0000E+00
    -15.854  0.0000E+00  0.0000E+00  0.0000E+00  0.0000E+00  0.0000E+00  0.0000E+00
    -15.760  0.0000E+00  0.0000E+00  0.0000E+00  0.0000E+00  0.0000E+00  0.0000E+00
    -15.665  0.0000E+00  0.0000E+00  0.0000E+00  0.0000E+00  0.0000E+00  0.0000E+00
    -15.571  0.0000E+00  0.0000E+00  0.0000E+00  0.0000E+00  0.0000E+00  0.0000E+00
    -15.477  0.0000E+00  0.0000E+00  0.0000E+00  0.0000E+00  0.0000E+00  0.0000E+00
    -15.382  0.0000E+00  0.0000E+00  0.0000E+00  0.0000E+00  0.0000E+00  0.0000E+00
    -15.288  0.0000E+00  0.0000E+00  0.0000E+00  0.0000E+00  0.0000E+00  0.0000E+00
    -15.193  0.0000E+00  0.0000E+00  0.0000E+00  0.0000E+00  0.0000E+00  0.0000E+00
    -15.099  0.0000E+00  0.0000E+00  0.0000E+00  0.0000E+00  0.0000E+00  0.0000E+00
    -15.005  0.0000E+00  0.0000E+00  0.0000E+00  0.0000E+00  0.0000E+00  0.0000E+00
    -14.910  0.0000E+00  0.0000E+00  0.0000E+00  0.0000E+00  0.0000E+00  0.0000E+00
    -14.816  0.0000E+00  0.0000E+00  0.0000E+00  0.0000E+00  0.0000E+00  0.0000E+00
    -14.722  0.0000E+00  0.0000E+00  0.0000E+00  0.0000E+00  0.0000E+00  0.0000E+00
    -14.627  0.0000E+00  0.0000E+00  0.0000E+00  0.0000E+00  0.0000E+00  0.0000E+00
    -14.533  0.0000E+00  0.0000E+00  0.0000E+00  0.0000E+00  0.0000E+00  0.0000E+00
    -14.439  0.0000E+00  0.0000E+00  0.0000E+00  0.0000E+00  0.0000E+00  0.0000E+00
    -14.344  0.0000E+00  0.0000E+00  0.0000E+00  0.0000E+00  0.0000E+00  0.0000E+00
    -14.250  0.0000E+00  0.0000E+00  0.0000E+00  0.0000E+00  0.0000E+00  0.0000E+00
    -14.156  0.0000E+00  0.0000E+00  0.0000E+00  0.0000E+00  0.0000E+00  0.0000E+00
    -14.061  0.0000E+00  0.0000E+00  0.0000E+00  0.0000E+00  0.0000E+00  0.0000E+00
    -13.967  0.0000E+00  0.0000E+00  0.0000E+00  0.0000E+00  0.0000E+00  0.0000E+00
    -13.873  0.0000E+00  0.0000E+00  0.0000E+00  0.0000E+00  0.0000E+00  0.0000E+00
    -13.778  0.0000E+00  0.0000E+00  0.0000E+00  0.0000E+00  0.0000E+00  0.0000E+00
    -13.684  0.0000E+00  0.0000E+00  0.0000E+00  0.0000E+00  0.0000E+00  0.0000E+00
    -13.589  0.0000E+00  0.0000E+00  0.0000E+00  0.0000E+00  0.0000E+00  0.0000E+00
    -13.495  0.0000E+00  0.0000E+00  0.0000E+00  0.0000E+00  0.0000E+00  0.0000E+00
    -13.401  0.0000E+00  0.0000E+00  0.0000E+00  0.0000E+00  0.0000E+00  0.0000E+00
    -13.306  0.0000E+00  0.0000E+00  0.0000E+00  0.0000E+00  0.0000E+00  0.0000E+00
    -13.212  0.0000E+00  0.0000E+00  0.0000E+00  0.0000E+00  0.0000E+00  0.0000E+00
    -13.118  0.0000E+00  0.0000E+00  0.0000E+00  0.0000E+00  0.0000E+00  0.0000E+00
    -13.023  0.0000E+00  0.0000E+00  0.0000E+00  0.0000E+00  0.0000E+00  0.0000E+00
    -12.929  0.0000E+00  0.0000E+00  0.0000E+00  0.0000E+00  0.0000E+00  0.0000E+00
    -12.835  0.0000E+00  0.0000E+00  0.0000E+00  0.0000E+00  0.0000E+00  0.0000E+00
    -12.740  0.0000E+00  0.0000E+00  0.0000E+00  0.0000E+00  0.0000E+00  0.0000E+00
    -12.646  0.0000E+00  0.0000E+00  0.0000E+00  0.0000E+00  0.0000E+00  0.0000E+00
    -12.552  0.0000E+00  0.0000E+00  0.0000E+00  0.0000E+00  0.0000E+00  0.0000E+00
    -12.457  0.0000E+00  0.0000E+00  0.0000E+00  0.0000E+00  0.0000E+00  0.0000E+00
    -12.363  0.0000E+00  0.0000E+00  0.0000E+00  0.0000E+00  0.0000E+00  0.0000E+00
    -12.269  0.0000E+00  0.0000E+00  0.0000E+00  0.0000E+00  0.0000E+00  0.0000E+00
    -12.174  0.0000E+00  0.0000E+00  0.0000E+00  0.0000E+00  0.0000E+00  0.0000E+00
    -12.080  0.0000E+00  0.0000E+00  0.0000E+00  0.0000E+00  0.0000E+00  0.0000E+00
    -11.985  0.0000E+00  0.0000E+00  0.0000E+00  0.0000E+00  0.0000E+00  0.0000E+00
    -11.891  0.0000E+00  0.0000E+00  0.0000E+00  0.0000E+00  0.0000E+00  0.0000E+00
    -11.797  0.0000E+00  0.0000E+00  0.0000E+00  0.0000E+00  0.0000E+00  0.0000E+00
    -11.702  0.0000E+00  0.0000E+00  0.0000E+00  0.0000E+00  0.0000E+00  0.0000E+00
    -11.608  0.0000E+00  0.0000E+00  0.0000E+00  0.0000E+00  0.0000E+00  0.0000E+00
    -11.514  0.0000E+00  0.0000E+00  0.0000E+00  0.0000E+00  0.0000E+00  0.0000E+00
    -11.419  0.0000E+00  0.0000E+00  0.0000E+00  0.0000E+00  0.0000E+00  0.0000E+00
    -11.325  0.0000E+00  0.0000E+00  0.0000E+00  0.0000E+00  0.0000E+00  0.0000E+00
    -11.231  0.0000E+00  0.0000E+00  0.0000E+00  0.0000E+00  0.0000E+00  0.0000E+00
    -11.136  0.0000E+00  0.0000E+00  0.0000E+00  0.0000E+00  0.0000E+00  0.0000E+00
    -11.042  0.0000E+00  0.0000E+00  0.0000E+00  0.0000E+00  0.0000E+00  0.0000E+00
    -10.948  0.0000E+00  0.0000E+00  0.0000E+00  0.0000E+00  0.0000E+00  0.0000E+00
    -10.853  0.0000E+00  0.0000E+00  0.0000E+00  0.0000E+00  0.0000E+00  0.0000E+00
    -10.759  0.0000E+00  0.0000E+00  0.0000E+00  0.0000E+00  0.0000E+00  0.0000E+00
    -10.664  0.0000E+00  0.0000E+00  0.0000E+00  0.0000E+00  0.0000E+00  0.0000E+00
    -10.570  0.0000E+00  0.0000E+00  0.0000E+00  0.0000E+00  0.0000E+00  0.0000E+00
    -10.476  0.0000E+00  0.0000E+00  0.0000E+00  0.0000E+00  0.0000E+00  0.0000E+00
    -10.381  0.0000E+00  0.0000E+00  0.0000E+00  0.0000E+00  0.0000E+00  0.0000E+00
    -10.287  0.0000E+00  0.0000E+00  0.0000E+00  0.0000E+00  0.0000E+00  0.0000E+00
    -10.193  0.0000E+00  0.0000E+00  0.0000E+00  0.0000E+00  0.0000E+00  0.0000E+00
    -10.098 -0.4630E-31  0.0000E+00 -0.3110E-33  0.0000E+00 -0.1179E-33  0.0000E+00
    -10.004 -0.8912E-28 -0.1212E-29 -0.5986E-30 -0.5872E-32 -0.2268E-30 -0.3801E-32
     -9.910 -0.1095E-24 -0.1930E-26 -0.7357E-27 -0.9349E-29 -0.2788E-27 -0.6052E-29
     -9.815 -0.8589E-22 -0.1962E-23 -0.5769E-24 -0.9505E-26 -0.2186E-24 -0.6152E-26
     -9.721 -0.4294E-19 -0.1272E-20 -0.2884E-21 -0.6163E-23 -0.1093E-21 -0.3989E-23
     -9.627 -0.1368E-16 -0.5258E-18 -0.9186E-19 -0.2547E-20 -0.3481E-19 -0.1649E-20
     -9.532 -0.2680E-14 -0.1337E-15 -0.1801E-16 -0.6479E-18 -0.6823E-17 -0.4194E-18
     -9.438 -0.3428E-12 -0.2234E-13 -0.2303E-14 -0.1082E-15 -0.8726E-15 -0.7005E-16
     -9.344 -0.2774E-10 -0.2355E-11 -0.1864E-12 -0.1141E-13 -0.7061E-13 -0.7386E-14
     -9.249 -0.1414E-08 -0.1569E-09 -0.9510E-11 -0.7606E-12 -0.3600E-11 -0.4920E-12
     -9.155 -0.4517E-07 -0.6571E-08 -0.3042E-09 -0.3190E-10 -0.1150E-09 -0.2061E-10
     -9.060 -0.8949E-06 -0.1718E-06 -0.6061E-08 -0.8371E-09 -0.2278E-08 -0.5386E-09
     -8.966 -0.1083E-04 -0.2769E-05 -0.7459E-07 -0.1367E-07 -0.2755E-07 -0.8681E-08
     -8.872 -0.7768E-04 -0.2698E-04 -0.5657E-06 -0.1385E-06 -0.1976E-06 -0.8454E-07
     -8.777 -0.3114E-03 -0.1527E-03 -0.2724E-05 -0.8903E-06 -0.7912E-06 -0.4778E-06
     -8.683 -0.5860E-03 -0.4584E-03 -0.9356E-05 -0.3980E-05 -0.1480E-05 -0.1426E-05
     -8.589  0.8417E-05 -0.5015E-03 -0.2586E-04 -0.1444E-04  0.7506E-07 -0.1492E-05
     -8.494  0.2641E-02  0.8842E-03 -0.3682E-04 -0.3890E-04  0.6827E-05  0.3058E-05