       N       E                     dE             d eps       ncg     rms          rms(c)
DAV:   1    -0.436268248461E+03   -0.43627E+03   -0.15541E+03  8412   0.479E+01    0.797E+00
RMM:   2    -0.449161829449E+03   -0.12894E+02   -0.12707E+02  8097   0.240E+01    0.124E+01
RMM:   3    -0.451712290845E+03   -0.25505E+01   -0.11078E+01  8167   0.651E+00    0.251E+01
RMM:   4    -0.450386314312E+03    0.13260E+01   -0.15179E+00  8122   0.289E+00    0.167E+01
RMM:   5    -0.449337474800E+03    0.10488E+01   -0.57198E-01  8114   0.180E+00    0.652E+00
RMM:   6    -0.449355458110E+03   -0.17983E-01   -0.27309E-01  8074   0.120E+00    0.825E+00
RMM:   7    -0.449274813248E+03    0.80645E-01   -0.10541E-01  8067   0.821E-01    0.509E+00
RMM:   8    -0.449207892181E+03    0.66921E-01   -0.36369E-02  8062   0.492E-01    0.258E+00
RMM:   9    -0.449200214287E+03    0.76779E-02   -0.72744E-03  8158   0.194E-01    0.208E+00
RMM:  10    -0.449200303437E+03   -0.89150E-04   -0.11701E-03 10270   0.420E-02    0.207E+00
RMM:  11    -0.449200040414E+03    0.26302E-03   -0.80675E-05  6804   0.185E-02    0.207E+00
RMM:  12    -0.449200141536E+03   -0.10112E-03   -0.13079E-04  7818   0.289E-02    0.208E+00
RMM:  13    -0.449200963362E+03   -0.82183E-03   -0.18270E-03  7967   0.107E-01    0.213E+00
RMM:  14    -0.449196958318E+03    0.40050E-02   -0.54616E-03  8015   0.179E-01    0.199E+00
RMM:  15    -0.449195583547E+03    0.13748E-02   -0.47026E-03  7998   0.174E-01    0.190E+00
RMM:  16    -0.449194334870E+03    0.12487E-02   -0.35503E-03  8051   0.150E-01    0.176E+00
RMM:  17    -0.449192041293E+03    0.22936E-02   -0.19371E-03  8017   0.118E-01    0.152E+00
RMM:  18    -0.449191183854E+03    0.85744E-03   -0.17472E-03  8031   0.105E-01    0.137E+00
RMM:  19    -0.449188775301E+03    0.24086E-02   -0.15113E-03  8017   0.103E-01    0.103E+00
RMM:  20    -0.449187919055E+03    0.85625E-03   -0.14566E-03  8038   0.950E-02    0.897E-01
RMM:  21    -0.449185888356E+03    0.20307E-02   -0.18962E-03  8048   0.108E-01    0.590E-01
RMM:  22    -0.449185472844E+03    0.41551E-03   -0.63775E-04  8016   0.629E-02    0.499E-01
RMM:  23    -0.449185031109E+03    0.44174E-03   -0.45292E-04  8044   0.529E-02    0.343E-01
RMM:  24    -0.449185009203E+03    0.21906E-04   -0.27386E-04  7937   0.428E-02    0.238E-01
RMM:  25    -0.449185603455E+03   -0.59425E-03   -0.27412E-04  7981   0.403E-02    0.177E-01
RMM:  26    -0.449186133687E+03   -0.53023E-03   -0.14637E-04  7953   0.310E-02    0.731E-02
RMM:  27    -0.449186807486E+03   -0.67380E-03   -0.73714E-05  7599   0.200E-02    0.923E-02
RMM:  28    -0.449188153555E+03   -0.13461E-02   -0.65220E-05  7039   0.170E-02    0.110E-01
RMM:  29    -0.449188906841E+03   -0.75329E-03   -0.49568E-05  6561   0.161E-02    0.110E-01
RMM:  30    -0.449189919402E+03   -0.10126E-02   -0.42743E-05  5704   0.133E-02    0.530E-02
RMM:  31    -0.449190460298E+03   -0.54090E-03   -0.25523E-05  5127   0.117E-02    0.517E-02
RMM:  32    -0.449191485431E+03   -0.10251E-02   -0.37530E-05  5531   0.103E-02    0.456E-02
RMM:  33    -0.449191883841E+03   -0.39841E-03   -0.17108E-05  4924   0.925E-03    0.385E-02
RMM:  34    -0.449192757943E+03   -0.87410E-03   -0.36692E-05  5533   0.863E-03    0.348E-02
RMM:  35    -0.449193099142E+03   -0.34120E-03   -0.15859E-05  4977   0.802E-03    0.254E-02
RMM:  36    -0.449193544614E+03   -0.44547E-03   -0.21235E-05  5230   0.639E-03    0.239E-02
RMM:  37    -0.449193715519E+03   -0.17091E-03   -0.94031E-06  4721   0.630E-03    0.167E-02
RMM:  38    -0.449193956067E+03   -0.24055E-03   -0.16954E-05  5154   0.506E-03    0.146E-02
RMM:  39    -0.449194007934E+03   -0.51867E-04   -0.51514E-06  4516   0.480E-03    0.113E-02
RMM:  40    -0.449194065160E+03   -0.57226E-04   -0.88344E-06  4811   0.382E-03    0.974E-03
RMM:  41    -0.449194067411E+03   -0.22513E-05   -0.25056E-06  4352   0.356E-03
   1 F= -.46486559E+03 E0= -.46487602E+03  d E =-.464866E+03  mag=    68.0439
       N       E                     dE             d eps       ncg     rms          rms(c)
DAV:   1    -0.449193619269E+03    0.44589E-03   -0.19543E-01  8124   0.711E-01    0.234E-01
RMM:   2    -0.449195272717E+03   -0.16534E-02   -0.52259E-03  8102   0.189E-01    0.444E-01
RMM:   3    -0.449196856641E+03   -0.15839E-02   -0.28411E-03  8031   0.141E-01    0.735E-01
RMM:   4    -0.449198017931E+03   -0.11613E-02   -0.12638E-03  7947   0.876E-02    0.955E-01
RMM:   5    -0.449194782535E+03    0.32354E-02   -0.94393E-04  7937   0.826E-02    0.313E-01
RMM:   6    -0.449194585148E+03    0.19739E-03   -0.22008E-04  7923   0.383E-02    0.152E-01
RMM:   7    -0.449194554616E+03    0.30532E-04   -0.85736E-05  7687   0.232E-02    0.945E-02
RMM:   8    -0.449194558005E+03   -0.33895E-05   -0.65102E-05  7402   0.207E-02
   2 F= -.46486642E+03 E0= -.46487693E+03  d E =-.833404E-03  mag=    68.0403
