 vasp.5.4.4.18Apr17-6-g9f103f2a35 (build Dec 15 2018 21:27:11) complex          
  
 executed on             LinuxIFC date 2022.03.11  23:05:41
 running on   72 total cores
 distrk:  each k-point on   72 cores,    1 groups
 distr:  one band on NCORES_PER_BAND=  24 cores,    3 groups


--------------------------------------------------------------------------------------------------------


 INCAR:
 POTCAR:    PAW_PBE Ni 02Aug2007                  
 POTCAR:    PAW_PBE Fe 06Sep2000                  
 POTCAR:    PAW_PBE O 08Apr2002                   

 ----------------------------------------------------------------------------- 
|                                                                             |
|           W    W    AA    RRRRR   N    N  II  N    N   GGGG   !!!           |
|           W    W   A  A   R    R  NN   N  II  NN   N  G    G  !!!           |
|           W    W  A    A  R    R  N N  N  II  N N  N  G       !!!           |
|           W WW W  AAAAAA  RRRRR   N  N N  II  N  N N  G  GGG   !            |
|           WW  WW  A    A  R   R   N   NN  II  N   NN  G    G                |
|           W    W  A    A  R    R  N    N  II  N    N   GGGG   !!!           |
|                                                                             |
|      For optimal performance we recommend to set                            |
|        NCORE= 4 - approx SQRT( number of cores)                             |
|      NCORE specifies how many cores store one orbital (NPAR=cpu/NCORE).     |
|      This setting can  greatly improve the performance of VASP for DFT.     |
|      The default,   NCORE=1            might be grossly inefficient         |
|      on modern multi-core architectures or massively parallel machines.     |
|      Do your own testing !!!!                                               |
|      Unfortunately you need to use the default for GW and RPA calculations. |
|      (for HF NCORE is supported but not extensively tested yet)             |
|                                                                             |
 ----------------------------------------------------------------------------- 

 POTCAR:    PAW_PBE Ni 02Aug2007                  
   VRHFIN =Ni:                                                                  
   LEXCH  = PE                                                                  
   EATOM  =  1077.6739 eV,   79.2068 Ry                                         
                                                                                
   TITEL  = PAW_PBE Ni 02Aug2007                                                
   LULTRA =        F    use ultrasoft PP ?                                      
   IUNSCR =        1    unscreen: 0-lin 1-nonlin 2-no                           
   RPACOR =    2.000    partial core radius                                     
   POMASS =   58.690; ZVAL   =   10.000    mass and valenz                      
   RCORE  =    2.300    outmost cutoff radius                                   
   RWIGS  =    2.430; RWIGS  =    1.286    wigner-seitz radius (au A)           
   ENMAX  =  269.532; ENMIN  =  202.149 eV                                      
   RCLOC  =    1.201    cutoff for local pot                                    
   LCOR   =        T    correct aug charges                                     
   LPAW   =        T    paw PP                                                  
   EAUG   =  544.565                                                            
   DEXC   =    0.000                                                            
   RMAX   =    2.357    core radius for proj-oper                               
   RAUG   =    1.300    factor for augmentation sphere                          
   RDEP   =    2.390    radius for radial grids                                 
   RDEPT  =    1.838    core radius for aug-charge                              
                                                                                
   Atomic configuration                                                         
    9 entries                                                                   
     n  l   j            E        occ.                                          
     1  0  0.50     -8206.4253   2.0000                                         
     2  0  0.50      -976.1748   2.0000                                         
     2  1  1.50      -839.0571   6.0000                                         
     3  0  0.50      -105.9991   2.0000                                         
     3  1  1.50       -66.4603   6.0000                                         
     3  2  2.50        -4.6458   9.0000                                         
     4  0  0.50        -4.4926   1.0000                                         
     4  1  1.50        -4.0817   0.0000                                         
     4  3  2.50        -1.3606   0.0000                                         
   Description                                                                  
     l       E           TYP  RCUT    TYP  RCUT                                 
     2     -4.6457903     23  2.300                                             
     2     -6.0063729     23  2.300                                             
     0     -4.4925590     23  2.300                                             
     0      5.0102601     23  2.300                                             
     1     -2.7211652     23  2.300                                             
     1     16.5183231     23  2.300                                             
  local pseudopotential read in
  partial core-charges read in
  partial kinetic energy density read in
  atomic valenz-charges read in
  non local Contribution for L=           2  read in
    real space projection operators read in
  non local Contribution for L=           2  read in
    real space projection operators read in
  non local Contribution for L=           0  read in
    real space projection operators read in
  non local Contribution for L=           0  read in
    real space projection operators read in
  non local Contribution for L=           1  read in
    real space projection operators read in
  non local Contribution for L=           1  read in
    real space projection operators read in
    PAW grid and wavefunctions read in
 
   number of l-projection  operators is LMAX  =           6
   number of lm-projection operators is LMMAX =          18
 
 POTCAR:    PAW_PBE Fe 06Sep2000                  
   VRHFIN =Fe:  d7 s1                                                           
   LEXCH  = PE                                                                  
   EATOM  =   594.3153 eV,   43.6809 Ry                                         
                                                                                
   TITEL  = PAW_PBE Fe 06Sep2000                                                
   LULTRA =        F    use ultrasoft PP ?                                      
   IUNSCR =        1    unscreen: 0-lin 1-nonlin 2-no                           
   RPACOR =    2.000    partial core radius                                     
   POMASS =   55.847; ZVAL   =    8.000    mass and valenz                      
   RCORE  =    2.300    outmost cutoff radius                                   
   RWIGS  =    2.460; RWIGS  =    1.302    wigner-seitz radius (au A)           
   ENMAX  =  267.882; ENMIN  =  200.911 eV                                      
   RCLOC  =    1.701    cutoff for local pot                                    
   LCOR   =        T    correct aug charges                                     
   LPAW   =        T    paw PP                                                  
   EAUG   =  511.368                                                            
   DEXC   =    0.000                                                            
   RMAX   =    2.356    core radius for proj-oper                               
   RAUG   =    1.300    factor for augmentation sphere                          
   RDEP   =    2.442    radius for radial grids                                 
   RDEPT  =    1.890    core radius for aug-charge                              
                                                                                
   Atomic configuration                                                         
    9 entries                                                                   
     n  l   j            E        occ.                                          
     1  0  0.50     -6993.8440   2.0000                                         
     2  0  0.50      -814.6047   2.0000                                         
     2  1  1.50      -693.3689   6.0000                                         
     3  0  0.50       -89.4732   2.0000                                         
     3  1  1.50       -55.6373   6.0000                                         
     3  2  2.50        -3.8151   7.0000                                         
     4  0  0.50        -4.2551   1.0000                                         
     4  1  1.50        -3.4015   0.0000                                         
     4  3  2.50        -1.3606   0.0000                                         
   Description                                                                  
     l       E           TYP  RCUT    TYP  RCUT                                 
     2     -3.8151135     23  2.300                                             
     2     -5.1756961     23  2.300                                             
     0     -4.2550963     23  2.300                                             
     0      7.2035603     23  2.300                                             
     1     -2.7211652     23  2.300                                             
     1     18.4316424     23  2.300                                             
  local pseudopotential read in
  partial core-charges read in
  partial kinetic energy density read in
  atomic valenz-charges read in
  non local Contribution for L=           2  read in
    real space projection operators read in
  non local Contribution for L=           2  read in
    real space projection operators read in
  non local Contribution for L=           0  read in
    real space projection operators read in
  non local Contribution for L=           0  read in
    real space projection operators read in
  non local Contribution for L=           1  read in
    real space projection operators read in
  non local Contribution for L=           1  read in
    real space projection operators read in
    PAW grid and wavefunctions read in
 
   number of l-projection  operators is LMAX  =           6
   number of lm-projection operators is LMMAX =          18
 
 POTCAR:    PAW_PBE O 08Apr2002                   
   VRHFIN =O: s2p4                                                              
   LEXCH  = PE                                                                  
   EATOM  =   432.3788 eV,   31.7789 Ry                                         
                                                                                
   TITEL  = PAW_PBE O 08Apr2002                                                 
   LULTRA =        F    use ultrasoft PP ?                                      
   IUNSCR =        1    unscreen: 0-lin 1-nonlin 2-no                           
   RPACOR =    1.200    partial core radius                                     
   POMASS =   16.000; ZVAL   =    6.000    mass and valenz                      
   RCORE  =    1.520    outmost cutoff radius                                   
   RWIGS  =    1.550; RWIGS  =    0.820    wigner-seitz radius (au A)           
   ENMAX  =  400.000; ENMIN  =  300.000 eV                                      
   ICORE  =        2    local potential                                         
   LCOR   =        T    correct aug charges                                     
   LPAW   =        T    paw PP                                                  
   EAUG   =  605.392                                                            
   DEXC   =    0.000                                                            
   RMAX   =    1.553    core radius for proj-oper                               
   RAUG   =    1.300    factor for augmentation sphere                          
   RDEP   =    1.550    radius for radial grids                                 
   RDEPT  =    1.329    core radius for aug-charge                              
                                                                                
   Atomic configuration                                                         
    4 entries                                                                   
     n  l   j            E        occ.                                          
     1  0  0.50      -514.6923   2.0000                                         
     2  0  0.50       -23.9615   2.0000                                         
     2  1  0.50        -9.0305   4.0000                                         
     3  2  1.50        -9.5241   0.0000                                         
   Description                                                                  
     l       E           TYP  RCUT    TYP  RCUT                                 
     0    -23.9615318     23  1.200                                             
     0     -9.5240782     23  1.200                                             
     1     -9.0304911     23  1.520                                             
     1      8.1634956     23  1.520                                             
     2     -9.5240782      7  1.500                                             
  local pseudopotential read in
  partial core-charges read in
  partial kinetic energy density read in
  kinetic energy density of atom read in
  atomic valenz-charges read in
  non local Contribution for L=           0  read in
    real space projection operators read in
  non local Contribution for L=           0  read in
    real space projection operators read in
  non local Contribution for L=           1  read in
    real space projection operators read in
  non local Contribution for L=           1  read in
    real space projection operators read in
    PAW grid and wavefunctions read in
 
   number of l-projection  operators is LMAX  =           4
   number of lm-projection operators is LMMAX =           8
 
 Optimization of the real space projectors (new method)

 maximal supplied QI-value         = 16.25
 optimisation between [QCUT,QGAM] = [ 11.54, 23.24] = [ 37.28,151.24] Ry 
 Optimized for a Real-space Cutoff    1.45 Angstroem

   l    n(q)    QCUT    max X(q) W(low)/X(q) W(high)/X(q)  e(spline) 
   2      9    11.539    60.317    0.19E-03    0.47E-04    0.16E-06
   2      9    11.539    55.921    0.19E-03    0.48E-04    0.16E-06
   0     10    11.539    51.690    0.80E-04    0.50E-04    0.24E-06
   0     10    11.539    30.015    0.73E-04    0.45E-04    0.22E-06
   1     10    11.539    18.849    0.87E-04    0.16E-03    0.71E-07
   1     10    11.539    14.624    0.73E-04    0.13E-03    0.64E-07
 Optimization of the real space projectors (new method)

 maximal supplied QI-value         = 16.25
 optimisation between [QCUT,QGAM] = [ 11.54, 23.24] = [ 37.28,151.24] Ry 
 Optimized for a Real-space Cutoff    1.53 Angstroem

   l    n(q)    QCUT    max X(q) W(low)/X(q) W(high)/X(q)  e(spline) 
   2     10    11.539    80.901    0.11E-03    0.14E-03    0.21E-06
   2     10    11.539    75.754    0.11E-03    0.14E-03    0.22E-06
   0     11    11.539    58.752    0.52E-04    0.18E-04    0.33E-06
   0     11    11.539    30.679    0.44E-04    0.16E-04    0.30E-06
   1     10    11.539    17.977    0.53E-04    0.29E-04    0.13E-06
   1     10    11.539    13.559    0.44E-04    0.25E-04    0.11E-06
 Optimization of the real space projectors (new method)

 maximal supplied QI-value         = 24.76
 optimisation between [QCUT,QGAM] = [ 11.64, 23.27] = [ 37.91,151.63] Ry 
 Optimized for a Real-space Cutoff    1.14 Angstroem

   l    n(q)    QCUT    max X(q) W(low)/X(q) W(high)/X(q)  e(spline) 
   0      8    11.635    20.381    0.10E-03    0.33E-03    0.24E-06
   0      8    11.635    15.268    0.11E-03    0.35E-03    0.26E-06
   1      7    11.635     5.964    0.24E-03    0.31E-03    0.30E-06
   1      7    11.635     5.382    0.22E-03    0.25E-03    0.26E-06
  PAW_PBE Ni 02Aug2007                  :
 energy of atom  1       EATOM=-1077.6739
 kinetic energy error for atom=    0.0030 (will be added to EATOM!!)
  PAW_PBE Fe 06Sep2000                  :
 energy of atom  2       EATOM= -594.3153
 kinetic energy error for atom=    0.0026 (will be added to EATOM!!)
  PAW_PBE O 08Apr2002                   :
 energy of atom  3       EATOM= -432.3788
 kinetic energy error for atom=    0.0208 (will be added to EATOM!!)
 
 
 POSCAR: POSCAR                                  
  positions in direct lattice
  velocities in cartesian coordinates
 exchange correlation table for  LEXCH =        8
   RHO(1)=    0.500       N(1)  =     2000
   RHO(2)=  100.500       N(2)  =     4000

 VTST: version 3.2, (02/03/18)

 CHAIN: initializing optimizer
 
 OPT: Using VASP Conjugate-Gradient optimizer
 CHAIN: Read ICHAIN            0
 
 POSCAR: POSCAR                                  
  positions in direct lattice
  velocities in cartesian coordinates
 


--------------------------------------------------------------------------------------------------------


 ion  position               nearest neighbor table
   1  0.999  0.001  0.191-  35 2.47  59 2.49  23 2.50  32 2.50   5 2.52  40 2.52  37 2.52   2 2.53
                             4 2.53  21 2.54  62 2.54  34 2.54
   2  0.248  0.999  0.192-  59 2.46  50 2.47   6 2.48  36 2.48  37 2.50  60 2.50   3 2.51  28 2.52
                             5 2.52  21 2.53   1 2.53   8 2.56
   3  0.499  0.002  0.192-  39 2.43  61 2.46  36 2.49  30 2.50  60 2.50  34 2.51   2 2.51   8 2.52
                            11 2.52   7 2.53  50 2.54  51 2.54
   4  0.998  0.251  0.192-  35 2.47  43 2.48  42 2.49  19 2.50  34 2.50  13 2.50   7 2.53   1 2.53
                            40 2.53   5 2.55  46 2.55  10 2.55
   5  0.249  0.249  0.191-  35 2.48  36 2.48  45 2.50   6 2.50  37 2.50  46 2.50   1 2.52  42 2.52
                             2 2.52  16 2.54   4 2.55  44 2.55
   6  0.333  0.165  0.286-  38 2.44   9 2.44  36 2.45   2 2.48  17 2.50   5 2.50  15 2.50  45 2.51
                            35 2.55  60 2.56  59 2.57  39 2.57
   7  0.749  0.253  0.193-  18 2.44  39 2.46  14 2.49  48 2.49  13 2.51  34 2.51   4 2.53   3 2.53
                            11 2.54  36 2.55  19 2.55  10 2.56
   8  0.418  0.084  0.094-  37 2.49  36 2.51  16 2.51   3 2.52  11 2.52  30 2.53  28 2.53  48 2.56
                             2 2.56
   9  0.413  0.087  0.381-  68 1.80  38 2.41   6 2.44  17 2.46  12 2.50  39 2.51  29 2.53  60 2.54
                            49 2.55  31 2.61
  10  0.832  0.164  0.290-  20 2.48  39 2.48  43 2.49  34 2.49  35 2.51  62 2.52  41 2.53  18 2.54
                             4 2.55  61 2.55   7 2.56  12 2.59
  11  0.668  0.085  0.096-  34 2.51  40 2.51  48 2.51   8 2.52   3 2.52  19 2.53  30 2.54  63 2.54
                             7 2.54
  12  0.662  0.091  0.390-  69 1.88  68 1.88  49 2.48  20 2.50   9 2.50  39 2.52  10 2.59  41 2.61
                            64 2.62  31 2.63  61 2.73
  13  0.999  0.499  0.193-  43 2.43  22 2.46  18 2.49  53 2.50   4 2.50  42 2.51   7 2.51  19 2.52
                            50 2.52  21 2.53  14 2.53  26 2.55
  14  0.748  0.499  0.192-  56 2.45  15 2.46  44 2.48   7 2.49  48 2.49  18 2.49  57 2.52  26 2.52
                            21 2.52  23 2.53  13 2.53  36 2.57
  15  0.582  0.412  0.286-  49 2.41  14 2.46  36 2.47  44 2.48  56 2.48  18 2.49  45 2.50   6 2.50
                            17 2.51  55 2.53  39 2.59  58 2.64
  16  0.420  0.333  0.094-  36 2.51   8 2.51  37 2.52  57 2.52  44 2.52  46 2.53  24 2.54  48 2.54
                             5 2.54
  17  0.415  0.332  0.381-  66 1.87  38 2.43  45 2.46   9 2.46   6 2.50  15 2.51  49 2.51  47 2.53
                            25 2.56  58 2.57
  18  0.829  0.413  0.287-  49 2.41   7 2.44  43 2.46  56 2.46  13 2.49  14 2.49  15 2.49  20 2.51
                            22 2.52  10 2.54  39 2.54  27 2.55
  19  0.919  0.335  0.096-  48 2.49   4 2.50  40 2.51  53 2.51  13 2.52  11 2.53  26 2.54  46 2.54
                             7 2.55
  20  0.914  0.333  0.384-  67 1.86  10 2.48  43 2.48  41 2.49  12 2.50  18 2.51  49 2.53  47 2.54
                            27 2.56  54 2.56
  21  0.998  0.749  0.193-  59 2.41  50 2.48  23 2.48  22 2.50  56 2.50  32 2.50  26 2.52  14 2.52
                             2 2.53  13 2.53   1 2.54  28 2.55
  22  0.079  0.662  0.287-  29 2.44  13 2.46  43 2.46  50 2.47  21 2.50  56 2.50  18 2.52  59 2.52
                            60 2.52  54 2.53  27 2.56  52 2.59
  23  0.753  0.752  0.192-  21 2.48  63 2.49  55 2.49   1 2.50  62 2.50  32 2.51  57 2.52  56 2.53
                            14 2.53  44 2.54  51 2.57  34 2.58
  24  0.417  0.584  0.096-  46 2.49  44 2.50  51 2.51  57 2.52  30 2.52  63 2.53  16 2.54  42 2.56
                            53 2.57
  25  0.414  0.585  0.385-  66 1.89  52 2.45  64 2.47  31 2.48  47 2.50  54 2.51  58 2.54  17 2.56
                            45 2.57  55 2.59
  26  0.916  0.585  0.095-  48 2.48  32 2.48  57 2.50  53 2.51  21 2.52  14 2.52  28 2.53  19 2.54
                            13 2.55
  27  0.907  0.583  0.384-  67 1.88  33 2.42  56 2.45  49 2.46  58 2.46  18 2.55  20 2.56  22 2.56
                            29 2.58  54 2.60
  28  0.167  0.835  0.095-  32 2.48  37 2.49  53 2.50   2 2.52  50 2.53   8 2.53  26 2.53  30 2.54
                            21 2.55
  29  0.164  0.836  0.377-  60 2.41  59 2.42  22 2.44  33 2.47  31 2.50  54 2.52  38 2.52   9 2.53
                            27 2.58
  30  0.417  0.833  0.097-  51 2.49   3 2.50  53 2.52  24 2.52   8 2.53  11 2.54  28 2.54  63 2.54
                            50 2.55
  31  0.406  0.826  0.385-  68 1.85  54 2.41  25 2.48  52 2.49  29 2.50  60 2.51  64 2.52  61 2.60
                             9 2.61  12 2.63
  32  0.920  0.833  0.095-  28 2.48  26 2.48   1 2.50  21 2.50  23 2.51  57 2.53  37 2.54  63 2.54
                            40 2.57
  33  0.914  0.826  0.383-  65 1.89  27 2.42  58 2.44  29 2.47  62 2.51  56 2.51  59 2.54  64 2.62
                            41 2.64  38 2.66
  34  0.749  0.005  0.193-  61 2.45  10 2.49   4 2.50  11 2.51   7 2.51   3 2.51  62 2.53  63 2.54
                             1 2.54  51 2.55  40 2.57  23 2.58
  35  0.081  0.164  0.285-   1 2.47   4 2.47   5 2.48  47 2.49  10 2.51  38 2.51  62 2.52  59 2.54
                             6 2.55  45 2.55  43 2.57  41 2.62
  36  0.493  0.245  0.192-   6 2.45  15 2.47   5 2.48   2 2.48   3 2.49  16 2.51   8 2.51  44 2.52
                             7 2.55  39 2.56  14 2.57  48 2.57
  37  0.171  0.083  0.095-  28 2.49   8 2.49   2 2.50   5 2.50  16 2.52   1 2.52  32 2.54  46 2.57
                            40 2.58
  38  0.176  0.091  0.381-  65 1.81   9 2.41  17 2.43   6 2.44  35 2.51  29 2.52  47 2.53  59 2.58
                            41 2.59  33 2.66
  39  0.583  0.156  0.287-   3 2.43  61 2.43   7 2.46  10 2.48   9 2.51  49 2.52  60 2.52  12 2.52
                            18 2.54  36 2.56   6 2.57  15 2.59
  40  0.917  0.086  0.094-  19 2.51  11 2.51   1 2.52  63 2.53   4 2.53  46 2.55  34 2.57  32 2.57
                            37 2.58
  41  0.919  0.089  0.389-  69 1.83  65 1.87  20 2.49  47 2.51  10 2.53  38 2.59  12 2.61  35 2.62
                            64 2.63  62 2.63  33 2.64
  42  0.246  0.497  0.194-  45 2.49  52 2.49  43 2.49   4 2.49  13 2.51  46 2.51   5 2.52  53 2.54
                            51 2.55  24 2.56  44 2.58  50 2.59
  43  0.074  0.415  0.287-  13 2.43  47 2.45  18 2.46  22 2.46  20 2.48   4 2.48  10 2.49  42 2.49
                            52 2.56  35 2.57  54 2.60  45 2.65
  44  0.503  0.500  0.191-  14 2.48  15 2.48  57 2.49  55 2.50  24 2.50  45 2.51  36 2.52  16 2.52
                            23 2.54   5 2.55  51 2.55  42 2.58
  45  0.336  0.415  0.287-  47 2.44  17 2.46  42 2.49  52 2.49   5 2.50  15 2.50  44 2.51   6 2.51
                            55 2.53  35 2.55  25 2.57  43 2.65
  46  0.171  0.337  0.096-  24 2.49   5 2.50  42 2.51  16 2.53  19 2.54   4 2.55  53 2.55  40 2.55
                            37 2.57
  47  0.167  0.337  0.378-  45 2.44  43 2.45  35 2.49  25 2.50  41 2.51  17 2.53  38 2.53  20 2.54
                            54 2.55
  48  0.673  0.336  0.096-  26 2.48  19 2.49  14 2.49   7 2.49  11 2.51  57 2.53  16 2.54   8 2.56
                            36 2.57
  49  0.666  0.338  0.378-  15 2.41  18 2.41  27 2.46  12 2.48  17 2.51  39 2.52  20 2.53  58 2.54
                             9 2.55
  50  0.245  0.753  0.193-  60 2.42   2 2.47  22 2.47  21 2.48  53 2.51  13 2.52  28 2.53   3 2.54
                            30 2.55  51 2.57  52 2.59  42 2.59
  51  0.498  0.750  0.193-  61 2.42  30 2.49  52 2.51  24 2.51  55 2.52  63 2.52   3 2.54  44 2.55
                            34 2.55  42 2.55  23 2.57  50 2.57
  52  0.335  0.660  0.289-  25 2.45  45 2.49  42 2.49  31 2.49  61 2.51  51 2.51  55 2.53  54 2.53
                            60 2.55  43 2.56  50 2.59  22 2.59
  53  0.165  0.586  0.097-  13 2.50  28 2.50  50 2.51  26 2.51  19 2.51  30 2.52  42 2.54  46 2.55
                            24 2.57
  54  0.167  0.589  0.386-  67 1.83  31 2.41  25 2.51  29 2.52  22 2.53  52 2.53  47 2.55  20 2.56
                            43 2.60  27 2.60
  55  0.587  0.664  0.287-  56 2.48  23 2.49  44 2.50  62 2.50  58 2.50  64 2.51  51 2.52  52 2.53
                            15 2.53  45 2.53  61 2.55  25 2.59
  56  0.829  0.657  0.287-  27 2.45  14 2.45  18 2.46  55 2.48  15 2.48  21 2.50  22 2.50  33 2.51
                            23 2.53  58 2.53  59 2.55  62 2.59
  57  0.668  0.584  0.095-  44 2.49  26 2.50  63 2.51  23 2.52  14 2.52  16 2.52  24 2.52  32 2.53
                            48 2.53
  58  0.667  0.590  0.386-  66 1.81  33 2.44  27 2.46  64 2.48  55 2.50  56 2.53  25 2.54  49 2.54
                            17 2.57  15 2.64
  59  0.079  0.911  0.284-  21 2.41  29 2.42   2 2.46   1 2.49  62 2.52  22 2.52  60 2.54  33 2.54
                            35 2.54  56 2.55   6 2.57  38 2.58
  60  0.330  0.910  0.287-  29 2.41  50 2.42  61 2.50   2 2.50   3 2.50  31 2.51  39 2.52  22 2.52
                             9 2.54  59 2.54  52 2.55   6 2.56
  61  0.578  0.913  0.285-  51 2.42  39 2.43  34 2.45   3 2.46  60 2.50  52 2.51  64 2.53  62 2.55
                            55 2.55  10 2.55  31 2.60  12 2.73
  62  0.832  0.914  0.288-  55 2.50  23 2.50  33 2.51  10 2.52  59 2.52  35 2.52  34 2.53  64 2.53
                             1 2.54  61 2.55  56 2.59  41 2.63
  63  0.668  0.834  0.097-  23 2.49  57 2.51  51 2.52  40 2.53  24 2.53  30 2.54  34 2.54  11 2.54
                            32 2.54
  64  0.658  0.830  0.383-  69 1.84  25 2.47  58 2.48  55 2.51  31 2.52  62 2.53  61 2.53  33 2.62
                            12 2.62  41 2.63
  65  0.015  0.002  0.434-  38 1.81  41 1.87  33 1.89
  66  0.502  0.497  0.437-  58 1.81  17 1.87  25 1.89
  67  0.999  0.502  0.437-  54 1.83  20 1.86  27 1.88
  68  0.478  0.996  0.436-   9 1.80  31 1.85  12 1.88
  69  0.746  0.994  0.437-  41 1.83  64 1.84  12 1.88
 

IMPORTANT INFORMATION: All symmetrisations will be switched off!
NOSYMM: (Re-)initialisation of all symmetry stuff for point group C_1.

 
 

Automatic generation of k-mesh.
 generate k-points for:    3    3    1
Space group operators:
 irot       det(A)        alpha          n_x          n_y          n_z        tau_x        tau_y        tau_z
    1     1.000000     0.000000     1.000000     0.000000     0.000000     0.000000     0.000000     0.000000
 
 Subroutine IBZKPT returns following result:
 ===========================================
 
 Found      5 irreducible k-points:
 
 Following reciprocal coordinates:
            Coordinates               Weight
  0.000000  0.000000  0.000000      1.000000
  0.333333  0.000000  0.000000      2.000000
  0.000000  0.333333  0.000000      2.000000
  0.333333  0.333333  0.000000      2.000000
 -0.333333  0.333333  0.000000      2.000000
 
 Following cartesian coordinates:
            Coordinates               Weight
  0.000000  0.000000  0.000000      1.000000
  0.033002  0.019054  0.000000      2.000000
  0.000000  0.038108  0.000000      2.000000
  0.033002  0.057162  0.000000      2.000000
 -0.033002  0.019054  0.000000      2.000000
 


--------------------------------------------------------------------------------------------------------




 Dimension of arrays:
   k-points           NKPTS =      5   k-points in BZ     NKDIM =      5   number of bands    NBANDS=    399
   number of dos      NEDOS =    301   number of ions     NIONS =     69
   non local maximal  LDIM  =      6   non local SUM 2l+1 LMDIM =     18
   total plane-waves  NPLWV = ******
   max r-space proj   IRMAX =   8292   max aug-charges    IRDMAX=  19623
   dimension x,y,z NGX =    80 NGY =   80 NGZ =  160
   dimension x,y,z NGXF=   160 NGYF=  160 NGZF=  320
   support grid    NGXF=   160 NGYF=  160 NGZF=  320
   ions per type =              33  31   5
   NGX,Y,Z   is equivalent  to a cutoff of  13.17, 13.17, 12.52 a.u.
   NGXF,Y,Z  is equivalent  to a cutoff of  26.34, 26.34, 25.03 a.u.

 SYSTEM =  SQS-NiFe                                
 POSCAR =  POSCAR                                  

 Startparameter for this run:
   NWRITE =      2    write-flag & timer
   PREC   = accura    normal or accurate (medium, high low for compatibility)
   ISTART =      1    job   : 0-new  1-cont  2-samecut
   ICHARG =      1    charge: 1-file 2-atom 10-const
   ISPIN  =      2    spin polarized calculation?
   LNONCOLLINEAR =      F non collinear calculations
   LSORBIT =      F    spin-orbit coupling
   INIWAV =      1    electr: 0-lowe 1-rand  2-diag
   LASPH  =      F    aspherical Exc in radial PAW
   METAGGA=      F    non-selfconsistent MetaGGA calc.

 Electronic Relaxation 1
   ENCUT  =  520.0 eV  38.22 Ry    6.18 a.u.  18.78 18.78 39.52*2*pi/ulx,y,z
   ENINI  =  520.0     initial cutoff
   ENAUG  =  605.4 eV  augmentation charge cutoff
   NELM   =    200;   NELMIN=  2; NELMDL=  0     # of ELM steps 
   EDIFF  = 0.1E-04   stopping-criterion for ELM
   LREAL  =      T    real-space projection
   NLSPLINE    = F    spline interpolate recip. space projectors
   LCOMPAT=      F    compatible to vasp.4.4
   GGA_COMPAT  = T    GGA compatible to vasp.4.4-vasp.4.6
   LMAXPAW     = -100 max onsite density
   LMAXMIX     =    2 max onsite mixed and CHGCAR
   VOSKOWN=      0    Vosko Wilk Nusair interpolation
   ROPT   =   -0.00025  -0.00025  -0.00025
 Ionic relaxation
   EDIFFG = -.5E-01   stopping-criterion for IOM
   NSW    =     99    number of steps for IOM
   NBLOCK =      1;   KBLOCK =     99    inner block; outer block 
   IBRION =      2    ionic relax: 0-MD 1-quasi-New 2-CG
   NFREE  =      1    steps in history (QN), initial steepest desc. (CG)
   ISIF   =      2    stress and relaxation
   IWAVPR =     11    prediction:  0-non 1-charg 2-wave 3-comb
   ISYM   =      0    0-nonsym 1-usesym 2-fastsym
   LCORR  =      T    Harris-Foulkes like correction to forces

   POTIM  = 0.5000    time-step for ionic-motion
   TEIN   =    0.0    initial temperature
   TEBEG  =    0.0;   TEEND  =   0.0 temperature during run
   SMASS  =  -3.00    Nose mass-parameter (am)
   estimated Nose-frequenzy (Omega)   =  0.10E-29 period in steps =****** mass=  -0.233E-26a.u.
   SCALEE = 1.0000    scale energy and forces
   NPACO  =    256;   APACO  = 16.0  distance and # of slots for P.C.
   PSTRESS=    0.0 pullay stress

  Mass of Ions in am
   POMASS =  58.69 55.85 16.00
  Ionic Valenz
   ZVAL   =  10.00  8.00  6.00
  Atomic Wigner-Seitz radii
   RWIGS  =  -1.00 -1.00 -1.00
  virtual crystal weights 
   VCA    =   1.00  1.00  1.00
   NELECT =     608.0000    total number of electrons
   NUPDOWN=      -1.0000    fix difference up-down

 DOS related values:
   EMIN   =  10.00;   EMAX   =-10.00  energy-range for DOS
   EFERMI =   0.00
   ISMEAR =     1;   SIGMA  =   0.20  broadening in eV -4-tet -1-fermi 0-gaus

 Electronic relaxation 2 (details)
   IALGO  =     68    algorithm
   LDIAG  =      T    sub-space diagonalisation (order eigenvalues)
   LSUBROT=      F    optimize rotation matrix (better conditioning)
   TURBO    =      0    0=normal 1=particle mesh
   IRESTART =      0    0=no restart 2=restart with 2 vectors
   NREBOOT  =      0    no. of reboots
   NMIN     =      0    reboot dimension
   EREF     =   0.00    reference energy to select bands
   IMIX   =      4    mixing-type and parameters
     AMIX     =   0.40;   BMIX     =  1.00
     AMIX_MAG =   1.60;   BMIX_MAG =  1.00
     AMIN     =   0.10
     WC   =   100.;   INIMIX=   1;  MIXPRE=   1;  MAXMIX= -45

 Intra band minimization:
   WEIMIN = 0.0010     energy-eigenvalue tresh-hold
   EBREAK =  0.63E-08  absolut break condition
   DEPER  =   0.30     relativ break condition  

   TIME   =   0.40     timestep for ELM

  volume/ion in A,a.u.               =      27.21       183.65
  Fermi-wavevector in a.u.,A,eV,Ry     =   1.124166  2.124366 17.194354  1.263749
  Thomas-Fermi vector in A             =   2.260836
 
 Write flags
   LWAVE        =      T    write WAVECAR
   LDOWNSAMPLE  =      F    k-point downsampling of WAVECAR
   LCHARG       =      T    write CHGCAR
   LVTOT        =      F    write LOCPOT, total local potential
   LVHAR        =      F    write LOCPOT, Hartree potential only
   LELF         =      F    write electronic localiz. function (ELF)
   LORBIT       =     10    0 simple, 1 ext, 2 COOP (PROOUT), +10 PAW based schemes


 Dipole corrections
   LMONO  =      F    monopole corrections only (constant potential shift)
   LDIPOL =      T    correct potential (dipole corrections)
   IDIPOL =      3    1-x, 2-y, 3-z, 4-all directions 
   EPSILON=  1.0000000 bulk dielectric constant

 Exchange correlation treatment:
   GGA     =    --    GGA type
   LEXCH   =     8    internal setting for exchange type
   VOSKOWN=      0    Vosko Wilk Nusair interpolation
   LHFCALC =     F    Hartree Fock is set to
   LHFONE  =     F    Hartree Fock one center treatment
   AEXX    =    0.0000 exact exchange contribution

 Linear response parameters
   LEPSILON=     F    determine dielectric tensor
   LRPA    =     F    only Hartree local field effects (RPA)
   LNABLA  =     F    use nabla operator in PAW spheres
   LVEL    =     F    velocity operator in full k-point grid
   LINTERFAST=   F  fast interpolation
   KINTER  =     0    interpolate to denser k-point grid
   CSHIFT  =0.1000    complex shift for real part using Kramers Kronig
   OMEGAMAX=  -1.0    maximum frequency
   DEG_THRESHOLD= 0.2000000E-02 threshold for treating states as degnerate
   RTIME   =   -0.100 relaxation time in fs
  (WPLASMAI=    0.000 imaginary part of plasma frequency in eV, 0.658/RTIME)
   DFIELD  = 0.0000000 0.0000000 0.0000000 field for delta impulse in time
 
 Orbital magnetization related:
   ORBITALMAG=     F  switch on orbital magnetization
   LCHIMAG   =     F  perturbation theory with respect to B field
   DQ        =  0.001000  dq finite difference perturbation B field
   LLRAUG    =     F  two centre corrections for induced B field



--------------------------------------------------------------------------------------------------------


 conjugate gradient relaxation of ions
   using selective dynamics as specified on POSCAR
 charge density and potential will be updated during run
 spin polarized calculation
 RMM-DIIS sequential band-by-band and
  variant of blocked Davidson during initial phase
 perform sub-space diagonalisation
    before iterative eigenvector-optimisation
 modified Broyden-mixing scheme, WC =      100.0
 initial mixing is a Kerker type mixing with AMIX =  0.4000 and BMIX =      1.0000
 Hartree-type preconditioning will be used
 using additional bands           95
 real space projection scheme for non local part
 use partial core corrections
 calculate Harris-corrections to forces 
   (improved forces if not selfconsistent)
 use gradient corrections 
 use of overlap-Matrix (Vanderbilt PP)
 Methfessel and Paxton  Order N= 1 SIGMA  =   0.20


--------------------------------------------------------------------------------------------------------


  energy-cutoff  :      520.00
  volume of cell :     1877.75
      direct lattice vectors                 reciprocal lattice vectors
    10.100310000  0.000000000  0.000000000     0.099006862  0.057161638  0.000000000
    -5.050155000  8.747125050  0.000000000     0.000000000  0.114323277  0.000000000
     0.000000000  0.000000000 21.253800000     0.000000000  0.000000000  0.047050410

  length of vectors
    10.100310000 10.100310003 21.253800000     0.114323277  0.114323277  0.047050410


 
 old parameters found on file WAVECAR:
  energy-cutoff  :      520.00
  volume of cell :     1877.75
      direct lattice vectors                 reciprocal lattice vectors
    10.100310000  0.000000000  0.000000000     0.099006862  0.057161638  0.000000000
    -5.050155000  8.747125050  0.000000000     0.000000000  0.114323277  0.000000000
     0.000000000  0.000000000 21.253800000     0.000000000  0.000000000  0.047050410

  length of vectors

 
 k-points in units of 2pi/SCALE and weight: read from INCAR                         
   0.00000000  0.00000000  0.00000000       0.111
   0.03300229  0.01905388  0.00000000       0.222
   0.00000000  0.03810776  0.00000000       0.222
   0.03300229  0.05716164  0.00000000       0.222
  -0.03300229  0.01905388  0.00000000       0.222
 
 k-points in reciprocal lattice and weights: read from INCAR                         
   0.00000000  0.00000000  0.00000000       0.111
   0.33333333  0.00000000  0.00000000       0.222
   0.00000000  0.33333333  0.00000000       0.222
   0.33333333  0.33333333  0.00000000       0.222
  -0.33333333  0.33333333  0.00000000       0.222
 
 position of ions in fractional coordinates (direct lattice) 
   0.99904300  0.00064200  0.19052300
   0.24849100  0.99862800  0.19205500
   0.49902500  0.00192700  0.19180600
   0.99813900  0.25067400  0.19194200
   0.24921500  0.24886200  0.19118600
   0.33345451  0.16503853  0.28623969
   0.74893500  0.25278100  0.19317500
   0.41837500  0.08394000  0.09411800
   0.41273782  0.08745079  0.38114798
   0.83222022  0.16358700  0.29045924
   0.66797000  0.08472300  0.09569300
   0.66199765  0.09136947  0.38971165
   0.99908600  0.49910800  0.19304000
   0.74816900  0.49871100  0.19204600
   0.58193379  0.41183716  0.28555555
   0.41961000  0.33337100  0.09414000
   0.41497361  0.33234962  0.38135914
   0.82931201  0.41305236  0.28697185
   0.91855900  0.33501600  0.09568700
   0.91447068  0.33349977  0.38358112
   0.99765800  0.74896900  0.19256000
   0.07920132  0.66173273  0.28724039
   0.75346500  0.75172800  0.19162900
   0.41737300  0.58352400  0.09623400
   0.41358787  0.58470511  0.38549572
   0.91550800  0.58461900  0.09542900
   0.90682859  0.58287403  0.38446477
   0.16682900  0.83490800  0.09456700
   0.16383069  0.83568375  0.37697855
   0.41715300  0.83338800  0.09679300
   0.40624484  0.82641331  0.38466053
   0.91985100  0.83263700  0.09539800
   0.91434202  0.82567737  0.38303836
   0.74918200  0.00453800  0.19311300
   0.08090352  0.16407573  0.28513410
   0.49319000  0.24544000  0.19167800
   0.17139600  0.08339300  0.09535900
   0.17587097  0.09074383  0.38080711
   0.58346434  0.15610278  0.28672740
   0.91693100  0.08581500  0.09410100
   0.91921502  0.08935153  0.38900313
   0.24596400  0.49669300  0.19369900
   0.07368612  0.41518856  0.28711728
   0.50297300  0.49962100  0.19096300
   0.33569481  0.41454630  0.28678467
   0.17081400  0.33724200  0.09550500
   0.16726930  0.33719317  0.37826101
   0.67264700  0.33598100  0.09600300
   0.66618892  0.33813867  0.37823987
   0.24490500  0.75270000  0.19343600
   0.49840300  0.74988300  0.19260700
   0.33490544  0.66027853  0.28941665
   0.16470600  0.58627100  0.09733100
   0.16689271  0.58872431  0.38624407
   0.58698902  0.66442779  0.28684376
   0.82890178  0.65670214  0.28740958
   0.66762500  0.58426200  0.09519900
   0.66700081  0.58950306  0.38573038
   0.07921417  0.91133168  0.28446136
   0.33013916  0.91041892  0.28675230
   0.57823789  0.91255929  0.28464880
   0.83154104  0.91409514  0.28828170
   0.66841400  0.83351100  0.09659800
   0.65767614  0.83023430  0.38316842
   0.01543641  0.00231824  0.43413513
   0.50211923  0.49735389  0.43735044
   0.99887075  0.50197010  0.43724442
   0.47803596  0.99627366  0.43580026
   0.74620174  0.99390555  0.43715393
 
 position of ions in cartesian coordinates  (Angst):
  10.08740180  0.00561565  4.04933774
  -2.53339006  8.73512399  4.08189856
   5.03057555  0.01685571  4.07660636
   8.81557077  2.19267682  4.07949688
   1.26035708  2.17682703  4.06342901
   2.53452379  1.44361266  6.08368111
   6.28789244  2.21110702  4.10570281
   3.80180719  0.73423368  2.00036515
   3.72713993  0.76494300  8.10084287
   7.57954249  1.43091591  6.17336270
   6.31883979  0.74108268  2.03383988
   6.22495150  0.79922022  8.28285356
   7.57050555  4.36576009  4.10283355
   5.03817098  4.36228748  4.08170727
   3.79787021  3.60239110  6.06914060
   2.55461586  2.91603783  2.00083273
   2.51294500  2.90710366  8.10533080
   6.29032993  3.61302063  6.09924228
   7.58584793  2.93042685  2.03371236
   7.55221183  2.91716423  8.15255631
   6.29424553  6.55132550  4.09263173
  -2.54189501  5.78825892  6.10494977
   3.81388716  6.57545882  4.07284444
   1.26871004  5.10415740  2.04533819
   1.22451425  5.11448875  8.19324883
   6.29449804  5.11373550  2.02822888
   6.21564563  5.09847206  8.17133738
  -2.53139019  7.30304468  2.00990810
  -2.56559172  7.30983026  8.01222667
   0.00463604  7.28974905  2.05721906
  -0.07031650  7.22874060  8.17549804
   5.08583435  7.28317996  2.02757001
   5.06533913  7.22230320  8.14102069
   7.54405284  0.03969445  4.10438508
  -0.01145727  1.43519097  6.06018307
   3.74186185  2.14689437  4.07388588
   1.31000516  0.72944900  2.02674111
   1.31808096  0.79374762  8.09359811
   5.10482742  1.36545055  6.09404681
   8.82790830  0.75063454  2.00000383
   8.83311759  0.78156903  8.26779478
  -0.02406399  4.34463578  4.11683981
  -1.35251387  3.63170623  6.10233330
   2.55701973  4.37024736  4.05868941
   1.29709853  3.62608833  6.09526410
   0.02214998  2.94989795  2.02984417
  -0.01340602  2.94947080  8.03948389
   5.09718709  2.93886782  2.04042856
   5.02106193  2.95774125  8.03903457
  -1.32763525  6.58396103  4.11125006
   1.24699942  6.55932037  4.09363066
   0.04813982  5.77553886  6.15120365
  -1.29717776  5.12818575  2.06865361
  -1.28748092  5.14964516  8.20915426
   2.57330770  5.81183298  6.09651985
   5.05571739  5.74425570  6.10854568
   3.79260580  5.11061278  2.02334051
   3.75983316  5.15645697  8.19823642
  -3.80227860  7.97153215  6.04588493
  -1.26324874  7.96354811  6.09457613
   1.23181604  7.98227025  6.04986866
   3.78250009  7.99570452  6.12708166
   2.54182886  7.29082495  2.05307457
   2.44992099  7.26216327  8.14378488
   0.14420505  0.02027797  9.22702114
   2.55984570  4.35041663  9.29535885
   7.55387746  4.39079523  9.29310549
  -0.20302503  8.71453032  9.26241167
   2.51749182  8.69381611  9.29118210
 


--------------------------------------------------------------------------------------------------------


 k-point  1 :   0.0000 0.0000 0.0000  plane waves:   50641
 k-point  2 :   0.3333 0.0000 0.0000  plane waves:   50572
 k-point  3 :   0.0000 0.3333 0.0000  plane waves:   50572
 k-point  4 :   0.3333 0.3333 0.0000  plane waves:   50583
 k-point  5 :  -0.3333 0.3333 0.0000  plane waves:   50572

 maximum and minimum number of plane-waves per node :      2130     2087

 maximum number of plane-waves:     50641
 maximum index in each direction: 
   IXMAX=   19   IYMAX=   18   IZMAX=   39
   IXMIN=  -19   IYMIN=  -19   IZMIN=  -39


 real space projection operators:
  total allocation   :      66974.41 KBytes
  max/ min on nodes  :       3376.95       2432.14


 parallel 3D FFT for wavefunctions:
    minimum data exchange during FFTs selected (reduces bandwidth)
 parallel 3D FFT for charge:
    minimum data exchange during FFTs selected (reduces bandwidth)


 total amount of memory used by VASP MPI-rank0   114458. kBytes
=======================================================================

   base      :      30000. kBytes
   nonlr-proj:      13795. kBytes
   fftplans  :       6403. kBytes
   grid      :      17692. kBytes
   one-center:         93. kBytes
   wavefun   :      46475. kBytes
 
     INWAV:  cpu time   10.7239: real time   11.1458
 Broyden mixing: mesh for mixing (old mesh)
   NGX = 37   NGY = 37   NGZ = 79
  (NGX  =160   NGY  =160   NGZ  =320)
  gives a total of 108151 points

 initial charge density was supplied:
 number of electron     608.0000027 magnetization      68.3045869
 keeping initial charge density in first step


--------------------------------------------------------------------------------------------------------


 Maximum index for non-local projection operator          766
 Maximum index for augmentation-charges         1136 (set IRDMAX)


--------------------------------------------------------------------------------------------------------


 First call to EWALD:  gamma=   0.144
 Maximum number of real-space cells 4x 4x 2
 Maximum number of reciprocal cells 2x 2x 4

    FEWALD:  cpu time    0.0034: real time    0.0034


--------------------------------------- Iteration      1(   1)  ---------------------------------------


    POTLOK:  cpu time    0.4088: real time    0.4194
    SETDIJ:  cpu time    0.0254: real time    0.0254
     EDDAV:  cpu time   38.5556: real time   38.5641
       DOS:  cpu time    0.0087: real time    0.0087
    CHARGE:  cpu time    1.3268: real time    1.3270
    MIXING:  cpu time    0.0062: real time    0.0062
    --------------------------------------------
      LOOP:  cpu time   40.3317: real time   40.3510

 eigenvalue-minimisations  :  8412
 total energy-change (2. order) :-0.4362682E+03  (-0.1554107E+03)
 number of electron     608.0000028 magnetization      68.2497078
 augmentation part      337.1385756 magnetization      56.8407905

 DIPCOR: dipole corrections for dipol
 direction  3 min pos   242,
 dipolmoment           0.000000      0.000000      0.348247 electrons x Angstroem
 Tr[quadrupol]    -10392.122692

 energy correction for charged system         0.000000 eV
 dipol+quadrupol energy correction           -0.005844 eV
 added-field ion interaction          2.051197 eV  (added to PSCEN)


 Broyden mixing:
  rms(total) = 0.79702E+00    rms(broyden)= 0.79698E+00
  rms(prec ) = 0.80321E+00
  weight for this iteration     100.00

 Free energy of the ion-electron system (eV)
  ---------------------------------------------------
  alpha Z        PSCENC =      1451.64370037
  Ewald energy   TEWEN  =    197565.27732790
  -Hartree energ DENC   =   -252656.36242527
  -exchange      EXHF   =         0.00000000
  -V(xc)+E(xc)   XCENC  =      1282.85168225
  PAW double counting   =     61627.56059535   -64181.13802790
  entropy T*S    EENTRO =         0.03231666
  eigenvalues    EBANDS =     -1674.75679252
  atomic energy  EATOM  =     56148.62337470
  Solvation  Ediel_sol  =         0.00000000
  ---------------------------------------------------
  free energy    TOTEN  =      -436.26824846 eV

  energy without entropy =     -436.30056512  energy(sigma->0) =     -436.27902068


--------------------------------------------------------------------------------------------------------




--------------------------------------- Iteration      1(   2)  ---------------------------------------


    POTLOK:  cpu time    0.4094: real time    0.4241
    SETDIJ:  cpu time    0.0252: real time    0.0252
    EDDIAG:  cpu time    5.4779: real time    5.4794
  RMM-DIIS:  cpu time   19.7449: real time   19.7501
    ORTHCH:  cpu time    1.5128: real time    1.5131
       DOS:  cpu time    0.0090: real time    0.0090
    CHARGE:  cpu time    1.3170: real time    1.3172
    MIXING:  cpu time    0.0066: real time    0.0066
    --------------------------------------------
      LOOP:  cpu time   28.5028: real time   28.5247

 eigenvalue-minimisations  :  8097
 total energy-change (2. order) :-0.1289358E+02  (-0.1270730E+02)
 number of electron     608.0000027 magnetization      68.2374617
 augmentation part      332.9861798 magnetization      56.9565103

 DIPCOR: dipole corrections for dipol
 direction  3 min pos   248,
 dipolmoment           0.000000      0.000000      0.335294 electrons x Angstroem
 Tr[quadrupol]    -10392.594664

 energy correction for charged system         0.000000 eV
 dipol+quadrupol energy correction           -0.005417 eV
 added-field ion interaction          9.804066 eV  (added to PSCEN)


 Broyden mixing:
  rms(total) = 0.12412E+01    rms(broyden)= 0.12412E+01
  rms(prec ) = 0.13332E+01
  weight for this iteration     100.00

 eigenvalues of (default mixing * dielectric matrix)
  average eigenvalue GAMMA=   0.3526
  0.3526

 Free energy of the ion-electron system (eV)
  ---------------------------------------------------
  alpha Z        PSCENC =      1459.39699521
  Ewald energy   TEWEN  =    197565.27732790
  -Hartree energ DENC   =   -252692.72164697
  -exchange      EXHF   =         0.00000000
  -V(xc)+E(xc)   XCENC  =      1284.19635728
  PAW double counting   =     62044.07027551   -64622.66931964
  entropy T*S    EENTRO =         0.03213107
  eigenvalues    EBANDS =     -1635.36732451
  atomic energy  EATOM  =     56148.62337470
  Solvation  Ediel_sol  =         0.00000000
  ---------------------------------------------------
  free energy    TOTEN  =      -449.16182945 eV

  energy without entropy =     -449.19396052  energy(sigma->0) =     -449.17253981


--------------------------------------------------------------------------------------------------------




--------------------------------------- Iteration      1(   3)  ---------------------------------------


    POTLOK:  cpu time    0.4083: real time    0.4234
    SETDIJ:  cpu time    0.0252: real time    0.0252
    EDDIAG:  cpu time    5.4802: real time    5.4812
  RMM-DIIS:  cpu time   19.8477: real time   19.8537
    ORTHCH:  cpu time    1.5151: real time    1.5153
       DOS:  cpu time    0.0086: real time    0.0086
    CHARGE:  cpu time    1.3218: real time    1.3219
    MIXING:  cpu time    0.0064: real time    0.0064
    --------------------------------------------
      LOOP:  cpu time   28.6133: real time   28.6357

 eigenvalue-minimisations  :  8167
 total energy-change (2. order) :-0.2550461E+01  (-0.1107769E+01)
 number of electron     608.0000026 magnetization      68.2539485
 augmentation part      335.6425264 magnetization      55.5954875

 DIPCOR: dipole corrections for dipol
 direction  3 min pos   246,
 dipolmoment           0.000000      0.000000      0.492694 electrons x Angstroem
 Tr[quadrupol]    -10392.335343

 energy correction for charged system         0.000000 eV
 dipol+quadrupol energy correction           -0.011697 eV
 added-field ion interaction         10.571650 eV  (added to PSCEN)


 Broyden mixing:
  rms(total) = 0.25122E+01    rms(broyden)= 0.25121E+01
  rms(prec ) = 0.29861E+01
  weight for this iteration     100.00

 eigenvalues of (default mixing * dielectric matrix)
  average eigenvalue GAMMA=   0.2340
  0.3728  0.0952

 Free energy of the ion-electron system (eV)
  ---------------------------------------------------
  alpha Z        PSCENC =      1460.15829991
  Ewald energy   TEWEN  =    197565.27732790
  -Hartree energ DENC   =   -252645.76207768
  -exchange      EXHF   =         0.00000000
  -V(xc)+E(xc)   XCENC  =      1281.98028094
  PAW double counting   =     61976.39550931   -64541.80993416
  entropy T*S    EENTRO =         0.02074856
  eigenvalues    EBANDS =     -1696.59582033
  atomic energy  EATOM  =     56148.62337470
  Solvation  Ediel_sol  =         0.00000000
  ---------------------------------------------------
  free energy    TOTEN  =      -451.71229085 eV

  energy without entropy =     -451.73303941  energy(sigma->0) =     -451.71920703


--------------------------------------------------------------------------------------------------------




--------------------------------------- Iteration      1(   4)  ---------------------------------------


    POTLOK:  cpu time    0.4120: real time    0.4278
    SETDIJ:  cpu time    0.0252: real time    0.0252
    EDDIAG:  cpu time    5.4685: real time    5.4698
  RMM-DIIS:  cpu time   19.7538: real time   19.7602
    ORTHCH:  cpu time    1.5141: real time    1.5142
       DOS:  cpu time    0.0089: real time    0.0089
    CHARGE:  cpu time    1.3205: real time    1.3206
    MIXING:  cpu time    0.0066: real time    0.0066
    --------------------------------------------
      LOOP:  cpu time   28.5104: real time   28.5334

 eigenvalue-minimisations  :  8122
 total energy-change (2. order) : 0.1325977E+01  (-0.1517927E+00)
 number of electron     608.0000027 magnetization      68.2565754
 augmentation part      335.3721592 magnetization      56.4421393

 DIPCOR: dipole corrections for dipol
 direction  3 min pos   240,
 dipolmoment           0.000000      0.000000      0.188992 electrons x Angstroem
 Tr[quadrupol]    -10391.689246

 energy correction for charged system         0.000000 eV
 dipol+quadrupol energy correction           -0.001721 eV
 added-field ion interaction         -0.357820 eV  (added to PSCEN)


 Broyden mixing:
  rms(total) = 0.16746E+01    rms(broyden)= 0.16744E+01
  rms(prec ) = 0.22184E+01
  weight for this iteration     100.00

 eigenvalues of (default mixing * dielectric matrix)
  average eigenvalue GAMMA=   0.1899
  0.3426  0.1647  0.0622

 Free energy of the ion-electron system (eV)
  ---------------------------------------------------
  alpha Z        PSCENC =      1449.23880553
  Ewald energy   TEWEN  =    197565.27732790
  -Hartree energ DENC   =   -252635.71899869
  -exchange      EXHF   =         0.00000000
  -V(xc)+E(xc)   XCENC  =      1282.09321720
  PAW double counting   =     61963.67480732   -64527.66125758
  entropy T*S    EENTRO =         0.02581364
  eigenvalues    EBANDS =     -1695.93940433
  atomic energy  EATOM  =     56148.62337470
  Solvation  Ediel_sol  =         0.00000000
  ---------------------------------------------------
  free energy    TOTEN  =      -450.38631431 eV

  energy without entropy =     -450.41212795  energy(sigma->0) =     -450.39491886


--------------------------------------------------------------------------------------------------------




--------------------------------------- Iteration      1(   5)  ---------------------------------------


    POTLOK:  cpu time    0.4104: real time    0.4255
    SETDIJ:  cpu time    0.0251: real time    0.0251
    EDDIAG:  cpu time    5.4691: real time    5.4708
  RMM-DIIS:  cpu time   19.7192: real time   19.7237
    ORTHCH:  cpu time    1.5117: real time    1.5122
       DOS:  cpu time    0.0086: real time    0.0086
    CHARGE:  cpu time    1.3256: real time    1.3257
    MIXING:  cpu time    0.0067: real time    0.0066
    --------------------------------------------
      LOOP:  cpu time   28.4756: real time   28.4982

 eigenvalue-minimisations  :  8114
 total energy-change (2. order) : 0.1048840E+01  (-0.5719823E-01)
 number of electron     608.0000027 magnetization      68.2472915
 augmentation part      335.1114698 magnetization      56.6683514

 DIPCOR: dipole corrections for dipol
 direction  3 min pos   241,
 dipolmoment           0.000000      0.000000      0.419775 electrons x Angstroem
 Tr[quadrupol]    -10391.899848

 energy correction for charged system         0.000000 eV
 dipol+quadrupol energy correction           -0.008491 eV
 added-field ion interaction          0.838871 eV  (added to PSCEN)


 Broyden mixing:
  rms(total) = 0.65188E+00    rms(broyden)= 0.65172E+00
  rms(prec ) = 0.82019E+00
  weight for this iteration     100.00

 eigenvalues of (default mixing * dielectric matrix)
  average eigenvalue GAMMA=   0.2290
  0.3723  0.3723  0.1235  0.0479

 Free energy of the ion-electron system (eV)
  ---------------------------------------------------
  alpha Z        PSCENC =      1450.42872695
  Ewald energy   TEWEN  =    197565.27732790
  -Hartree energ DENC   =   -252646.03459164
  -exchange      EXHF   =         0.00000000
  -V(xc)+E(xc)   XCENC  =      1282.45544303
  PAW double counting   =     61960.24239226   -64524.61752472
  entropy T*S    EENTRO =         0.03233840
  eigenvalues    EBANDS =     -1685.74496169
  atomic energy  EATOM  =     56148.62337470
  Solvation  Ediel_sol  =         0.00000000
  ---------------------------------------------------
  free energy    TOTEN  =      -449.33747480 eV

  energy without entropy =     -449.36981320  energy(sigma->0) =     -449.34825427


--------------------------------------------------------------------------------------------------------




--------------------------------------- Iteration      1(   6)  ---------------------------------------


    POTLOK:  cpu time    0.4115: real time    0.4298
    SETDIJ:  cpu time    0.0252: real time    0.0252
    EDDIAG:  cpu time    5.4722: real time    5.4737
  RMM-DIIS:  cpu time   19.6114: real time   19.6177
    ORTHCH:  cpu time    1.5136: real time    1.5142
       DOS:  cpu time    0.0090: real time    0.0090
    CHARGE:  cpu time    1.3161: real time    1.3162
    MIXING:  cpu time    0.0071: real time    0.0071
    --------------------------------------------
      LOOP:  cpu time   28.3661: real time   28.3930

 eigenvalue-minimisations  :  8074
 total energy-change (2. order) :-0.1798331E-01  (-0.2730921E-01)
 number of electron     608.0000027 magnetization      68.2551823
 augmentation part      334.9099589 magnetization      56.5078431

 DIPCOR: dipole corrections for dipol
 direction  3 min pos   242,
 dipolmoment           0.000000      0.000000      0.359460 electrons x Angstroem
 Tr[quadrupol]    -10391.985105

 energy correction for charged system         0.000000 eV
 dipol+quadrupol energy correction           -0.006226 eV
 added-field ion interaction          2.117248 eV  (added to PSCEN)


 Broyden mixing:
  rms(total) = 0.82462E+00    rms(broyden)= 0.82459E+00
  rms(prec ) = 0.90762E+00
  weight for this iteration     100.00

 eigenvalues of (default mixing * dielectric matrix)
  average eigenvalue GAMMA=   0.2682
  0.5370  0.5370  0.1351  0.0477  0.0843

 Free energy of the ion-electron system (eV)
  ---------------------------------------------------
  alpha Z        PSCENC =      1451.70936816
  Ewald energy   TEWEN  =    197565.27732790
  -Hartree energ DENC   =   -252650.27225952
  -exchange      EXHF   =         0.00000000
  -V(xc)+E(xc)   XCENC  =      1282.71387534
  PAW double counting   =     61935.12648138   -64499.07062472
  entropy T*S    EENTRO =         0.00900924
  eigenvalues    EBANDS =     -1683.47201060
  atomic energy  EATOM  =     56148.62337470
  Solvation  Ediel_sol  =         0.00000000
  ---------------------------------------------------
  free energy    TOTEN  =      -449.35545811 eV

  energy without entropy =     -449.36446735  energy(sigma->0) =     -449.35846119


--------------------------------------------------------------------------------------------------------




--------------------------------------- Iteration      1(   7)  ---------------------------------------


    POTLOK:  cpu time    0.4088: real time    0.4252
    SETDIJ:  cpu time    0.0251: real time    0.0251
    EDDIAG:  cpu time    5.4998: real time    5.5009
  RMM-DIIS:  cpu time   19.6190: real time   19.6247
    ORTHCH:  cpu time    1.5147: real time    1.5149
       DOS:  cpu time    0.0090: real time    0.0090
    CHARGE:  cpu time    1.3159: real time    1.3161
    MIXING:  cpu time    0.0070: real time    0.0070
    --------------------------------------------
      LOOP:  cpu time   28.3995: real time   28.4230

 eigenvalue-minimisations  :  8067
 total energy-change (2. order) : 0.8064486E-01  (-0.1054077E-01)
 number of electron     608.0000027 magnetization      68.2555554
 augmentation part      335.1444262 magnetization      56.7288630

 DIPCOR: dipole corrections for dipol
 direction  3 min pos   238,
 dipolmoment           0.000000      0.000000      0.334867 electrons x Angstroem
 Tr[quadrupol]    -10391.777650

 energy correction for charged system         0.000000 eV
 dipol+quadrupol energy correction           -0.005403 eV
 added-field ion interaction         -3.240404 eV  (added to PSCEN)


 Broyden mixing:
  rms(total) = 0.50887E+00    rms(broyden)= 0.50884E+00
  rms(prec ) = 0.57845E+00
  weight for this iteration     100.00

 eigenvalues of (default mixing * dielectric matrix)
  average eigenvalue GAMMA=   0.2408
  0.5435  0.5435  0.1333  0.1062  0.0471  0.0711

 Free energy of the ion-electron system (eV)
  ---------------------------------------------------
  alpha Z        PSCENC =      1446.35253890
  Ewald energy   TEWEN  =    197565.27732790
  -Hartree energ DENC   =   -252648.60791198
  -exchange      EXHF   =         0.00000000
  -V(xc)+E(xc)   XCENC  =      1282.60097294
  PAW double counting   =     61889.90323615   -64451.95195869
  entropy T*S    EENTRO =         0.03197667
  eigenvalues    EBANDS =     -1681.50436983
  atomic energy  EATOM  =     56148.62337470
  Solvation  Ediel_sol  =         0.00000000
  ---------------------------------------------------
  free energy    TOTEN  =      -449.27481325 eV

  energy without entropy =     -449.30678992  energy(sigma->0) =     -449.28547214


--------------------------------------------------------------------------------------------------------




--------------------------------------- Iteration      1(   8)  ---------------------------------------


    POTLOK:  cpu time    0.4101: real time    0.4269
    SETDIJ:  cpu time    0.0250: real time    0.0250
    EDDIAG:  cpu time    5.4934: real time    5.4944
  RMM-DIIS:  cpu time   19.5739: real time   19.5788
    ORTHCH:  cpu time    1.5180: real time    1.5182
       DOS:  cpu time    0.0091: real time    0.0091
    CHARGE:  cpu time    1.3132: real time    1.3133
    MIXING:  cpu time    0.0074: real time    0.0074
    --------------------------------------------
      LOOP:  cpu time   28.3500: real time   28.3732

 eigenvalue-minimisations  :  8062
 total energy-change (2. order) : 0.6692107E-01  (-0.3636944E-02)
 number of electron     608.0000027 magnetization      68.2544762
 augmentation part      335.1861290 magnetization      56.6979426

 DIPCOR: dipole corrections for dipol
 direction  3 min pos   234,
 dipolmoment           0.000000      0.000000      0.364327 electrons x Angstroem
 Tr[quadrupol]    -10391.579284

 energy correction for charged system         0.000000 eV
 dipol+quadrupol energy correction           -0.006396 eV
 added-field ion interaction         -9.196854 eV  (added to PSCEN)


 Broyden mixing:
  rms(total) = 0.25806E+00    rms(broyden)= 0.25804E+00
  rms(prec ) = 0.27530E+00
  weight for this iteration     100.00

 eigenvalues of (default mixing * dielectric matrix)
  average eigenvalue GAMMA=   0.2103
  0.5426  0.5426  0.1266  0.1150  0.0708  0.0468  0.0274

 Free energy of the ion-electron system (eV)
  ---------------------------------------------------
  alpha Z        PSCENC =      1440.39509658
  Ewald energy   TEWEN  =    197565.27732790
  -Hartree energ DENC   =   -252648.33633545
  -exchange      EXHF   =         0.00000000
  -V(xc)+E(xc)   XCENC  =      1282.56247740
  PAW double counting   =     61877.57257279   -64438.98083968
  entropy T*S    EENTRO =         0.03128356
  eigenvalues    EBANDS =     -1676.35284998
  atomic energy  EATOM  =     56148.62337470
  Solvation  Ediel_sol  =         0.00000000
  ---------------------------------------------------
  free energy    TOTEN  =      -449.20789218 eV

  energy without entropy =     -449.23917574  energy(sigma->0) =     -449.21832003


--------------------------------------------------------------------------------------------------------




--------------------------------------- Iteration      1(   9)  ---------------------------------------


    POTLOK:  cpu time    0.4123: real time    0.4278
    SETDIJ:  cpu time    0.0251: real time    0.0251
    EDDIAG:  cpu time    5.4888: real time    5.4897
  RMM-DIIS:  cpu time   19.8226: real time   19.8280
    ORTHCH:  cpu time    1.5154: real time    1.5156
       DOS:  cpu time    0.0089: real time    0.0089
    CHARGE:  cpu time    1.3194: real time    1.3195
    MIXING:  cpu time    0.0076: real time    0.0076
    --------------------------------------------
      LOOP:  cpu time   28.6000: real time   28.6221

 eigenvalue-minimisations  :  8158
 total energy-change (2. order) : 0.7677894E-02  (-0.7274439E-03)
 number of electron     608.0000027 magnetization      68.2546616
 augmentation part      335.1939086 magnetization      56.6469171

 DIPCOR: dipole corrections for dipol
 direction  3 min pos   242,
 dipolmoment           0.000000      0.000000      0.358320 electrons x Angstroem
 Tr[quadrupol]    -10391.989757

 energy correction for charged system         0.000000 eV
 dipol+quadrupol energy correction           -0.006187 eV
 added-field ion interaction          2.110530 eV  (added to PSCEN)


 Broyden mixing:
  rms(total) = 0.20762E+00    rms(broyden)= 0.20762E+00
  rms(prec ) = 0.21039E+00
  weight for this iteration     100.00

 eigenvalues of (default mixing * dielectric matrix)
  average eigenvalue GAMMA=   0.2379
  0.5628  0.5628  0.3192  0.1342  0.1342  0.0816  0.0474  0.0611

 Free energy of the ion-electron system (eV)
  ---------------------------------------------------
  alpha Z        PSCENC =      1451.70269034
  Ewald energy   TEWEN  =    197565.27732790
  -Hartree energ DENC   =   -252649.23309656
  -exchange      EXHF   =         0.00000000
  -V(xc)+E(xc)   XCENC  =      1282.56241503
  PAW double counting   =     61870.66260708   -64431.87415672
  entropy T*S    EENTRO =         0.03102519
  eigenvalues    EBANDS =     -1686.95240126
  atomic energy  EATOM  =     56148.62337470
  Solvation  Ediel_sol  =         0.00000000
  ---------------------------------------------------
  free energy    TOTEN  =      -449.20021429 eV

  energy without entropy =     -449.23123948  energy(sigma->0) =     -449.21055602


--------------------------------------------------------------------------------------------------------




--------------------------------------- Iteration      1(  10)  ---------------------------------------


    POTLOK:  cpu time    0.4085: real time    0.4252
    SETDIJ:  cpu time    0.0252: real time    0.0252
    EDDIAG:  cpu time    5.4902: real time    5.4917
  RMM-DIIS:  cpu time   24.5950: real time   24.6009
    ORTHCH:  cpu time    1.5155: real time    1.5157
       DOS:  cpu time    0.0093: real time    0.0093
    CHARGE:  cpu time    1.3149: real time    1.3151
    MIXING:  cpu time    0.0077: real time    0.0077
    --------------------------------------------
      LOOP:  cpu time   33.3663: real time   33.3907

 eigenvalue-minimisations  : 10270
 total energy-change (2. order) :-0.8914997E-04  (-0.1170071E-03)
 number of electron     608.0000027 magnetization      68.2545385
 augmentation part      335.1943870 magnetization      56.6484849

 DIPCOR: dipole corrections for dipol
 direction  3 min pos   246,
 dipolmoment           0.000000      0.000000      0.359314 electrons x Angstroem
 Tr[quadrupol]    -10392.186520

 energy correction for charged system         0.000000 eV
 dipol+quadrupol energy correction           -0.006221 eV
 added-field ion interaction          7.709746 eV  (added to PSCEN)


 Broyden mixing:
  rms(total) = 0.20707E+00    rms(broyden)= 0.20707E+00
  rms(prec ) = 0.20987E+00
  weight for this iteration     100.00

 eigenvalues of (default mixing * dielectric matrix)
  average eigenvalue GAMMA=   0.2376
  0.5666  0.5666  0.4573  0.1362  0.1362  0.0838  0.0838  0.0474  0.0610

 Free energy of the ion-electron system (eV)
  ---------------------------------------------------
  alpha Z        PSCENC =      1457.30187159
  Ewald energy   TEWEN  =    197565.27732790
  -Hartree energ DENC   =   -252649.26557685
  -exchange      EXHF   =         0.00000000
  -V(xc)+E(xc)   XCENC  =      1282.56397566
  PAW double counting   =     61869.89164663   -64431.08032284
  entropy T*S    EENTRO =         0.03105701
  eigenvalues    EBANDS =     -1692.54365725
  atomic energy  EATOM  =     56148.62337470
  Solvation  Ediel_sol  =         0.00000000
  ---------------------------------------------------
  free energy    TOTEN  =      -449.20030344 eV

  energy without entropy =     -449.23136045  energy(sigma->0) =     -449.21065578


--------------------------------------------------------------------------------------------------------




--------------------------------------- Iteration      1(  11)  ---------------------------------------


    POTLOK:  cpu time    0.4095: real time    0.4247
    SETDIJ:  cpu time    0.0250: real time    0.0250
    EDDIAG:  cpu time    5.4879: real time    5.4891
  RMM-DIIS:  cpu time   16.7004: real time   16.7052
    ORTHCH:  cpu time    1.5153: real time    1.5154
       DOS:  cpu time    0.0093: real time    0.0093
    CHARGE:  cpu time    1.3295: real time    1.3296
    MIXING:  cpu time    0.0078: real time    0.0078
    --------------------------------------------
      LOOP:  cpu time   25.4847: real time   25.5062

 eigenvalue-minimisations  :  6804
 total energy-change (2. order) : 0.2630230E-03  (-0.8067456E-05)
 number of electron     608.0000027 magnetization      68.2540338
 augmentation part      335.1955537 magnetization      56.6489318

 DIPCOR: dipole corrections for dipol
 direction  3 min pos   246,
 dipolmoment           0.000000      0.000000      0.359704 electrons x Angstroem
 Tr[quadrupol]    -10392.186773

 energy correction for charged system         0.000000 eV
 dipol+quadrupol energy correction           -0.006235 eV
 added-field ion interaction          7.718105 eV  (added to PSCEN)


 Broyden mixing:
  rms(total) = 0.20717E+00    rms(broyden)= 0.20717E+00
  rms(prec ) = 0.20996E+00
  weight for this iteration     100.00

 eigenvalues of (default mixing * dielectric matrix)
  average eigenvalue GAMMA=   0.2398
  0.5576  0.5661  0.5661  0.1359  0.1359  0.1231  0.1231  0.0819  0.0474  0.0607

 Free energy of the ion-electron system (eV)
  ---------------------------------------------------
  alpha Z        PSCENC =      1457.31021745
  Ewald energy   TEWEN  =    197565.27732790
  -Hartree energ DENC   =   -252649.21679843
  -exchange      EXHF   =         0.00000000
  -V(xc)+E(xc)   XCENC  =      1282.56231853
  PAW double counting   =     61871.73800595   -64432.94278520
  entropy T*S    EENTRO =         0.03106122
  eigenvalues    EBANDS =     -1692.58276253
  atomic energy  EATOM  =     56148.62337470
  Solvation  Ediel_sol  =         0.00000000
  ---------------------------------------------------
  free energy    TOTEN  =      -449.20004041 eV

  energy without entropy =     -449.23110163  energy(sigma->0) =     -449.21039415


--------------------------------------------------------------------------------------------------------




--------------------------------------- Iteration      1(  12)  ---------------------------------------


    POTLOK:  cpu time    0.4113: real time    0.4264
    SETDIJ:  cpu time    0.0251: real time    0.0251
    EDDIAG:  cpu time    5.5300: real time    5.5312
  RMM-DIIS:  cpu time   19.1248: real time   19.1318
    ORTHCH:  cpu time    1.5141: real time    1.5142
       DOS:  cpu time    0.0092: real time    0.0092
    CHARGE:  cpu time    1.3183: real time    1.3184
    MIXING:  cpu time    0.0081: real time    0.0081
    --------------------------------------------
      LOOP:  cpu time   27.9409: real time   27.9644

 eigenvalue-minimisations  :  7818
 total energy-change (2. order) :-0.1011220E-03  (-0.1307859E-04)
 number of electron     608.0000027 magnetization      68.2513289
 augmentation part      335.1953116 magnetization      56.6422818

 DIPCOR: dipole corrections for dipol
 direction  3 min pos   248,
 dipolmoment           0.000000      0.000000      0.360171 electrons x Angstroem
 Tr[quadrupol]    -10392.279673

 energy correction for charged system         0.000000 eV
 dipol+quadrupol energy correction           -0.006251 eV
 added-field ion interaction         10.531474 eV  (added to PSCEN)


 Broyden mixing:
  rms(total) = 0.20809E+00    rms(broyden)= 0.20809E+00
  rms(prec ) = 0.21149E+00
  weight for this iteration     100.00

 eigenvalues of (default mixing * dielectric matrix)
  average eigenvalue GAMMA=   0.2994
  0.9273  0.5528  0.5528  0.3399  0.3399  0.1516  0.1316  0.0474  0.1062  0.0839
  0.0607

 Free energy of the ion-electron system (eV)
  ---------------------------------------------------
  alpha Z        PSCENC =      1460.12357037
  Ewald energy   TEWEN  =    197565.27732790
  -Hartree energ DENC   =   -252649.24628169
  -exchange      EXHF   =         0.00000000
  -V(xc)+E(xc)   XCENC  =      1282.56793300
  PAW double counting   =     61874.16392052   -64435.36150007
  entropy T*S    EENTRO =         0.03109035
  eigenvalues    EBANDS =     -1695.37957662
  atomic energy  EATOM  =     56148.62337470
  Solvation  Ediel_sol  =         0.00000000
  ---------------------------------------------------
  free energy    TOTEN  =      -449.20014154 eV

  energy without entropy =     -449.23123189  energy(sigma->0) =     -449.21050499


--------------------------------------------------------------------------------------------------------




--------------------------------------- Iteration      1(  13)  ---------------------------------------


    POTLOK:  cpu time    0.4138: real time    0.4264
    SETDIJ:  cpu time    0.0252: real time    0.0252
    EDDIAG:  cpu time    5.5400: real time    5.5412
  RMM-DIIS:  cpu time   19.4134: real time   19.4177
    ORTHCH:  cpu time    1.5120: real time    1.5125
       DOS:  cpu time    0.0091: real time    0.0091
    CHARGE:  cpu time    1.3168: real time    1.3169
    MIXING:  cpu time    0.0084: real time    0.0084
    --------------------------------------------
      LOOP:  cpu time   28.2388: real time   28.2575

 eigenvalue-minimisations  :  7967
 total energy-change (2. order) :-0.8218251E-03  (-0.1826956E-03)
 number of electron     608.0000027 magnetization      68.2366128
 augmentation part      335.1981502 magnetization      56.6328295

 DIPCOR: dipole corrections for dipol
 direction  3 min pos   247,
 dipolmoment           0.000000      0.000000      0.360227 electrons x Angstroem
 Tr[quadrupol]    -10392.242662

 energy correction for charged system         0.000000 eV
 dipol+quadrupol energy correction           -0.006253 eV
 added-field ion interaction          9.131209 eV  (added to PSCEN)


 Broyden mixing:
  rms(total) = 0.21308E+00    rms(broyden)= 0.21308E+00
  rms(prec ) = 0.21822E+00
  weight for this iteration     100.00

 eigenvalues of (default mixing * dielectric matrix)
  average eigenvalue GAMMA=   0.3569
  1.3207  0.6955  0.6955  0.4269  0.4269  0.1483  0.1483  0.0474  0.1241  0.0607
  0.0835  0.1050

 Free energy of the ion-electron system (eV)
  ---------------------------------------------------
  alpha Z        PSCENC =      1458.72330349
  Ewald energy   TEWEN  =    197565.27732790
  -Hartree energ DENC   =   -252649.52851002
  -exchange      EXHF   =         0.00000000
  -V(xc)+E(xc)   XCENC  =      1282.57495516
  PAW double counting   =     61880.97855369   -64442.12180889
  entropy T*S    EENTRO =         0.03092171
  eigenvalues    EBANDS =     -1693.75908111
  atomic energy  EATOM  =     56148.62337470
  Solvation  Ediel_sol  =         0.00000000
  ---------------------------------------------------
  free energy    TOTEN  =      -449.20096336 eV

  energy without entropy =     -449.23188508  energy(sigma->0) =     -449.21127060


--------------------------------------------------------------------------------------------------------




--------------------------------------- Iteration      1(  14)  ---------------------------------------


    POTLOK:  cpu time    0.4089: real time    0.4243
    SETDIJ:  cpu time    0.0250: real time    0.0250
    EDDIAG:  cpu time    5.5356: real time    5.5366
  RMM-DIIS:  cpu time   19.5774: real time   19.5827
    ORTHCH:  cpu time    1.5113: real time    1.5116
       DOS:  cpu time    0.0092: real time    0.0092
    CHARGE:  cpu time    1.3158: real time    1.3159
    MIXING:  cpu time    0.0085: real time    0.0085
    --------------------------------------------
      LOOP:  cpu time   28.3925: real time   28.4138

 eigenvalue-minimisations  :  8015
 total energy-change (2. order) : 0.4005044E-02  (-0.5461604E-03)
 number of electron     608.0000027 magnetization      68.2303008
 augmentation part      335.1965981 magnetization      56.6318665

 DIPCOR: dipole corrections for dipol
 direction  3 min pos   240,
 dipolmoment           0.000000      0.000000      0.359068 electrons x Angstroem
 Tr[quadrupol]    -10391.906720

 energy correction for charged system         0.000000 eV
 dipol+quadrupol energy correction           -0.006213 eV
 added-field ion interaction         -0.679826 eV  (added to PSCEN)


 Broyden mixing:
  rms(total) = 0.19916E+00    rms(broyden)= 0.19916E+00
  rms(prec ) = 0.20363E+00
  weight for this iteration     100.00

 eigenvalues of (default mixing * dielectric matrix)
  average eigenvalue GAMMA=   0.3612
  1.3826  0.7442  0.7442  0.4316  0.4316  0.2430  0.1672  0.0474  0.0607  0.0837
  0.1327  0.1226  0.1034

 Free energy of the ion-electron system (eV)
  ---------------------------------------------------
  alpha Z        PSCENC =      1448.91230821
  Ewald energy   TEWEN  =    197565.27732790
  -Hartree energ DENC   =   -252649.82857879
  -exchange      EXHF   =         0.00000000
  -V(xc)+E(xc)   XCENC  =      1282.61190602
  PAW double counting   =     61898.55728813   -64459.52308239
  entropy T*S    EENTRO =         0.03132173
  eigenvalues    EBANDS =     -1683.85882383
  atomic energy  EATOM  =     56148.62337470
  Solvation  Ediel_sol  =         0.00000000
  ---------------------------------------------------
  free energy    TOTEN  =      -449.19695832 eV

  energy without entropy =     -449.22828005  energy(sigma->0) =     -449.20739889


--------------------------------------------------------------------------------------------------------




--------------------------------------- Iteration      1(  15)  ---------------------------------------


    POTLOK:  cpu time    0.4101: real time    0.4244
    SETDIJ:  cpu time    0.0251: real time    0.0251
    EDDIAG:  cpu time    5.5449: real time    5.5463
  RMM-DIIS:  cpu time   19.5287: real time   19.5363
    ORTHCH:  cpu time    1.5122: real time    1.5125
       DOS:  cpu time    0.0090: real time    0.0090
    CHARGE:  cpu time    1.3157: real time    1.3159
    MIXING:  cpu time    0.0089: real time    0.0089
    --------------------------------------------
      LOOP:  cpu time   28.3538: real time   28.3784

 eigenvalue-minimisations  :  7998
 total energy-change (2. order) : 0.1374771E-02  (-0.4702614E-03)
 number of electron     608.0000027 magnetization      68.2192607
 augmentation part      335.2093568 magnetization      56.6385442

 DIPCOR: dipole corrections for dipol
 direction  3 min pos   239,
[...]
   0.830E+01 -.359E+02 0.846E+03   -.815E+01 0.356E+02 -.846E+03   0.317E-01 0.219E+00 -.136E+00   0.176E-01 0.480E-01 0.101E+00
   0.648E+02 -.482E+02 0.228E+04   -.648E+02 0.480E+02 -.228E+04   0.112E+00 0.409E-01 -.226E+01   -.529E-02 0.256E-01 0.467E-02
   -.574E+01 -.720E+02 -.194E+04   0.637E+01 0.727E+02 0.194E+04   -.634E+00 -.683E+00 0.134E+01   -.979E-02 -.206E-02 -.266E-01
   0.134E+02 0.339E+02 -.574E+03   -.126E+02 -.346E+02 0.574E+03   -.779E+00 0.642E+00 0.423E+00   -.677E-01 0.150E+00 0.174E-02
   -.188E+02 0.121E+02 0.227E+04   0.185E+02 -.125E+02 -.227E+04   0.154E+00 0.435E+00 -.271E+01   -.219E-01 -.682E-01 0.749E-02
   -.688E+02 -.104E+03 -.193E+04   0.687E+02 0.104E+03 0.193E+04   0.158E-01 -.759E+00 0.784E+00   0.717E-01 0.211E-01 -.890E-02
   -.561E+02 -.525E+02 0.782E+03   0.557E+02 0.530E+02 -.781E+03   0.510E+00 -.444E+00 -.109E+01   0.101E+00 0.110E+00 0.390E-02
   -.142E+03 -.140E+02 -.606E+03   0.143E+03 0.142E+02 0.606E+03   -.814E+00 -.214E+00 0.320E+00   -.309E-02 0.944E-02 -.117E-01
   0.769E+02 -.449E+02 0.828E+03   -.770E+02 0.457E+02 -.829E+03   -.132E+00 -.384E+00 0.359E-01   -.178E-01 0.763E-01 0.337E-02
   0.674E+02 -.564E+02 -.551E+03   -.681E+02 0.566E+02 0.551E+03   0.714E+00 -.236E+00 0.512E+00   0.595E-01 0.797E-02 -.284E-01
   0.255E+01 -.520E+01 0.225E+04   -.245E+01 0.540E+01 -.225E+04   -.179E-01 -.196E+00 -.206E+01   0.612E-01 0.783E-01 0.115E-01
   -.414E+01 0.393E+01 -.197E+04   0.377E+01 -.455E+01 0.196E+04   0.327E+00 0.663E+00 0.407E+01   0.442E-01 -.276E-01 -.268E-01
   0.430E+02 -.571E+01 0.227E+04   -.432E+02 0.593E+01 -.227E+04   0.115E+00 -.234E+00 -.253E+01   -.650E-01 0.382E-01 0.438E-01
   0.368E+02 -.121E+02 -.203E+04   -.364E+02 0.120E+02 0.203E+04   -.387E+00 0.166E-02 0.380E+01   -.170E-02 0.611E-01 -.537E-01
   -.115E+03 0.497E+02 0.785E+03   0.115E+03 -.501E+02 -.785E+03   -.792E-01 0.186E+00 -.390E+00   0.120E+00 -.312E-02 0.418E-01
   -.848E+01 0.441E+02 0.778E+03   0.851E+01 -.442E+02 -.777E+03   0.552E-01 0.241E+00 -.693E+00   0.234E-01 -.536E-01 -.750E-01
   -.403E+02 0.246E+02 -.558E+03   0.401E+02 -.249E+02 0.558E+03   0.207E+00 0.263E+00 -.508E-01   0.168E-01 -.153E-01 -.117E+00
   -.762E+02 0.218E+02 0.222E+04   0.761E+02 -.217E+02 -.221E+04   -.134E-01 -.683E-01 -.257E+01   0.105E+00 0.290E-01 0.331E-01
   -.138E+03 -.107E+02 -.201E+04   0.139E+03 0.111E+02 0.201E+04   -.104E+01 -.303E+00 0.156E+01   -.897E-01 -.208E-02 0.410E-02
   0.529E+02 -.290E+02 -.558E+03   -.527E+02 0.295E+02 0.558E+03   -.208E+00 -.398E+00 -.215E+00   0.106E-01 -.781E-01 -.125E+00
   0.842E+02 -.661E+02 -.614E+03   -.845E+02 0.666E+02 0.615E+03   0.241E+00 -.430E+00 -.697E+00   -.578E-02 -.592E-01 0.472E-01
   0.560E+02 -.386E+01 0.226E+04   -.560E+02 0.361E+01 -.226E+04   -.197E+00 0.608E-01 -.214E+01   -.102E+00 0.348E-01 0.458E-01
   -.588E+02 -.667E+02 -.199E+04   0.595E+02 0.676E+02 0.199E+04   -.888E+00 -.829E+00 0.151E+01   0.127E+00 -.992E-01 -.262E-01
   0.546E+02 -.395E+02 -.580E+03   -.550E+02 0.397E+02 0.580E+03   0.415E+00 -.206E+00 0.435E+00   0.742E-02 0.754E-02 0.818E-01
   -.502E+02 0.319E+02 -.553E+03   0.503E+02 -.324E+02 0.553E+03   -.712E-01 0.410E+00 0.778E+00   -.271E-01 0.259E-01 -.253E-01
   -.402E+02 0.732E+02 -.533E+03   0.401E+02 -.731E+02 0.532E+03   0.432E-01 -.915E-01 0.108E+01   -.225E-01 -.433E-01 -.137E+00
   0.302E+02 0.978E+01 -.610E+03   -.303E+02 -.986E+01 0.610E+03   -.238E-02 0.852E-01 0.357E+00   0.630E-01 0.159E-03 -.343E-01
   0.256E+01 0.509E+01 0.221E+04   -.214E+01 -.486E+01 -.221E+04   -.262E+00 -.269E+00 -.241E+01   -.548E-01 -.107E+00 0.848E-01
   -.280E+02 0.113E+03 -.188E+04   0.286E+02 -.114E+03 0.188E+04   -.663E+00 0.290E+00 0.165E+01   0.852E-01 -.178E-01 -.275E-02
   -.467E+02 -.332E+02 -.197E+04   0.469E+02 0.301E+02 0.200E+04   -.263E+00 0.322E+01 -.268E+02   0.506E-01 -.413E-01 -.309E-01
   -.924E+01 0.471E+01 -.202E+04   0.754E+01 -.641E+01 0.205E+04   0.166E+01 0.177E+01 -.274E+02   0.353E-01 -.619E-01 -.782E-02
   -.369E+02 -.143E+02 -.204E+04   0.351E+02 0.137E+02 0.206E+04   0.194E+01 0.648E+00 -.272E+02   -.788E-01 0.251E-01 -.395E-01
   0.513E+02 0.141E+02 -.205E+04   -.512E+02 -.158E+02 0.207E+04   -.131E+00 0.177E+01 -.282E+02   -.171E-01 0.369E-01 0.393E-01
   -.417E+02 0.377E+02 -.198E+04   0.404E+02 -.392E+02 0.201E+04   0.129E+01 0.144E+01 -.274E+02   0.201E-01 0.475E-01 0.407E-01
 -----------------------------------------------------------------------------------------------
   -.665E+01 -.108E+02 0.139E+03   0.185E-12 0.959E-12 0.121E-10   0.678E+01 0.106E+02 -.140E+03   -.122E+00 0.184E+00 0.114E+01
 
 
 POSITION                                       TOTAL-FORCE (eV/Angst)
 -----------------------------------------------------------------------------------
     10.08740      0.00562      4.04934        -0.102188     -0.088088     -0.216901
     -2.53339      8.73512      4.08190        -0.051808      0.069940     -0.218562
      5.03058      0.01686      4.07661        -0.010093     -0.175404     -0.220461
      8.81557      2.19268      4.07950         0.002709     -0.179630     -0.231044
      1.26036      2.17683      4.06343        -0.064097      0.012067     -0.258525
      2.53423      1.44302      6.08312        -0.002464     -0.004585     -0.005988
      6.28789      2.21111      4.10570         0.050944     -0.189830     -0.331688
      3.80181      0.73423      2.00037         0.079288     -0.041366      0.444679
      3.72765      0.76399      8.10095        -0.013049     -0.003424     -0.014546
      7.57968      1.43064      6.17323        -0.001715     -0.003070     -0.001787
      6.31884      0.74108      2.03384         0.072569     -0.070211      0.415191
      6.22497      0.79948      8.28204         0.008253     -0.003672     -0.008113
      7.57051      4.36576      4.10283        -0.077611      0.174817     -0.443942
      5.03817      4.36229      4.08171        -0.017746      0.059595     -0.429527
      3.79818      3.60279      6.06939        -0.001530      0.008824      0.002502
      2.55462      2.91604      2.00083        -0.068818      0.345285      0.272279
      2.51351      2.90756      8.10561         0.007278      0.002799     -0.001245
      6.28954      3.61277      6.09938        -0.005233      0.002290     -0.000922
      7.58585      2.93043      2.03371         0.078867     -0.006701      0.432613
      7.55155      2.91800      8.15239        -0.005488      0.014276     -0.006504
      6.29425      6.55133      4.09263         0.063488     -0.050395     -0.214812
     -2.54145      5.78892      6.10492         0.005646      0.006664     -0.000268
      3.81389      6.57546      4.07284        -0.256833     -0.004314     -0.191974
      1.26871      5.10416      2.04534         0.133041     -0.164023      0.412347
      1.22423      5.11575      8.19339         0.001165      0.020396      0.005933
      6.29450      5.11374      2.02823        -0.065629      0.074265      0.367190
      6.21547      5.09838      8.17095        -0.001858      0.003614     -0.007719
     -2.53139      7.30304      2.00991         0.015869     -0.138378      0.342486
     -2.56551      7.30999      8.01213         0.003812      0.003252     -0.002291
      0.00464      7.28975      2.05722        -0.007966      0.074536      0.266240
     -0.06958      7.22959      8.17531         0.011266      0.016329     -0.001727
      5.08583      7.28318      2.02757        -0.220863      0.060412      0.250131
      5.06595      7.22366      8.14140         0.008399      0.015449     -0.002111
      7.54405      0.03969      4.10439         0.114054     -0.003492     -0.398163
     -0.01125      1.43550      6.05955         0.001586      0.006880     -0.011412
      3.74186      2.14689      4.07389         0.203179     -0.032113     -0.461706
      1.31001      0.72945      2.02674         0.129944     -0.137799      0.173090
      1.31712      0.79520      8.09266        -0.013048      0.028530     -0.017590
      5.10362      1.36785      6.09413        -0.015025      0.027817     -0.002528
      8.82791      0.75063      2.00000        -0.218241     -0.097536      0.278462
      8.83274      0.78231      8.26811        -0.008878      0.016838      0.007730
     -0.02406      4.34464      4.11684         0.279467      0.147316     -0.327701
     -1.35194      3.63180      6.10055         0.004573      0.004367     -0.021671
      2.55702      4.37025      4.05869        -0.240873      0.448635     -0.876480
      1.29711      3.62667      6.09483         0.003228      0.009332     -0.004839
      0.02215      2.94990      2.02984         0.141012      0.071606      0.404722
     -0.01328      2.95010      8.03884        -0.000975      0.016508     -0.014028
      5.09719      2.93887      2.04043        -0.121469      0.048454     -0.062348
      5.02110      2.95775      8.03950         0.000676     -0.000530      0.013127
     -1.32764      6.58396      4.11125         0.157368     -0.239363     -0.367030
      1.24700      6.55932      4.09363         0.107732      0.022720     -0.032649
      0.04848      5.77609      6.15121         0.001428      0.007237      0.004639
     -1.29718      5.12819      2.06865         0.012101      0.057782      0.196802
     -1.28718      5.14953      8.20934         0.002229     -0.001514      0.004285
      2.57281      5.81184      6.09640        -0.004217     -0.000273      0.001146
      5.05502      5.74455      6.10782        -0.010249      0.010031     -0.008778
      3.79261      5.11061      2.02334        -0.251754     -0.164194      1.063367
      3.76031      5.15611      8.19857         0.007509      0.005636      0.003327
     -3.80174      7.97183      6.04558         0.006308      0.002048     -0.005006
     -1.26288      7.96412      6.09455         0.009996      0.011560      0.000093
      1.23274      7.97983      6.05091         0.011109     -0.028653      0.013442
      3.78207      7.99654      6.12671        -0.003060      0.010777     -0.001565
      2.54183      7.29082      2.05307         0.124968     -0.144421      0.039185
      2.44969      7.26246      8.14310         0.001745      0.010865     -0.006267
      0.14453      0.02086      9.22666         0.006011      0.017444     -0.006490
      2.56001      4.35029      9.29517        -0.000703     -0.000704     -0.001244
      7.55342      4.39115      9.29362        -0.009320      0.011462      0.002825
     -0.20412      8.71574      9.26249        -0.004801      0.016785      0.014035
      2.51840      8.69376      9.29192         0.008784     -0.001756      0.006283
 -----------------------------------------------------------------------------------
    total drift:                                0.003815      0.013241     -0.001634


--------------------------------------------------------------------------------------------------------



  FREE ENERGIE OF THE ION-ELECTRON SYSTEM (eV)
  ---------------------------------------------------
  free  energy   TOTEN  =      -464.86642383 eV

  energy  without entropy=     -464.89794749  energy(sigma->0) =     -464.87693171
 
 d Force = 0.7911531E-03[ 0.599E-03, 0.984E-03]  d Energy = 0.8334044E-03-0.423E-04
 d Force =-0.4096585E+01[-0.410E+01,-0.409E+01]  d Ewald  =-0.4096584E+01-0.440E-06


--------------------------------------------------------------------------------------------------------


    POTLOK:  cpu time    0.4323: real time    0.4324


--------------------------------------------------------------------------------------------------------


 stress matrix after NEB project (eV)
    -33.08356     -0.08310      0.40874
     -0.08310    -37.78275      1.38710
      0.40874      1.38710    -11.29779
  FORCES: max atom, RMS     0.035967    0.012069
  FORCE total and by dimension    0.100253    0.028653
  Stress total and by dimension   51.515956   37.782746
 Steepest descent step on ions:
 trial-energy change:   -0.000833  1 .order   -0.000791   -0.000984   -0.000599
  (g-gl).g = 0.984E-03      g.g   = 0.984E-03  gl.gl    = 0.000E+00
 g(Force)  = 0.984E-03   g(Stress)= 0.000E+00 ortho     = 0.000E+00
 gamma     =   0.00000
 trial     =   1.00000
 opt step  =   1.72781  (harmonic =   2.55643) maximal distance =0.00414680
 next E    =  -464.866658   (d E  =  -0.00107)


--------------------------------------------------------------------------------------------------------


  
 reached required accuracy - stopping structural energy minimisation
 writing wavefunctions
     LOOP+:  cpu time  289.8485: real time  321.3499
    4ORBIT:  cpu time    0.0000: real time    0.0000
 


 total charge     
 
# of ion       s       p       d       tot
------------------------------------------
    1        0.505   0.510   8.313   9.328
    2        0.505   0.512   8.338   9.355
    3        0.513   0.518   8.343   9.374
    4        0.505   0.505   8.331   9.342
    5        0.511   0.513   8.341   9.365
    6        0.521   0.532   8.337   9.390
    7        0.495   0.496   8.333   9.325
    8        0.485   0.373   8.312   9.169
    9        0.523   0.555   8.338   9.416
   10        0.509   0.507   8.335   9.351
   11        0.493   0.380   8.305   9.177
   12        0.468   0.559   8.335   9.362
   13        0.504   0.505   8.321   9.329
   14        0.505   0.511   8.327   9.344
   15        0.521   0.529   8.344   9.394
   16        0.502   0.388   8.317   9.208
   17        0.506   0.517   8.343   9.366
   18        0.512   0.513   8.351   9.376
   19        0.491   0.381   8.330   9.201
   20        0.496   0.502   8.346   9.344
   21        0.498   0.497   8.323   9.318
   22        0.514   0.523   8.330   9.367
   23        0.509   0.515   8.321   9.345
   24        0.505   0.395   8.311   9.211
   25        0.503   0.511   8.329   9.343
   26        0.491   0.380   8.314   9.185
   27        0.499   0.502   8.326   9.327
   28        0.494   0.370   8.316   9.180
   29        0.488   0.387   8.369   9.244
   30        0.489   0.374   8.324   9.187
   31        0.510   0.509   8.334   9.353
   32        0.495   0.391   8.295   9.182
   33        0.494   0.488   8.337   9.320
   34        0.472   0.507   6.180   7.158
   35        0.478   0.513   6.203   7.194
   36        0.472   0.508   6.155   7.135
   37        0.471   0.391   6.099   6.961
   38        0.490   0.547   6.214   7.251
   39        0.483   0.519   6.173   7.175
   40        0.466   0.385   6.118   6.970
   41        0.456   0.593   6.231   7.280
   42        0.481   0.514   6.222   7.217
   43        0.481   0.522   6.206   7.209
   44        0.480   0.520   6.162   7.162
   45        0.482   0.517   6.222   7.221
   46        0.472   0.409   6.085   6.966
   47        0.471   0.408   6.202   7.081
   48        0.471   0.393   6.088   6.951
   49        0.464   0.406   6.141   7.011
   50        0.471   0.509   6.193   7.172
   51        0.480   0.522   6.191   7.192
   52        0.488   0.534   6.221   7.243
   53        0.471   0.393   6.112   6.976
   54        0.477   0.515   6.185   7.177
   55        0.489   0.524   6.245   7.258
   56        0.482   0.524   6.188   7.195
   57        0.449   0.366   6.260   7.075
   58        0.486   0.530   6.232   7.248
   59        0.480   0.512   6.197   7.189
   60        0.484   0.519   6.198   7.201
   61        0.490   0.528   6.227   7.246
   62        0.475   0.506   6.207   7.188
   63        0.474   0.392   6.116   6.982
   64        0.467   0.502   6.210   7.178
   65        1.583   3.367   0.000   4.950
   66        1.582   3.347   0.000   4.929
   67        1.581   3.351   0.000   4.932
   68        1.585   3.334   0.000   4.919
   69        1.586   3.369   0.000   4.955
--------------------------------------------------
tot         39.229  47.443 466.551 553.222
 


 magnetization (x)
 
# of ion       s       p       d       tot
------------------------------------------
    1       -0.019  -0.049   0.763   0.694
    2       -0.021  -0.036   0.609   0.552
    3       -0.005  -0.014   0.183   0.164
    4       -0.012  -0.027   0.492   0.453
    5       -0.009  -0.026   0.343   0.308
    6       -0.014  -0.030   0.450   0.406
    7       -0.011  -0.025   0.423   0.388
    8       -0.016  -0.023   0.616   0.577
    9       -0.009  -0.016   0.214   0.189
   10       -0.008  -0.021   0.314   0.284
   11       -0.019  -0.025   0.681   0.637
   12       -0.000  -0.003   0.028   0.024
   13       -0.015  -0.037   0.714   0.662
   14       -0.010  -0.026   0.514   0.478
   15       -0.016  -0.037   0.517   0.464
   16       -0.005  -0.017   0.210   0.188
   17       -0.014  -0.021   0.496   0.460
   18       -0.011  -0.024   0.507   0.473
   19       -0.003  -0.023   0.443   0.417
   20       -0.014  -0.015   0.566   0.538
   21       -0.013  -0.033   0.699   0.653
   22       -0.022  -0.048   0.730   0.660
   23       -0.012  -0.027   0.422   0.383
   24       -0.001  -0.010   0.105   0.093
   25       -0.020  -0.027   0.565   0.518
   26       -0.012  -0.023   0.534   0.499
   27       -0.015  -0.026   0.568   0.526
   28       -0.012  -0.024   0.660   0.624
   29       -0.020  -0.015   0.725   0.690
   30       -0.010  -0.023   0.362   0.329
   31       -0.015  -0.019   0.426   0.392
   32       -0.017  -0.033   0.632   0.582
   33       -0.016  -0.027   0.567   0.523
   34        0.010  -0.007   2.514   2.516
   35       -0.003  -0.031   2.606   2.572
   36        0.019   0.001   2.671   2.691
   37        0.024   0.011   2.857   2.892
   38        0.009   0.004   2.456   2.469
   39       -0.027  -0.040  -2.438  -2.505
   40        0.017  -0.005   2.797   2.809
   41        0.005  -0.000   2.229   2.234
   42        0.007  -0.005   2.203   2.205
   43       -0.005  -0.028   2.647   2.613
   44       -0.026  -0.036  -2.371  -2.433
   45       -0.002  -0.014   2.461   2.446
   46       -0.052  -0.050  -2.664  -2.767
   47       -0.005  -0.013   2.830   2.812
   48        0.024  -0.002   2.904   2.926
   49        0.022   0.010   2.906   2.937
   50        0.003  -0.014   2.572   2.561
   51       -0.026  -0.036  -2.130  -2.192
   52        0.002  -0.014   2.277   2.266
   53        0.019   0.005   2.817   2.840
   54        0.013   0.003   2.632   2.648
   55        0.005  -0.011   2.199   2.194
   56        0.002  -0.010   2.592   2.584
   57       -0.012  -0.011  -0.102  -0.125
   58        0.007  -0.004   2.431   2.434
   59       -0.002  -0.024   2.702   2.677
   60        0.009   0.002   2.549   2.561
   61       -0.027  -0.039  -1.954  -2.021
   62       -0.005  -0.029   2.512   2.478
   63        0.021   0.001   2.746   2.768
   64        0.011   0.000   2.544   2.556
   65        0.003   0.090   0.000   0.092
   66        0.003   0.073   0.000   0.076
   67        0.002   0.095   0.000   0.098
   68        0.000   0.015   0.000   0.015
   69        0.002   0.045   0.000   0.047
--------------------------------------------------
tot         -0.369  -0.896  69.071  67.806
 

 total amount of memory used by VASP MPI-rank0   114458. kBytes
=======================================================================

   base      :      30000. kBytes
   nonlr-proj:      13795. kBytes
   fftplans  :       6403. kBytes
   grid      :      17692. kBytes
   one-center:         93. kBytes
   wavefun   :      46475. kBytes
 
  
  
 General timing and accounting informations for this job:
 ========================================================
  
                  Total CPU time used (sec):     1537.835
                            User time (sec):     1420.312
                          System time (sec):      117.523
                         Elapsed time (sec):     1575.437
  
                   Maximum memory used (kb):      349112.
                   Average memory used (kb):           0.
  
                          Minor page faults:     20303430
                          Major page faults:            0
                 Voluntary context switches:         3836
