  16  16   1   0
  0.1138438E+02  0.8747128E-09  0.8747128E-09  0.2525078E-09  0.5000000E-15
  1.000000000000000E-004
  CAR 
 SQS-NiFe                                
     20.18769748     -3.30837277  301      7.45837845      1.00000000
     -3.308  0.0000E+00  0.0000E+00  0.0000E+00  0.0000E+00
     -3.230  0.0000E+00  0.0000E+00  0.0000E+00  0.0000E+00
     -3.152  0.0000E+00  0.0000E+00  0.0000E+00  0.0000E+00
     -3.073  0.0000E+00  0.0000E+00  0.0000E+00  0.0000E+00
     -2.995  0.0000E+00  0.0000E+00  0.0000E+00  0.0000E+00
     -2.917 -0.2954E-30  0.0000E+00 -0.2313E-31  0.0000E+00
     -2.838 -0.1308E-27 -0.1287E-30 -0.1026E-28 -0.1008E-31
     -2.760 -0.4255E-25 -0.5939E-28 -0.3343E-26 -0.4661E-29
     -2.682 -0.1016E-22 -0.2013E-25 -0.7988E-24 -0.1582E-26
     -2.603 -0.1778E-20 -0.5007E-23 -0.1400E-21 -0.3938E-24
     -2.525 -0.2279E-18 -0.9131E-21 -0.1799E-19 -0.7191E-22
     -2.447 -0.2079E-16 -0.1220E-18 -0.1646E-17 -0.9628E-20
     -2.369 -0.1419E-14 -0.1159E-16 -0.1128E-15 -0.9172E-18
     -2.290 -0.7081E-13 -0.8256E-15 -0.5659E-14 -0.6558E-16
     -2.212 -0.2574E-11 -0.4296E-13 -0.2073E-12 -0.3430E-14
     -2.134 -0.6800E-10 -0.1629E-11 -0.5533E-11 -0.1310E-12
     -2.055 -0.1300E-08 -0.4490E-10 -0.1073E-09 -0.3647E-11
     -1.977 -0.1789E-07 -0.8961E-09 -0.1508E-08 -0.7383E-10
     -1.899 -0.1757E-06 -0.1289E-07 -0.1527E-07 -0.1083E-08
     -1.820 -0.1214E-05 -0.1324E-06 -0.1104E-06 -0.1146E-07
     -1.742 -0.5752E-05 -0.9599E-06 -0.5608E-06 -0.8663E-07
     -1.664 -0.1767E-04 -0.4792E-05 -0.1945E-05 -0.4619E-06
     -1.585 -0.2987E-04 -0.1568E-04 -0.4284E-05 -0.1690E-05
     -1.507 -0.3948E-05 -0.2935E-04 -0.4593E-05 -0.3989E-05
     -1.429  0.1003E-03 -0.1195E-04  0.3260E-05 -0.4925E-05
     -1.350  0.2359E-03  0.8139E-04  0.2173E-04  0.1449E-05
     -1.272  0.3557E-03  0.2186E-03  0.4959E-04  0.1857E-04
     -1.194  0.7302E-03  0.3387E-03  0.1068E-03  0.4510E-04
     -1.115  0.1757E-02  0.6621E-03  0.2444E-03  0.9695E-04
     -1.037  0.3064E-02  0.1607E-02  0.4844E-03  0.2228E-03
     -0.959  0.3641E-02  0.2925E-02  0.7696E-03  0.4519E-03
     -0.880  0.3555E-02  0.3612E-02  0.1048E-02  0.7347E-03
     -0.802  0.4158E-02  0.3542E-02  0.1374E-02  0.1012E-02
     -0.724  0.5630E-02  0.4029E-02  0.1815E-02  0.1328E-02
     -0.645  0.6135E-02  0.5514E-02  0.2295E-02  0.1760E-02
     -0.567  0.4654E-02  0.6257E-02  0.2660E-02  0.2250E-02
     -0.489  0.2897E-02  0.4911E-02  0.2886E-02  0.2634E-02
     -0.411  0.3011E-02  0.2932E-02  0.3122E-02  0.2864E-02
     -0.332  0.4569E-02  0.2707E-02  0.3480E-02  0.3076E-02
     -0.254  0.5550E-02  0.4212E-02  0.3915E-02  0.3406E-02
     -0.176  0.5786E-02  0.5326E-02  0.4368E-02  0.3823E-02
     -0.097  0.6968E-02  0.5372E-02  0.4914E-02  0.4244E-02
     -0.019  0.9265E-02  0.6110E-02  0.5639E-02  0.4722E-02
      0.059  0.1086E-01  0.8427E-02  0.6490E-02  0.5382E-02
      0.138  0.1078E-01  0.1061E-01  0.7334E-02  0.6213E-02
      0.216  0.9527E-02  0.1102E-01  0.8080E-02  0.7076E-02
      0.294  0.7657E-02  0.9968E-02  0.8680E-02  0.7857E-02
      0.373  0.5711E-02  0.8251E-02  0.9127E-02  0.8503E-02
      0.451  0.4878E-02  0.6236E-02  0.9509E-02  0.8992E-02
      0.529  0.5810E-02  0.4798E-02  0.9965E-02  0.9367E-02
      0.608  0.7636E-02  0.4973E-02  0.1056E-01  0.9757E-02
      0.686  0.9537E-02  0.6357E-02  0.1131E-01  0.1025E-01
      0.764  0.1172E-01  0.7809E-02  0.1223E-01  0.1087E-01
      0.843  0.1364E-01  0.9559E-02  0.1330E-01  0.1162E-01
      0.921  0.1376E-01  0.1218E-01  0.1437E-01  0.1257E-01
      0.999  0.1229E-01  0.1403E-01  0.1534E-01  0.1367E-01
      1.078  0.1124E-01  0.1312E-01  0.1622E-01  0.1470E-01
      1.156  0.1124E-01  0.1070E-01  0.1710E-01  0.1553E-01
      1.234  0.1132E-01  0.9551E-02  0.1798E-01  0.1628E-01
      1.313  0.1153E-01  0.9897E-02  0.1889E-01  0.1706E-01
      1.391  0.1244E-01  0.1018E-01  0.1986E-01  0.1785E-01
      1.469  0.1311E-01  0.1039E-01  0.2089E-01  0.1867E-01
      1.547  0.1310E-01  0.1157E-01  0.2191E-01  0.1957E-01
      1.626  0.1441E-01  0.1303E-01  0.2304E-01  0.2059E-01
      1.704  0.1838E-01  0.1303E-01  0.2448E-01  0.2161E-01
      1.782  0.2278E-01  0.1207E-01  0.2627E-01  0.2256E-01
      1.861  0.2433E-01  0.1240E-01  0.2817E-01  0.2353E-01
      1.939  0.2236E-01  0.1472E-01  0.2992E-01  0.2468E-01
      2.017  0.1966E-01  0.1757E-01  0.3146E-01  0.2606E-01
      2.096  0.1974E-01  0.1924E-01  0.3301E-01  0.2757E-01
      2.174  0.2230E-01  0.1909E-01  0.3475E-01  0.2906E-01
      2.252  0.2426E-01  0.1765E-01  0.3665E-01  0.3044E-01
      2.331  0.2676E-01  0.1603E-01  0.3875E-01  0.3170E-01
      2.409  0.3571E-01  0.1566E-01  0.4155E-01  0.3293E-01
      2.487  0.5332E-01  0.1711E-01  0.4572E-01  0.3427E-01
      2.566  0.7374E-01  0.1842E-01  0.5150E-01  0.3571E-01
      2.644  0.8848E-01  0.1729E-01  0.5843E-01  0.3706E-01
      2.722  0.9400E-01  0.1518E-01  0.6579E-01  0.3825E-01
      2.801  0.9356E-01  0.1563E-01  0.7312E-01  0.3948E-01
      2.879  0.9216E-01  0.1981E-01  0.8034E-01  0.4103E-01
      2.957  0.9252E-01  0.2639E-01  0.8758E-01  0.4310E-01
      3.036  0.9704E-01  0.3303E-01  0.9518E-01  0.4568E-01
      3.114  0.1079E+00  0.3708E-01  0.1036E+00  0.4859E-01
      3.192  0.1227E+00  0.3812E-01  0.1132E+00  0.5157E-01
      3.271  0.1355E+00  0.3855E-01  0.1239E+00  0.5459E-01
      3.349  0.1432E+00  0.4049E-01  0.1351E+00  0.5776E-01
      3.427  0.1479E+00  0.4456E-01  0.1467E+00  0.6125E-01
      3.505  0.1514E+00  0.5165E-01  0.1585E+00  0.6530E-01
      3.584  0.1527E+00  0.6185E-01  0.1705E+00  0.7014E-01
      3.662  0.1502E+00  0.7158E-01  0.1822E+00  0.7575E-01
      3.740  0.1462E+00  0.7604E-01  0.1937E+00  0.8170E-01
      3.819  0.1441E+00  0.7487E-01  0.2050E+00  0.8757E-01
      3.897  0.1430E+00  0.7264E-01  0.2162E+00  0.9326E-01
      3.975  0.1389E+00  0.7328E-01  0.2270E+00  0.9900E-01
      4.054  0.1333E+00  0.7720E-01  0.2375E+00  0.1050E+00
      4.132  0.1328E+00  0.8372E-01  0.2479E+00  0.1116E+00
      4.210  0.1400E+00  0.9289E-01  0.2589E+00  0.1189E+00
      4.289  0.1489E+00  0.1041E+00  0.2705E+00  0.1270E+00
      4.367  0.1532E+00  0.1150E+00  0.2825E+00  0.1360E+00
      4.445  0.1551E+00  0.1229E+00  0.2947E+00  0.1457E+00
      4.524  0.1624E+00  0.1277E+00  0.3074E+00  0.1557E+00
      4.602  0.1777E+00  0.1317E+00  0.3213E+00  0.1660E+00
      4.680  0.1947E+00  0.1357E+00  0.3366E+00  0.1766E+00
      4.759  0.2065E+00  0.1375E+00  0.3527E+00  0.1874E+00
      4.837  0.2160E+00  0.1341E+00  0.3696E+00  0.1979E+00
      4.915  0.2316E+00  0.1262E+00  0.3878E+00  0.2078E+00
      4.994  0.2531E+00  0.1183E+00  0.4076E+00  0.2170E+00
      5.072  0.2692E+00  0.1144E+00  0.4287E+00  0.2260E+00
      5.150  0.2705E+00  0.1177E+00  0.4499E+00  0.2352E+00
      5.229  0.2552E+00  0.1290E+00  0.4699E+00  0.2453E+00
      5.307  0.2259E+00  0.1438E+00  0.4876E+00  0.2566E+00
      5.385  0.1922E+00  0.1544E+00  0.5026E+00  0.2687E+00
      5.463  0.1690E+00  0.1560E+00  0.5158E+00  0.2809E+00
      5.542  0.1647E+00  0.1505E+00  0.5287E+00  0.2927E+00
      5.620  0.1756E+00  0.1442E+00  0.5425E+00  0.3040E+00
      5.698  0.1932E+00  0.1427E+00  0.5576E+00  0.3151E+00
      5.777  0.2090E+00  0.1479E+00  0.5740E+00  0.3267E+00
      5.855  0.2164E+00  0.1584E+00  0.5909E+00  0.3391E+00
      5.933  0.2152E+00  0.1725E+00  0.6078E+00  0.3526E+00
      6.012  0.2086E+00  0.1871E+00  0.6241E+00  0.3673E+00
      6.090  0.1977E+00  0.1972E+00  0.6396E+00  0.3827E+00
      6.168  0.1861E+00  0.1995E+00  0.6542E+00  0.3984E+00
      6.247  0.1819E+00  0.1968E+00  0.6684E+00  0.4138E+00
      6.325  0.1889E+00  0.1933E+00  0.6832E+00  0.4289E+00
      6.403  0.2011E+00  0.1885E+00  0.6990E+00  0.4437E+00
      6.482  0.2122E+00  0.1793E+00  0.7156E+00  0.4577E+00
      6.560  0.2257E+00  0.1662E+00  0.7333E+00  0.4707E+00
      6.638  0.2491E+00  0.1544E+00  0.7528E+00  0.4828E+00
      6.717  0.2762E+00  0.1502E+00  0.7744E+00  0.4946E+00
      6.795  0.2831E+00  0.1531E+00  0.7966E+00  0.5066E+00
      6.873  0.2526E+00  0.1564E+00  0.8164E+00  0.5188E+00
      6.952  0.1940E+00  0.1547E+00  0.8316E+00  0.5310E+00
      7.030  0.1302E+00  0.1476E+00  0.8417E+00  0.5425E+00
      7.108  0.7685E-01  0.1386E+00  0.8478E+00  0.5534E+00
      7.187  0.4107E-01  0.1322E+00  0.8510E+00  0.5637E+00
      7.265  0.2460E-01  0.1287E+00  0.8529E+00  0.5738E+00
      7.343  0.2150E-01  0.1251E+00  0.8546E+00  0.5836E+00
      7.421  0.2237E-01  0.1204E+00  0.8563E+00  0.5930E+00
      7.500  0.2321E-01  0.1163E+00  0.8582E+00  0.6021E+00
      7.578  0.2589E-01  0.1140E+00  0.8602E+00  0.6111E+00
      7.656  0.3141E-01  0.1139E+00  0.8627E+00  0.6200E+00
      7.735  0.3643E-01  0.1181E+00  0.8655E+00  0.6292E+00
      7.813  0.3681E-01  0.1271E+00  0.8684E+00  0.6392E+00
      7.891  0.3202E-01  0.1363E+00  0.8709E+00  0.6499E+00
      7.970  0.2487E-01  0.1408E+00  0.8728E+00  0.6609E+00
      8.048  0.1866E-01  0.1403E+00  0.8743E+00  0.6719E+00
      8.126  0.1517E-01  0.1377E+00  0.8755E+00  0.6827E+00
      8.205  0.1508E-01  0.1338E+00  0.8767E+00  0.6932E+00
      8.283  0.1829E-01  0.1274E+00  0.8781E+00  0.7031E+00
      8.361  0.2304E-01  0.1185E+00  0.8799E+00  0.7124E+00
      8.440  0.2731E-01  0.1121E+00  0.8821E+00  0.7212E+00
      8.518  0.2988E-01  0.1137E+00  0.8844E+00  0.7301E+00
      8.596  0.2894E-01  0.1233E+00  0.8867E+00  0.7398E+00
      8.675  0.2387E-01  0.1366E+00  0.8885E+00  0.7505E+00
      8.753  0.1808E-01  0.1497E+00  0.8899E+00  0.7622E+00
      8.831  0.1611E-01  0.1598E+00  0.8912E+00  0.7747E+00
      8.910  0.1885E-01  0.1657E+00  0.8927E+00  0.7877E+00
      8.988  0.2376E-01  0.1664E+00  0.8945E+00  0.8007E+00
      9.066  0.2809E-01  0.1604E+00  0.8967E+00  0.8133E+00
      9.145  0.2950E-01  0.1476E+00  0.8991E+00  0.8248E+00
      9.223  0.2603E-01  0.1310E+00  0.9011E+00  0.8351E+00
      9.301  0.1901E-01  0.1145E+00  0.9026E+00  0.8441E+00
      9.380  0.1291E-01  0.1009E+00  0.9036E+00  0.8520E+00
      9.458  0.1073E-01  0.8902E-01  0.9044E+00  0.8589E+00
      9.536  0.1202E-01  0.7481E-01  0.9054E+00  0.8648E+00
      9.614  0.1447E-01  0.5749E-01  0.9065E+00  0.8693E+00
      9.693  0.1588E-01  0.4232E-01  0.9078E+00  0.8726E+00
      9.771  0.1659E-01  0.3489E-01  0.9090E+00  0.8753E+00
      9.849  0.1915E-01  0.3504E-01  0.9105E+00  0.8781E+00
      9.928  0.2461E-01  0.3812E-01  0.9125E+00  0.8811E+00
     10.006  0.3039E-01  0.3966E-01  0.9149E+00  0.8842E+00
     10.084  0.3257E-01  0.3860E-01  0.9174E+00  0.8872E+00
     10.163  0.2997E-01  0.3755E-01  0.9198E+00  0.8901E+00
     10.241  0.2517E-01  0.3873E-01  0.9217E+00  0.8932E+00
     10.319  0.2130E-01  0.3982E-01  0.9234E+00  0.8963E+00
     10.398  0.1946E-01  0.3628E-01  0.9249E+00  0.8991E+00
     10.476  0.1955E-01  0.2738E-01  0.9265E+00  0.9013E+00
     10.554  0.2139E-01  0.1791E-01  0.9281E+00  0.9027E+00
     10.633  0.2430E-01  0.1327E-01  0.9300E+00  0.9037E+00
     10.711  0.2624E-01  0.1451E-01  0.9321E+00  0.9049E+00
     10.789  0.2476E-01  0.1853E-01  0.9340E+00  0.9063E+00
     10.868  0.2018E-01  0.2211E-01  0.9356E+00  0.9080E+00
     10.946  0.1551E-01  0.2453E-01  0.9368E+00  0.9100E+00
     11.024  0.1273E-01  0.2596E-01  0.9378E+00  0.9120E+00
     11.103  0.1201E-01  0.2719E-01  0.9388E+00  0.9141E+00
     11.181  0.1305E-01  0.3040E-01  0.9398E+00  0.9165E+00
     11.259  0.1448E-01  0.3604E-01  0.9409E+00  0.9193E+00
     11.338  0.1440E-01  0.4099E-01  0.9420E+00  0.9225E+00
     11.416  0.1283E-01  0.4174E-01  0.9430E+00  0.9258E+00
     11.494  0.1107E-01  0.3666E-01  0.9439E+00  0.9287E+00
     11.572  0.9258E-02  0.2715E-01  0.9446E+00  0.9308E+00
     11.651  0.7120E-02  0.1836E-01  0.9452E+00  0.9322E+00
     11.729  0.5820E-02  0.1480E-01  0.9456E+00  0.9334E+00
     11.807  0.6180E-02  0.1568E-01  0.9461E+00  0.9346E+00
     11.886  0.6369E-02  0.1723E-01  0.9466E+00  0.9360E+00
     11.964  0.4941E-02  0.1769E-01  0.9470E+00  0.9374E+00
     12.042  0.5281E-02  0.1797E-01  0.9474E+00  0.9388E+00
     12.121  0.1241E-01  0.1878E-01  0.9484E+00  0.9402E+00
     12.199  0.2484E-01  0.1860E-01  0.9504E+00  0.9417E+00
     12.277  0.3449E-01  0.1575E-01  0.9531E+00  0.9429E+00
     12.356  0.3575E-01  0.1128E-01  0.9559E+00  0.9438E+00
     12.434  0.2974E-01  0.7853E-02  0.9582E+00  0.9444E+00
     12.512  0.2044E-01  0.6757E-02  0.9598E+00  0.9450E+00
     12.591  0.1195E-01  0.7107E-02  0.9607E+00  0.9455E+00
     12.669  0.7515E-02  0.7754E-02  0.9613E+00  0.9461E+00
     12.747  0.7435E-02  0.8939E-02  0.9619E+00  0.9468E+00
     12.826  0.8948E-02  0.1191E-01  0.9626E+00  0.9478E+00
     12.904  0.9202E-02  0.1719E-01  0.9633E+00  0.9491E+00
     12.982  0.7566E-02  0.2314E-01  0.9639E+00  0.9509E+00
     13.061  0.5320E-02  0.2692E-01  0.9643E+00  0.9530E+00
     13.139  0.4694E-02  0.2774E-01  0.9647E+00  0.9552E+00
     13.217  0.7381E-02  0.2671E-01  0.9653E+00  0.9573E+00
     13.296  0.1219E-01  0.2381E-01  0.9662E+00  0.9592E+00
     13.374  0.1577E-01  0.1861E-01  0.9675E+00  0.9606E+00
     13.452  0.1688E-01  0.1296E-01  0.9688E+00  0.9616E+00
     13.530  0.1763E-01  0.9295E-02  0.9702E+00  0.9624E+00
     13.609  0.1979E-01  0.7688E-02  0.9717E+00  0.9630E+00
     13.687  0.2296E-01  0.7093E-02  0.9735E+00  0.9635E+00
     13.765  0.2591E-01  0.6994E-02  0.9755E+00  0.9641E+00
     13.844  0.2737E-01  0.7085E-02  0.9777E+00  0.9646E+00
     13.922  0.2667E-01  0.7220E-02  0.9798E+00  0.9652E+00
     14.000  0.2518E-01  0.7098E-02  0.9817E+00  0.9657E+00
     14.079  0.2480E-01  0.6139E-02  0.9837E+00  0.9662E+00
     14.157  0.2534E-01  0.5129E-02  0.9857E+00  0.9666E+00
     14.235  0.2592E-01  0.6267E-02  0.9877E+00  0.9671E+00
     14.314  0.2743E-01  0.1038E-01  0.9898E+00  0.9679E+00
     14.392  0.2998E-01  0.1623E-01  0.9922E+00  0.9692E+00
     14.470  0.2996E-01  0.2265E-01  0.9945E+00  0.9710E+00
     14.549  0.2486E-01  0.2871E-01  0.9965E+00  0.9732E+00
     14.627  0.1859E-01  0.3285E-01  0.9979E+00  0.9758E+00
     14.705  0.1714E-01  0.3396E-01  0.9993E+00  0.9784E+00
     14.784  0.2167E-01  0.3217E-01  0.1001E+01  0.9810E+00
     14.862  0.2796E-01  0.2921E-01  0.1003E+01  0.9833E+00
     14.940  0.2969E-01  0.2845E-01  0.1005E+01  0.9855E+00
     15.019  0.2382E-01  0.3112E-01  0.1007E+01  0.9879E+00
     15.097  0.1445E-01  0.3298E-01  0.1008E+01  0.9905E+00
     15.175  0.8137E-02  0.2942E-01  0.1009E+01  0.9928E+00
     15.254  0.7222E-02  0.2295E-01  0.1010E+01  0.9946E+00
     15.332  0.1034E-01  0.2035E-01  0.1011E+01  0.9962E+00
     15.410  0.1507E-01  0.2356E-01  0.1012E+01  0.9980E+00
     15.488  0.1806E-01  0.2811E-01  0.1013E+01  0.1000E+01
     15.567  0.1676E-01  0.2920E-01  0.1014E+01  0.1003E+01
     15.645  0.1210E-01  0.2627E-01  0.1015E+01  0.1005E+01
     15.723  0.7809E-02  0.2205E-01  0.1016E+01  0.1006E+01
     15.802  0.7055E-02  0.1883E-01  0.1017E+01  0.1008E+01
     15.880  0.9685E-02  0.1646E-01  0.1017E+01  0.1009E+01
     15.958  0.1325E-01  0.1411E-01  0.1018E+01  0.1010E+01
     16.037  0.1601E-01  0.1264E-01  0.1020E+01  0.1011E+01
     16.115  0.1724E-01  0.1350E-01  0.1021E+01  0.1012E+01
     16.193  0.1624E-01  0.1547E-01  0.1022E+01  0.1013E+01
     16.272  0.1331E-01  0.1535E-01  0.1023E+01  0.1015E+01
     16.350  0.1039E-01  0.1256E-01  0.1024E+01  0.1016E+01
     16.428  0.8973E-02  0.9908E-02  0.1025E+01  0.1016E+01
     16.507  0.9012E-02  0.9557E-02  0.1025E+01  0.1017E+01
     16.585  0.9761E-02  0.1144E-01  0.1026E+01  0.1018E+01
     16.663  0.1002E-01  0.1454E-01  0.1027E+01  0.1019E+01
     16.742  0.8546E-02  0.1704E-01  0.1028E+01  0.1021E+01
     16.820  0.5757E-02  0.1666E-01  0.1028E+01  0.1022E+01
     16.898  0.3394E-02  0.1357E-01  0.1028E+01  0.1023E+01
     16.977  0.2209E-02  0.1063E-01  0.1029E+01  0.1024E+01
     17.055  0.1555E-02  0.9749E-02  0.1029E+01  0.1024E+01
     17.133  0.1151E-02  0.1026E-01  0.1029E+01  0.1025E+01
     17.212  0.1735E-02  0.1059E-01  0.1029E+01  0.1026E+01
     17.290  0.3556E-02  0.9562E-02  0.1029E+01  0.1027E+01
     17.368  0.5259E-02  0.7260E-02  0.1030E+01  0.1027E+01
     17.446  0.5138E-02  0.5255E-02  0.1030E+01  0.1028E+01
     17.525  0.3187E-02  0.4575E-02  0.1030E+01  0.1028E+01
     17.603  0.1034E-02  0.4170E-02  0.1030E+01  0.1029E+01
     17.681 -0.7682E-04  0.2790E-02  0.1030E+01  0.1029E+01
     17.760 -0.2572E-03  0.9252E-03  0.1030E+01  0.1029E+01
     17.838 -0.1345E-03 -0.2613E-03  0.1030E+01  0.1029E+01
     17.916 -0.4030E-04 -0.2935E-03  0.1030E+01  0.1029E+01
     17.995 -0.7973E-05  0.9478E-03  0.1030E+01  0.1029E+01
     18.073 -0.1092E-05  0.3279E-02  0.1030E+01  0.1029E+01
     18.151 -0.1059E-06  0.5403E-02  0.1030E+01  0.1030E+01
     18.230 -0.7354E-08  0.5543E-02  0.1030E+01  0.1030E+01
     18.308 -0.3684E-09  0.3562E-02  0.1030E+01  0.1030E+01
     18.386 -0.1338E-10  0.1213E-02  0.1030E+01  0.1030E+01
     18.465 -0.3532E-12 -0.4877E-04  0.1030E+01  0.1030E+01
     18.543 -0.6799E-14 -0.2759E-03  0.1030E+01  0.1030E+01
     18.621 -0.9758E-16 -0.1493E-03  0.1030E+01  0.1030E+01
     18.700  0.0000E+00 -0.4565E-04  0.1030E+01  0.1030E+01
     18.778  0.0000E+00 -0.9196E-05  0.1030E+01  0.1030E+01
     18.856  0.0000E+00 -0.1283E-05  0.1030E+01  0.1030E+01
     18.935  0.0000E+00 -0.1267E-06  0.1030E+01  0.1030E+01
     19.013  0.0000E+00 -0.8973E-08  0.1030E+01  0.1030E+01
     19.091  0.0000E+00 -0.4588E-09  0.1030E+01  0.1030E+01
     19.170  0.0000E+00 -0.1702E-10  0.1030E+01  0.1030E+01
     19.248  0.0000E+00 -0.4596E-12  0.1030E+01  0.1030E+01
     19.326  0.0000E+00 -0.9051E-14  0.1030E+01  0.1030E+01
     19.404  0.0000E+00 -0.1287E-15  0.1030E+01  0.1030E+01
     19.483  0.0000E+00 -0.1414E-17  0.1030E+01  0.1030E+01
     19.561  0.0000E+00  0.0000E+00  0.1030E+01  0.1030E+01
     19.639  0.0000E+00  0.0000E+00  0.1030E+01  0.1030E+01
     19.718  0.0000E+00  0.0000E+00  0.1030E+01  0.1030E+01
     19.796  0.0000E+00  0.0000E+00  0.1030E+01  0.1030E+01
     19.874  0.0000E+00  0.0000E+00  0.1030E+01  0.1030E+01
     19.953  0.0000E+00  0.0000E+00  0.1030E+01  0.1030E+01
     20.031  0.0000E+00  0.0000E+00  0.1030E+01  0.1030E+01
     20.109  0.0000E+00  0.0000E+00  0.1030E+01  0.1030E+01
     20.188  0.0000E+00  0.0000E+00  0.1030E+01  0.1030E+01
     20.18769748     -3.30837277  301      7.45837845      1.00000000
     -3.308  0.0000E+00  0.0000E+00  0.0000E+00  0.0000E+00  0.0000E+00  0.0000E+00
     -3.230  0.0000E+00  0.0000E+00  0.0000E+00  0.0000E+00  0.0000E+00  0.0000E+00
     -3.152  0.0000E+00  0.0000E+00  0.0000E+00  0.0000E+00  0.0000E+00  0.0000E+00
     -3.073  0.0000E+00  0.0000E+00  0.0000E+00  0.0000E+00  0.0000E+00  0.0000E+00
     -2.995  0.0000E+00  0.0000E+00  0.0000E+00  0.0000E+00  0.0000E+00  0.0000E+00
     -2.917 -0.1301E-29  0.0000E+00 -0.1211E-33  0.0000E+00 -0.6562E-35  0.0000E+00
     -2.838 -0.5758E-27 -0.6099E-30 -0.5363E-31 -0.3330E-33 -0.2905E-32 -0.2486E-34
     -2.760 -0.1874E-24 -0.2813E-27 -0.1745E-28 -0.1536E-30 -0.9454E-30 -0.1147E-31
     -2.682 -0.4472E-22 -0.9538E-25 -0.4165E-26 -0.5209E-28 -0.2257E-27 -0.3887E-29
     -2.603 -0.7827E-20 -0.2372E-22 -0.7289E-24 -0.1295E-25 -0.3949E-25 -0.9668E-27
     -2.525 -0.1004E-17 -0.4326E-20 -0.9348E-22 -0.2362E-23 -0.5064E-23 -0.1763E-24
     -2.447 -0.9152E-16 -0.5780E-18 -0.8524E-20 -0.3157E-21 -0.4618E-21 -0.2356E-22
     -2.369 -0.6248E-14 -0.5489E-16 -0.5820E-18 -0.2998E-19 -0.3152E-19 -0.2237E-20
     -2.290 -0.3118E-12 -0.3911E-14 -0.2905E-16 -0.2136E-17 -0.1574E-17 -0.1594E-18
     -2.212 -0.1134E-10 -0.2035E-12 -0.1057E-14 -0.1111E-15 -0.5724E-16 -0.8295E-17
     -2.134 -0.2994E-09 -0.7717E-11 -0.2801E-13 -0.4215E-14 -0.1514E-14 -0.3146E-15
     -2.055 -0.5724E-08 -0.2127E-09 -0.5403E-12 -0.1162E-12 -0.2907E-13 -0.8671E-14
     -1.977 -0.7877E-07 -0.4245E-08 -0.7636E-11 -0.2323E-11 -0.4054E-12 -0.1732E-12
     -1.899 -0.7736E-06 -0.6105E-07 -0.8114E-10 -0.3354E-10 -0.4143E-11 -0.2494E-11
     -1.820 -0.5346E-05 -0.6274E-06 -0.6990E-09 -0.3489E-09 -0.3228E-10 -0.2577E-10
     -1.742 -0.2532E-04 -0.4547E-05 -0.5589E-08 -0.2627E-08 -0.2128E-09 -0.1898E-09
     -1.664 -0.7778E-04 -0.2270E-04 -0.4469E-07 -0.1480E-07 -0.1376E-08 -0.9991E-09
     -1.585 -0.1313E-03 -0.7430E-04 -0.3229E-06 -0.6942E-07 -0.8801E-08 -0.3905E-08
     -1.507 -0.1607E-04 -0.1391E-03 -0.1818E-05 -0.3246E-06 -0.4745E-07 -0.1309E-07
     -1.429  0.4470E-03 -0.5658E-04 -0.7204E-05 -0.1546E-05 -0.1856E-06 -0.4648E-07
     -1.350  0.1053E-02  0.3862E-03 -0.1812E-04 -0.6130E-05 -0.4640E-06 -0.1635E-06
     -1.272  0.1586E-02  0.1039E-02 -0.2068E-04 -0.1644E-04 -0.5346E-06 -0.4174E-06
     -1.194  0.3201E-02  0.1616E-02  0.2859E-04 -0.2170E-04  0.6194E-06 -0.4882E-06
     -1.115  0.7615E-02  0.3152E-02  0.1632E-03  0.1922E-04  0.3530E-05  0.7107E-06
     -1.037  0.1322E-01  0.7605E-02  0.3247E-03  0.1472E-03  0.6447E-05  0.3965E-05
     -0.959  0.1566E-01  0.1377E-01  0.4159E-03  0.3162E-03  0.8318E-05  0.7549E-05
     -0.880  0.1519E-01  0.1693E-01  0.5164E-03  0.4210E-03  0.1585E-04  0.9303E-05
     -0.802  0.1761E-01  0.1650E-01  0.8430E-03  0.5182E-03  0.3880E-04  0.1399E-04
     -0.724  0.2379E-01  0.1872E-01  0.1317E-02  0.8412E-03  0.6964E-04  0.3156E-04
     -0.645  0.2593E-01  0.2572E-01  0.1481E-02  0.1361E-02  0.8117E-04  0.5887E-04
     -0.567  0.1956E-01  0.2937E-01  0.1150E-02  0.1600E-02  0.6392E-04  0.7242E-04
     -0.489  0.1174E-01  0.2319E-01  0.8392E-03  0.1266E-02  0.5493E-04  0.5867E-04
     -0.411  0.1177E-01  0.1370E-01  0.1122E-02  0.8390E-03  0.9683E-04  0.4644E-04
     -0.332  0.1817E-01  0.1203E-01  0.1776E-02  0.1025E-02  0.1701E-03  0.7911E-04
     -0.254  0.2210E-01  0.1835E-01  0.2166E-02  0.1733E-02  0.2226E-03  0.1471E-03
     -0.176  0.2220E-01  0.2298E-01  0.2415E-02  0.2198E-02  0.2774E-03  0.1939E-03
     -0.097  0.2592E-01  0.2231E-01  0.3237E-02  0.2304E-02  0.4133E-03  0.2213E-03
     -0.019  0.3507E-01  0.2407E-01  0.4581E-02  0.2903E-02  0.6231E-03  0.3159E-03
      0.059  0.4212E-01  0.3305E-01  0.5577E-02  0.4350E-02  0.8138E-03  0.5085E-03
      0.138  0.4209E-01  0.4266E-01  0.5772E-02  0.5763E-02  0.9313E-03  0.7054E-03
      0.216  0.3697E-01  0.4555E-01  0.5343E-02  0.6298E-02  0.9546E-03  0.8208E-03
      0.294  0.2951E-01  0.4217E-01  0.4469E-02  0.6019E-02  0.8494E-03  0.8511E-03
      0.373  0.2197E-01  0.3531E-01  0.3493E-02  0.5208E-02  0.6834E-03  0.7901E-03
      0.451  0.1833E-01  0.2661E-01  0.3196E-02  0.4082E-02  0.6733E-03  0.6501E-03
      0.529  0.2054E-01  0.2016E-01  0.3933E-02  0.3328E-02  0.9505E-03  0.5783E-03
      0.608  0.2541E-01  0.2012E-01  0.5138E-02  0.3604E-02  0.1430E-02  0.7324E-03
      0.686  0.3062E-01  0.2404E-01  0.6491E-02  0.4509E-02  0.2048E-02  0.1047E-02
      0.764  0.3793E-01  0.2740E-01  0.8328E-02  0.5377E-02  0.2816E-02  0.1402E-02
      0.843  0.4582E-01  0.3253E-01  0.1013E-01  0.6738E-02  0.3486E-02  0.1936E-02
      0.921  0.4774E-01  0.4263E-01  0.1054E-01  0.9155E-02  0.3701E-02  0.2720E-02
      0.999  0.4280E-01  0.5091E-01  0.9738E-02  0.1117E-01  0.3629E-02  0.3292E-02
      1.078  0.3824E-01  0.4895E-01  0.9388E-02  0.1098E-01  0.3743E-02  0.3223E-02
      1.156  0.3733E-01  0.4089E-01  0.9841E-02  0.9508E-02  0.4020E-02  0.2903E-02
      1.234  0.3641E-01  0.3615E-01  0.1008E-01  0.9143E-02  0.4259E-02  0.2952E-02
      1.313  0.3495E-01  0.3507E-01  0.1019E-01  0.1003E-01  0.4799E-02  0.3274E-02
      1.391  0.3584E-01  0.3313E-01  0.1085E-01  0.1055E-01  0.5791E-02  0.3516E-02
      1.469  0.3767E-01  0.3163E-01  0.1145E-01  0.1056E-01  0.6503E-02  0.3957E-02
      1.547  0.3837E-01  0.3485E-01  0.1154E-01  0.1132E-01  0.6853E-02  0.5007E-02
      1.626  0.4165E-01  0.4062E-01  0.1280E-01  0.1256E-01  0.8522E-02  0.6103E-02
      1.704  0.5036E-01  0.4252E-01  0.1635E-01  0.1267E-01  0.1272E-01  0.6340E-02
      1.782  0.5985E-01  0.4074E-01  0.2024E-01  0.1200E-01  0.1799E-01  0.6168E-02
      1.861  0.6296E-01  0.4144E-01  0.2146E-01  0.1264E-01  0.2141E-01  0.7020E-02
      1.939  0.5774E-01  0.4631E-01  0.1949E-01  0.1538E-01  0.2150E-01  0.9430E-02
      2.017  0.5037E-01  0.5148E-01  0.1704E-01  0.1879E-01  0.2014E-01  0.1267E-01
      2.096  0.4926E-01  0.5401E-01  0.1718E-01  0.2088E-01  0.2090E-01  0.1566E-01
      2.174  0.5336E-01  0.5394E-01  0.1931E-01  0.2076E-01  0.2424E-01  0.1767E-01
      2.252  0.5354E-01  0.5221E-01  0.2007E-01  0.1913E-01  0.2868E-01  0.1829E-01
      2.331  0.4847E-01  0.5006E-01  0.1913E-01  0.1757E-01  0.3859E-01  0.1785E-01
      2.409  0.4786E-01  0.4976E-01  0.1997E-01  0.1749E-01  0.6285E-01  0.1816E-01
      2.487  0.5931E-01  0.5160E-01  0.2489E-01  0.1893E-01  0.1024E+00  0.2068E-01
      2.566  0.8056E-01  0.5029E-01  0.3283E-01  0.1970E-01  0.1460E+00  0.2305E-01
      2.644  0.1011E+00  0.4209E-01  0.4067E-01  0.1795E-01  0.1817E+00  0.2230E-01
      2.722  0.1085E+00  0.3321E-01  0.4481E-01  0.1563E-01  0.2071E+00  0.2089E-01
      2.801  0.9977E-01  0.3246E-01  0.4388E-01  0.1648E-01  0.2280E+00  0.2396E-01
      2.879  0.8426E-01  0.4146E-01  0.3978E-01  0.2176E-01  0.2493E+00  0.3333E-01
      2.957  0.7122E-01  0.5706E-01  0.3545E-01  0.2991E-01  0.2715E+00  0.4813E-01
      3.036  0.6320E-01  0.7409E-01  0.3311E-01  0.3746E-01  0.2979E+00  0.6616E-01
      3.114  0.5965E-01  0.8462E-01  0.3368E-01  0.4058E-01  0.3341E+00  0.8349E-01
      3.192  0.5796E-01  0.8393E-01  0.3611E-01  0.3871E-01  0.3792E+00  0.9817E-01
      3.271  0.5405E-01  0.7601E-01  0.3786E-01  0.3508E-01  0.4284E+00  0.1132E+00
      3.349  0.4716E-01  0.6795E-01  0.3773E-01  0.3221E-01  0.4838E+00  0.1334E+00
      3.427  0.4079E-01  0.6341E-01  0.3724E-01  0.3038E-01  0.5493E+00  0.1660E+00
      3.505  0.3684E-01  0.6398E-01  0.3816E-01  0.3013E-01  0.6107E+00  0.2194E+00
      3.584  0.3285E-01  0.6908E-01  0.4026E-01  0.3220E-01  0.6433E+00  0.2897E+00
      3.662  0.2644E-01  0.7360E-01  0.4291E-01  0.3537E-01  0.6450E+00  0.3520E+00
      3.740  0.1932E-01  0.7254E-01  0.4708E-01  0.3766E-01  0.6460E+00  0.3791E+00
      3.819  0.1460E-01  0.6680E-01  0.5253E-01  0.3916E-01  0.6720E+00  0.3708E+00
      3.897  0.1215E-01  0.6074E-01  0.5515E-01  0.4091E-01  0.7107E+00  0.3548E+00
      3.975  0.9730E-02  0.5551E-01  0.5155E-01  0.4207E-01  0.7265E+00  0.3607E+00
      4.054  0.6889E-02  0.4913E-01  0.4505E-01  0.4159E-01  0.7102E+00  0.4007E+00
      4.132  0.4922E-02  0.4229E-01  0.4272E-01  0.4107E-01  0.6943E+00  0.4741E+00
      4.210  0.4554E-02  0.3810E-01  0.4672E-01  0.4260E-01  0.7107E+00  0.5742E+00
      4.289  0.5414E-02  0.3645E-01  0.5237E-01  0.4532E-01  0.7530E+00  0.6832E+00
      4.367  0.6795E-02  0.3409E-01  0.5492E-01  0.4677E-01  0.7939E+00  0.7753E+00
      4.445  0.8047E-02  0.2967E-01  0.5462E-01  0.4639E-01  0.8224E+00  0.8388E+00
      4.524  0.8959E-02  0.2457E-01  0.5513E-01  0.4623E-01  0.8621E+00  0.8868E+00
      4.602  0.1000E-01  0.2018E-01  0.5914E-01  0.4852E-01  0.9420E+00  0.9329E+00
      4.680  0.1161E-01  0.1663E-01  0.6533E-01  0.5302E-01  0.1042E+01  0.9672E+00
      4.759  0.1355E-01  0.1337E-01  0.7008E-01  0.5711E-01  0.1115E+01  0.9595E+00
      4.837  0.1565E-01  0.1015E-01  0.7306E-01  0.5899E-01  0.1171E+01  0.8871E+00
      4.915  0.1815E-01  0.7466E-02  0.7724E-01  0.5900E-01  0.1274E+01  0.7697E+00
      4.994  0.2017E-01  0.5776E-02  0.8139E-01  0.5740E-01  0.1432E+01  0.6722E+00
      5.072  0.1982E-01  0.4876E-02  0.7966E-01  0.5454E-01  0.1566E+01  0.6608E+00
      5.150  0.1692E-01  0.4478E-02  0.7073E-01  0.5337E-01  0.1608E+01  0.7604E+00
      5.229  0.1379E-01  0.4633E-02  0.5987E-01  0.5744E-01  0.1549E+01  0.9427E+00
      5.307  0.1193E-01  0.5364E-02  0.5062E-01  0.6574E-01  0.1411E+01  0.1137E+01
      5.385  0.1041E-01  0.6290E-02  0.4231E-01  0.7273E-01  0.1237E+01  0.1268E+01
      5.463  0.8325E-02  0.6894E-02  0.3573E-01  0.7427E-01  0.1101E+01  0.1309E+01
      5.542  0.6466E-02  0.7167E-02  0.3395E-01  0.7188E-01  0.1045E+01  0.1306E+01
      5.620  0.5986E-02  0.7663E-02  0.3772E-01  0.6995E-01  0.1059E+01  0.1318E+01
      5.698  0.6713E-02  0.8753E-02  0.4321E-01  0.7063E-01  0.1126E+01  0.1346E+01
      5.777  0.7328E-02  0.1007E-01  0.4432E-01  0.7345E-01  0.1224E+01  0.1359E+01
      5.855  0.6901E-02  0.1089E-01  0.3806E-01  0.7800E-01  0.1313E+01  0.1355E+01
      5.933  0.6048E-02  0.1102E-01  0.2844E-01  0.8373E-01  0.1374E+01  0.1376E+01
      6.012  0.6002E-02  0.1093E-01  0.2216E-01  0.8735E-01  0.1410E+01  0.1448E+01
      6.090  0.6944E-02  0.1114E-01  0.2142E-01  0.8445E-01  0.1395E+01  0.1530E+01
      6.168  0.8070E-02  0.1177E-01  0.2359E-01  0.7569E-01  0.1325E+01  0.1542E+01
      6.247  0.8701E-02  0.1274E-01  0.2536E-01  0.6764E-01  0.1266E+01  0.1449E+01
      6.325  0.8766E-02  0.1362E-01  0.2498E-01  0.6461E-01  0.1294E+01  0.1314E+01
      6.403  0.8652E-02  0.1373E-01  0.2284E-01  0.6374E-01  0.1401E+01  0.1224E+01
      6.482  0.8489E-02  0.1273E-01  0.2021E-01  0.6025E-01  0.1515E+01  0.1180E+01
      6.560  0.7784E-02  0.1095E-01  0.1740E-01  0.5383E-01  0.1607E+01  0.1112E+01
      6.638  0.6469E-02  0.9170E-02  0.1430E-01  0.4798E-01  0.1710E+01  0.1006E+01
      6.717  0.5390E-02  0.8299E-02  0.1153E-01  0.4535E-01  0.1812E+01  0.9315E+00
      6.795  0.5020E-02  0.8736E-02  0.9536E-02  0.4526E-01  0.1789E+01  0.9319E+00
      6.873  0.4991E-02  0.9811E-02  0.8260E-02  0.4519E-01  0.1530E+01  0.9778E+00
      6.952  0.5206E-02  0.1023E-01  0.8087E-02  0.4319E-01  0.1101E+01  0.1018E+01
      7.030  0.6018E-02  0.9318E-02  0.9936E-02  0.3896E-01  0.6755E+00  0.1018E+01
      7.108  0.7155E-02  0.7600E-02  0.1394E-01  0.3428E-01  0.3633E+00  0.9673E+00
      7.187  0.7926E-02  0.6179E-02  0.1864E-01  0.3141E-01  0.1796E+00  0.8927E+00
      7.265  0.8475E-02  0.5575E-02  0.2162E-01  0.3069E-01  0.1022E+00  0.8325E+00
      7.343  0.9419E-02  0.5315E-02  0.2134E-01  0.3142E-01  0.8952E-01  0.7917E+00
      7.421  0.1076E-01  0.4788E-02  0.1900E-01  0.3324E-01  0.9498E-01  0.7530E+00