Automatically generated mesh
      41
Reciprocal lattice
    0.00000000000000    0.00000000000000    0.00000000000000             1
    0.33333333333333    0.00000000000000    0.00000000000000             2
    0.00000000000000    0.33333333333333    0.00000000000000             2
    0.33333333333333    0.33333333333333    0.00000000000000             2
   -0.33333333333333    0.33333333333333    0.00000000000000             2
    0.00000000000000    0.00000000000000    0.11111111111111             2
    0.33333333333333    0.00000000000000    0.11111111111111             2
   -0.33333333333333    0.00000000000000    0.11111111111111             2
    0.00000000000000    0.33333333333333    0.11111111111111             2
    0.33333333333333    0.33333333333333    0.11111111111111             2
   -0.33333333333333    0.33333333333333    0.11111111111111             2
    0.00000000000000   -0.33333333333333    0.11111111111111             2
    0.33333333333333   -0.33333333333333    0.11111111111111             2
   -0.33333333333333   -0.33333333333333    0.11111111111111             2
    0.00000000000000    0.00000000000000    0.22222222222222             2
    0.33333333333333    0.00000000000000    0.22222222222222             2
   -0.33333333333333    0.00000000000000    0.22222222222222             2
    0.00000000000000    0.33333333333333    0.22222222222222             2
    0.33333333333333    0.33333333333333    0.22222222222222             2
   -0.33333333333333    0.33333333333333    0.22222222222222             2
    0.00000000000000   -0.33333333333333    0.22222222222222             2
    0.33333333333333   -0.33333333333333    0.22222222222222             2
   -0.33333333333333   -0.33333333333333    0.22222222222222             2
    0.00000000000000    0.00000000000000    0.33333333333333             2
    0.33333333333333    0.00000000000000    0.33333333333333             2
   -0.33333333333333    0.00000000000000    0.33333333333333             2
    0.00000000000000    0.33333333333333    0.33333333333333             2
    0.33333333333333    0.33333333333333    0.33333333333333             2
   -0.33333333333333    0.33333333333333    0.33333333333333             2
    0.00000000000000   -0.33333333333333    0.33333333333333             2
    0.33333333333333   -0.33333333333333    0.33333333333333             2
   -0.33333333333333   -0.33333333333333    0.33333333333333             2
    0.00000000000000    0.00000000000000    0.44444444444445             2
    0.33333333333333    0.00000000000000    0.44444444444445             2
   -0.33333333333333    0.00000000000000    0.44444444444445             2
    0.00000000000000    0.33333333333333    0.44444444444445             2
    0.33333333333333    0.33333333333333    0.44444444444445             2
   -0.33333333333333    0.33333333333333    0.44444444444445             2
    0.00000000000000   -0.33333333333333    0.44444444444445             2
    0.33333333333333   -0.33333333333333    0.44444444444445             2
   -0.33333333333333   -0.33333333333333    0.44444444444445             2
