       N       E                     dE             d eps       ncg     rms          rms(c)
DAV:   1     0.124527911764E+04    0.12453E+04   -0.59249E+04 16728   0.195E+03
DAV:   2     0.230371804028E+02   -0.12222E+04   -0.11590E+04 16728   0.406E+02
DAV:   3    -0.119922068042E+03   -0.14296E+03   -0.11850E+03 16731   0.178E+02
DAV:   4    -0.125160750751E+03   -0.52387E+01   -0.51311E+01 18258   0.406E+01
DAV:   5    -0.125250128562E+03   -0.89378E-01   -0.89307E-01 24237   0.456E+00    0.433E+01
RMM:   6    -0.138991122768E+03   -0.13741E+02   -0.17906E+02 16728   0.787E+01    0.708E+01
RMM:   7    -0.132700195859E+03    0.62909E+01   -0.51110E+01 16728   0.386E+01    0.645E+01
RMM:   8    -0.126987133841E+03    0.57131E+01   -0.28913E+01 16728   0.289E+01    0.663E+01
RMM:   9    -0.111877195446E+03    0.15110E+02   -0.14305E+01 16728   0.208E+01    0.273E+01
RMM:  10    -0.116651682002E+03   -0.47745E+01   -0.11416E+01 16728   0.172E+01    0.416E+01
RMM:  11    -0.115754914476E+03    0.89677E+00   -0.54342E+00 16728   0.125E+01    0.390E+01
RMM:  12    -0.108615757644E+03    0.71392E+01   -0.25843E+00 16728   0.867E+00    0.132E+01
RMM:  13    -0.108995907371E+03   -0.38015E+00   -0.11235E+00 16728   0.511E+00    0.159E+01
RMM:  14    -0.108382367118E+03    0.61354E+00   -0.34158E-01 16728   0.316E+00    0.879E+00
RMM:  15    -0.108348779785E+03    0.33587E-01   -0.70865E-02 16728   0.132E+00    0.777E+00
RMM:  16    -0.108497925393E+03   -0.14915E+00   -0.69830E-02 16728   0.124E+00    0.750E+00
RMM:  17    -0.108555935441E+03   -0.58010E-01   -0.56287E-02 16728   0.117E+00    0.713E+00
RMM:  18    -0.108718437128E+03   -0.16250E+00   -0.88940E-02 16728   0.136E+00    0.669E+00
RMM:  19    -0.108773106095E+03   -0.54669E-01   -0.87745E-02 16728   0.148E+00    0.631E+00
RMM:  20    -0.108946841181E+03   -0.17374E+00   -0.94207E-02 16728   0.138E+00    0.545E+00
RMM:  21    -0.109012877515E+03   -0.66036E-01   -0.72146E-02 16728   0.132E+00    0.553E+00
RMM:  22    -0.109081084913E+03   -0.68207E-01   -0.57252E-02 16728   0.110E+00    0.466E+00
RMM:  23    -0.109095306254E+03   -0.14221E-01   -0.39982E-02 16728   0.965E-01    0.450E+00
RMM:  24    -0.109132449624E+03   -0.37143E-01   -0.29614E-02 16728   0.759E-01    0.417E+00
RMM:  25    -0.109145566825E+03   -0.13117E-01   -0.52067E-03 16728   0.294E-01    0.397E+00
RMM:  26    -0.109213842871E+03   -0.68276E-01   -0.33936E-02 16728   0.844E-01    0.331E+00
RMM:  27    -0.109287492244E+03   -0.73649E-01   -0.69769E-02 16728   0.117E+00    0.301E+00
RMM:  28    -0.109267091916E+03    0.20400E-01   -0.54066E-02 16728   0.117E+00    0.199E+00
RMM:  29    -0.109257263703E+03    0.98282E-02   -0.22144E-02 16728   0.707E-01    0.174E+00
RMM:  30    -0.109255842211E+03    0.14215E-02   -0.86158E-03 16728   0.474E-01    0.133E+00
RMM:  31    -0.109256127206E+03   -0.28499E-03   -0.51293E-03 16728   0.330E-01    0.691E-01
RMM:  32    -0.109257006866E+03   -0.87966E-03   -0.22789E-03 16728   0.223E-01    0.625E-01
RMM:  33    -0.109255960883E+03    0.10460E-02   -0.14138E-03 16728   0.189E-01    0.397E-01
RMM:  34    -0.109255999261E+03   -0.38378E-04   -0.39103E-04 16727   0.849E-02    0.198E-01
RMM:  35    -0.109256136059E+03   -0.13680E-03   -0.57557E-04 16728   0.104E-01    0.184E-01
RMM:  36    -0.109256060117E+03    0.75942E-04   -0.21541E-04 16728   0.728E-02    0.138E-01
RMM:  37    -0.109256090513E+03   -0.30396E-04   -0.12138E-04 16642   0.548E-02    0.445E-02
RMM:  38    -0.109256101137E+03   -0.10624E-04   -0.13806E-05  9311   0.188E-02    0.238E-02
RMM:  39    -0.109256104901E+03   -0.37636E-05   -0.60525E-06  8779   0.128E-02
   1 F= -.10925610E+03 E0= -.10926094E+03  d E =-.109256E+03  mag=    25.4012
       N       E                     dE             d eps       ncg     rms          rms(c)
DAV:   1    -0.108739029623E+03    0.51707E+00   -0.15352E+02 16737   0.371E+01    0.937E+00
RMM:   2    -0.113366616639E+03   -0.46276E+01   -0.93108E+00 16728   0.170E+01    0.304E+01
RMM:   3    -0.109924428876E+03    0.34422E+01   -0.28708E+00 16728   0.898E+00    0.776E+00
RMM:   4    -0.110092817749E+03   -0.16839E+00   -0.65321E-01 16728   0.401E+00    0.911E+00
RMM:   5    -0.109786759733E+03    0.30606E+00   -0.25840E-01 16728   0.274E+00    0.237E+00
RMM:   6    -0.109777013695E+03    0.97460E-02   -0.49690E-02 16728   0.111E+00    0.188E+00
RMM:   7    -0.109761981912E+03    0.15032E-01   -0.18513E-02 16728   0.714E-01    0.114E+00
RMM:   8    -0.109761501198E+03    0.48071E-03   -0.12527E-02 16728   0.563E-01    0.118E+00
RMM:   9    -0.109755297185E+03    0.62040E-02   -0.85875E-03 16728   0.440E-01    0.667E-01
RMM:  10    -0.109754049887E+03    0.12473E-02   -0.40039E-03 16728   0.310E-01    0.460E-01
RMM:  11    -0.109753173946E+03    0.87594E-03   -0.11119E-03 16728   0.171E-01    0.191E-01
RMM:  12    -0.109753068271E+03    0.10568E-03   -0.28174E-04 16728   0.816E-02    0.118E-01
RMM:  13    -0.109753055831E+03    0.12440E-04   -0.94770E-05 16566   0.480E-02    0.852E-02
RMM:  14    -0.109753031895E+03    0.23937E-04   -0.55066E-05 14549   0.384E-02    0.438E-02
RMM:  15    -0.109753028355E+03    0.35397E-05   -0.12108E-05  9050   0.185E-02
   2 F= -.10975303E+03 E0= -.10975728E+03  d E =-.496923E+00  mag=    25.5755
       N       E                     dE             d eps       ncg     rms          rms(c)
DAV:   1    -0.109650612461E+03    0.10242E+00   -0.22979E+01 16764   0.139E+01    0.341E+00
RMM:   2    -0.110016855325E+03   -0.36624E+00   -0.72315E-01 16728   0.495E+00    0.760E+00
RMM:   3    -0.109832792916E+03    0.18406E+00   -0.28549E-01 16728   0.279E+00    0.319E+00
RMM:   4    -0.109828617082E+03    0.41758E-02   -0.60830E-02 16728   0.127E+00    0.265E+00
RMM:   5    -0.109799154150E+03    0.29463E-01   -0.24530E-02 16728   0.836E-01    0.578E-01
RMM:   6    -0.109799659538E+03   -0.50539E-03   -0.42642E-03 16728   0.328E-01    0.681E-01
RMM:   7    -0.109797000147E+03    0.26594E-02   -0.23839E-03 16728   0.264E-01    0.235E-01
RMM:   8    -0.109797881248E+03   -0.88110E-03   -0.17918E-03 16728   0.202E-01    0.520E-01
RMM:   9    -0.109796531125E+03    0.13501E-02   -0.12492E-03 16728   0.176E-01    0.138E-01
RMM:  10    -0.109796545488E+03   -0.14363E-04   -0.24438E-04 16725   0.749E-02    0.141E-01
RMM:  11    -0.109796456382E+03    0.89106E-04   -0.68504E-05 15970   0.435E-02    0.426E-02
RMM:  12    -0.109796450566E+03    0.58162E-05   -0.13740E-05  9261   0.197E-02
   3 F= -.10979645E+03 E0= -.10980056E+03  d E =-.540346E+00  mag=    25.6217
       N       E                     dE             d eps       ncg     rms          rms(c)
DAV:   1    -0.109772207091E+03    0.24249E-01   -0.18228E+01 16770   0.127E+01    0.248E+00
RMM:   2    -0.109957994009E+03   -0.18579E+00   -0.36984E-01 16728   0.366E+00    0.505E+00
RMM:   3    -0.109880957405E+03    0.77037E-01   -0.13850E-01 16728   0.194E+00    0.258E+00
RMM:   4    -0.109871447046E+03    0.95104E-02   -0.37415E-02 16728   0.998E-01    0.180E+00
RMM:   5    -0.109857109506E+03    0.14338E-01   -0.12302E-02 16728   0.593E-01    0.379E-01
RMM:   6    -0.109857212567E+03   -0.10306E-03   -0.20495E-03 16728   0.225E-01    0.501E-01
RMM:   7    -0.109855960265E+03    0.12523E-02   -0.17862E-03 16728   0.219E-01    0.236E-01
RMM:   8    -0.109856338610E+03   -0.37835E-03   -0.12948E-03 16728   0.168E-01    0.398E-01
RMM:   9    -0.109855562994E+03    0.77562E-03   -0.81508E-04 16728   0.143E-01    0.741E-02
RMM:  10    -0.109855601838E+03   -0.38844E-04   -0.11007E-04 16562   0.505E-02    0.112E-01
RMM:  11    -0.109855538324E+03    0.63513E-04   -0.42524E-05 13672   0.353E-02    0.153E-02
RMM:  12    -0.109855541441E+03   -0.31167E-05   -0.71875E-06  8887   0.132E-02
   4 F= -.10985554E+03 E0= -.10985961E+03  d E =-.590909E-01  mag=    25.6734
       N       E                     dE             d eps       ncg     rms          rms(c)
DAV:   1    -0.109803202701E+03    0.52336E-01   -0.15019E+01 16767   0.115E+01    0.225E+00
RMM:   2    -0.109950335853E+03   -0.14713E+00   -0.29325E-01 16728   0.325E+00    0.442E+00
RMM:   3    -0.109893490977E+03    0.56845E-01   -0.11139E-01 16728   0.174E+00    0.236E+00
RMM:   4    -0.109884194154E+03    0.92968E-02   -0.29537E-02 16728   0.890E-01    0.157E+00
RMM:   5    -0.109873177653E+03    0.11017E-01   -0.94421E-03 16728   0.519E-01    0.330E-01
RMM:   6    -0.109873288316E+03   -0.11066E-03   -0.16124E-03 16728   0.199E-01    0.455E-01
RMM:   7    -0.109872244526E+03    0.10438E-02   -0.14307E-03 16728   0.195E-01    0.208E-01
RMM:   8    -0.109872558997E+03   -0.31447E-03   -0.10660E-03 16728   0.153E-01    0.354E-01
RMM:   9    -0.109871945180E+03    0.61382E-03   -0.65755E-04 16728   0.128E-01    0.636E-02
RMM:  10    -0.109871975155E+03   -0.29975E-04   -0.84933E-05 16177   0.444E-02    0.976E-02
RMM:  11    -0.109871926772E+03    0.48383E-04   -0.32548E-05 12233   0.316E-02    0.150E-02
RMM:  12    -0.109871929698E+03   -0.29263E-05   -0.63501E-06  8876   0.128E-02
   5 F= -.10987193E+03 E0= -.10987598E+03  d E =-.754791E-01  mag=    25.7212
       N       E                     dE             d eps       ncg     rms          rms(c)
DAV:   1    -0.109866268852E+03    0.56579E-02   -0.56267E+00 16833   0.704E+00    0.115E+00
RMM:   2    -0.109892712725E+03   -0.26444E-01   -0.77839E-02 16728   0.170E+00    0.145E+00
RMM:   3    -0.109895651757E+03   -0.29390E-02   -0.27374E-02 16728   0.849E-01    0.140E+00
RMM:   4    -0.109887109764E+03    0.85420E-02   -0.60041E-03 16728   0.429E-01    0.427E-01
RMM:   5    -0.109886284692E+03    0.82507E-03   -0.10527E-03 16728   0.167E-01    0.171E-01
RMM:   6    -0.109886312691E+03   -0.27999E-04   -0.45010E-04 16728   0.101E-01    0.277E-01
RMM:   7    -0.109885912809E+03    0.39988E-03   -0.41884E-04 16728   0.103E-01    0.981E-02
RMM:   8    -0.109886008210E+03   -0.95401E-04   -0.26113E-04 16728   0.726E-02    0.180E-01
RMM:   9    -0.109885851948E+03    0.15626E-03   -0.12798E-04 16600   0.563E-02    0.305E-02
RMM:  10    -0.109885858679E+03   -0.67312E-05   -0.21382E-05 10424   0.238E-02
   6 F= -.10988586E+03 E0= -.10988981E+03  d E =-.139290E-01  mag=    25.7290
       N       E                     dE             d eps       ncg     rms          rms(c)
DAV:   1    -0.109859415118E+03    0.26437E-01   -0.90303E+00 16770   0.893E+00    0.147E+00
RMM:   2    -0.109901806129E+03   -0.42391E-01   -0.12762E-01 16728   0.217E+00    0.184E+00
RMM:   3    -0.109906954392E+03   -0.51483E-02   -0.43741E-02 16728   0.107E+00    0.177E+00
RMM:   4    -0.109893096640E+03    0.13858E-01   -0.97160E-03 16728   0.546E-01    0.530E-01
RMM:   5    -0.109891847563E+03    0.12491E-02   -0.17345E-03 16728   0.214E-01    0.227E-01
RMM:   6    -0.109891834271E+03    0.13292E-04   -0.68098E-04 16728   0.126E-01    0.339E-01
RMM:   7    -0.109891257673E+03    0.57660E-03   -0.63526E-04 16728   0.128E-01    0.134E-01
RMM:   8    -0.109891386050E+03   -0.12838E-03   -0.43899E-04 16728   0.929E-02    0.230E-01
RMM:   9    -0.109891132459E+03    0.25359E-03   -0.21418E-04 16728   0.722E-02    0.392E-02
RMM:  10    -0.109891145559E+03   -0.13101E-04   -0.38831E-05 13357   0.311E-02    0.650E-02
RMM:  11    -0.109891125007E+03    0.20552E-04   -0.14054E-05  9156   0.234E-02    0.115E-02
RMM:  12    -0.109891125513E+03   -0.50586E-06   -0.32969E-06  8695   0.932E-03
   7 F= -.10989113E+03 E0= -.10989493E+03  d E =-.191958E-01  mag=    25.7382
       N       E                     dE             d eps       ncg     rms          rms(c)
DAV:   1    -0.109890825739E+03    0.29927E-03   -0.11306E-01 17028   0.998E-01    0.162E-01
RMM:   2    -0.109891318735E+03   -0.49300E-03   -0.14372E-03 16728   0.230E-01    0.185E-01
RMM:   3    -0.109891440074E+03   -0.12134E-03   -0.54721E-04 16728   0.120E-01    0.210E-01
RMM:   4    -0.109891241809E+03    0.19826E-03   -0.13133E-04 16606   0.635E-02    0.570E-02
RMM:   5    -0.109891226649E+03    0.15160E-04   -0.16119E-05  9547   0.219E-02    0.223E-02
RMM:   6    -0.109891227799E+03   -0.11496E-05   -0.10554E-05  8911   0.165E-02
   8 F= -.10989123E+03 E0= -.10989507E+03  d E =-.192981E-01  mag=    25.7372
       N       E                     dE             d eps       ncg     rms          rms(c)
DAV:   1    -0.109885999383E+03    0.52273E-02   -0.25237E+00 16764   0.472E+00    0.818E-01
RMM:   2    -0.109901290106E+03   -0.15291E-01   -0.35160E-02 16728   0.112E+00    0.120E+00
RMM:   3    -0.109899943903E+03    0.13462E-02   -0.13372E-02 16728   0.598E-01    0.101E+00
RMM:   4    -0.109897059011E+03    0.28849E-02   -0.35604E-03 16728   0.319E-01    0.527E-01
RMM:   5    -0.109895753874E+03    0.13051E-02   -0.91603E-04 16728   0.163E-01    0.999E-02
RMM:   6    -0.109895740540E+03    0.13334E-04   -0.21005E-04 16728   0.667E-02    0.161E-01
RMM:   7    -0.109895604092E+03    0.13645E-03   -0.20262E-04 16728   0.709E-02    0.727E-02
RMM:   8    -0.109895620240E+03   -0.16147E-04   -0.11955E-04 16713   0.486E-02    0.104E-01
RMM:   9    -0.109895571479E+03    0.48761E-04   -0.51597E-05 14486   0.360E-02    0.224E-02
RMM:  10    -0.109895573616E+03   -0.21375E-05   -0.86739E-06  8885   0.158E-02
   9 F= -.10989557E+03 E0= -.10989943E+03  d E =-.434582E-02  mag=    25.7304
       N       E                     dE             d eps       ncg     rms          rms(c)
DAV:   1    -0.109893388897E+03    0.21826E-02   -0.72135E-01 16782   0.252E+00    0.436E-01
RMM:   2    -0.109897785608E+03   -0.43967E-02   -0.99865E-03 16728   0.600E-01    0.646E-01
RMM:   3    -0.109897333251E+03    0.45236E-03   -0.37868E-03 16728   0.319E-01    0.532E-01
RMM:   4    -0.109896554877E+03    0.77837E-03   -0.10172E-03 16728   0.169E-01    0.286E-01
RMM:   5    -0.109896173857E+03    0.38102E-03   -0.26026E-04 16728   0.868E-02    0.520E-02
RMM:   6    -0.109896177988E+03   -0.41313E-05   -0.70398E-05 16468   0.386E-02
  10 F= -.10989618E+03 E0= -.10990004E+03  d E =-.495019E-02  mag=    25.7268
       N       E                     dE             d eps       ncg     rms          rms(c)
DAV:   1    -0.109895154973E+03    0.10189E-02   -0.39918E-01 16776   0.187E+00    0.323E-01
RMM:   2    -0.109896732816E+03   -0.15778E-02   -0.49807E-03 16728   0.422E-01    0.262E-01
RMM:   3    -0.109897704128E+03   -0.97131E-03   -0.16760E-03 16728   0.207E-01    0.431E-01
RMM:   4    -0.109896777127E+03    0.92700E-03   -0.56550E-04 16728   0.130E-01    0.852E-02
RMM:   5    -0.109896751817E+03    0.25309E-04   -0.60451E-05 15436   0.381E-02    0.551E-02
RMM:   6    -0.109896742460E+03    0.93571E-05   -0.34852E-05 12522   0.285E-02
  11 F= -.10989674E+03 E0= -.10990065E+03  d E =-.564472E-03  mag=    25.7239
