 vasp.5.4.4.18Apr17-6-g9f103f2a35 (build Sep 06 2021 19:49:22) complex          
  
 executed on             LinuxIFC date 2021.12.28  18:34:32
 running on   24 total cores
 distrk:  each k-point on   24 cores,    1 groups
 distr:  one band on NCORES_PER_BAND=   8 cores,    3 groups


--------------------------------------------------------------------------------------------------------


 INCAR:
 POTCAR:    PAW_PBE Ni 02Aug2007                  
 POTCAR:    PAW_PBE Fe 06Sep2000                  
 POTCAR:    PAW_PBE Ni 02Aug2007                  
   VRHFIN =Ni:                                                                  
   LEXCH  = PE                                                                  
   EATOM  =  1077.6739 eV,   79.2068 Ry                                         
                                                                                
   TITEL  = PAW_PBE Ni 02Aug2007                                                
   LULTRA =        F    use ultrasoft PP ?                                      
   IUNSCR =        1    unscreen: 0-lin 1-nonlin 2-no                           
   RPACOR =    2.000    partial core radius                                     
   POMASS =   58.690; ZVAL   =   10.000    mass and valenz                      
   RCORE  =    2.300    outmost cutoff radius                                   
   RWIGS  =    2.430; RWIGS  =    1.286    wigner-seitz radius (au A)           
   ENMAX  =  269.532; ENMIN  =  202.149 eV                                      
   RCLOC  =    1.201    cutoff for local pot                                    
   LCOR   =        T    correct aug charges                                     
   LPAW   =        T    paw PP                                                  
   EAUG   =  544.565                                                            
   DEXC   =    0.000                                                            
   RMAX   =    2.357    core radius for proj-oper                               
   RAUG   =    1.300    factor for augmentation sphere                          
   RDEP   =    2.390    radius for radial grids                                 
   RDEPT  =    1.838    core radius for aug-charge                              
                                                                                
   Atomic configuration                                                         
    9 entries                                                                   
     n  l   j            E        occ.                                          
     1  0  0.50     -8206.4253   2.0000                                         
     2  0  0.50      -976.1748   2.0000                                         
     2  1  1.50      -839.0571   6.0000                                         
     3  0  0.50      -105.9991   2.0000                                         
     3  1  1.50       -66.4603   6.0000                                         
     3  2  2.50        -4.6458   9.0000                                         
     4  0  0.50        -4.4926   1.0000                                         
     4  1  1.50        -4.0817   0.0000                                         
     4  3  2.50        -1.3606   0.0000                                         
   Description                                                                  
     l       E           TYP  RCUT    TYP  RCUT                                 
     2     -4.6457903     23  2.300                                             
     2     -6.0063729     23  2.300                                             
     0     -4.4925590     23  2.300                                             
     0      5.0102601     23  2.300                                             
     1     -2.7211652     23  2.300                                             
     1     16.5183231     23  2.300                                             
  local pseudopotential read in
  partial core-charges read in
  partial kinetic energy density read in
  atomic valenz-charges read in
  non local Contribution for L=           2  read in
    real space projection operators read in
  non local Contribution for L=           2  read in
    real space projection operators read in
  non local Contribution for L=           0  read in
    real space projection operators read in
  non local Contribution for L=           0  read in
    real space projection operators read in
  non local Contribution for L=           1  read in
    real space projection operators read in
  non local Contribution for L=           1  read in
    real space projection operators read in
    PAW grid and wavefunctions read in
 
   number of l-projection  operators is LMAX  =           6
   number of lm-projection operators is LMMAX =          18
 
 POTCAR:    PAW_PBE Fe 06Sep2000                  
   VRHFIN =Fe:  d7 s1                                                           
   LEXCH  = PE                                                                  
   EATOM  =   594.3153 eV,   43.6809 Ry                                         
                                                                                
   TITEL  = PAW_PBE Fe 06Sep2000                                                
   LULTRA =        F    use ultrasoft PP ?                                      
   IUNSCR =        1    unscreen: 0-lin 1-nonlin 2-no                           
   RPACOR =    2.000    partial core radius                                     
   POMASS =   55.847; ZVAL   =    8.000    mass and valenz                      
   RCORE  =    2.300    outmost cutoff radius                                   
   RWIGS  =    2.460; RWIGS  =    1.302    wigner-seitz radius (au A)           
   ENMAX  =  267.882; ENMIN  =  200.911 eV                                      
   RCLOC  =    1.701    cutoff for local pot                                    
   LCOR   =        T    correct aug charges                                     
   LPAW   =        T    paw PP                                                  
   EAUG   =  511.368                                                            
   DEXC   =    0.000                                                            
   RMAX   =    2.356    core radius for proj-oper                               
   RAUG   =    1.300    factor for augmentation sphere                          
   RDEP   =    2.442    radius for radial grids                                 
   RDEPT  =    1.890    core radius for aug-charge                              
                                                                                
   Atomic configuration                                                         
    9 entries                                                                   
     n  l   j            E        occ.                                          
     1  0  0.50     -6993.8440   2.0000                                         
     2  0  0.50      -814.6047   2.0000                                         
     2  1  1.50      -693.3689   6.0000                                         
     3  0  0.50       -89.4732   2.0000                                         
     3  1  1.50       -55.6373   6.0000                                         
     3  2  2.50        -3.8151   7.0000                                         
     4  0  0.50        -4.2551   1.0000                                         
     4  1  1.50        -3.4015   0.0000                                         
     4  3  2.50        -1.3606   0.0000                                         
   Description                                                                  
     l       E           TYP  RCUT    TYP  RCUT                                 
     2     -3.8151135     23  2.300                                             
     2     -5.1756961     23  2.300                                             
     0     -4.2550963     23  2.300                                             
     0      7.2035603     23  2.300                                             
     1     -2.7211652     23  2.300                                             
     1     18.4316424     23  2.300                                             
  local pseudopotential read in
  partial core-charges read in
  partial kinetic energy density read in
  atomic valenz-charges read in
  non local Contribution for L=           2  read in
    real space projection operators read in
  non local Contribution for L=           2  read in
    real space projection operators read in
  non local Contribution for L=           0  read in
    real space projection operators read in
  non local Contribution for L=           0  read in
    real space projection operators read in
  non local Contribution for L=           1  read in
    real space projection operators read in
  non local Contribution for L=           1  read in
    real space projection operators read in
    PAW grid and wavefunctions read in
 
   number of l-projection  operators is LMAX  =           6
   number of lm-projection operators is LMMAX =          18
 
 Optimization of the real space projectors (new method)

 maximal supplied QI-value         = 16.25
 optimisation between [QCUT,QGAM] = [ 11.54, 23.24] = [ 37.28,151.24] Ry 
 Optimized for a Real-space Cutoff    1.45 Angstroem

   l    n(q)    QCUT    max X(q) W(low)/X(q) W(high)/X(q)  e(spline) 
   2      9    11.539    60.317    0.19E-03    0.47E-04    0.16E-06
   2      9    11.539    55.921    0.19E-03    0.48E-04    0.16E-06
   0     10    11.539    51.690    0.80E-04    0.50E-04    0.24E-06
   0     10    11.539    30.015    0.73E-04    0.45E-04    0.22E-06
   1     10    11.539    18.849    0.87E-04    0.16E-03    0.71E-07
   1     10    11.539    14.624    0.73E-04    0.13E-03    0.64E-07
 Optimization of the real space projectors (new method)

 maximal supplied QI-value         = 16.25
 optimisation between [QCUT,QGAM] = [ 11.54, 23.24] = [ 37.28,151.24] Ry 
 Optimized for a Real-space Cutoff    1.53 Angstroem

   l    n(q)    QCUT    max X(q) W(low)/X(q) W(high)/X(q)  e(spline) 
   2     10    11.539    80.901    0.11E-03    0.14E-03    0.21E-06
   2     10    11.539    75.754    0.11E-03    0.14E-03    0.22E-06
   0     11    11.539    58.752    0.52E-04    0.18E-04    0.33E-06
   0     11    11.539    30.679    0.44E-04    0.16E-04    0.30E-06
   1     10    11.539    17.977    0.53E-04    0.29E-04    0.13E-06
   1     10    11.539    13.559    0.44E-04    0.25E-04    0.11E-06
  PAW_PBE Ni 02Aug2007                  :
 energy of atom  1       EATOM=-1077.6739
 kinetic energy error for atom=    0.0030 (will be added to EATOM!!)
  PAW_PBE Fe 06Sep2000                  :
 energy of atom  2       EATOM= -594.3153
 kinetic energy error for atom=    0.0026 (will be added to EATOM!!)
 
 
 POSCAR: POSCAR                                  
  positions in direct lattice
  velocities in cartesian coordinates
 exchange correlation table for  LEXCH =        8
   RHO(1)=    0.500       N(1)  =     2000
   RHO(2)=  100.500       N(2)  =     4000
 


--------------------------------------------------------------------------------------------------------


 ion  position               nearest neighbor table
   1  0.002  0.748  0.500-  10 2.46  10 2.46   6 2.54   9 2.54   9 2.54  14 2.56   4 2.57   4 2.57
                             5 2.58   5 2.58
   2  0.252  0.498  0.500-   9 2.48   9 2.48  11 2.50   3 2.50  13 2.52  13 2.52  12 2.55  12 2.55
                            10 2.57  10 2.57
   3  0.495  0.748  0.500-   2 2.50   5 2.52   5 2.52  10 2.54  10 2.54   7 2.54   7 2.54  13 2.61
                            13 2.61  16 2.62
   4  0.003  0.005  1.000-  12 2.47  16 2.50  16 2.50  11 2.54  11 2.54  14 2.54  14 2.54   5 2.56
                             1 2.57   1 2.57
   5  0.747  0.754  0.000-  16 2.52  16 2.52   3 2.52   3 2.52   4 2.56   6 2.57   6 2.57   1 2.58
                             1 2.58  13 2.60
   6  0.749  0.499  0.500-  13 2.51  13 2.51   8 2.53   8 2.53   1 2.54  15 2.56   5 2.57   5 2.57
                             9 2.59   9 2.59
   7  0.501  0.002  1.000-   8 2.49  14 2.50  14 2.50   3 2.54   3 2.54  16 2.56  16 2.56  15 2.57
                            15 2.57  10 2.57
   8  0.750  0.248  0.000-  16 2.48  16 2.48   7 2.49  11 2.51  11 2.51   6 2.53   6 2.53   9 2.56
                            15 2.62  15 2.62
   9  0.007  0.497  0.000-  11 2.45  11 2.45  10 2.48   2 2.48   2 2.48   1 2.54   1 2.54   8 2.56
                             6 2.59   6 2.59
  10  0.244  0.751  0.000-   1 2.46   1 2.46   9 2.48  14 2.52  14 2.52   3 2.54   3 2.54   2 2.57
                             2 2.57   7 2.57
  11  0.000  0.255  0.500-   9 2.45   9 2.45  16 2.49   2 2.50   8 2.51   8 2.51   4 2.54   4 2.54
                            12 2.57  12 2.57
  12  0.252  0.244  1.000-  15 2.40  15 2.40  14 2.47  14 2.47   4 2.47  13 2.47   2 2.55   2 2.55
                            11 2.57  11 2.57
  13  0.498  0.488  1.000-  15 2.39  15 2.39  12 2.47   6 2.51   6 2.51   2 2.52   2 2.52   5 2.60
                             3 2.61   3 2.61
  14  0.255  0.003  0.500-  15 2.45  12 2.47  12 2.47   7 2.50   7 2.50  10 2.52  10 2.52   4 2.54
                             4 2.54   1 2.56
  15  0.489  0.254  0.500-  13 2.39  13 2.39  12 2.40  12 2.40  14 2.45   6 2.56   7 2.57   7 2.57
                             8 2.62   8 2.62
  16  0.757  0.006  0.500-   8 2.48   8 2.48  11 2.49   4 2.50   4 2.50   5 2.52   5 2.52   7 2.56
                             7 2.56   3 2.62
 

IMPORTANT INFORMATION: All symmetrisations will be switched off!
NOSYMM: (Re-)initialisation of all symmetry stuff for point group C_1.

 
 

Automatic generation of k-mesh.
 generate k-points for:    3    3    9
Space group operators:
 irot       det(A)        alpha          n_x          n_y          n_z        tau_x        tau_y        tau_z
    1     1.000000     0.000000     1.000000     0.000000     0.000000     0.000000     0.000000     0.000000
 
 Subroutine IBZKPT returns following result:
 ===========================================
 
 Found     41 irreducible k-points:
 
 Following reciprocal coordinates:
            Coordinates               Weight
  0.000000  0.000000  0.000000      1.000000
  0.333333  0.000000  0.000000      2.000000
  0.000000  0.333333  0.000000      2.000000
  0.333333  0.333333  0.000000      2.000000
 -0.333333  0.333333  0.000000      2.000000
  0.000000  0.000000  0.111111      2.000000
  0.333333  0.000000  0.111111      2.000000
 -0.333333  0.000000  0.111111      2.000000
  0.000000  0.333333  0.111111      2.000000
  0.333333  0.333333  0.111111      2.000000
 -0.333333  0.333333  0.111111      2.000000
  0.000000 -0.333333  0.111111      2.000000
  0.333333 -0.333333  0.111111      2.000000
 -0.333333 -0.333333  0.111111      2.000000
  0.000000  0.000000  0.222222      2.000000
  0.333333  0.000000  0.222222      2.000000
 -0.333333  0.000000  0.222222      2.000000
  0.000000  0.333333  0.222222      2.000000
  0.333333  0.333333  0.222222      2.000000
 -0.333333  0.333333  0.222222      2.000000
  0.000000 -0.333333  0.222222      2.000000
  0.333333 -0.333333  0.222222      2.000000
 -0.333333 -0.333333  0.222222      2.000000
  0.000000  0.000000  0.333333      2.000000
  0.333333  0.000000  0.333333      2.000000
 -0.333333  0.000000  0.333333      2.000000
  0.000000  0.333333  0.333333      2.000000
  0.333333  0.333333  0.333333      2.000000
 -0.333333  0.333333  0.333333      2.000000
  0.000000 -0.333333  0.333333      2.000000
  0.333333 -0.333333  0.333333      2.000000
 -0.333333 -0.333333  0.333333      2.000000
  0.000000  0.000000  0.444444      2.000000
  0.333333  0.000000  0.444444      2.000000
 -0.333333  0.000000  0.444444      2.000000
  0.000000  0.333333  0.444444      2.000000
  0.333333  0.333333  0.444444      2.000000
 -0.333333  0.333333  0.444444      2.000000
  0.000000 -0.333333  0.444444      2.000000
  0.333333 -0.333333  0.444444      2.000000
 -0.333333 -0.333333  0.444444      2.000000
 
 Following cartesian coordinates:
            Coordinates               Weight
  0.000000 -0.000000  0.000000      1.000000
  0.083333  0.083333  0.083333      2.000000
 -0.083333  0.083333  0.083333      2.000000
  0.000000  0.166667  0.166667      2.000000
 -0.166667  0.000000  0.000000      2.000000
  0.000000 -0.111111  0.111111      2.000000
  0.083333 -0.027778  0.194444      2.000000
 -0.083333 -0.194444  0.027778      2.000000
 -0.083333 -0.027778  0.194444      2.000000
  0.000000  0.055556  0.277778      2.000000
 -0.166667 -0.111111  0.111111      2.000000
  0.083333 -0.194444  0.027778      2.000000
  0.166667 -0.111111  0.111111      2.000000
  0.000000 -0.277778 -0.055556      2.000000
  0.000000 -0.222222  0.222222      2.000000
  0.083333 -0.138889  0.305556      2.000000
 -0.083333 -0.305556  0.138889      2.000000
 -0.083333 -0.138889  0.305556      2.000000
  0.000000 -0.055556  0.388889      2.000000
 -0.166667 -0.222222  0.222222      2.000000
  0.083333 -0.305556  0.138889      2.000000
  0.166667 -0.222222  0.222222      2.000000
  0.000000 -0.388889  0.055556      2.000000
  0.000000 -0.333333  0.333333      2.000000
  0.083333 -0.250000  0.416667      2.000000
 -0.083333 -0.416667  0.250000      2.000000
 -0.083333 -0.250000  0.416667      2.000000
  0.000000 -0.166667  0.500000      2.000000
 -0.166667 -0.333333  0.333333      2.000000
  0.083333 -0.416667  0.250000      2.000000
  0.166667 -0.333333  0.333333      2.000000
  0.000000 -0.500000  0.166667      2.000000
  0.000000 -0.444444  0.444444      2.000000
  0.083333 -0.361111  0.527778      2.000000
 -0.083333 -0.527778  0.361111      2.000000
 -0.083333 -0.361111  0.527778      2.000000
  0.000000 -0.277778  0.611111      2.000000
 -0.166667 -0.444444  0.444444      2.000000
  0.083333 -0.527778  0.361111      2.000000
  0.166667 -0.444444  0.444444      2.000000
  0.000000 -0.611111  0.277778      2.000000
 


--------------------------------------------------------------------------------------------------------




 Dimension of arrays:
   k-points           NKPTS =     41   k-points in BZ     NKDIM =     41   number of bands    NBANDS=    102
   number of dos      NEDOS =    301   number of ions     NIONS =     16
   non local maximal  LDIM  =      6   non local SUM 2l+1 LMDIM =     18
   total plane-waves  NPLWV =  98000
   max r-space proj   IRMAX =   8182   max aug-charges    IRDMAX=  19363
   dimension x,y,z NGX =    70 NGY =   70 NGZ =   20
   dimension x,y,z NGXF=   140 NGYF=  140 NGZF=   40
   support grid    NGXF=   140 NGYF=  140 NGZF=   40
   ions per type =               8   8
   NGX,Y,Z   is equivalent  to a cutoff of  13.30, 13.30, 13.17 a.u.
   NGXF,Y,Z  is equivalent  to a cutoff of  26.61, 26.61, 26.34 a.u.

 SYSTEM =  SQS-NiFe                                
 POSCAR =  POSCAR                                  

 Startparameter for this run:
   NWRITE =      2    write-flag & timer
   PREC   = accura    normal or accurate (medium, high low for compatibility)
   ISTART =      0    job   : 0-new  1-cont  2-samecut
   ICHARG =      2    charge: 1-file 2-atom 10-const
   ISPIN  =      2    spin polarized calculation?
   LNONCOLLINEAR =      F non collinear calculations
   LSORBIT =      F    spin-orbit coupling
   INIWAV =      1    electr: 0-lowe 1-rand  2-diag
   LASPH  =      F    aspherical Exc in radial PAW
   METAGGA=      F    non-selfconsistent MetaGGA calc.

 Electronic Relaxation 1
   ENCUT  =  520.0 eV  38.22 Ry    6.18 a.u.  16.26 16.26  4.69*2*pi/ulx,y,z
   ENINI  =  520.0     initial cutoff
   ENAUG  =  544.6 eV  augmentation charge cutoff
   NELM   =    200;   NELMIN=  2; NELMDL= -5     # of ELM steps 
   EDIFF  = 0.1E-04   stopping-criterion for ELM
   LREAL  =      T    real-space projection
   NLSPLINE    = F    spline interpolate recip. space projectors
   LCOMPAT=      F    compatible to vasp.4.4
   GGA_COMPAT  = T    GGA compatible to vasp.4.4-vasp.4.6
   LMAXPAW     = -100 max onsite density
   LMAXMIX     =    2 max onsite mixed and CHGCAR
   VOSKOWN=      0    Vosko Wilk Nusair interpolation
   ROPT   =   -0.00025  -0.00025
 Ionic relaxation
   EDIFFG = -.2E-01   stopping-criterion for IOM
   NSW    =     99    number of steps for IOM
   NBLOCK =      1;   KBLOCK =     99    inner block; outer block 
   IBRION =      2    ionic relax: 0-MD 1-quasi-New 2-CG
   NFREE  =      1    steps in history (QN), initial steepest desc. (CG)
   ISIF   =      2    stress and relaxation
   IWAVPR =     11    prediction:  0-non 1-charg 2-wave 3-comb
   ISYM   =      0    0-nonsym 1-usesym 2-fastsym
   LCORR  =      T    Harris-Foulkes like correction to forces

   POTIM  = 0.5000    time-step for ionic-motion
   TEIN   =    0.0    initial temperature
   TEBEG  =    0.0;   TEEND  =   0.0 temperature during run
   SMASS  =  -3.00    Nose mass-parameter (am)
   estimated Nose-frequenzy (Omega)   =  0.10E-29 period in steps =****** mass=  -0.175E-26a.u.
   SCALEE = 1.0000    scale energy and forces
   NPACO  =    256;   APACO  = 16.0  distance and # of slots for P.C.
   PSTRESS=    0.0 pullay stress

  Mass of Ions in am
   POMASS =  58.69 55.85
  Ionic Valenz
   ZVAL   =  10.00  8.00
  Atomic Wigner-Seitz radii
   RWIGS  =  -1.00 -1.00
  virtual crystal weights 
   VCA    =   1.00  1.00
   NELECT =     144.0000    total number of electrons
   NUPDOWN=      -1.0000    fix difference up-down

 DOS related values:
   EMIN   =  10.00;   EMAX   =-10.00  energy-range for DOS
   EFERMI =   0.00
   ISMEAR =     1;   SIGMA  =   0.20  broadening in eV -4-tet -1-fermi 0-gaus

 Electronic relaxation 2 (details)
   IALGO  =     68    algorithm
   LDIAG  =      T    sub-space diagonalisation (order eigenvalues)
   LSUBROT=      F    optimize rotation matrix (better conditioning)
   TURBO    =      0    0=normal 1=particle mesh
   IRESTART =      0    0=no restart 2=restart with 2 vectors
   NREBOOT  =      0    no. of reboots
   NMIN     =      0    reboot dimension
   EREF     =   0.00    reference energy to select bands
   IMIX   =      4    mixing-type and parameters
     AMIX     =   0.40;   BMIX     =  1.00
     AMIX_MAG =   1.60;   BMIX_MAG =  1.00
     AMIN     =   0.10
     WC   =   100.;   INIMIX=   1;  MIXPRE=   1;  MAXMIX= -45

 Intra band minimization:
   WEIMIN = 0.0010     energy-eigenvalue tresh-hold
   EBREAK =  0.25E-07  absolut break condition
   DEPER  =   0.30     relativ break condition  

   TIME   =   0.40     timestep for ELM

  volume/ion in A,a.u.               =      11.38        76.83
  Fermi-wavevector in a.u.,A,eV,Ry     =   1.513744  2.860562 31.176681  2.291421
  Thomas-Fermi vector in A             =   2.623494
 
 Write flags
   LWAVE        =      F    write WAVECAR
   LDOWNSAMPLE  =      F    k-point downsampling of WAVECAR
   LCHARG       =      F    write CHGCAR
   LVTOT        =      F    write LOCPOT, total local potential
   LVHAR        =      F    write LOCPOT, Hartree potential only
   LELF         =      F    write electronic localiz. function (ELF)
   LORBIT       =     10    0 simple, 1 ext, 2 COOP (PROOUT), +10 PAW based schemes


 Dipole corrections
   LMONO  =      F    monopole corrections only (constant potential shift)
   LDIPOL =      F    correct potential (dipole corrections)
   IDIPOL =      0    1-x, 2-y, 3-z, 4-all directions 
   EPSILON=  1.0000000 bulk dielectric constant

 Exchange correlation treatment:
   GGA     =    --    GGA type
   LEXCH   =     8    internal setting for exchange type
   VOSKOWN=      0    Vosko Wilk Nusair interpolation
   LHFCALC =     F    Hartree Fock is set to
   LHFONE  =     F    Hartree Fock one center treatment
   AEXX    =    0.0000 exact exchange contribution

 Linear response parameters
   LEPSILON=     F    determine dielectric tensor
   LRPA    =     F    only Hartree local field effects (RPA)
   LNABLA  =     F    use nabla operator in PAW spheres
   LVEL    =     F    velocity operator in full k-point grid
   LINTERFAST=   F  fast interpolation
   KINTER  =     0    interpolate to denser k-point grid
   CSHIFT  =0.1000    complex shift for real part using Kramers Kronig
   OMEGAMAX=  -1.0    maximum frequency
   DEG_THRESHOLD= 0.2000000E-02 threshold for treating states as degnerate
   RTIME   =   -0.100 relaxation time in fs
  (WPLASMAI=    0.000 imaginary part of plasma frequency in eV, 0.658/RTIME)
   DFIELD  = 0.0000000 0.0000000 0.0000000 field for delta impulse in time
 
 Orbital magnetization related:
   ORBITALMAG=     F  switch on orbital magnetization
   LCHIMAG   =     F  perturbation theory with respect to B field
   DQ        =  0.001000  dq finite difference perturbation B field
   LLRAUG    =     F  two centre corrections for induced B field



--------------------------------------------------------------------------------------------------------


 conjugate gradient relaxation of ions
 charge density and potential will be updated during run
 spin polarized calculation
 RMM-DIIS sequential band-by-band and
  variant of blocked Davidson during initial phase
 perform sub-space diagonalisation
    before iterative eigenvector-optimisation
 modified Broyden-mixing scheme, WC =      100.0
 initial mixing is a Kerker type mixing with AMIX =  0.4000 and BMIX =      1.0000
 Hartree-type preconditioning will be used
 using additional bands           30
 real space projection scheme for non local part
 use partial core corrections
 calculate Harris-corrections to forces 
   (improved forces if not selfconsistent)
 use gradient corrections 
 use of overlap-Matrix (Vanderbilt PP)
 Methfessel and Paxton  Order N= 1 SIGMA  =   0.20


--------------------------------------------------------------------------------------------------------


  energy-cutoff  :      520.00
  volume of cell :      182.15
      direct lattice vectors                 reciprocal lattice vectors
     7.142000000  3.571000000  3.571000000     0.070008401  0.070008401  0.070008401
    -7.142000000  3.571000000  3.571000000    -0.070008401  0.070008401  0.070008401
     0.000000000 -1.785500000  1.785500000     0.000000000 -0.280033604  0.280033604

  length of vectors
     8.747127871  8.747127871  2.525078316     0.121258108  0.121258108  0.396027321


 
 k-points in units of 2pi/SCALE and weight: read from INCAR                         
   0.00000000 -0.00000000  0.00000000       0.012
   0.08333333  0.08333333  0.08333333       0.025
  -0.08333333  0.08333333  0.08333333       0.025
   0.00000000  0.16666667  0.16666667       0.025
  -0.16666667  0.00000000  0.00000000       0.025
   0.00000000 -0.11111111  0.11111111       0.025
   0.08333333 -0.02777778  0.19444444       0.025
  -0.08333333 -0.19444444  0.02777778       0.025
  -0.08333333 -0.02777778  0.19444444       0.025
   0.00000000  0.05555556  0.27777778       0.025
  -0.16666667 -0.11111111  0.11111111       0.025
   0.08333333 -0.19444444  0.02777778       0.025
   0.16666667 -0.11111111  0.11111111       0.025
   0.00000000 -0.27777778 -0.05555556       0.025
   0.00000000 -0.22222222  0.22222222       0.025
   0.08333333 -0.13888889  0.30555556       0.025
  -0.08333333 -0.30555556  0.13888889       0.025
  -0.08333333 -0.13888889  0.30555556       0.025
   0.00000000 -0.05555556  0.38888889       0.025
  -0.16666667 -0.22222222  0.22222222       0.025
   0.08333333 -0.30555556  0.13888889       0.025
   0.16666667 -0.22222222  0.22222222       0.025
   0.00000000 -0.38888889  0.05555556       0.025
   0.00000000 -0.33333333  0.33333333       0.025
   0.08333333 -0.25000000  0.41666667       0.025
  -0.08333333 -0.41666667  0.25000000       0.025
  -0.08333333 -0.25000000  0.41666667       0.025
   0.00000000 -0.16666667  0.50000000       0.025
  -0.16666667 -0.33333333  0.33333333       0.025
   0.08333333 -0.41666667  0.25000000       0.025
   0.16666667 -0.33333333  0.33333333       0.025
   0.00000000 -0.50000000  0.16666667       0.025
   0.00000000 -0.44444444  0.44444444       0.025
   0.08333333 -0.36111111  0.52777778       0.025
  -0.08333333 -0.52777778  0.36111111       0.025
  -0.08333333 -0.36111111  0.52777778       0.025
   0.00000000 -0.27777778  0.61111111       0.025
  -0.16666667 -0.44444444  0.44444444       0.025
   0.08333333 -0.52777778  0.36111111       0.025
   0.16666667 -0.44444444  0.44444444       0.025
   0.00000000 -0.61111111  0.27777778       0.025
 
 k-points in reciprocal lattice and weights: read from INCAR                         
   0.00000000  0.00000000  0.00000000       0.012
   0.33333333  0.00000000  0.00000000       0.025
   0.00000000  0.33333333  0.00000000       0.025
   0.33333333  0.33333333  0.00000000       0.025
  -0.33333333  0.33333333  0.00000000       0.025
   0.00000000  0.00000000  0.11111111       0.025
   0.33333333  0.00000000  0.11111111       0.025
  -0.33333333  0.00000000  0.11111111       0.025
   0.00000000  0.33333333  0.11111111       0.025
   0.33333333  0.33333333  0.11111111       0.025
  -0.33333333  0.33333333  0.11111111       0.025
   0.00000000 -0.33333333  0.11111111       0.025
   0.33333333 -0.33333333  0.11111111       0.025
  -0.33333333 -0.33333333  0.11111111       0.025
   0.00000000  0.00000000  0.22222222       0.025
   0.33333333  0.00000000  0.22222222       0.025
  -0.33333333  0.00000000  0.22222222       0.025
   0.00000000  0.33333333  0.22222222       0.025
   0.33333333  0.33333333  0.22222222       0.025
  -0.33333333  0.33333333  0.22222222       0.025
   0.00000000 -0.33333333  0.22222222       0.025
   0.33333333 -0.33333333  0.22222222       0.025
  -0.33333333 -0.33333333  0.22222222       0.025
   0.00000000  0.00000000  0.33333333       0.025
   0.33333333  0.00000000  0.33333333       0.025
  -0.33333333  0.00000000  0.33333333       0.025
   0.00000000  0.33333333  0.33333333       0.025
   0.33333333  0.33333333  0.33333333       0.025
  -0.33333333  0.33333333  0.33333333       0.025
   0.00000000 -0.33333333  0.33333333       0.025
   0.33333333 -0.33333333  0.33333333       0.025
  -0.33333333 -0.33333333  0.33333333       0.025
   0.00000000  0.00000000  0.44444444       0.025
   0.33333333  0.00000000  0.44444444       0.025
  -0.33333333  0.00000000  0.44444444       0.025
   0.00000000  0.33333333  0.44444444       0.025
   0.33333333  0.33333333  0.44444444       0.025
  -0.33333333  0.33333333  0.44444444       0.025
   0.00000000 -0.33333333  0.44444444       0.025
   0.33333333 -0.33333333  0.44444444       0.025
  -0.33333333 -0.33333333  0.44444444       0.025
 
 position of ions in fractional coordinates (direct lattice) 
   0.00235237  0.74797538  0.50000008
   0.25168707  0.49795641  0.50000054
   0.49536106  0.74849470  0.49999998
   0.00282551  0.00465719  0.99999999
   0.74671111  0.75395303  0.00000002
   0.74936403  0.49887143  0.49999981
   0.50109359  0.00247621  0.99999974
   0.74957305  0.24792516  0.00000005
   0.00682367  0.49688664  0.00000069
   0.24425287  0.75065063  0.00000004
   0.00049323  0.25521756  0.49999982
   0.25190937  0.24423520  0.99999993
   0.49777075  0.48811490  0.99999999
   0.25457344  0.00269343  0.49999926
   0.48869376  0.25382323  0.49999989
   0.75651514  0.00606892  0.50000018
 
 position of ions in cartesian coordinates  (Angst):
  -5.32523954  1.78667024  3.57217052
  -1.75885563  1.78422592  3.56972784
  -1.80788047  3.54905895  5.33455887
  -0.01308184 -1.75877927  1.81222069
  -0.05172175  5.35887162  5.35887170
   1.78901817  3.56469918  5.35019849
   3.56112533  0.01274820  3.58374729
   3.58276920  3.56206600  3.56206618
  -3.50002977  1.79874827  1.79875074
  -3.61669280  3.55280030  3.55280044
  -1.81924120  0.02039354  1.80589289
   0.05480894 -0.01376761  3.55723213
   0.06896206  1.73509768  5.30609765
   1.79892707  0.02595130  1.81144866
   1.67744535  1.75877835  3.54427794
   5.35968691  1.83043732  3.61593798
 


--------------------------------------------------------------------------------------------------------


 k-point  1 :   0.0000 0.0000 0.0000  plane waves:    4905
 k-point  2 :   0.3333 0.0000 0.0000  plane waves:    4928
 k-point  3 :   0.0000 0.3333 0.0000  plane waves:    4928
 k-point  4 :   0.3333 0.3333 0.0000  plane waves:    4929
 k-point  5 :  -0.3333 0.3333 0.0000  plane waves:    4918
 k-point  6 :   0.0000 0.0000 0.1111  plane waves:    4903
 k-point  7 :   0.3333 0.0000 0.1111  plane waves:    4919
 k-point  8 :  -0.3333 0.0000 0.1111  plane waves:    4919
 k-point  9 :   0.0000 0.3333 0.1111  plane waves:    4919
 k-point 10 :   0.3333 0.3333 0.1111  plane waves:    4921
 k-point 11 :  -0.3333 0.3333 0.1111  plane waves:    4921
 k-point 12 :   0.0000-0.3333 0.1111  plane waves:    4919
 k-point 13 :   0.3333-0.3333 0.1111  plane waves:    4921
 k-point 14 :  -0.3333-0.3333 0.1111  plane waves:    4921
 k-point 15 :   0.0000 0.0000 0.2222  plane waves:    4911
 k-point 16 :   0.3333 0.0000 0.2222  plane waves:    4902
 k-point 17 :  -0.3333 0.0000 0.2222  plane waves:    4902
 k-point 18 :   0.0000 0.3333 0.2222  plane waves:    4902
 k-point 19 :   0.3333 0.3333 0.2222  plane waves:    4905
 k-point 20 :  -0.3333 0.3333 0.2222  plane waves:    4899
 k-point 21 :   0.0000-0.3333 0.2222  plane waves:    4902
 k-point 22 :   0.3333-0.3333 0.2222  plane waves:    4899
 k-point 23 :  -0.3333-0.3333 0.2222  plane waves:    4905
 k-point 24 :   0.0000 0.0000 0.3333  plane waves:    4928
 k-point 25 :   0.3333 0.0000 0.3333  plane waves:    4907
 k-point 26 :  -0.3333 0.0000 0.3333  plane waves:    4907
 k-point 27 :   0.0000 0.3333 0.3333  plane waves:    4907
 k-point 28 :   0.3333 0.3333 0.3333  plane waves:    4881
 k-point 29 :  -0.3333 0.3333 0.3333  plane waves:    4900
 k-point 30 :   0.0000-0.3333 0.3333  plane waves:    4907
 k-point 31 :   0.3333-0.3333 0.3333  plane waves:    4900
 k-point 32 :  -0.3333-0.3333 0.3333  plane waves:    4881
 k-point 33 :   0.0000 0.0000 0.4444  plane waves:    4914
 k-point 34 :   0.3333 0.0000 0.4444  plane waves:    4904
 k-point 35 :  -0.3333 0.0000 0.4444  plane waves:    4904
 k-point 36 :   0.0000 0.3333 0.4444  plane waves:    4904
 k-point 37 :   0.3333 0.3333 0.4444  plane waves:    4906
 k-point 38 :  -0.3333 0.3333 0.4444  plane waves:    4895
 k-point 39 :   0.0000-0.3333 0.4444  plane waves:    4904
 k-point 40 :   0.3333-0.3333 0.4444  plane waves:    4895
 k-point 41 :  -0.3333-0.3333 0.4444  plane waves:    4906

 maximum and minimum number of plane-waves per node :       666      584

 maximum number of plane-waves:      4929
 maximum index in each direction: 
   IXMAX=   16   IYMAX=   16   IZMAX=    4
   IXMIN=  -16   IYMIN=  -16   IZMIN=   -5


 real space projection operators:
  total allocation   :      16309.55 KBytes
  max/ min on nodes  :       2149.45       1818.70


 parallel 3D FFT for wavefunctions:
    minimum data exchange during FFTs selected (reduces bandwidth)
 parallel 3D FFT for charge:
    minimum data exchange during FFTs selected (reduces bandwidth)


 total amount of memory used by VASP MPI-rank0    69382. kBytes
=======================================================================

   base      :      30000. kBytes
   nonlr-proj:       4769. kBytes
   fftplans  :       1555. kBytes
   grid      :       3823. kBytes
   one-center:         62. kBytes
   wavefun   :      29173. kBytes
 
     INWAV:  cpu time    0.0000: real time    0.0002
 Broyden mixing: mesh for mixing (old mesh)
   NGX = 33   NGY = 33   NGZ =  9
  (NGX  =140   NGY  =140   NGZ  = 40)
  gives a total of   9801 points

 initial charge density was supplied:
 charge density of overlapping atoms calculated
 number of electron     144.0000000 magnetization      32.0000000
 keeping initial charge density in first step


--------------------------------------------------------------------------------------------------------


 Maximum index for non-local projection operator         1109
 Maximum index for augmentation-charges          830 (set IRDMAX)


--------------------------------------------------------------------------------------------------------


 First call to EWALD:  gamma=   0.313
 Maximum number of real-space cells 2x 2x 6
 Maximum number of reciprocal cells 4x 4x 1

    FEWALD:  cpu time    0.0020: real time    0.0014


--------------------------------------- Iteration      1(   1)  ---------------------------------------


    POTLOK:  cpu time    0.0470: real time    0.0510
    SETDIJ:  cpu time    0.0100: real time    0.0102
     EDDAV:  cpu time   10.9633: real time   10.9921
       DOS:  cpu time    0.0100: real time    0.0113
    --------------------------------------------
      LOOP:  cpu time   11.0303: real time   11.0646

 eigenvalue-minimisations  : 16728
 total energy-change (2. order) : 0.1245279E+04  (-0.5924879E+04)
 number of electron     144.0000000 magnetization      32.0000000
 augmentation part      144.0000000 magnetization      32.0000000

 Free energy of the ion-electron system (eV)
  ---------------------------------------------------
  alpha Z        PSCENC =       868.92678499
  Ewald energy   TEWEN  =    -12039.81029710
  -Hartree energ DENC   =     -2998.59809317
  -exchange      EXHF   =         0.00000000
  -V(xc)+E(xc)   XCENC  =       293.58121721
  PAW double counting   =     12132.73952366   -12729.24799506
  entropy T*S    EENTRO =        -0.00277216
  eigenvalues    EBANDS =      2341.82194841
  atomic energy  EATOM  =     13375.86880085
  Solvation  Ediel_sol  =         0.00000000
  ---------------------------------------------------
  free energy    TOTEN  =      1245.27911764 eV

  energy without entropy =     1245.28188979  energy(sigma->0) =     1245.28004169


--------------------------------------------------------------------------------------------------------




--------------------------------------- Iteration      1(   2)  ---------------------------------------


     EDDAV:  cpu time   10.8194: real time   10.9621
       DOS:  cpu time    0.0120: real time    0.0115
    --------------------------------------------
      LOOP:  cpu time   10.8314: real time   10.9737

 eigenvalue-minimisations  : 16728
 total energy-change (2. order) :-0.1222242E+04  (-0.1159008E+04)
 number of electron     144.0000000 magnetization      32.0000000
 augmentation part      144.0000000 magnetization      32.0000000

 Free energy of the ion-electron system (eV)
  ---------------------------------------------------
  alpha Z        PSCENC =       868.92678499
  Ewald energy   TEWEN  =    -12039.81029710
  -Hartree energ DENC   =     -2998.59809317
  -exchange      EXHF   =         0.00000000
  -V(xc)+E(xc)   XCENC  =       293.58121721
  PAW double counting   =     12132.73952366   -12729.24799506
  entropy T*S    EENTRO =         0.00456982
  eigenvalues    EBANDS =      1119.57266920
  atomic energy  EATOM  =     13375.86880085
  Solvation  Ediel_sol  =         0.00000000
  ---------------------------------------------------
  free energy    TOTEN  =        23.03718040 eV

  energy without entropy =       23.03261058  energy(sigma->0) =       23.03565713


--------------------------------------------------------------------------------------------------------




--------------------------------------- Iteration      1(   3)  ---------------------------------------


     EDDAV:  cpu time   10.9643: real time   11.1619
       DOS:  cpu time    0.0140: real time    0.0135
    --------------------------------------------
      LOOP:  cpu time   10.9783: real time   11.1754

 eigenvalue-minimisations  : 16731
 total energy-change (2. order) :-0.1429592E+03  (-0.1184981E+03)
 number of electron     144.0000000 magnetization      32.0000000
 augmentation part      144.0000000 magnetization      32.0000000

 Free energy of the ion-electron system (eV)
  ---------------------------------------------------
  alpha Z        PSCENC =       868.92678499
  Ewald energy   TEWEN  =    -12039.81029710
  -Hartree energ DENC   =     -2998.59809317
  -exchange      EXHF   =         0.00000000
  -V(xc)+E(xc)   XCENC  =       293.58121721
  PAW double counting   =     12132.73952366   -12729.24799506
  entropy T*S    EENTRO =         0.00379634
  eigenvalues    EBANDS =       976.61419423
  atomic energy  EATOM  =     13375.86880085
  Solvation  Ediel_sol  =         0.00000000
  ---------------------------------------------------
  free energy    TOTEN  =      -119.92206804 eV

  energy without entropy =     -119.92586438  energy(sigma->0) =     -119.92333349


--------------------------------------------------------------------------------------------------------




--------------------------------------- Iteration      1(   4)  ---------------------------------------


     EDDAV:  cpu time   11.6932: real time   11.8309
       DOS:  cpu time    0.0140: real time    0.0138
    --------------------------------------------
      LOOP:  cpu time   11.7072: real time   11.8447

 eigenvalue-minimisations  : 18258
 total energy-change (2. order) :-0.5238683E+01  (-0.5131128E+01)
 number of electron     144.0000000 magnetization      32.0000000
 augmentation part      144.0000000 magnetization      32.0000000

 Free energy of the ion-electron system (eV)
  ---------------------------------------------------
  alpha Z        PSCENC =       868.92678499
  Ewald energy   TEWEN  =    -12039.81029710
  -Hartree energ DENC   =     -2998.59809317
  -exchange      EXHF   =         0.00000000
  -V(xc)+E(xc)   XCENC  =       293.58121721
  PAW double counting   =     12132.73952366   -12729.24799506
  entropy T*S    EENTRO =         0.00534623
  eigenvalues    EBANDS =       971.37396163
  atomic energy  EATOM  =     13375.86880085
  Solvation  Ediel_sol  =         0.00000000
  ---------------------------------------------------
  free energy    TOTEN  =      -125.16075075 eV

  energy without entropy =     -125.16609699  energy(sigma->0) =     -125.16253283


--------------------------------------------------------------------------------------------------------




--------------------------------------- Iteration      1(   5)  ---------------------------------------


     EDDAV:  cpu time   14.6688: real time   14.8777
       DOS:  cpu time    0.0130: real time    0.0137
    CHARGE:  cpu time    0.4879: real time    0.4908
    MIXING:  cpu time    0.0020: real time    0.0013
    --------------------------------------------
      LOOP:  cpu time   15.1717: real time   15.3837

 eigenvalue-minimisations  : 24237
 total energy-change (2. order) :-0.8937781E-01  (-0.8930718E-01)
 number of electron     144.0000011 magnetization      27.6973268
 augmentation part       73.6264622 magnetization      21.5874472

 Broyden mixing:
  rms(total) = 0.43308E+01    rms(broyden)= 0.43307E+01
  rms(prec ) = 0.55116E+01
  weight for this iteration     100.00

 Free energy of the ion-electron system (eV)
  ---------------------------------------------------
  alpha Z        PSCENC =       868.92678499
  Ewald energy   TEWEN  =    -12039.81029710
  -Hartree energ DENC   =     -2998.59809317
  -exchange      EXHF   =         0.00000000
  -V(xc)+E(xc)   XCENC  =       293.58121721
  PAW double counting   =     12132.73952366   -12729.24799506
  entropy T*S    EENTRO =         0.00538701
  eigenvalues    EBANDS =       971.28454304
  atomic energy  EATOM  =     13375.86880085
  Solvation  Ediel_sol  =         0.00000000
  ---------------------------------------------------
  free energy    TOTEN  =      -125.25012856 eV

  energy without entropy =     -125.25551557  energy(sigma->0) =     -125.25192423


--------------------------------------------------------------------------------------------------------




--------------------------------------- Iteration      1(   6)  ---------------------------------------


    POTLOK:  cpu time    0.0440: real time    0.0441
    SETDIJ:  cpu time    0.0090: real time    0.0098
    EDDIAG:  cpu time    1.4558: real time    1.4562
  RMM-DIIS:  cpu time    7.3069: real time    7.3175
    ORTHCH:  cpu time    0.1610: real time    0.1615
       DOS:  cpu time    0.0140: real time    0.0143
    CHARGE:  cpu time    0.4679: real time    0.4684
    MIXING:  cpu time    0.0010: real time    0.0012
    --------------------------------------------
      LOOP:  cpu time    9.4596: real time    9.4731

 eigenvalue-minimisations  : 16728
 total energy-change (2. order) :-0.1374099E+02  (-0.1790563E+02)
 number of electron     144.0000018 magnetization      26.0712524
 augmentation part       86.7157372 magnetization      22.3320885

 Broyden mixing:
  rms(total) = 0.70790E+01    rms(broyden)= 0.70789E+01
  rms(prec ) = 0.12316E+02
  weight for this iteration     100.00

 eigenvalues of (default mixing * dielectric matrix)
  average eigenvalue GAMMA=   0.2659
  0.2659

 Free energy of the ion-electron system (eV)
  ---------------------------------------------------
  alpha Z        PSCENC =       868.92678499
  Ewald energy   TEWEN  =    -12039.81029710
  -Hartree energ DENC   =     -2648.03928651
  -exchange      EXHF   =         0.00000000
  -V(xc)+E(xc)   XCENC  =       275.26037830
  PAW double counting   =     12998.24185040   -13536.54464972
  entropy T*S    EENTRO =         0.00219372
  eigenvalues    EBANDS =       567.10310231
  atomic energy  EATOM  =     13375.86880085
  Solvation  Ediel_sol  =         0.00000000
  ---------------------------------------------------
  free energy    TOTEN  =      -138.99112277 eV

  energy without entropy =     -138.99331649  energy(sigma->0) =     -138.99185401


--------------------------------------------------------------------------------------------------------




--------------------------------------- Iteration      1(   7)  ---------------------------------------


    POTLOK:  cpu time    0.0440: real time    0.0442
    SETDIJ:  cpu time    0.0100: real time    0.0099
    EDDIAG:  cpu time    1.4598: real time    1.4618
  RMM-DIIS:  cpu time    7.2699: real time    7.2797
    ORTHCH:  cpu time    0.1590: real time    0.1603
       DOS:  cpu time    0.0150: real time    0.0141
    CHARGE:  cpu time    0.4609: real time    0.4605
    MIXING:  cpu time    0.0010: real time    0.0011
    --------------------------------------------
      LOOP:  cpu time    9.4196: real time    9.4315

 eigenvalue-minimisations  : 16728
 total energy-change (2. order) : 0.6290927E+01  (-0.5111031E+01)
 number of electron     144.0000008 magnetization      23.5307833
 augmentation part       85.1678544 magnetization      19.8535297

 Broyden mixing:
  rms(total) = 0.64454E+01    rms(broyden)= 0.64453E+01
  rms(prec ) = 0.11161E+02
  weight for this iteration     100.00

 eigenvalues of (default mixing * dielectric matrix)
  average eigenvalue GAMMA=   0.2544
  0.3804  0.1284

 Free energy of the ion-electron system (eV)
  ---------------------------------------------------
  alpha Z        PSCENC =       868.92678499
  Ewald energy   TEWEN  =    -12039.81029710
  -Hartree energ DENC   =     -2699.75264198
  -exchange      EXHF   =         0.00000000
  -V(xc)+E(xc)   XCENC  =       276.46977153
  PAW double counting   =     13247.66297277   -13809.19140871
  entropy T*S    EENTRO =         0.00080182
  eigenvalues    EBANDS =       647.12501996
  atomic energy  EATOM  =     13375.86880085
  Solvation  Ediel_sol  =         0.00000000
  ---------------------------------------------------
  free energy    TOTEN  =      -132.70019586 eV

  energy without entropy =     -132.70099768  energy(sigma->0) =     -132.70046313


--------------------------------------------------------------------------------------------------------




--------------------------------------- Iteration      1(   8)  ---------------------------------------


    POTLOK:  cpu time    0.0430: real time    0.0440
    SETDIJ:  cpu time    0.0110: real time    0.0098
    EDDIAG:  cpu time    1.4508: real time    1.4578
  RMM-DIIS:  cpu time    7.3319: real time    7.3408
    ORTHCH:  cpu time    0.1600: real time    0.1602
       DOS:  cpu time    0.0140: real time    0.0146
    CHARGE:  cpu time    0.4849: real time    0.4842
    MIXING:  cpu time    0.0010: real time    0.0013
    --------------------------------------------
      LOOP:  cpu time    9.4966: real time    9.5127

 eigenvalue-minimisations  : 16728
 total energy-change (2. order) : 0.5713062E+01  (-0.2891298E+01)
 number of electron     144.0000009 magnetization      22.0073343
 augmentation part       81.8934914 magnetization      18.4249198

 Broyden mixing:
  rms(total) = 0.66310E+01    rms(broyden)= 0.66309E+01
  rms(prec ) = 0.11601E+02
  weight for this iteration     100.00

 eigenvalues of (default mixing * dielectric matrix)
  average eigenvalue GAMMA=   0.2699
  0.4661  0.2231  0.1206

 Free energy of the ion-electron system (eV)
  ---------------------------------------------------
  alpha Z        PSCENC =       868.92678499
  Ewald energy   TEWEN  =    -12039.81029710
  -Hartree energ DENC   =     -2744.05806524
  -exchange      EXHF   =         0.00000000
  -V(xc)+E(xc)   XCENC  =       277.39495150
  PAW double counting   =     13602.89621652   -14190.25055551
  entropy T*S    EENTRO =        -0.00463658
  eigenvalues    EBANDS =       722.04966672
  atomic energy  EATOM  =     13375.86880085
  Solvation  Ediel_sol  =         0.00000000
  ---------------------------------------------------
  free energy    TOTEN  =      -126.98713384 eV

  energy without entropy =     -126.98249726  energy(sigma->0) =     -126.98558832


--------------------------------------------------------------------------------------------------------




--------------------------------------- Iteration      1(   9)  ---------------------------------------


    POTLOK:  cpu time    0.0440: real time    0.0439
    SETDIJ:  cpu time    0.0100: real time    0.0099
    EDDIAG:  cpu time    1.4268: real time    1.4286
  RMM-DIIS:  cpu time    7.4089: real time    7.4247
    ORTHCH:  cpu time    0.1610: real time    0.1621
       DOS:  cpu time    0.0150: real time    0.0141
    CHARGE:  cpu time    0.4679: real time    0.4690
    MIXING:  cpu time    0.0010: real time    0.0012
    --------------------------------------------
      LOOP:  cpu time    9.5345: real time    9.5535

 eigenvalue-minimisations  : 16728
 total energy-change (2. order) : 0.1510994E+02  (-0.1430503E+01)
 number of electron     144.0000013 magnetization      21.1759709
 augmentation part       81.9071446 magnetization      16.6377268

 Broyden mixing:
  rms(total) = 0.27271E+01    rms(broyden)= 0.27270E+01
  rms(prec ) = 0.44484E+01
  weight for this iteration     100.00

 eigenvalues of (default mixing * dielectric matrix)
  average eigenvalue GAMMA=   0.3857
  0.7850  0.5323  0.1129  0.1129

 Free energy of the ion-electron system (eV)
  ---------------------------------------------------
  alpha Z        PSCENC =       868.92678499
  Ewald energy   TEWEN  =    -12039.81029710
  -Hartree energ DENC   =     -2736.24051372
  -exchange      EXHF   =         0.00000000
  -V(xc)+E(xc)   XCENC  =       276.65770346
  PAW double counting   =     13781.94531593   -14376.27087585
  entropy T*S    EENTRO =        -0.01372442
  eigenvalues    EBANDS =       737.05961042
  atomic energy  EATOM  =     13375.86880085
  Solvation  Ediel_sol  =         0.00000000
  ---------------------------------------------------
  free energy    TOTEN  =      -111.87719545 eV

  energy without entropy =     -111.86347102  energy(sigma->0) =     -111.87262064


--------------------------------------------------------------------------------------------------------




--------------------------------------- Iteration      1(  10)  ---------------------------------------


    POTLOK:  cpu time    0.0440: real time    0.0446
    SETDIJ:  cpu time    0.0100: real time    0.0099
    EDDIAG:  cpu time    1.4698: real time    1.4755
  RMM-DIIS:  cpu time    7.4249: real time    7.4995
    ORTHCH:  cpu time    0.1620: real time    0.1632
       DOS:  cpu time    0.0140: real time    0.0142
    CHARGE:  cpu time    0.4719: real time    0.4746
    MIXING:  cpu time    0.0010: real time    0.0012
    --------------------------------------------
      LOOP:  cpu time    9.5975: real time    9.6828

 eigenvalue-minimisations  : 16728
 total energy-change (2. order) :-0.4774487E+01  (-0.1141648E+01)
 number of electron     144.0000013 magnetization      19.3799070
 augmentation part       82.4954588 magnetization      16.1061939

 Broyden mixing:
  rms(total) = 0.41577E+01    rms(broyden)= 0.41576E+01
  rms(prec ) = 0.69452E+01
  weight for this iteration     100.00

 eigenvalues of (default mixing * dielectric matrix)
  average eigenvalue GAMMA=   0.4042
  1.0955  0.5740  0.1168  0.1168  0.1180

 Free energy of the ion-electron system (eV)
  ---------------------------------------------------
  alpha Z        PSCENC =       868.92678499
  Ewald energy   TEWEN  =    -12039.81029710
  -Hartree energ DENC   =     -2720.53410762
  -exchange      EXHF   =         0.00000000
  -V(xc)+E(xc)   XCENC  =       276.23028940
  PAW double counting   =     13923.93741316   -14521.04482481
  entropy T*S    EENTRO =        -0.00245786
  eigenvalues    EBANDS =       719.77671698
  atomic energy  EATOM  =     13375.86880085
  Solvation  Ediel_sol  =         0.00000000
  ---------------------------------------------------
  free energy    TOTEN  =      -116.65168200 eV

  energy without entropy =     -116.64922414  energy(sigma->0) =     -116.65086271


--------------------------------------------------------------------------------------------------------




--------------------------------------- Iteration      1(  11)  ---------------------------------------


    POTLOK:  cpu time    0.0450: real time    0.0458
    SETDIJ:  cpu time    0.0110: real time    0.0100
    EDDIAG:  cpu time    1.4748: real time    1.4808
  RMM-DIIS:  cpu time    7.4489: real time    7.5096
    ORTHCH:  cpu time    0.1620: real time    0.1639
       DOS:  cpu time    0.0150: real time    0.0140
    CHARGE:  cpu time    0.4719: real time    0.4735
    MIXING:  cpu time    0.0020: real time    0.0013
    --------------------------------------------
      LOOP:  cpu time    9.6305: real time    9.6989

 eigenvalue-minimisations  : 16728
 total energy-change (2. order) : 0.8967675E+00  (-0.5434179E+00)
 number of electron     144.0000012 magnetization      18.5735576
 augmentation part       82.7686444 magnetization      14.8931885

 Broyden mixing:
  rms(total) = 0.38966E+01    rms(broyden)= 0.38965E+01
  rms(prec ) = 0.73012E+01
  weight for this iteration     100.00

 eigenvalues of (default mixing * dielectric matrix)
  average eigenvalue GAMMA=   0.3629
  1.1240  0.5891  0.1357  0.1357  0.0964  0.0964

 Free energy of the ion-electron system (eV)
  ---------------------------------------------------
  alpha Z        PSCENC =       868.92678499
  Ewald energy   TEWEN  =    -12039.81029710
  -Hartree energ DENC   =     -2711.21910399
  -exchange      EXHF   =         0.00000000
  -V(xc)+E(xc)   XCENC  =       275.72133419
  PAW double counting   =     14151.30863591   -14756.31230370
  entropy T*S    EENTRO =         0.00210563
  eigenvalues    EBANDS =       719.75912873
  atomic energy  EATOM  =     13375.86880085
  Solvation  Ediel_sol  =         0.00000000
  ---------------------------------------------------
  free energy    TOTEN  =      -115.75491448 eV

  energy without entropy =     -115.75702011  energy(sigma->0) =     -115.75561635


--------------------------------------------------------------------------------------------------------




--------------------------------------- Iteration      1(  12)  ---------------------------------------


    POTLOK:  cpu time    0.0440: real time    0.0447
    SETDIJ:  cpu time    0.0100: real time    0.0100
    EDDIAG:  cpu time    1.5348: real time    1.5415
  RMM-DIIS:  cpu time    7.4139: real time    7.4569
    ORTHCH:  cpu time    0.1610: real time    0.1618
       DOS:  cpu time    0.0140: real time    0.0141
    CHARGE:  cpu time    0.4769: real time    0.4786
    MIXING:  cpu time    0.0020: real time    0.0014
    --------------------------------------------
      LOOP:  cpu time    9.6565: real time    9.7091

 eigenvalue-minimisations  : 16728
 total energy-change (2. order) : 0.7139157E+01  (-0.2584336E+00)
 number of electron     144.0000013 magnetization      18.4121963
 augmentation part       82.3899588 magnetization      14.7536117

 Broyden mixing:
  rms(total) = 0.13181E+01    rms(broyden)= 0.13180E+01
  rms(prec ) = 0.23093E+01
  weight for this iteration     100.00

 eigenvalues of (default mixing * dielectric matrix)
  average eigenvalue GAMMA=   0.3852
  1.2488  0.4896  0.4896  0.1660  0.1108  0.1108  0.0812

 Free energy of the ion-electron system (eV)
  ---------------------------------------------------
  alpha Z        PSCENC =       868.92678499
  Ewald energy   TEWEN  =    -12039.81029710
  -Hartree energ DENC   =     -2713.83563292
  -exchange      EXHF   =         0.00000000
  -V(xc)+E(xc)   XCENC  =       275.68095562
  PAW double counting   =     14250.96758206   -14860.65657205
  entropy T*S    EENTRO =        -0.00904244
  eigenvalues    EBANDS =       734.25166334
  atomic energy  EATOM  =     13375.86880085
  Solvation  Ediel_sol  =         0.00000000
  ---------------------------------------------------
  free energy    TOTEN  =      -108.61575764 eV

  energy without entropy =     -108.60671521  energy(sigma->0) =     -108.61274350


--------------------------------------------------------------------------------------------------------




--------------------------------------- Iteration      1(  13)  ---------------------------------------


    POTLOK:  cpu time    0.0440: real time    0.0445
    SETDIJ:  cpu time    0.0100: real time    0.0100
    EDDIAG:  cpu time    1.4598: real time    1.4646
  RMM-DIIS:  cpu time    7.4779: real time    7.5171
    ORTHCH:  cpu time    0.1640: real time    0.1644
       DOS:  cpu time    0.0140: real time    0.0141
    CHARGE:  cpu time    0.4659: real time    0.4665
    MIXING:  cpu time    0.0010: real time    0.0014
    --------------------------------------------
      LOOP:  cpu time    9.6365: real time    9.6825

 eigenvalue-minimisations  : 16728
 total energy-change (2. order) :-0.3801497E+00  (-0.1123543E+00)
 number of electron     144.0000013 magnetization      18.4232237
 augmentation part       82.3322007 magnetization      14.9082845

 Broyden mixing:
  rms(total) = 0.15875E+01    rms(broyden)= 0.15875E+01
  rms(prec ) = 0.26715E+01
  weight for this iteration     100.00

 eigenvalues of (default mixing * dielectric matrix)
  average eigenvalue GAMMA=   0.3548
  1.2713  0.5003  0.5003  0.1602  0.1100  0.1100  0.0933  0.0933

 Free energy of the ion-electron system (eV)
  ---------------------------------------------------
  alpha Z        PSCENC =       868.92678499
  Ewald energy   TEWEN  =    -12039.81029710
  -Hartree energ DENC   =     -2714.05675869
  -exchange      EXHF   =         0.00000000
  -V(xc)+E(xc)   XCENC  =       276.03529529
  PAW double counting   =     14312.69770522   -14924.29754966
  entropy T*S    EENTRO =         0.00737691
  eigenvalues    EBANDS =       735.63273482
  atomic energy  EATOM  =     13375.86880085
  Solvation  Ediel_sol  =         0.00000000
  ---------------------------------------------------
  free energy    TOTEN  =      -108.99590737 eV

  energy without entropy =     -109.00328428  energy(sigma->0) =     -108.99836634


--------------------------------------------------------------------------------------------------------




--------------------------------------- Iteration      1(  14)  ---------------------------------------


    POTLOK:  cpu time    0.0650: real time    0.0651
    SETDIJ:  cpu time    0.0100: real time    0.0099
    EDDIAG:  cpu time    1.4688: real time    1.4713
  RMM-DIIS:  cpu time    7.3169: real time    7.3329
    ORTHCH:  cpu time    0.1600: real time    0.1610
       DOS:  cpu time    0.0140: real time    0.0137
    CHARGE:  cpu time    0.4649: real time    0.4655
    MIXING:  cpu time    0.0020: real time    0.0015
    --------------------------------------------
      LOOP:  cpu time    9.5016: real time    9.5209

 eigenvalue-minimisations  : 16728
 total energy-change (2. order) : 0.6135403E+00  (-0.3415762E-01)
 number of electron     144.0000013 magnetization      18.5251812
 augmentation part       82.3234724 magnetization      14.9248314

 Broyden mixing:
  rms(total) = 0.87869E+00    rms(broyden)= 0.87865E+00
  rms(prec ) = 0.12108E+01
  weight for this iteration     100.00

 eigenvalues of (default mixing * dielectric matrix)
  average eigenvalue GAMMA=   0.3451
  1.2597  0.4885  0.4885  0.2343  0.2197  0.1136  0.1136  0.1070  0.0808

 Free energy of the ion-electron system (eV)
  ---------------------------------------------------
  alpha Z        PSCENC =       868.92678499
  Ewald energy   TEWEN  =    -12039.81029710
  -Hartree energ DENC   =     -2713.16973118
  -exchange      EXHF   =         0.00000000
  -V(xc)+E(xc)   XCENC  =       276.28417919
  PAW double counting   =     14348.30636699   -14960.68048838
  entropy T*S    EENTRO =         0.00790667
  eigenvalues    EBANDS =       735.88411083
  atomic energy  EATOM  =     13375.86880085
  Solvation  Ediel_sol  =         0.00000000
  ---------------------------------------------------
  free energy    TOTEN  =      -108.38236712 eV

  energy without entropy =     -108.39027379  energy(sigma->0) =     -108.38500267


--------------------------------------------------------------------------------------------------------




--------------------------------------- Iteration      1(  15)  ---------------------------------------


    POTLOK:  cpu time    0.0440: real time    0.0441
    SETDIJ:  cpu time    0.0100: real time    0.0099
    EDDIAG:  cpu time    1.4608: real time    1.4622
  RMM-DIIS:  cpu time    7.3419: real time    7.3646
    ORTHCH:  cpu time    0.1660: real time    0.1668
       DOS:  cpu time    0.0150: real time    0.0143
    CHARGE:  cpu time    0.4729: real time    0.4732
    MIXING:  cpu time    0.0010: real time    0.0015
    --------------------------------------------
      LOOP:  cpu time    9.5116: real time    9.5367

 eigenvalue-minimisations  : 16728
 total energy-change (2. order) : 0.3358733E-01  (-0.7086474E-02)
 number of electron     144.0000012 magnetization      18.9031565
 augmentation part       82.3049972 magnetization      15.3573223

 Broyden mixing:
  rms(total) = 0.77726E+00    rms(broyden)= 0.77725E+00
  rms(prec ) = 0.99280E+00
  weight for this iteration     100.00

 eigenvalues of (default mixing * dielectric matrix)
  average eigenvalue GAMMA=   0.3520
  1.2528  0.5942  0.5942  0.3806  0.1882  0.1109  0.1109  0.1233  0.0823  0.0823

 Free energy of the ion-electron system (eV)
  ---------------------------------------------------
  alpha Z        PSCENC =       868.92678499
  Ewald energy   TEWEN  =    -12039.81029710
  -Hartree energ DENC   =     -2713.22672322
  -exchange      EXHF   =         0.00000000
  -V(xc)+E(xc)   XCENC  =       276.44370589
  PAW double counting   =     14359.64957636   -14972.35850512
  entropy T*S    EENTRO =         0.01256130
  eigenvalues    EBANDS =       736.14531624
  atomic energy  EATOM  =     13375.86880085
  Solvation  Ediel_sol  =         0.00000000
  ---------------------------------------------------
  free energy    TOTEN  =      -108.34877979 eV

  energy without entropy =     -108.36134109  energy(sigma->0) =     -108.35296689


--------------------------------------------------------------------------------------------------------




--------------------------------------- Iteration      1(  16)  ---------------------------------------


    POTLOK:  cpu time    0.0440: real time    0.0444
    SETDIJ:  cpu time    0.0100: real time    0.0099
    EDDIAG:  cpu time    1.4588: real time    1.4611
  RMM-DIIS:  cpu time    7.3159: real time    7.3280
    ORTHCH:  cpu time    0.1620: real time    0.1621
       DOS:  cpu time    0.0140: real time    0.0143
    CHARGE:  cpu time    0.4839: real time    0.4844
    MIXING:  cpu time    0.0020: real time    0.0016
    --------------------------------------------
      LOOP:  cpu time    9.4906: real time    9.5058

 eigenvalue-minimisations  : 16728
 total energy-change (2. order) :-0.1491456E+00  (-0.6983049E-02)
 number of electron     144.0000013 magnetization      19.1499142
 augmentation part       82.3375347 magnetization      15.6223620

 Broyden mixing:
  rms(total) = 0.74952E+00    rms(broyden)= 0.74951E+00
  rms(prec ) = 0.99418E+00
  weight for this iteration     100.00

 eigenvalues of (default mixing * dielectric matrix)
  average eigenvalue GAMMA=   0.3698
  1.2485  0.6917  0.6917  0.3823  0.3823  0.1669  0.1129  0.1129  0.1142  0.0850
  0.0789

 Free energy of the ion-electron system (eV)
  ---------------------------------------------------
  alpha Z        PSCENC =       868.92678499
  Ewald energy   TEWEN  =    -12039.81029710
  -Hartree energ DENC   =     -2712.40236447
  -exchange      EXHF   =         0.00000000
  -V(xc)+E(xc)   XCENC  =       276.89440008
  PAW double counting   =     14392.13711243   -15005.56064879
  entropy T*S    EENTRO =         0.01469811
  eigenvalues    EBANDS =       735.43358850
  atomic energy  EATOM  =     13375.86880085
  Solvation  Ediel_sol  =         0.00000000
  ---------------------------------------------------
  free energy    TOTEN  =      -108.49792539 eV

  energy without entropy =     -108.51262350  energy(sigma->0) =     -108.50282476


--------------------------------------------------------------------------------------------------------




--------------------------------------- Iteration      1(  17)  ---------------------------------------


    POTLOK:  cpu time    0.0430: real time    0.0441
    SETDIJ:  cpu time    0.0110: real time    0.0098
    EDDIAG:  cpu time    1.4518: real time    1.4526
  RMM-DIIS:  cpu time    7.4379: real time    7.4458
    ORTHCH:  cpu time    0.1620: real time    0.1613
       DOS:  cpu time    0.0140: real time    0.0139
    CHARGE:  cpu time    0.4619: real time    0.4626
    MIXING:  cpu time    0.0020: real time    0.0016
    --------------------------------------------
      LOOP:  cpu time    9.5835: real time    9.5918

 eigenvalue-minimisations  : 16728
 total energy-change (2. order) :-0.5801005E-01  (-0.5628737E-02)
 number of electron     144.0000013 magnetization      19.8771924
 augmentation part       82.3518087 magnetization      16.3475467

 Broyden mixing:
  rms(total) = 0.71275E+00    rms(broyden)= 0.71274E+00
  rms(prec ) = 0.92193E+00
  weight for this iteration     100.00

 eigenvalues of (default mixing * dielectric matrix)
  average eigenvalue GAMMA=   0.4122
  1.2511  0.9637  0.9637  0.4793  0.4793  0.1630  0.1131  0.1131  0.1429  0.1146
  0.0813  0.0813

 Free energy of the ion-electron system (eV)
  ---------------------------------------------------
  alpha Z        PSCENC =       868.92678499
  Ewald energy   TEWEN  =    -12039.81029710
  -Hartree energ DENC   =     -2711.91356846
  -exchange      EXHF   =         0.00000000
  -V(xc)+E(xc)   XCENC  =       277.13073061
  PAW double counting   =     14411.27429073   -15025.08580877
  entropy T*S    EENTRO =         0.01549292
  eigenvalues    EBANDS =       735.03763879
  atomic energy  EATOM  =     13375.86880085
  Solvation  Ediel_sol  =         0.00000000
  ---------------------------------------------------
  free energy    TOTEN  =      -108.55593544 eV

  energy without entropy =     -108.57142836  energy(sigma->0) =     -108.56109975


--------------------------------------------------------------------------------------------------------




--------------------------------------- Iteration      1(  18)  ---------------------------------------


    POTLOK:  cpu time    0.0440: real time    0.0444
    SETDIJ:  cpu time    0.0100: real time    0.0099
    EDDIAG:  cpu time    1.4668: real time    1.4675
  RMM-DIIS:  cpu time    7.4389: real time    7.4473
    ORTHCH:  cpu time    0.1600: real time    0.1615
       DOS:  cpu time    0.0150: real time    0.0144
    CHARGE:  cpu time    0.4649: real time    0.4651
    MIXING:  cpu time    0.0020: real time    0.0018
    --------------------------------------------
      LOOP:  cpu time    9.6015: real time    9.6120

 eigenvalue-minimisations  : 16728
 total energy-change (2. order) :-0.1625017E+00  (-0.8894040E-02)
 number of electron     144.0000013 magnetization      20.2920361
 augmentation part       82.3499908 magnetization      16.7221909

 Broyden mixing:
  rms(total) = 0.66876E+00    rms(broyden)= 0.66875E+00
  rms(prec ) = 0.84909E+00
  weight for this iteration     100.00

 eigenvalues of (default mixing * dielectric matrix)
  average eigenvalue GAMMA=   0.4440
  1.2788  1.1711  1.1711  0.5193  0.5193  0.2949  0.1781  0.1415  0.1126  0.1126
  0.1094  0.0828  0.0800

 Free energy of the ion-electron system (eV)
  ---------------------------------------------------
  alpha Z        PSCENC =       868.92678499
  Ewald energy   TEWEN  =    -12039.81029710
  -Hartree energ DENC   =     -2711.55447272
  -exchange      EXHF   =         0.00000000
  -V(xc)+E(xc)   XCENC  =       277.73492283
  PAW double counting   =     14464.63354885   -15079.70983369
  entropy T*S    EENTRO =         0.00737240
  eigenvalues    EBANDS =       735.18473646
  atomic energy  EATOM  =     13375.86880085
  Solvation  Ediel_sol  =         0.00000000
  ---------------------------------------------------
  free energy    TOTEN  =      -108.71843713 eV

  energy without entropy =     -108.72580953  energy(sigma->0) =     -108.72089460


--------------------------------------------------------------------------------------------------------




--------------------------------------- Iteration      1(  19)  ---------------------------------------


    POTLOK:  cpu time    0.0440: real time    0.0441
    SETDIJ:  cpu time    0.0100: real time    0.0099
    EDDIAG:  cpu time    1.4558: real time    1.4587
  RMM-DIIS:  cpu time    7.3579: real time    7.3699
    ORTHCH:  cpu time    0.1600: real time    0.1603
       DOS:  cpu time    0.0140: real time    0.0145
    CHARGE:  cpu time    0.4839: real time    0.4839
    MIXING:  cpu time    0.0020: real time    0.0019
    --------------------------------------------
      LOOP:  cpu time    9.5276: real time    9.5432

 eigenvalue-minimisations  : 16728
 total energy-change (2. order) :-0.5466897E-01  (-0.8774454E-02)
 number of electron     144.0000013 magnetization      21.6100346
 augmentation part       82.3588702 magnetization      17.9719041

 Broyden mixing:
  rms(total) = 0.63107E+00    rms(broyden)= 0.63106E+00
  rms(prec ) = 0.79583E+00
  weight for this iteration     100.00

 eigenvalues of (default mixing * dielectric matrix)
  average eigenvalue GAMMA=   0.5053
  1.5907  1.5907  1.3199  0.6195  0.6195  0.3949  0.1774  0.1478  0.1127  0.1127
  0.1128  0.1128  0.0826  0.0800

 Free energy of the ion-electron system (eV)
  ---------------------------------------------------
  alpha Z        PSCENC =       868.92678499
  Ewald energy   TEWEN  =    -12039.81029710
  -Hartree energ DENC   =     -2711.34171436
  -exchange      EXHF   =         0.00000000
  -V(xc)+E(xc)   XCENC  =       278.02419618
  PAW double counting   =     14491.56660992   -15107.27645375
  entropy T*S    EENTRO =         0.00508424
  eigenvalues    EBANDS =       735.26388293
  atomic energy  EATOM  =     13375.86880085
  Solvation  Ediel_sol  =         0.00000000
  ---------------------------------------------------
  free energy    TOTEN  =      -108.77310610 eV

  energy without entropy =     -108.77819034  energy(sigma->0) =     -108.77480084


--------------------------------------------------------------------------------------------------------




--------------------------------------- Iteration      1(  20)  ---------------------------------------


    POTLOK:  cpu time    0.0440: real time    0.0443
    SETDIJ:  cpu time    0.0100: real time    0.0099
    EDDIAG:  cpu time    1.4298: real time    1.4295
  RMM-DIIS:  cpu time    7.3869: real time    7.3963
    ORTHCH:  cpu time    0.1620: real time    0.1634
       DOS:  cpu time    0.0150: real time    0.0142
    CHARGE:  cpu time    0.4659: real time    0.4668
    MIXING:  cpu time    0.0020: real time    0.0018
    --------------------------------------------
      LOOP:  cpu time    9.5156: real time    9.5263

 eigenvalue-minimisations  : 16728
 total energy-change (2. order) :-0.1737351E+00  (-0.9420701E-02)
 number of electron     144.0000013 magnetization      22.0214441
 augmentation part       82.3785604 magnetization      18.2390038

 Broyden mixing:
  rms(total) = 0.54527E+00    rms(broyden)= 0.54525E+00
  rms(prec ) = 0.69102E+00
  weight for this iteration     100.00

 eigenvalues of (default mixing * dielectric matrix)
  average eigenvalue GAMMA=   0.5307
  1.7646  1.7646  1.3189  0.6340  0.6340  0.4510  0.4510  0.1690  0.1537  0.1127
  0.1127  0.1226  0.1094  0.0827  0.0800

 Free energy of the ion-electron system (eV)
  ---------------------------------------------------
  alpha Z        PSCENC =       868.92678499
  Ewald energy   TEWEN  =    -12039.81029710
  -Hartree energ DENC   =     -2710.60788571
  -exchange      EXHF   =         0.00000000
  -V(xc)+E(xc)   XCENC  =       278.87673457
  PAW double counting   =     14556.03431968   -15173.09948102
  entropy T*S    EENTRO =         0.00770049
  eigenvalues    EBANDS =       734.85648206
  atomic energy  EATOM  =     13375.86880085
  Solvation  Ediel_sol  =         0.00000000
  ---------------------------------------------------
  free energy    TOTEN  =      -108.94684118 eV

  energy without entropy =     -108.95454167  energy(sigma->0) =     -108.94940801


--------------------------------------------------------------------------------------------------------




--------------------------------------- Iteration      1(  21)  ---------------------------------------


    POTLOK:  cpu time    0.0440: real time    0.0443
    SETDIJ:  cpu time    0.0100: real time    0.0099
    EDDIAG:  cpu time    1.4518: real time    1.4530
  RMM-DIIS:  cpu time    7.3339: real time    7.3427
    ORTHCH:  cpu time    0.1600: real time    0.1607
       DOS:  cpu time    0.0150: real time    0.0142
    CHARGE:  cpu time    0.4639: real time    0.4637
    MIXING:  cpu time    0.0020: real time    0.0019
    --------------------------------------------
      LOOP:  cpu time    9.4806: real time    9.4904

 eigenvalue-minimisations  : 16728
 total energy-change (2. order) :-0.6603633E-01  (-0.7214610E-02)
 number of electron     144.0000013 magnetization      22.7807721
 augmentation part       82.4194377 magnetization      18.9362793

 Broyden mixing:
  rms(total) = 0.55347E+00    rms(broyden)= 0.55346E+00
  rms(prec ) = 0.74357E+00
  weight for this iteration     100.00

 eigenvalues of (default mixing * dielectric matrix)
  average eigenvalue GAMMA=   0.5412
  1.9116  1.9116  1.2976  0.7295  0.7295  0.5062  0.5062  0.1674  0.1549  0.1127
  0.1127  0.0800  0.0827  0.1323  0.1099  0.1140

 Free energy of the ion-electron system (eV)
  ---------------------------------------------------
  alpha Z        PSCENC =       868.92678499
  Ewald energy   TEWEN  =    -12039.81029710
  -Hartree energ DENC   =     -2710.04778089
  -exchange      EXHF   =         0.00000000
  -V(xc)+E(xc)   XCENC  =       279.16525897
  PAW double counting   =     14575.83348236   -15193.23981912
  entropy T*S    EENTRO =         0.01643642
  eigenvalues    EBANDS =       734.27425600
  atomic energy  EATOM  =     13375.86880085
  Solvation  Ediel_sol  =         0.00000000
  ---------------------------------------------------
  free energy    TOTEN  =      -109.01287752 eV

  energy without entropy =     -109.02931394  energy(sigma->0) =     -109.01835632


--------------------------------------------------------------------------------------------------------




--------------------------------------- Iteration      1(  22)  ---------------------------------------


    POTLOK:  cpu time    0.0440: real time    0.0444
    SETDIJ:  cpu time    0.0100: real time    0.0100
    EDDIAG:  cpu time    1.4548: real time    1.4564
  RMM-DIIS:  cpu time    7.3799: real time    7.3935
    ORTHCH:  cpu time    0.1830: real time    0.1829
       DOS:  cpu time    0.0140: real time    0.0141
    CHARGE:  cpu time    0.4669: real time    0.4675
    MIXING:  cpu time    0.0030: real time    0.0022
    --------------------------------------------
      LOOP:  cpu time    9.5555: real time    9.5710

 eigenvalue-minimisations  : 16728
 total energy-change (2. order) :-0.6820740E-01  (-0.5725208E-02)
 number of electron     144.0000013 magnetization      22.9213749
 augmentation part       82.4433592 magnetization      19.0304343

 Broyden mixing:
  rms(total) = 0.46562E+00    rms(broyden)= 0.46562E+00
  rms(prec ) = 0.58505E+00
  weight for this iteration     100.00

 eigenvalues of (default mixing * dielectric matrix)
  average eigenvalue GAMMA=   0.5523
  1.9947  1.9947  1.3014  0.7864  0.7864  0.5462  0.5462  0.3586  0.1735  0.1127
  0.1127  0.1506  0.0800  0.0827  0.1095  0.1233  0.1288

 Free energy of the ion-electron system (eV)
  ---------------------------------------------------
  alpha Z        PSCENC =       868.92678499
  Ewald energy   TEWEN  =    -12039.81029710
  -Hartree energ DENC   =     -2709.45819806
  -exchange      EXHF   =         0.00000000
  -V(xc)+E(xc)   XCENC  =       279.78826603
  PAW double counting   =     14612.36953902   -15230.48857851
  entropy T*S    EENTRO =         0.02214204
  eigenvalues    EBANDS =       733.70045582
  atomic energy  EATOM  =     13375.86880085
  Solvation  Ediel_sol  =         0.00000000
  ---------------------------------------------------
  free energy    TOTEN  =      -109.08108491 eV

  energy without entropy =     -109.10322695  energy(sigma->0) =     -109.08846559


--------------------------------------------------------------------------------------------------------




--------------------------------------- Iteration      1(  23)  ---------------------------------------


    POTLOK:  cpu time    0.0430: real time    0.0443
    SETDIJ:  cpu time    0.0110: real time    0.0100
    EDDIAG:  cpu time    1.4538: real time    1.4574
  RMM-DIIS:  cpu time    7.3739: real time    7.3891
    ORTHCH:  cpu time    0.1600: real time    0.1608
       DOS:  cpu time    0.0150: real time    0.0143
    CHARGE:  cpu time    0.4659: real time    0.4662
    MIXING:  cpu time    0.0020: real time    0.0024
    --------------------------------------------
      LOOP:  cpu time    9.5246: real time    9.5445

 eigenvalue-minimisations  : 16728
 total energy-change (2. order) :-0.1422134E-01  (-0.3998152E-02)
 number of electron     144.0000013 magnetization      23.2578693
 augmentation part       82.4508802 magnetization      19.3489783

 Broyden mixing:
  rms(total) = 0.45039E+00    rms(broyden)= 0.45039E+00
  rms(prec ) = 0.58033E+00
  weight for this iteration     100.00

 eigenvalues of (default mixing * dielectric matrix)
  average eigenvalue GAMMA=   0.6126
  2.3708  2.3708  1.3196  1.0355  1.0355  0.6134  0.6134  0.4477  0.1747  0.1127
  0.1127  0.1526  0.1526  0.0800  0.0827  0.1095  0.1247  0.1173

 Free energy of the ion-electron system (eV)
  ---------------------------------------------------
  alpha Z        PSCENC =       868.92678499
  Ewald energy   TEWEN  =    -12039.81029710
  -Hartree energ DENC   =     -2709.28523442
  -exchange      EXHF   =         0.00000000
  -V(xc)+E(xc)   XCENC  =       279.87613393
  PAW double counting   =     14621.03944645   -15239.33055285
[...]
 total charge-density along one line
 
 pseudopotential strength for first ion, spin component:           1
 -1.958   0.002   0.002  -0.023   0.005  -2.577   0.002   0.002
  0.002  -1.973   0.002   0.002  -0.004   0.002  -2.591   0.002
  0.002   0.002  -1.900  -0.006   0.031   0.002   0.002  -2.521
 -0.023   0.002  -0.006  -1.958   0.001  -0.022   0.002  -0.005
  0.005  -0.004   0.031   0.001  -1.936   0.005  -0.004   0.029
 -2.577   0.002   0.002  -0.022   0.005  -3.127   0.002   0.002
  0.002  -2.591   0.002   0.002  -0.004   0.002  -3.141   0.002
  0.002   0.002  -2.521  -0.005   0.029   0.002   0.002  -3.074
 -0.022   0.002  -0.005  -2.577   0.001  -0.021   0.002  -0.005
  0.005  -0.004   0.029   0.001  -2.555   0.005  -0.004   0.028
  0.000   0.002  -0.002   0.000   0.003   0.000   0.002  -0.002
  0.000   0.004  -0.003   0.000   0.006   0.000   0.004  -0.003
  0.008   0.004   0.000   0.000  -0.002   0.007   0.004   0.000
  0.000   0.004   0.002   0.008  -0.001   0.000   0.004   0.002
  0.001   0.000  -0.004   0.001   0.007   0.001   0.000  -0.004
  0.010   0.005  -0.000   0.000  -0.003   0.009   0.005  -0.000
  0.000   0.005   0.003   0.010  -0.002   0.000   0.005   0.003
  0.002   0.000  -0.005   0.002   0.009   0.002   0.000  -0.005
 pseudopotential strength for first ion, spin component:           2
 -1.347  -0.001  -0.002   0.006  -0.003  -1.995  -0.001  -0.002
 -0.001  -1.314  -0.004  -0.001   0.007  -0.001  -1.963  -0.004
 -0.002  -0.004  -1.337   0.004  -0.004  -0.002  -0.004  -1.985
  0.006  -0.001   0.004  -1.347  -0.000   0.006  -0.001   0.004
 -0.003   0.007  -0.004  -0.000  -1.332  -0.003   0.007  -0.004
 -1.995  -0.001  -0.002   0.006  -0.003  -2.573  -0.001  -0.001
 -0.001  -1.963  -0.004  -0.001   0.007  -0.001  -2.542  -0.004
 -0.002  -0.004  -1.985   0.004  -0.004  -0.001  -0.004  -2.563
  0.006  -0.001   0.004  -1.995  -0.000   0.006  -0.001   0.003
 -0.003   0.007  -0.004  -0.000  -1.981  -0.003   0.007  -0.004
  0.000  -0.001  -0.000   0.000   0.001   0.000  -0.001  -0.000
  0.000  -0.001  -0.001   0.000   0.001   0.000  -0.001  -0.001
  0.003   0.001  -0.001  -0.000  -0.001   0.003   0.001  -0.000
 -0.000   0.001   0.001   0.003  -0.000  -0.000   0.001   0.001
  0.001  -0.000  -0.002   0.001   0.003   0.001  -0.000  -0.002
  0.003   0.001  -0.001  -0.000  -0.001   0.003   0.001  -0.001
 -0.000   0.001   0.001   0.003   0.000  -0.000   0.001   0.001
  0.001  -0.000  -0.002   0.001   0.004   0.001  -0.000  -0.002
 total augmentation occupancy for first ion, spin component:           1
  2.680  -0.008   0.003  -0.044   0.015  -1.129   0.011  -0.003   0.007  -0.007   0.009  -0.002   0.021   0.003  -0.007  -0.004
 -0.008   2.630  -0.003  -0.008   0.006   0.011  -1.126   0.008   0.011  -0.014   0.011   0.001   0.017   0.017   0.005  -0.002
  0.003  -0.003   3.239  -0.014   0.066  -0.003   0.008  -1.385   0.008  -0.028  -0.001  -0.000   0.015  -0.003  -0.009  -0.001
 -0.044  -0.008  -0.014   2.680   0.005   0.007   0.011   0.008  -1.129  -0.001   0.009  -0.002   0.003   0.021  -0.007  -0.000
  0.015   0.006   0.066   0.005   3.163  -0.007  -0.014  -0.028  -0.001  -1.352   0.001   0.000  -0.005  -0.015   0.016   0.001
 -1.129   0.011  -0.003   0.007  -0.007   1.320  -0.013   0.006   0.012   0.004  -0.012   0.002  -0.004  -0.000   0.004   0.001
  0.011  -1.126   0.008   0.011  -0.014  -0.013   1.334  -0.005  -0.013   0.009   0.010  -0.001   0.000   0.000  -0.000   0.001
 -0.003   0.008  -1.385   0.008  -0.028   0.006  -0.005   1.333  -0.007   0.011  -0.003  -0.000  -0.005   0.005   0.000   0.001
  0.007   0.011   0.008  -1.129  -0.001   0.012  -0.013  -0.007   1.320  -0.003  -0.012   0.002  -0.000  -0.004   0.004   0.000
 -0.007  -0.014  -0.028  -0.001  -1.352   0.004   0.009   0.011  -0.003   1.319   0.004   0.000  -0.003   0.003  -0.001   0.000
  0.009   0.011  -0.001   0.009   0.001  -0.012   0.010  -0.003  -0.012   0.004   2.254  -0.300   0.009   0.009   0.019  -0.001
 -0.002   0.001  -0.000  -0.002   0.000   0.002  -0.001  -0.000   0.002   0.000  -0.300   0.047  -0.000  -0.000   0.002   0.000
  0.021   0.017   0.015   0.003  -0.005  -0.004   0.000  -0.005  -0.000  -0.003   0.009  -0.000   0.298   0.002  -0.000  -0.031
  0.003   0.017  -0.003   0.021  -0.015  -0.000   0.000   0.005  -0.004   0.003   0.009  -0.000   0.002   0.298  -0.000   0.000
 -0.007   0.005  -0.009  -0.007   0.016   0.004  -0.000   0.000   0.004  -0.001   0.019   0.002  -0.000  -0.000   0.300   0.000
 -0.004  -0.002  -0.001  -0.000   0.001   0.001   0.001   0.001   0.000   0.000  -0.001   0.000  -0.031   0.000   0.000   0.004
 -0.000  -0.002  -0.000  -0.004   0.001   0.000   0.001  -0.001   0.001  -0.001  -0.001   0.000   0.000  -0.031   0.000  -0.000
  0.000  -0.000   0.002   0.000  -0.003  -0.001   0.000  -0.000  -0.001   0.001   0.000  -0.000   0.000   0.000  -0.031  -0.000
 total augmentation occupancy for first ion, spin component:           2
  1.137  -0.003  -0.000   0.092  -0.027  -0.620   0.000  -0.005  -0.042   0.013   0.010   0.001  -0.029  -0.001   0.004   0.001
 -0.003   1.241   0.026  -0.003  -0.045   0.000  -0.653  -0.028   0.000   0.048  -0.020   0.000  -0.030  -0.030  -0.007   0.001
 -0.000   0.026   0.836   0.024  -0.114  -0.005  -0.028  -0.428  -0.009   0.055   0.004  -0.000  -0.019   0.001   0.008   0.001
  0.092  -0.003   0.024   1.137  -0.013  -0.042   0.000  -0.009  -0.620   0.011   0.010   0.001  -0.001  -0.029   0.004   0.000
 -0.027  -0.045  -0.114  -0.013   0.967   0.013   0.048   0.055   0.011  -0.491  -0.007   0.000   0.010   0.022  -0.014  -0.000
 -0.620   0.000  -0.005  -0.042   0.013   0.249   0.001   0.006   0.012  -0.005  -0.008  -0.000   0.013  -0.000  -0.005  -0.002
  0.000  -0.653  -0.028   0.000   0.048   0.001   0.246   0.024   0.001  -0.042   0.010  -0.003   0.018   0.018   0.003  -0.002
 -0.005  -0.028  -0.428  -0.009   0.055   0.006   0.024   0.136   0.001  -0.021  -0.002   0.001   0.013  -0.003  -0.001  -0.001
 -0.042   0.000  -0.009  -0.620   0.011   0.012   0.001   0.001   0.249  -0.008  -0.008  -0.000  -0.000   0.013  -0.005  -0.000
  0.013   0.048   0.055   0.011  -0.491  -0.005  -0.042  -0.021  -0.008   0.160   0.003  -0.001  -0.004  -0.014   0.002   0.000
  0.010  -0.020   0.004   0.010  -0.007  -0.008   0.010  -0.002  -0.008   0.003  -0.174   0.042  -0.004  -0.004  -0.015  -0.000
  0.001   0.000  -0.000   0.001   0.000  -0.000  -0.003   0.001  -0.000  -0.001   0.042  -0.008  -0.000  -0.000  -0.003   0.000
 -0.029  -0.030  -0.019  -0.001   0.010   0.013   0.018   0.013  -0.000  -0.004  -0.004  -0.000  -0.025   0.001  -0.002   0.002
 -0.001  -0.030   0.001  -0.029   0.022  -0.000   0.018  -0.003   0.013  -0.014  -0.004  -0.000   0.001  -0.025  -0.002  -0.000
  0.004  -0.007   0.008   0.004  -0.014  -0.005   0.003  -0.001  -0.005   0.002  -0.015  -0.003  -0.002  -0.002  -0.026   0.000
  0.001   0.001   0.001   0.000  -0.000  -0.002  -0.002  -0.001  -0.000   0.000  -0.000   0.000   0.002  -0.000   0.000  -0.000
  0.000   0.001  -0.000   0.001  -0.001  -0.000  -0.002   0.000  -0.002   0.001  -0.000   0.000  -0.000   0.002   0.000   0.000
 -0.000   0.000  -0.000  -0.000   0.000   0.000  -0.000   0.000   0.000  -0.001  -0.001   0.000   0.000   0.000   0.002  -0.000


------------------------ aborting loop because EDIFF is reached ----------------------------------------


 


 total charge     
 
# of ion       s       p       d       tot
------------------------------------------
    1        0.499   0.493   8.308   9.300
    2        0.515   0.527   8.313   9.355
    3        0.507   0.510   8.327   9.344
    4        0.509   0.508   8.318   9.335
    5        0.492   0.485   8.317   9.294
    6        0.501   0.495   8.321   9.316
    7        0.511   0.515   8.320   9.346
    8        0.510   0.516   8.314   9.340
    9        0.469   0.494   6.180   7.144
   10        0.472   0.502   6.187   7.160
   11        0.477   0.510   6.211   7.198
   12        0.479   0.511   6.208   7.198
   13        0.471   0.500   6.174   7.145
   14        0.476   0.501   6.198   7.175
   15        0.473   0.503   6.185   7.161
   16        0.466   0.492   6.165   7.123
--------------------------------------------------
tot          7.826   8.064 116.044 131.935
 


 magnetization (x)
 
# of ion       s       p       d       tot
------------------------------------------
    1       -0.021  -0.044   0.698   0.634
    2       -0.029  -0.062   0.734   0.642
    3       -0.021  -0.046   0.648   0.581
    4       -0.026  -0.048   0.692   0.618
    5       -0.016  -0.037   0.651   0.597
    6       -0.021  -0.041   0.674   0.613
    7       -0.026  -0.053   0.693   0.615
    8       -0.024  -0.052   0.716   0.639
    9       -0.003  -0.025   2.662   2.633
   10       -0.002  -0.026   2.657   2.628
   11       -0.008  -0.036   2.559   2.515
   12       -0.012  -0.043   2.563   2.508
   13       -0.002  -0.025   2.690   2.663
   14       -0.007  -0.028   2.609   2.574
   15       -0.006  -0.034   2.651   2.611
   16        0.002  -0.018   2.727   2.710
--------------------------------------------------
tot         -0.224  -0.619  26.623  25.780
 
    CHARGE:  cpu time    0.4629: real time    0.4631
    FORLOC:  cpu time    0.0030: real time    0.0035
    FORNL :  cpu time    3.1905: real time    3.1945
    STRESS:  cpu time    9.5645: real time    9.5799
    FORCOR:  cpu time    0.0460: real time    0.0458
    FORHAR:  cpu time    0.0070: real time    0.0079
    MIXING:  cpu time    0.0020: real time    0.0011
    OFIELD:  cpu time    0.0000: real time    0.0001

  FORCE on cell =-STRESS in cart. coord.  units (eV):
  Direction    XX          YY          ZZ          XY          YZ          ZX
  --------------------------------------------------------------------------------------
  Alpha Z   868.92678   868.92678   868.92678
  Ewald   -4038.62404 -3974.68010 -3974.68007   -20.64218   -65.06888   -20.64220
  Hartree   876.43880   940.01823   940.01825   -19.91850   -67.33196   -19.91851
  E(xc)    -758.86814  -759.35532  -759.35532     0.08239     0.21519     0.08239
  Local     398.57993   267.60157   267.60153    41.31025   132.62037    41.31028
  n-local  -263.90058  -267.23427  -267.23428     0.28540     2.23970     0.28587
  augment  1717.26365  1721.23692  1721.23691    -0.55875    -0.78255    -0.55923
  Kinetic  1200.08961  1202.93200  1202.93200    -0.28890    -0.23551    -0.28890
  Fock        0.00000     0.00000     0.00000     0.00000     0.00000     0.00000
  -------------------------------------------------------------------------------------
  Total      -0.09397    -0.55418    -0.55418     0.26970     1.65635     0.26970
  in kB      -0.82655    -4.87454    -4.87453     2.37230    14.56916     2.37227
  external pressure =       -3.53 kB  Pullay stress =        0.00 kB


 VOLUME and BASIS-vectors are now :
 -----------------------------------------------------------------------------
  energy-cutoff  :      520.00
  volume of cell :      182.15
      direct lattice vectors                 reciprocal lattice vectors
     7.142000000  3.571000000  3.571000000     0.070008401  0.070008401  0.070008401
    -7.142000000  3.571000000  3.571000000    -0.070008401  0.070008401  0.070008401
     0.000000000 -1.785500000  1.785500000     0.000000000 -0.280033604  0.280033604

  length of vectors
     8.747127871  8.747127871  2.525078316     0.121258108  0.121258108  0.396027321


 FORCES acting on ions
    electron-ion (+dipol)            ewald-force                    non-local-force                 convergence-correction
 -----------------------------------------------------------------------------------------------
   -.111E+03 -.502E+02 -.502E+02   0.111E+03 0.502E+02 0.502E+02   -.351E+00 -.977E-01 -.977E-01   0.889E-01 0.125E+00 0.125E+00
   -.349E+02 0.603E+02 0.603E+02   0.348E+02 -.606E+02 -.606E+02   0.925E-02 0.203E+00 0.203E+00   0.741E-01 0.578E-01 0.578E-01
   0.328E+02 0.414E+02 0.414E+02   -.328E+02 -.415E+02 -.415E+02   0.651E-01 0.882E-01 0.882E-01   -.723E-01 -.100E-02 -.100E-02
   0.340E+02 -.103E+03 -.103E+03   -.344E+02 0.103E+03 0.103E+03   0.242E+00 -.207E+00 -.207E+00   0.135E+00 0.726E-01 0.726E-01
   0.257E+02 0.190E+01 0.190E+01   -.258E+02 -.177E+01 -.176E+01   0.167E+00 -.917E-01 -.917E-01   -.782E-01 -.531E-01 -.531E-01
   -.326E+02 0.508E+02 0.508E+02   0.326E+02 -.507E+02 -.507E+02   0.843E-01 -.435E-01 -.435E-01   -.462E-02 -.111E+00 -.111E+00
   0.113E+03 0.256E+01 0.256E+01   -.113E+03 -.257E+01 -.257E+01   0.139E+00 0.280E-01 0.280E-01   -.166E+00 -.191E-01 -.191E-01
   -.366E+02 -.448E+01 -.448E+01   0.369E+02 0.459E+01 0.459E+01   -.353E+00 0.211E-01 0.211E-01   0.144E-01 -.133E+00 -.133E+00
   -.814E+02 -.955E+01 -.955E+01   0.818E+02 0.931E+01 0.931E+01   -.400E+00 0.230E+00 0.230E+00   0.806E-02 0.103E-01 0.103E-01
   0.443E+02 0.155E+02 0.155E+02   -.445E+02 -.154E+02 -.154E+02   0.262E+00 -.188E+00 -.188E+00   -.112E+00 0.879E-01 0.879E-01
   -.258E+02 -.382E+02 -.382E+02   0.258E+02 0.387E+02 0.387E+02   0.178E-01 -.524E+00 -.524E+00   0.585E-01 0.208E-01 0.208E-01
   -.415E+02 -.679E+01 -.679E+01   0.416E+02 0.658E+01 0.658E+01   -.311E+00 0.199E+00 0.199E+00   0.197E+00 0.244E-01 0.244E-01
   -.448E+02 0.966E+02 0.966E+02   0.450E+02 -.967E+02 -.967E+02   -.267E+00 0.237E+00 0.237E+00   0.290E-01 -.753E-01 -.753E-01
   0.269E+02 -.531E+02 -.531E+02   -.268E+02 0.531E+02 0.531E+02   -.735E-01 -.133E+00 -.133E+00   -.322E-01 0.765E-01 0.765E-01
   0.107E+03 0.451E+02 0.451E+02   -.108E+03 -.452E+02 -.452E+02   0.741E+00 0.154E+00 0.154E+00   -.423E-01 -.635E-01 -.635E-01
   0.245E+02 -.488E+02 -.488E+02   -.244E+02 0.488E+02 0.488E+02   -.144E-01 0.832E-01 0.832E-01   -.906E-01 -.367E-01 -.367E-01
 -----------------------------------------------------------------------------------------------
   0.333E-01 0.608E-01 0.608E-01   -.995E-13 -.639E-13 0.107E-12   -.426E-01 -.406E-01 -.406E-01   0.572E-02 -.172E-01 -.172E-01
 
 
 POSITION                                       TOTAL-FORCE (eV/Angst)
 -----------------------------------------------------------------------------------
     -5.34927      1.78945      3.57495         0.000355     -0.013100     -0.013101
     -1.80378      1.78757      3.57307        -0.008844      0.009305      0.009304
     -1.77562      3.58655      5.37205        -0.017266     -0.000714     -0.000715
     -0.01614     -0.01577     -0.01577        -0.001319     -0.010308     -0.010307
      0.03098      5.36458      5.36458        -0.002426     -0.012018     -0.012018
      1.77224      3.54477      5.33027         0.018104      0.005862      0.005861
      3.54946      1.77178      1.77178         0.000869      0.000679      0.000679
      3.59665      3.58774      3.58774         0.013825     -0.004910     -0.004910
     -3.59490      1.77252      1.77252         0.005154      0.002031      0.002031
     -3.52974      3.59488      3.59488        -0.019652     -0.001341     -0.001341
     -1.75699     -0.00162      1.78388         0.003959     -0.002975     -0.002975
     -0.01147      1.80707      1.80707        -0.015649      0.008355      0.008356
     -0.04977      3.60064      3.60064        -0.002221      0.009276      0.009275
      1.74878     -0.02907      1.75643        -0.002664      0.008562      0.008562
      1.85459      1.79417      3.57968         0.013342      0.007274      0.007277
      5.33498      1.75473      3.54023         0.014433     -0.005977     -0.005977
 -----------------------------------------------------------------------------------
    total drift:                               -0.003583      0.002892      0.002894


--------------------------------------------------------------------------------------------------------



  FREE ENERGIE OF THE ION-ELECTRON SYSTEM (eV)
  ---------------------------------------------------
  free  energy   TOTEN  =      -109.89674246 eV

  energy  without entropy=     -109.90845841  energy(sigma->0) =     -109.90064778
 
 d Force = 0.6361857E-03[ 0.264E-03, 0.101E-02]  d Energy = 0.5644724E-03 0.717E-04
 d Force = 0.4279063E+00[ 0.410E+00, 0.446E+00]  d Ewald  = 0.4279032E+00 0.316E-05


--------------------------------------------------------------------------------------------------------


    POTLOK:  cpu time    0.0540: real time    0.0545


--------------------------------------------------------------------------------------------------------


 Conjugate gradient step on ions:
 trial-energy change:   -0.000564  1 .order   -0.000636   -0.001009   -0.000264
  (g-gl).g = 0.558E-03      g.g   = 0.577E-03  gl.gl    = 0.416E-02
 g(Force)  = 0.577E-03   g(Stress)= 0.000E+00 ortho     = 0.476E-04
 gamma     =   0.13421
 trial     =   1.72822
 opt step  =   2.33981  (harmonic =   2.33981) maximal distance =0.00534832
 next E    =  -109.896861   (d E  =  -0.00068)


--------------------------------------------------------------------------------------------------------


  
 reached required accuracy - stopping structural energy minimisation
     LOOP+:  cpu time   69.3025: real time   70.1187
    4ORBIT:  cpu time    0.0000: real time    0.0000
 


 total charge     
 
# of ion       s       p       d       tot
------------------------------------------
    1        0.499   0.493   8.308   9.300
    2        0.515   0.527   8.313   9.355
    3        0.507   0.510   8.327   9.344
    4        0.509   0.508   8.318   9.335
    5        0.492   0.485   8.317   9.294
    6        0.501   0.495   8.321   9.316
    7        0.511   0.515   8.320   9.346
    8        0.510   0.516   8.314   9.340
    9        0.469   0.494   6.180   7.144
   10        0.472   0.502   6.187   7.160
   11        0.477   0.510   6.211   7.198
   12        0.479   0.511   6.208   7.198
   13        0.471   0.500   6.174   7.145
   14        0.476   0.501   6.198   7.175
   15        0.473   0.503   6.185   7.161
   16        0.466   0.492   6.165   7.123
--------------------------------------------------
tot          7.826   8.064 116.044 131.935
 


 magnetization (x)
 
# of ion       s       p       d       tot
------------------------------------------
    1       -0.021  -0.044   0.698   0.634
    2       -0.029  -0.062   0.734   0.642
    3       -0.021  -0.046   0.648   0.581
    4       -0.026  -0.048   0.692   0.618
    5       -0.016  -0.037   0.651   0.597
    6       -0.021  -0.041   0.674   0.613
    7       -0.026  -0.053   0.693   0.615
    8       -0.024  -0.052   0.716   0.639
    9       -0.003  -0.025   2.662   2.633
   10       -0.002  -0.026   2.657   2.628
   11       -0.008  -0.036   2.559   2.515
   12       -0.012  -0.043   2.563   2.508
   13       -0.002  -0.025   2.690   2.663
   14       -0.007  -0.028   2.609   2.574
   15       -0.006  -0.034   2.651   2.611
   16        0.002  -0.018   2.727   2.710
--------------------------------------------------
tot         -0.224  -0.619  26.623  25.780
 

 total amount of memory used by VASP MPI-rank0    69382. kBytes
=======================================================================

   base      :      30000. kBytes
   nonlr-proj:       4769. kBytes
   fftplans  :       1555. kBytes
   grid      :       3823. kBytes
   one-center:         62. kBytes
   wavefun   :      29173. kBytes
 
  
  
 General timing and accounting informations for this job:
 ========================================================
  
                  Total CPU time used (sec):     1477.820
                            User time (sec):     1465.164
                          System time (sec):       12.656
                         Elapsed time (sec):     1493.160
  
                   Maximum memory used (kb):      112044.
                   Average memory used (kb):           0.
  
                          Minor page faults:        15809
                          Major page faults:            0
                 Voluntary context switches:         1933
