SQS-NiFe                                
           1
     7.142000    3.571000    3.571000
    -7.142000    3.571000    3.571000
     0.000000   -1.785500    1.785500
   Ni   Fe
   8   8
Direct configuration=     1
   0.00235237  0.74797538  0.50000008
   0.25168707  0.49795641  0.50000054
   0.49536106  0.74849470  0.49999998
   0.00282551  0.00465719  0.99999999
   0.74671111  0.75395303  0.00000002
   0.74936403  0.49887143  0.49999981
   0.50109359  0.00247621  0.99999974
   0.74957305  0.24792516  0.00000005
   0.00682367  0.49688664  0.00000069
   0.24425287  0.75065063  0.00000004
   0.00049323  0.25521756  0.49999982
   0.25190937  0.24423520  0.99999993
   0.49777075  0.48811490  0.99999999
   0.25457344  0.00269343  0.49999926
   0.48869376  0.25382323  0.49999989
   0.75651514  0.00606892  0.50000018
Direct configuration=     2
  -0.00011812  0.74873573  0.50000011
   0.25284495  0.49867788  0.50000053
   0.49634749  0.74825112  0.49999998
   0.00239412  0.00261354  0.99999998
   0.74748218  0.75258087  0.00000002
   0.75029470  0.49933947  0.49999983
   0.50119661  0.00188347  0.99999971
   0.74887646  0.25029161  0.00000002
   0.00186425  0.49785795  0.00000054
   0.24937444  0.75087829 -0.00000000
   0.00139136  0.25263495  0.49999990
   0.24503512  0.24756766  0.99999992
   0.50017345  0.49901044  0.00000001
   0.25029236 -0.00157981  0.49999938
   0.49955649  0.24855080  0.49999994
   0.75299411  0.00270602  0.50000013
Direct configuration=     3
  -0.00108867  0.74903444  0.50000013
   0.25329983  0.49896132  0.50000052
   0.49673502  0.74815543  0.49999998
   0.00222465  0.00181068  0.99999998
   0.74778509  0.75204181  0.00000002
   0.75066033  0.49952334  0.49999984
   0.50123709  0.00165061  0.99999970
   0.74860280  0.25122129  0.00000001
  -0.00008409  0.49823953  0.00000049
   0.25138648  0.75096773 -0.00000002
   0.00174420  0.25162036  0.49999994
   0.24233453  0.24887684  0.99999992
   0.50111737  0.50329083  0.00000002
   0.24861051 -0.00325858  0.49999943
   0.50382399  0.24647950  0.49999996
   0.75161085  0.00138489  0.50000012
Direct configuration=     4
  -0.00156056  0.74961866  0.50000017
   0.25247668  0.49995685  0.50000049
   0.49831610  0.74942698  0.49999994
   0.00078879 -0.00010979  0.99999999
   0.74910623  0.75117589  0.00000003
   0.74953058  0.49966074  0.49999986
   0.50061550  0.00007426  0.99999970
   0.75090772  0.25198109 -0.00000003
  -0.00133634  0.49894502  0.00000040
   0.25333884  0.75023189 -0.00000007
  -0.00063835  0.25026815  0.49999997
   0.24597952  0.25069956  0.99999995
   0.50208931  0.50546674  0.00000004
   0.24699372 -0.00335678  0.49999953
   0.50416314  0.24606877  0.49999997
   0.74922913 -0.00010805  0.50000006
Direct configuration=     5
  -0.00198900  0.75014908  0.50000022
   0.25172934  0.50086069  0.50000047
   0.49975156  0.75058143  0.49999990
  -0.00051484 -0.00185338  1.00000000
   0.75030569  0.75038972  0.00000004
   0.74850489  0.49978549  0.49999988
   0.50005116 -0.00135691  0.99999971
   0.75300036  0.25267092 -0.00000006
  -0.00247326  0.49958553  0.00000032
   0.25511139  0.74956383 -0.00000011
  -0.00280148  0.24904048  0.49999999
   0.24928882  0.25235441  0.99999997
   0.50297174  0.50744226  0.00000006
   0.24552583 -0.00344593  0.49999963
   0.50447105  0.24569587  0.49999997
   0.74706675 -0.00146348  0.50000001
Direct configuration=     6
  -0.00109667  0.75006255  0.50000015
   0.25053370  0.50085475  0.50000041
   0.50126738  0.75117882  0.49999994
  -0.00145673 -0.00145489  0.99999999
   0.75137306  0.75001152 -0.00000003
   0.74718709  0.49913798  0.49999988
   0.49908859 -0.00125281  0.99999979
   0.75307585  0.25229321 -0.00000004
  -0.00234224  0.50045524  0.00000023
   0.25524857  0.74946524 -0.00000012
  -0.00141681  0.24808600  0.50000004
   0.25032645  0.25307708  0.00000003
   0.50257440  0.50773376  0.00000008
   0.24491820 -0.00309536  0.49999973
   0.50490974  0.24569986  0.49999995
   0.74580941 -0.00225295  0.49999998
Direct configuration=     7
   0.00003376  0.74995293  0.50000006
   0.24901904  0.50084722  0.50000035
   0.50318766  0.75193561  0.49999998
  -0.00264994 -0.00095008  0.99999998
   0.75272522  0.74953241 -0.00000012
   0.74551767  0.49831769  0.49999989
   0.49786919 -0.00112093  0.99999989
   0.75317149  0.25181471 -0.00000000
  -0.00217625  0.50155701  0.00000010
   0.25542236  0.74934035 -0.00000014
   0.00033734  0.24687684  0.50000009
   0.25164094  0.25399258  0.00000010
   0.50207104  0.50810304  0.00000011
   0.24414844 -0.00265123  0.49999985
   0.50546548  0.24570491  0.49999993
   0.74421657 -0.00325307  0.49999994
Direct configuration=     8
  -0.00009265  0.74996519  0.50000007
   0.24918841  0.50084806  0.50000035
   0.50297293  0.75185099  0.49999997
  -0.00251651 -0.00100653  0.99999998
   0.75257402  0.74958599 -0.00000011
   0.74570435  0.49840942  0.49999989
   0.49800555 -0.00113568  0.99999988
   0.75316080  0.25186822 -0.00000001
  -0.00219481  0.50143381  0.00000012
   0.25540292  0.74935432 -0.00000014
   0.00014119  0.24701205  0.50000009
   0.25149394  0.25389020  0.00000009
   0.50212732  0.50806174  0.00000011
   0.24423452 -0.00270090  0.49999984
   0.50540334  0.24570434  0.49999994
   0.74439468 -0.00314124  0.49999994
Direct configuration=     9
   0.00054733  0.75009197  0.49999995
   0.24913220  0.50117418  0.50000031
   0.50287107  0.75149928  0.50000003
  -0.00298843 -0.00093957  0.99999998
   0.75324189  0.74939677 -0.00000020
   0.74556069  0.49773276  0.49999985
   0.49703742 -0.00073285  0.99999996
   0.75377287  0.25134303  0.00000005
  -0.00302959  0.50056943  0.00000005
   0.25604536  0.74995810 -0.00000013
   0.00104450  0.24732562  0.50000010
   0.25191002  0.25382587  0.00000013
   0.50110620  0.50786330  0.00000010
   0.24382903 -0.00211432  0.49999991
   0.50557975  0.24590068  0.49999996
   0.74433969 -0.00289425  0.49999994
Direct configuration=    10
   0.00088964  0.75015978  0.49999988
   0.24910213  0.50134861  0.50000028
   0.50281659  0.75131115  0.50000007
  -0.00324085 -0.00090375  0.99999998
   0.75359912  0.74929556 -0.00000025
   0.74548385  0.49737083  0.49999983
   0.49651958 -0.00051738  0.00000000
   0.75410025  0.25106212  0.00000009
  -0.00347609  0.50010710  0.00000001
   0.25638898  0.75028105 -0.00000012
   0.00152766  0.24749334  0.50000010
   0.25213257  0.25379146  0.00000016
   0.50056003  0.50775715  0.00000010
   0.24361215 -0.00180057  0.49999995
   0.50567412  0.24600570  0.49999998
   0.74431028 -0.00276215  0.49999995
Direct configuration=    11
   0.00105968  0.75004768  0.49999983
   0.24900968  0.50156929  0.50000025
   0.50286851  0.75148499  0.50000009
  -0.00333719 -0.00107755  0.00000000
   0.75330046  0.74896337 -0.00000028
   0.74539952  0.49725579  0.49999980
   0.49657044 -0.00041326 -0.00000001
   0.75413919  0.25054794  0.00000012
  -0.00349079  0.49985552 -0.00000002
   0.25623239  0.75045574 -0.00000011
   0.00176940  0.24777721  0.50000010
   0.25221662  0.25382241  0.00000018
   0.50066592  0.50763437  0.00000007
   0.24335898 -0.00149968  0.49999998
   0.50605166  0.24637763  0.50000004
   0.74418555 -0.00280144  0.49999996
