SQS-NiFe                                
           1
     9.929500    0.000000    0.000000
     3.309833    9.361622    0.000000
     0.000000    0.000000   21.080550
   Fe   O 
  64   5
Direct configuration=     1
   0.08738900  0.16261100  0.09487400
   0.08935202  0.16158553  0.28483206
   0.21238900  0.03761100  0.19102200
   0.21382190  0.03371630  0.37557280
   0.33738900  0.16261100  0.09487400
   0.33938437  0.16363940  0.28484144
   0.46238900  0.03761100  0.19102200
   0.46472581  0.04508752  0.37989491
   0.58738900  0.16261100  0.09487400
   0.58967284  0.16132487  0.28602427
   0.71238900  0.03761100  0.19102200
   0.71611265  0.02682247  0.37763386
   0.83738900  0.16261100  0.09487400
   0.83942579  0.16101811  0.28450218
   0.96238900  0.03761100  0.19102200
   0.96882526  0.03279483  0.37855590
   0.08738900  0.41261100  0.09487400
   0.08672108  0.41186524  0.28527547
   0.21238900  0.28761100  0.19102200
   0.21202945  0.28800306  0.37977764
   0.33738900  0.41261100  0.09487400
   0.33501873  0.41551272  0.28514877
   0.46238900  0.28761100  0.19102200
   0.46090148  0.29884700  0.38042317
   0.58738900  0.41261100  0.09487400
   0.58607594  0.41191078  0.28650171
   0.71238900  0.28761100  0.19102200
   0.71937663  0.28354802  0.38086120
   0.83738900  0.41261100  0.09487400
   0.83656516  0.41135205  0.28521321
   0.96238900  0.28761100  0.19102200
   0.96769336  0.28428552  0.37587215
   0.08738900  0.66261100  0.09487400
   0.08757339  0.66084526  0.28386033
   0.21238900  0.53761100  0.19102200
   0.19876155  0.53705439  0.37688814
   0.33738900  0.66261100  0.09487400
   0.33669974  0.66211573  0.28223231
   0.46238900  0.53761100  0.19102200
   0.44839831  0.56139545  0.38425774
   0.58738900  0.66261100  0.09487400
   0.58740032  0.65880123  0.28513358
   0.71238900  0.53761100  0.19102200
   0.70493087  0.53273748  0.37860916
   0.83738900  0.66261100  0.09487400
   0.83658617  0.66159259  0.28426521
   0.96238900  0.53761100  0.19102200
   0.96027813  0.53292513  0.37940220
   0.08738900  0.91261100  0.09487400
   0.08922133  0.91114551  0.28509122
   0.21238900  0.78761100  0.19102200
   0.22531737  0.78677080  0.38023833
   0.33738900  0.91261100  0.09487400
   0.33483778  0.91456577  0.28289198
   0.46238900  0.78761100  0.19102200
   0.45904215  0.79881739  0.37292238
   0.58738900  0.91261100  0.09487400
   0.58676652  0.91152364  0.28643675
   0.71238900  0.78761100  0.19102200
   0.71553458  0.78440373  0.37938295
   0.83738900  0.91261100  0.09487400
   0.83726625  0.91153786  0.28403214
   0.96238900  0.78761100  0.19102200
   0.96474452  0.78730260  0.37278922
   0.36900172  0.19985693  0.43148371
   0.81155814  0.11702907  0.42986064
   0.80194638  0.62414467  0.43078540
   0.27713296  0.62991051  0.43317108
   0.56157245  0.39441871  0.42740555
