  64  64   1   0
  0.2890001E+02  0.1002677E-08  0.1002677E-08  0.2124346E-08  0.5000000E-15
  1.000000000000000E-004
  CAR 
 SQS-NiFe                                
      9.82610528    -10.22465265  301      0.24313471      1.00000000
    -10.225  0.0000E+00  0.0000E+00  0.0000E+00  0.0000E+00
    -10.158  0.0000E+00  0.0000E+00  0.0000E+00  0.0000E+00
    -10.091  0.0000E+00  0.0000E+00  0.0000E+00  0.0000E+00
    -10.024  0.0000E+00  0.0000E+00  0.0000E+00  0.0000E+00
     -9.957  0.0000E+00  0.0000E+00  0.0000E+00  0.0000E+00
     -9.890 -0.2933E-31  0.0000E+00 -0.1961E-32  0.0000E+00
     -9.824 -0.6558E-29 -0.8962E-30 -0.4403E-30 -0.5990E-31
     -9.757 -0.1175E-26 -0.1739E-27 -0.7895E-28 -0.1168E-28
     -9.690 -0.1679E-24 -0.2704E-25 -0.1130E-25 -0.1819E-26
     -9.623 -0.1915E-22 -0.3355E-23 -0.1291E-23 -0.2261E-24
     -9.556 -0.1742E-20 -0.3321E-21 -0.1177E-21 -0.2242E-22
     -9.489 -0.1264E-18 -0.2622E-19 -0.8563E-20 -0.1775E-20
     -9.423 -0.7305E-17 -0.1650E-17 -0.4968E-18 -0.1120E-18
     -9.356 -0.3262E-15 -0.7991E-16 -0.2230E-16 -0.5453E-17
     -9.289 -0.1191E-13 -0.3192E-14 -0.8180E-15 -0.2188E-15
     -9.222 -0.3455E-12 -0.1010E-12 -0.2391E-13 -0.6966E-14
     -9.155 -0.7960E-11 -0.2536E-11 -0.5559E-12 -0.1764E-12
     -9.088 -0.1453E-09 -0.5051E-10 -0.1027E-10 -0.3552E-11
     -9.022 -0.2099E-08 -0.7963E-09 -0.1506E-09 -0.5678E-10
     -8.955 -0.2391E-07 -0.9914E-08 -0.1748E-08 -0.7194E-09
     -8.888 -0.2139E-06 -0.9712E-07 -0.1604E-07 -0.7210E-08
     -8.821 -0.1495E-05 -0.7450E-06 -0.1160E-06 -0.5700E-07
     -8.754 -0.8097E-05 -0.4443E-05 -0.6572E-06 -0.3540E-06
     -8.687 -0.3354E-04 -0.2038E-04 -0.2899E-05 -0.1716E-05
     -8.621 -0.1039E-03 -0.7060E-04 -0.9842E-05 -0.6434E-05
     -8.554 -0.2305E-03 -0.1787E-03 -0.2525E-04 -0.1838E-04
     -8.487 -0.3276E-03 -0.3064E-03 -0.4714E-04 -0.3886E-04
     -8.420 -0.1617E-03 -0.2704E-03 -0.5795E-04 -0.5693E-04
     -8.353  0.4954E-03  0.1901E-03 -0.2484E-04 -0.4422E-04
     -8.286  0.1720E-02  0.1192E-02  0.9012E-04  0.3542E-04
     -8.220  0.3948E-02  0.2920E-02  0.3540E-03  0.2306E-03
     -8.153  0.8609E-02  0.6442E-02  0.9294E-03  0.6611E-03
     -8.086  0.1660E-01  0.1324E-01  0.2039E-02  0.1546E-02
     -8.019  0.2503E-01  0.2214E-01  0.3712E-02  0.3026E-02
     -7.952  0.2767E-01  0.2769E-01  0.5561E-02  0.4876E-02
     -7.885  0.2134E-01  0.2471E-01  0.6987E-02  0.6527E-02
     -7.819  0.1030E-01  0.1465E-01  0.7675E-02  0.7506E-02
     -7.752  0.2740E-02  0.4989E-02  0.7859E-02  0.7840E-02
     -7.685  0.3935E-02  0.2546E-02  0.8122E-02  0.8010E-02
     -7.618  0.1287E-01  0.8506E-02  0.8982E-02  0.8578E-02
     -7.551  0.2369E-01  0.1859E-01  0.1056E-01  0.9821E-02
     -7.484  0.3080E-01  0.2705E-01  0.1262E-01  0.1163E-01
     -7.418  0.3334E-01  0.3146E-01  0.1485E-01  0.1373E-01
     -7.351  0.3318E-01  0.3310E-01  0.1707E-01  0.1594E-01
     -7.284  0.2993E-01  0.3230E-01  0.1907E-01  0.1810E-01
     -7.217  0.2194E-01  0.2691E-01  0.2054E-01  0.1990E-01
     -7.150  0.1110E-01  0.1678E-01  0.2128E-01  0.2102E-01
     -7.083  0.2145E-02  0.6036E-02  0.2142E-01  0.2143E-01
     -7.017 -0.2087E-02 -0.9697E-03  0.2128E-01  0.2136E-01
     -6.950 -0.7815E-03 -0.3194E-02  0.2123E-01  0.2115E-01
     -6.883  0.9047E-02 -0.2860E-03  0.2183E-01  0.2113E-01
     -6.816  0.3124E-01  0.1132E-01  0.2392E-01  0.2188E-01
     -6.749  0.6086E-01  0.3507E-01  0.2799E-01  0.2423E-01
     -6.682  0.8032E-01  0.6448E-01  0.3336E-01  0.2854E-01
     -6.616  0.7401E-01  0.8139E-01  0.3830E-01  0.3398E-01
     -6.549  0.4712E-01  0.7215E-01  0.4145E-01  0.3880E-01
     -6.482  0.2283E-01  0.4434E-01  0.4298E-01  0.4176E-01
     -6.415  0.1961E-01  0.2076E-01  0.4429E-01  0.4315E-01
     -6.348  0.3512E-01  0.1721E-01  0.4664E-01  0.4430E-01
     -6.281  0.5226E-01  0.3035E-01  0.5013E-01  0.4633E-01
     -6.215  0.5740E-01  0.4543E-01  0.5397E-01  0.4937E-01
     -6.148  0.5033E-01  0.5160E-01  0.5733E-01  0.5281E-01
     -6.081  0.3781E-01  0.4859E-01  0.5986E-01  0.5606E-01
     -6.014  0.2415E-01  0.4091E-01  0.6147E-01  0.5880E-01
     -5.947  0.1205E-01  0.3065E-01  0.6228E-01  0.6084E-01
     -5.880  0.6958E-02  0.1880E-01  0.6274E-01  0.6210E-01
     -5.813  0.1521E-01  0.9633E-02  0.6376E-01  0.6275E-01
     -5.747  0.3874E-01  0.9002E-02  0.6635E-01  0.6335E-01
     -5.680  0.7192E-01  0.2007E-01  0.7115E-01  0.6469E-01
     -5.613  0.1011E+00  0.4253E-01  0.7791E-01  0.6753E-01
     -5.546  0.1102E+00  0.7233E-01  0.8527E-01  0.7236E-01
     -5.479  0.9417E-01  0.9852E-01  0.9157E-01  0.7895E-01
     -5.412  0.6870E-01  0.1056E+00  0.9616E-01  0.8601E-01
     -5.346  0.5713E-01  0.8681E-01  0.9998E-01  0.9181E-01
     -5.279  0.6531E-01  0.5419E-01  0.1043E+00  0.9543E-01
     -5.212  0.7453E-01  0.3056E-01  0.1093E+00  0.9748E-01
     -5.145  0.6352E-01  0.2955E-01  0.1136E+00  0.9945E-01
     -5.078  0.3380E-01  0.4561E-01  0.1158E+00  0.1025E+00
     -5.011  0.1085E-01  0.6173E-01  0.1166E+00  0.1066E+00
     -4.945  0.2428E-01  0.6397E-01  0.1182E+00  0.1109E+00
     -4.878  0.8506E-01  0.4965E-01  0.1239E+00  0.1142E+00
     -4.811  0.1725E+00  0.2717E-01  0.1354E+00  0.1160E+00
     -4.744  0.2434E+00  0.1234E-01  0.1517E+00  0.1169E+00
     -4.677  0.2648E+00  0.2224E-01  0.1694E+00  0.1183E+00
     -4.610  0.2418E+00  0.6391E-01  0.1855E+00  0.1226E+00
     -4.544  0.2102E+00  0.1237E+00  0.1996E+00  0.1309E+00
     -4.477  0.2015E+00  0.1719E+00  0.2130E+00  0.1424E+00
     -4.410  0.2207E+00  0.1849E+00  0.2278E+00  0.1547E+00
     -4.343  0.2550E+00  0.1637E+00  0.2448E+00  0.1657E+00
     -4.276  0.2960E+00  0.1275E+00  0.2646E+00  0.1742E+00
     -4.209  0.3422E+00  0.9358E-01  0.2875E+00  0.1805E+00
     -4.143  0.3875E+00  0.6848E-01  0.3134E+00  0.1850E+00
     -4.076  0.4211E+00  0.5365E-01  0.3415E+00  0.1886E+00
     -4.009  0.4439E+00  0.5551E-01  0.3712E+00  0.1923E+00
     -3.942  0.4719E+00  0.8688E-01  0.4027E+00  0.1981E+00
     -3.875  0.5169E+00  0.1542E+00  0.4373E+00  0.2084E+00
     -3.808  0.5694E+00  0.2404E+00  0.4753E+00  0.2245E+00
     -3.742  0.6065E+00  0.3082E+00  0.5159E+00  0.2451E+00
     -3.675  0.6149E+00  0.3265E+00  0.5570E+00  0.2669E+00
     -3.608  0.6028E+00  0.2954E+00  0.5973E+00  0.2867E+00
     -3.541  0.5870E+00  0.2452E+00  0.6365E+00  0.3031E+00
     -3.474  0.5752E+00  0.2155E+00  0.6749E+00  0.3175E+00
     -3.407  0.5630E+00  0.2262E+00  0.7126E+00  0.3326E+00
     -3.341  0.5463E+00  0.2616E+00  0.7491E+00  0.3501E+00
     -3.274  0.5334E+00  0.2925E+00  0.7847E+00  0.3696E+00
     -3.207  0.5375E+00  0.3141E+00  0.8207E+00  0.3906E+00
     -3.140  0.5589E+00  0.3481E+00  0.8580E+00  0.4139E+00
     -3.073  0.5794E+00  0.4042E+00  0.8967E+00  0.4409E+00
     -3.006  0.5813E+00  0.4590E+00  0.9356E+00  0.4716E+00
     -2.940  0.5655E+00  0.4828E+00  0.9734E+00  0.5038E+00
     -2.873  0.5489E+00  0.4729E+00  0.1010E+01  0.5354E+00
     -2.806  0.5476E+00  0.4505E+00  0.1047E+01  0.5655E+00
     -2.739  0.5683E+00  0.4367E+00  0.1085E+01  0.5947E+00
     -2.672  0.6132E+00  0.4402E+00  0.1126E+01  0.6242E+00
     -2.605  0.6834E+00  0.4583E+00  0.1171E+01  0.6548E+00
     -2.539  0.7729E+00  0.4772E+00  0.1223E+01  0.6867E+00
     -2.472  0.8642E+00  0.4814E+00  0.1281E+01  0.7189E+00
     -2.405  0.9360E+00  0.4698E+00  0.1343E+01  0.7503E+00
     -2.338  0.9771E+00  0.4575E+00  0.1409E+01  0.7808E+00
     -2.271  0.9934E+00  0.4590E+00  0.1475E+01  0.8115E+00
     -2.204  0.1003E+01  0.4769E+00  0.1542E+01  0.8434E+00
     -2.138  0.1021E+01  0.5054E+00  0.1610E+01  0.8772E+00
     -2.071  0.1049E+01  0.5344E+00  0.1680E+01  0.9129E+00
     -2.004  0.1066E+01  0.5515E+00  0.1752E+01  0.9497E+00
     -1.937  0.1049E+01  0.5496E+00  0.1822E+01  0.9865E+00
     -1.870  0.9861E+00  0.5344E+00  0.1888E+01  0.1022E+01
     -1.803  0.8976E+00  0.5234E+00  0.1948E+01  0.1057E+01
     -1.736  0.8226E+00  0.5340E+00  0.2003E+01  0.1093E+01
     -1.670  0.7908E+00  0.5697E+00  0.2055E+01  0.1131E+01
     -1.603  0.7985E+00  0.6176E+00  0.2109E+01  0.1172E+01
     -1.536  0.8170E+00  0.6642E+00  0.2163E+01  0.1217E+01
     -1.469  0.8223E+00  0.7098E+00  0.2218E+01  0.1264E+01
     -1.402  0.8147E+00  0.7633E+00  0.2273E+01  0.1315E+01
     -1.335  0.8095E+00  0.8282E+00  0.2327E+01  0.1370E+01
     -1.269  0.8180E+00  0.8984E+00  0.2382E+01  0.1430E+01
     -1.202  0.8430E+00  0.9613E+00  0.2438E+01  0.1495E+01
     -1.135  0.8855E+00  0.1001E+01  0.2497E+01  0.1562E+01
     -1.068  0.9413E+00  0.1004E+01  0.2560E+01  0.1629E+01
     -1.001  0.9925E+00  0.9671E+00  0.2626E+01  0.1693E+01
     -0.934  0.1013E+01  0.9032E+00  0.2694E+01  0.1754E+01
     -0.868  0.9923E+00  0.8357E+00  0.2760E+01  0.1810E+01
     -0.801  0.9527E+00  0.7879E+00  0.2824E+01  0.1862E+01
     -0.734  0.9438E+00  0.7713E+00  0.2887E+01  0.1914E+01
     -0.667  0.1008E+01  0.7795E+00  0.2955E+01  0.1966E+01
     -0.600  0.1139E+01  0.7926E+00  0.3031E+01  0.2019E+01
     -0.533  0.1268E+01  0.7916E+00  0.3115E+01  0.2072E+01
     -0.467  0.1293E+01  0.7717E+00  0.3202E+01  0.2123E+01
     -0.400  0.1157E+01  0.7422E+00  0.3279E+01  0.2173E+01
     -0.333  0.8813E+00  0.7165E+00  0.3338E+01  0.2221E+01
     -0.266  0.5608E+00  0.7023E+00  0.3376E+01  0.2268E+01
     -0.199  0.3011E+00  0.6998E+00  0.3396E+01  0.2315E+01
     -0.132  0.1598E+00  0.7046E+00  0.3406E+01  0.2362E+01
     -0.066  0.1235E+00  0.7119E+00  0.3415E+01  0.2409E+01
      0.001  0.1365E+00  0.7177E+00  0.3424E+01  0.2457E+01
      0.068  0.1475E+00  0.7174E+00  0.3434E+01  0.2505E+01
      0.135  0.1372E+00  0.7070E+00  0.3443E+01  0.2552E+01
      0.202  0.1160E+00  0.6869E+00  0.3451E+01  0.2598E+01
      0.269  0.1031E+00  0.6639E+00  0.3457E+01  0.2643E+01
      0.335  0.1059E+00  0.6443E+00  0.3464E+01  0.2686E+01
      0.402  0.1176E+00  0.6275E+00  0.3472E+01  0.2728E+01
      0.469  0.1293E+00  0.6085E+00  0.3481E+01  0.2768E+01
      0.536  0.1362E+00  0.5875E+00  0.3490E+01  0.2808E+01
      0.603  0.1332E+00  0.5727E+00  0.3499E+01  0.2846E+01
      0.670  0.1175E+00  0.5689E+00  0.3507E+01  0.2884E+01
      0.736  0.9500E-01  0.5694E+00  0.3513E+01  0.2922E+01
      0.803  0.7628E-01  0.5628E+00  0.3518E+01  0.2960E+01
      0.870  0.6775E-01  0.5487E+00  0.3523E+01  0.2996E+01
      0.937  0.7114E-01  0.5394E+00  0.3528E+01  0.3032E+01
      1.004  0.8426E-01  0.5469E+00  0.3533E+01  0.3069E+01
      1.071  0.9980E-01  0.5693E+00  0.3540E+01  0.3107E+01
      1.137  0.1095E+00  0.5932E+00  0.3547E+01  0.3147E+01
      1.204  0.1094E+00  0.6060E+00  0.3554E+01  0.3187E+01
      1.271  0.9771E-01  0.6043E+00  0.3561E+01  0.3227E+01
      1.338  0.7368E-01  0.5914E+00  0.3566E+01  0.3267E+01
      1.405  0.4621E-01  0.5686E+00  0.3569E+01  0.3305E+01
      1.472  0.3730E-01  0.5321E+00  0.3572E+01  0.3341E+01
      1.538  0.6421E-01  0.4800E+00  0.3576E+01  0.3373E+01
      1.605  0.1180E+00  0.4206E+00  0.3584E+01  0.3401E+01
      1.672  0.1688E+00  0.3685E+00  0.3595E+01  0.3425E+01
      1.739  0.1959E+00  0.3319E+00  0.3608E+01  0.3448E+01
      1.806  0.2031E+00  0.3060E+00  0.3622E+01  0.3468E+01
      1.873  0.2007E+00  0.2800E+00  0.3635E+01  0.3487E+01
      1.939  0.1861E+00  0.2477E+00  0.3648E+01  0.3503E+01
      2.006  0.1516E+00  0.2117E+00  0.3658E+01  0.3517E+01
      2.073  0.1017E+00  0.1769E+00  0.3664E+01  0.3529E+01
      2.140  0.5274E-01  0.1450E+00  0.3668E+01  0.3539E+01
      2.207  0.2011E-01  0.1185E+00  0.3669E+01  0.3547E+01
      2.274  0.9964E-02  0.1043E+00  0.3670E+01  0.3554E+01
      2.340  0.1819E-01  0.1096E+00  0.3671E+01  0.3561E+01
      2.407  0.3444E-01  0.1323E+00  0.3673E+01  0.3570E+01
      2.474  0.4992E-01  0.1613E+00  0.3677E+01  0.3581E+01
      2.541  0.6389E-01  0.1848E+00  0.3681E+01  0.3593E+01
      2.608  0.8220E-01  0.1966E+00  0.3687E+01  0.3606E+01
      2.675  0.1069E+00  0.1942E+00  0.3694E+01  0.3619E+01
      2.742  0.1281E+00  0.1768E+00  0.3702E+01  0.3631E+01
      2.808  0.1308E+00  0.1484E+00  0.3711E+01  0.3641E+01
      2.875  0.1126E+00  0.1187E+00  0.3719E+01  0.3649E+01
      2.942  0.8951E-01  0.9766E-01  0.3725E+01  0.3655E+01
      3.009  0.8142E-01  0.8769E-01  0.3730E+01  0.3661E+01
      3.076  0.9556E-01  0.8463E-01  0.3736E+01  0.3667E+01
      3.143  0.1235E+00  0.8676E-01  0.3745E+01  0.3673E+01
      3.209  0.1482E+00  0.9766E-01  0.3755E+01  0.3679E+01
      3.276  0.1533E+00  0.1168E+00  0.3765E+01  0.3687E+01
      3.343  0.1318E+00  0.1331E+00  0.3774E+01  0.3696E+01
      3.410  0.8947E-01  0.1332E+00  0.3780E+01  0.3705E+01
      3.477  0.4162E-01  0.1128E+00  0.3782E+01  0.3712E+01
      3.544  0.7556E-02  0.8022E-01  0.3783E+01  0.3718E+01
      3.610  0.4387E-02  0.5388E-01  0.3783E+01  0.3721E+01
      3.677  0.4008E-01  0.5445E-01  0.3786E+01  0.3725E+01
      3.744  0.1057E+00  0.8937E-01  0.3793E+01  0.3731E+01
      3.811  0.1743E+00  0.1422E+00  0.3805E+01  0.3741E+01
      3.878  0.2149E+00  0.1808E+00  0.3819E+01  0.3753E+01
      3.945  0.2131E+00  0.1800E+00  0.3833E+01  0.3765E+01
      4.011  0.1767E+00  0.1391E+00  0.3845E+01  0.3774E+01
      4.078  0.1253E+00  0.8216E-01  0.3853E+01  0.3779E+01
      4.145  0.7825E-01  0.4108E-01  0.3859E+01  0.3782E+01
      4.212  0.4533E-01  0.3607E-01  0.3862E+01  0.3785E+01
      4.279  0.2528E-01  0.6711E-01  0.3863E+01  0.3789E+01
      4.346  0.1209E-01  0.1184E+00  0.3864E+01  0.3797E+01
      4.412  0.3231E-02  0.1689E+00  0.3864E+01  0.3808E+01
      4.479  0.2096E-03  0.2006E+00  0.3864E+01  0.3822E+01
      4.546  0.3725E-02  0.2023E+00  0.3865E+01  0.3835E+01
      4.613  0.1148E-01  0.1731E+00  0.3865E+01  0.3847E+01
      4.680  0.2144E-01  0.1246E+00  0.3867E+01  0.3855E+01
      4.747  0.3621E-01  0.7623E-01  0.3869E+01  0.3860E+01
      4.813  0.6125E-01  0.4188E-01  0.3873E+01  0.3863E+01
      4.880  0.9625E-01  0.2491E-01  0.3880E+01  0.3865E+01
      4.947  0.1306E+00  0.2314E-01  0.3888E+01  0.3866E+01
      5.014  0.1505E+00  0.3320E-01  0.3899E+01  0.3868E+01
      5.081  0.1500E+00  0.4914E-01  0.3909E+01  0.3872E+01
      5.148  0.1322E+00  0.6321E-01  0.3917E+01  0.3876E+01
      5.214  0.1046E+00  0.7161E-01  0.3924E+01  0.3881E+01
      5.281  0.7509E-01  0.7865E-01  0.3929E+01  0.3886E+01
      5.348  0.5257E-01  0.9371E-01  0.3933E+01  0.3892E+01
      5.415  0.4612E-01  0.1215E+00  0.3936E+01  0.3900E+01
      5.482  0.5947E-01  0.1537E+00  0.3940E+01  0.3911E+01
      5.549  0.8675E-01  0.1719E+00  0.3946E+01  0.3922E+01
      5.615  0.1159E+00  0.1634E+00  0.3953E+01  0.3933E+01
      5.682  0.1341E+00  0.1349E+00  0.3962E+01  0.3942E+01
      5.749  0.1312E+00  0.1056E+00  0.3971E+01  0.3949E+01
      5.816  0.1066E+00  0.8827E-01  0.3978E+01  0.3955E+01
      5.883  0.7220E-01  0.8053E-01  0.3983E+01  0.3960E+01
      5.950  0.4336E-01  0.7311E-01  0.3986E+01  0.3965E+01
      6.016  0.2693E-01  0.6106E-01  0.3988E+01  0.3969E+01
      6.083  0.2410E-01  0.4914E-01  0.3989E+01  0.3973E+01
      6.150  0.3822E-01  0.4851E-01  0.3992E+01  0.3976E+01
      6.217  0.7065E-01  0.6683E-01  0.3997E+01  0.3980E+01
      6.284  0.1111E+00  0.1005E+00  0.4004E+01  0.3987E+01
      6.351  0.1431E+00  0.1340E+00  0.4014E+01  0.3996E+01
      6.417  0.1632E+00  0.1473E+00  0.4025E+01  0.4006E+01
      6.484  0.1837E+00  0.1305E+00  0.4037E+01  0.4015E+01
      6.551  0.2090E+00  0.9845E-01  0.4051E+01  0.4021E+01
      6.618  0.2187E+00  0.7953E-01  0.4066E+01  0.4026E+01
      6.685  0.1889E+00  0.8582E-01  0.4078E+01  0.4032E+01
      6.752  0.1271E+00  0.1039E+00  0.4087E+01  0.4039E+01
      6.818  0.7428E-01  0.1164E+00  0.4092E+01  0.4047E+01
      6.885  0.7119E-01  0.1212E+00  0.4096E+01  0.4055E+01
      6.952  0.1237E+00  0.1276E+00  0.4105E+01  0.4064E+01
      7.019  0.1969E+00  0.1413E+00  0.4118E+01  0.4073E+01
      7.086  0.2423E+00  0.1561E+00  0.4134E+01  0.4083E+01
      7.153  0.2361E+00  0.1584E+00  0.4150E+01  0.4094E+01
      7.220  0.1928E+00  0.1422E+00  0.4163E+01  0.4104E+01
      7.286  0.1396E+00  0.1194E+00  0.4172E+01  0.4112E+01
      7.353  0.9070E-01  0.1125E+00  0.4178E+01  0.4119E+01
      7.420  0.4884E-01  0.1351E+00  0.4181E+01  0.4128E+01
      7.487  0.1774E-01  0.1763E+00  0.4182E+01  0.4140E+01
      7.554  0.8000E-03  0.2048E+00  0.4183E+01  0.4154E+01
      7.621 -0.4307E-02  0.1926E+00  0.4182E+01  0.4166E+01
      7.687 -0.3657E-02  0.1403E+00  0.4182E+01  0.4176E+01
      7.754 -0.1906E-02  0.7510E-01  0.4182E+01  0.4181E+01
      7.821 -0.7491E-03  0.2569E-01  0.4182E+01  0.4183E+01
      7.888 -0.2364E-03  0.1565E-02  0.4182E+01  0.4183E+01
      7.955 -0.6113E-04 -0.4706E-02  0.4182E+01  0.4182E+01
      8.022 -0.1294E-04 -0.3920E-02  0.4182E+01  0.4182E+01
      8.088 -0.2227E-05 -0.2136E-02  0.4182E+01  0.4182E+01
      8.155 -0.3086E-06 -0.9765E-03  0.4182E+01  0.4182E+01
      8.222 -0.3422E-07 -0.3936E-03  0.4182E+01  0.4182E+01
      8.289 -0.3026E-08 -0.1358E-03  0.4182E+01  0.4182E+01
      8.356 -0.2130E-09 -0.3842E-04  0.4182E+01  0.4182E+01
      8.423 -0.1192E-10 -0.8687E-05  0.4182E+01  0.4182E+01
      8.489 -0.5301E-12 -0.1551E-05  0.4182E+01  0.4182E+01
      8.556 -0.1876E-13 -0.2182E-06  0.4182E+01  0.4182E+01
      8.623 -0.5257E-15 -0.2416E-07  0.4182E+01  0.4182E+01
      8.690 -0.1119E-16 -0.2111E-08  0.4182E+01  0.4182E+01
      8.757  0.0000E+00 -0.1458E-09  0.4182E+01  0.4182E+01
      8.824  0.0000E+00 -0.7974E-11  0.4182E+01  0.4182E+01
      8.890  0.0000E+00 -0.3459E-12  0.4182E+01  0.4182E+01
      8.957  0.0000E+00 -0.1191E-13  0.4182E+01  0.4182E+01
      9.024  0.0000E+00 -0.3244E-15  0.4182E+01  0.4182E+01
      9.091  0.0000E+00 -0.7457E-17  0.4182E+01  0.4182E+01
      9.158  0.0000E+00  0.0000E+00  0.4182E+01  0.4182E+01
      9.225  0.0000E+00  0.0000E+00  0.4182E+01  0.4182E+01
      9.291  0.0000E+00  0.0000E+00  0.4182E+01  0.4182E+01
      9.358  0.0000E+00  0.0000E+00  0.4182E+01  0.4182E+01
      9.425  0.0000E+00  0.0000E+00  0.4182E+01  0.4182E+01
      9.492  0.0000E+00  0.0000E+00  0.4182E+01  0.4182E+01
      9.559  0.0000E+00  0.0000E+00  0.4182E+01  0.4182E+01
      9.626  0.0000E+00  0.0000E+00  0.4182E+01  0.4182E+01
      9.692  0.0000E+00  0.0000E+00  0.4182E+01  0.4182E+01
      9.759  0.0000E+00  0.0000E+00  0.4182E+01  0.4182E+01
      9.826  0.0000E+00  0.0000E+00  0.4182E+01  0.4182E+01
      9.82610528    -10.22465265  301      0.24313471      1.00000000
    -10.225  0.0000E+00  0.0000E+00  0.0000E+00  0.0000E+00  0.0000E+00  0.0000E+00
    -10.158  0.0000E+00  0.0000E+00  0.0000E+00  0.0000E+00  0.0000E+00  0.0000E+00
    -10.091  0.0000E+00  0.0000E+00  0.0000E+00  0.0000E+00  0.0000E+00  0.0000E+00
    -10.024  0.0000E+00  0.0000E+00  0.0000E+00  0.0000E+00  0.0000E+00  0.0000E+00
     -9.957  0.0000E+00  0.0000E+00  0.0000E+00  0.0000E+00  0.0000E+00  0.0000E+00
     -9.890 -0.4685E-31  0.0000E+00 -0.3214E-33  0.0000E+00 -0.7915E-34  0.0000E+00
     -9.824 -0.1047E-28 -0.1541E-29 -0.7186E-31 -0.1099E-31 -0.1770E-31 -0.2329E-32
     -9.757 -0.1876E-26 -0.2989E-27 -0.1287E-28 -0.2133E-29 -0.3170E-29 -0.4519E-30
     -9.690 -0.2681E-24 -0.4649E-25 -0.1840E-26 -0.3316E-27 -0.4531E-27 -0.7027E-28
     -9.623 -0.3058E-22 -0.5768E-23 -0.2098E-24 -0.4115E-25 -0.5167E-25 -0.8720E-26
     -9.556 -0.2782E-20 -0.5710E-21 -0.1909E-22 -0.4073E-23 -0.4700E-23 -0.8631E-24
     -9.489 -0.2018E-18 -0.4507E-19 -0.1384E-20 -0.3215E-21 -0.3410E-21 -0.6813E-22
     -9.423 -0.1167E-16 -0.2836E-17 -0.8004E-19 -0.2023E-19 -0.1971E-19 -0.4287E-20
     -9.356 -0.5209E-15 -0.1374E-15 -0.3574E-17 -0.9801E-18 -0.8801E-18 -0.2077E-18
     -9.289 -0.1901E-13 -0.5488E-14 -0.1304E-15 -0.3915E-16 -0.3212E-16 -0.8296E-17
     -9.222 -0.5518E-12 -0.1736E-12 -0.3786E-14 -0.1238E-14 -0.9323E-15 -0.2624E-15
     -9.155 -0.1271E-10 -0.4359E-11 -0.8722E-13 -0.3110E-13 -0.2148E-13 -0.6590E-14
     -9.088 -0.2321E-09 -0.8683E-10 -0.1593E-11 -0.6195E-12 -0.3922E-12 -0.1313E-12
     -9.022 -0.3352E-08 -0.1369E-08 -0.2301E-10 -0.9770E-11 -0.5663E-11 -0.2070E-11
     -8.955 -0.3818E-07 -0.1704E-07 -0.2623E-09 -0.1217E-09 -0.6450E-10 -0.2577E-10
     -8.888 -0.3416E-06 -0.1670E-06 -0.2351E-08 -0.1194E-08 -0.5771E-09 -0.2524E-09
     -8.821 -0.2388E-05 -0.1281E-05 -0.1650E-07 -0.9181E-08 -0.4034E-08 -0.1936E-08
     -8.754 -0.1293E-04 -0.7639E-05 -0.9029E-07 -0.5512E-07 -0.2185E-07 -0.1155E-07
     -8.687 -0.5355E-04 -0.3504E-04 -0.3833E-06 -0.2568E-06 -0.9046E-07 -0.5294E-07
     -8.621 -0.1658E-03 -0.1214E-03 -0.1264E-05 -0.9258E-06 -0.2801E-06 -0.1833E-06
     -8.554 -0.3675E-03 -0.3072E-03 -0.3298E-05 -0.2597E-05 -0.6204E-06 -0.4632E-06
     -8.487 -0.5201E-03 -0.5271E-03 -0.7235E-05 -0.5880E-05 -0.8766E-06 -0.7901E-06
     -8.420 -0.2474E-03 -0.4662E-03 -0.1471E-04 -0.1174E-04 -0.4104E-06 -0.6779E-06
     -8.353  0.8188E-03  0.3228E-03 -0.2755E-04 -0.2222E-04  0.1403E-05  0.5662E-06
     -8.286  0.2791E-02  0.2041E-02 -0.3415E-04 -0.3371E-04  0.4747E-05  0.3239E-05
     -8.220  0.6322E-02  0.5012E-02  0.2247E-04 -0.9492E-05  0.1069E-04  0.7722E-05
     -8.153  0.1362E-01  0.1108E-01  0.2450E-03  0.1445E-03  0.2290E-04  0.1654E-04
     -8.086  0.2611E-01  0.2280E-01  0.6710E-03  0.5140E-03  0.4368E-04  0.3333E-04
     -8.019  0.3925E-01  0.3812E-01  0.1121E-02  0.1010E-02  0.6517E-04  0.5514E-04
     -7.952  0.4336E-01  0.4760E-01  0.1263E-02  0.1319E-02  0.7051E-04  0.6816E-04
     -7.885  0.3346E-01  0.4237E-01  0.9364E-03  0.1163E-02  0.5072E-04  0.5888E-04
     -7.819  0.1628E-01  0.2532E-01  0.3796E-03  0.6249E-03  0.1864E-04  0.3067E-04
     -7.752  0.4601E-02  0.9936E-02  0.9069E-04  0.1368E-03  0.2734E-05  0.4747E-05
     -7.685  0.6469E-02  0.7876E-02  0.4709E-03  0.1737E-03  0.2727E-04  0.5615E-05
     -7.618  0.1991E-01  0.1927E-01  0.1510E-02  0.9328E-03  0.9347E-04  0.4533E-04
     -7.551  0.3560E-01  0.3405E-01  0.2749E-02  0.2180E-02  0.1782E-03  0.1153E-03
     -7.484  0.4521E-01  0.4228E-01  0.3699E-02  0.3429E-02  0.2605E-03  0.1947E-03
     -7.418  0.4806E-01  0.4360E-01  0.4287E-02  0.4393E-02  0.3401E-03  0.2712E-03
     -7.351  0.4751E-01  0.4410E-01  0.4595E-02  0.5056E-02  0.4062E-03  0.3385E-03
     -7.284  0.4305E-01  0.4472E-01  0.4354E-02  0.5217E-02  0.4087E-03  0.3685E-03
     -7.217  0.3189E-01  0.3944E-01  0.3258E-02  0.4445E-02  0.3096E-03  0.3201E-03
     -7.150  0.1639E-01  0.2582E-01  0.1633E-02  0.2775E-02  0.1458E-03  0.1950E-03
     -7.083  0.3226E-02  0.9986E-02  0.2275E-03  0.9542E-03 -0.4841E-05  0.5045E-04
     -7.017 -0.3660E-02 -0.8853E-03 -0.5025E-03 -0.2928E-03 -0.8913E-04 -0.5817E-04
     -6.950 -0.3766E-02 -0.5015E-02 -0.2749E-03 -0.7627E-03 -0.2742E-04 -0.1021E-03
     -6.883  0.5611E-02 -0.2647E-02  0.1745E-02 -0.1877E-03  0.3920E-03  0.2173E-05
     -6.816  0.2910E-01  0.9734E-02  0.6483E-02  0.2469E-02  0.1374E-02  0.4642E-03
     -6.749  0.6257E-01  0.3609E-01  0.1288E-01  0.8094E-02  0.2684E-02  0.1440E-02
     -6.682  0.8714E-01  0.6944E-01  0.1710E-01  0.1510E-01  0.3514E-02  0.2640E-02
     -6.616  0.8396E-01  0.8953E-01  0.1580E-01  0.1913E-01  0.3177E-02  0.3299E-02
     -6.549  0.5637E-01  0.8076E-01  0.1016E-01  0.1700E-01  0.1988E-02  0.2869E-02
     -6.482  0.2906E-01  0.5140E-01  0.5264E-02  0.1076E-01  0.1134E-02  0.1714E-02
     -6.415  0.2283E-01  0.2706E-01  0.5073E-02  0.5972E-02  0.1552E-02  0.8697E-03
     -6.348  0.3543E-01  0.2461E-01  0.8805E-02  0.6116E-02  0.3015E-02  0.1082E-02
     -6.281  0.4856E-01  0.3777E-01  0.1244E-01  0.9576E-02  0.4392E-02  0.2195E-02
     -6.215  0.4885E-01  0.4818E-01  0.1305E-01  0.1229E-01  0.4782E-02  0.3409E-02
     -6.148  0.3811E-01  0.4576E-01  0.1097E-01  0.1221E-01  0.4206E-02  0.4041E-02
     -6.081  0.2490E-01  0.3522E-01  0.7919E-02  0.1039E-01  0.3145E-02  0.3979E-02
     -6.014  0.1379E-01  0.2515E-01  0.4868E-02  0.8444E-02  0.1893E-02  0.3432E-02
     -5.947  0.6119E-02  0.1747E-01  0.2447E-02  0.6475E-02  0.7542E-03  0.2536E-02
     -5.880  0.5423E-02  0.1011E-01  0.2129E-02  0.4265E-02  0.4912E-03  0.1465E-02
     -5.813  0.1656E-01  0.4700E-02  0.5594E-02  0.2892E-02  0.2175E-02  0.7080E-03
     -5.747  0.4006E-01  0.7073E-02  0.1312E-01  0.4066E-02  0.6476E-02  0.9316E-03
     -5.680  0.6879E-01  0.2184E-01  0.2267E-01  0.8616E-02  0.1272E-01  0.2728E-02
     -5.613  0.8965E-01  0.4791E-01  0.3007E-01  0.1626E-01  0.1828E-01  0.6499E-02
     -5.546  0.9089E-01  0.7713E-01  0.3106E-01  0.2547E-01  0.1992E-01  0.1187E-01
     -5.479  0.7215E-01  0.9640E-01  0.2513E-01  0.3264E-01  0.1700E-01  0.1675E-01
     -5.412  0.4748E-01  0.9462E-01  0.1726E-01  0.3317E-01  0.1333E-01  0.1807E-01
     -5.346  0.3387E-01  0.7189E-01  0.1373E-01  0.2586E-01  0.1363E-01  0.1462E-01
     -5.279  0.3493E-01  0.4175E-01  0.1566E-01  0.1531E-01  0.1788E-01  0.9121E-02
     -5.212  0.3871E-01  0.2171E-01  0.1792E-01  0.8509E-02  0.2047E-01  0.6233E-02
     -5.145  0.3255E-01  0.1988E-01  0.1519E-01  0.8813E-02  0.1630E-01  0.8409E-02
     -5.078  0.1674E-01  0.3008E-01  0.7953E-02  0.1388E-01  0.6830E-02  0.1372E-01
     -5.011  0.3324E-02  0.3896E-01  0.2395E-02  0.1859E-01  0.1303E-03  0.1761E-01
     -4.945  0.5804E-02  0.3734E-01  0.5537E-02  0.1908E-01  0.6109E-02  0.1670E-01
     -4.878  0.3029E-01  0.2549E-01  0.1994E-01  0.1471E-01  0.3028E-01  0.1112E-01
     -4.811  0.6994E-01  0.1057E-01  0.4031E-01  0.7937E-02  0.6799E-01  0.4161E-02
     -4.744  0.1058E+00  0.2113E-02  0.5537E-01  0.3659E-02  0.1046E+00  0.8976E-03
     -4.677  0.1187E+00  0.9536E-02  0.5609E-01  0.7667E-02  0.1258E+00  0.6793E-02
     -4.610  0.1049E+00  0.3746E-01  0.4337E-01  0.2262E-01  0.1298E+00  0.2475E-01
     -4.544  0.7879E-01  0.7832E-01  0.2662E-01  0.4392E-01  0.1291E+00  0.5089E-01
     -4.477  0.5888E-01  0.1123E+00  0.1535E-01  0.6098E-01  0.1378E+00  0.7445E-01
     -4.410  0.5426E-01  0.1214E+00  0.1331E-01  0.6502E-01  0.1594E+00  0.8507E-01
     -4.343  0.6236E-01  0.1042E+00  0.1890E-01  0.5562E-01  0.1885E+00  0.8113E-01
     -4.276  0.7623E-01  0.7463E-01  0.2829E-01  0.3939E-01  0.2226E+00  0.6982E-01
     -4.209  0.8921E-01  0.4826E-01  0.3713E-01  0.2371E-01  0.2632E+00  0.5946E-01
     -4.143  0.9513E-01  0.3198E-01  0.4184E-01  0.1249E-01  0.3053E+00  0.5328E-01
     -4.076  0.9045E-01  0.2490E-01  0.4137E-01  0.6559E-02  0.3392E+00  0.5181E-01
     -4.009  0.7804E-01  0.2518E-01  0.3811E-01  0.6350E-02  0.3639E+00  0.6196E-01
     -3.942  0.6559E-01  0.3479E-01  0.3602E-01  0.1322E-01  0.3957E+00  0.1016E+00
     -3.875  0.5853E-01  0.5652E-01  0.3733E-01  0.2694E-01  0.4550E+00  0.1865E+00
     -3.808  0.5554E-01  0.8616E-01  0.4080E-01  0.4275E-01  0.5448E+00  0.3041E+00
     -3.742  0.5139E-01  0.1109E+00  0.4324E-01  0.5353E-01  0.6419E+00  0.4065E+00
     -3.675  0.4316E-01  0.1187E+00  0.4300E-01  0.5552E-01  0.7147E+00  0.4415E+00
     -3.608  0.3245E-01  0.1076E+00  0.4181E-01  0.5056E-01  0.7539E+00  0.3992E+00
     -3.541  0.2277E-01  0.8550E-01  0.4261E-01  0.4377E-01  0.7832E+00  0.3259E+00
     -3.474  0.1634E-01  0.6277E-01  0.4608E-01  0.4044E-01  0.8288E+00  0.2888E+00
     -3.407  0.1329E-01  0.4587E-01  0.5021E-01  0.4284E-01  0.8830E+00  0.3149E+00
     -3.341  0.1255E-01  0.3500E-01  0.5312E-01  0.4777E-01  0.9130E+00  0.3686E+00
     -3.274  0.1276E-01  0.2753E-01  0.5520E-01  0.4975E-01  0.9057E+00  0.4046E+00
     -3.207  0.1279E-01  0.2338E-01  0.5793E-01  0.4801E-01  0.8819E+00  0.4353E+00
     -3.140  0.1209E-01  0.2492E-01  0.6139E-01  0.4713E-01  0.8639E+00  0.5157E+00
     -3.073  0.1072E-01  0.3133E-01  0.6416E-01  0.4976E-01  0.8498E+00  0.6621E+00
     -3.006  0.9091E-02  0.3674E-01  0.6536E-01  0.5248E-01  0.8290E+00  0.8149E+00
     -2.940  0.7710E-02  0.3554E-01  0.6558E-01  0.5082E-01  0.8034E+00  0.8950E+00
     -2.873  0.7051E-02  0.2805E-01  0.6559E-01  0.4555E-01  0.7855E+00  0.8765E+00
     -2.806  0.7338E-02  0.1949E-01  0.6538E-01  0.4158E-01  0.7819E+00  0.7975E+00
     -2.739  0.8235E-02  0.1431E-01  0.6525E-01  0.4263E-01  0.7891E+00  0.7178E+00
     -2.672  0.8993E-02  0.1287E-01  0.6690E-01  0.4864E-01  0.8048E+00  0.6801E+00
     -2.605  0.9073E-02  0.1278E-01  0.7201E-01  0.5668E-01  0.8331E+00  0.6939E+00
     -2.539  0.8547E-02  0.1200E-01  0.7957E-01  0.6250E-01  0.8727E+00  0.7312E+00
     -2.472  0.7919E-02  0.1013E-01  0.8595E-01  0.6243E-01  0.9113E+00  0.7440E+00
     -2.405  0.7656E-02  0.7822E-02  0.8826E-01  0.5618E-01  0.9378E+00  0.7077E+00
     -2.338  0.7889E-02  0.5801E-02  0.8657E-01  0.4776E-01  0.9581E+00  0.6456E+00
     -2.271  0.8469E-02  0.4454E-02  0.8230E-01  0.4261E-01  0.9941E+00  0.6037E+00
     -2.204  0.9219E-02  0.3860E-02  0.7605E-01  0.4413E-01  0.1069E+01  0.6109E+00
     -2.138  0.1008E-01  0.3958E-02  0.6814E-01  0.5245E-01  0.1191E+01  0.6663E+00
     -2.071  0.1102E-01  0.4617E-02  0.5978E-01  0.6482E-01  0.1336E+01  0.7458E+00
     -2.004  0.1183E-01  0.5609E-02  0.5246E-01  0.7682E-01  0.1453E+01  0.8134E+00
     -1.937  0.1209E-01  0.6631E-02  0.4659E-01  0.8454E-01  0.1485E+01  0.8449E+00
     -1.870  0.1153E-01  0.7431E-02  0.4169E-01  0.8678E-01  0.1408E+01  0.8480E+00
     -1.803  0.1029E-01  0.7920E-02  0.3760E-01  0.8557E-01  0.1256E+01  0.8599E+00
     -1.736  0.8802E-02  0.8193E-02  0.3493E-01  0.8441E-01  0.1103E+01  0.9174E+00
     -1.670  0.7400E-02  0.8432E-02  0.3397E-01  0.8463E-01  0.1023E+01  0.1023E+01
     -1.603  0.6224E-02  0.8748E-02  0.3384E-01  0.8382E-01  0.1049E+01  0.1137E+01
     -1.536  0.5377E-02  0.9160E-02  0.3301E-01  0.7902E-01  0.1142E+01  0.1221E+01
     -1.469  0.5008E-02  0.9718E-02  0.3068E-01  0.7074E-01  0.1218E+01  0.1267E+01
     -1.402  0.5154E-02  0.1051E-01  0.2727E-01  0.6235E-01  0.1211E+01  0.1297E+01
     -1.335  0.5562E-02  0.1149E-01  0.2364E-01  0.5661E-01  0.1124E+01  0.1335E+01
     -1.269  0.5790E-02  0.1240E-01  0.2040E-01  0.5422E-01  0.1024E+01  0.1394E+01
     -1.202  0.5575E-02  0.1287E-01  0.1817E-01  0.5461E-01  0.9921E+00  0.1459E+01
     -1.135  0.5081E-02  0.1258E-01  0.1769E-01  0.5657E-01  0.1066E+01  0.1489E+01
     -1.068  0.4692E-02  0.1140E-01  0.1907E-01  0.5819E-01  0.1218E+01  0.1443E+01