       N       E                     dE             d eps       ncg     rms          rms(c)
DAV:   1     0.458671290219E+04    0.45867E+04   -0.26345E+05  8289   0.159E+03
DAV:   2     0.787845979265E+02   -0.45079E+04   -0.42390E+04  8280   0.354E+02
DAV:   3    -0.357771325538E+03   -0.43656E+03   -0.37425E+03  8514   0.150E+02
DAV:   4    -0.376003753153E+03   -0.18232E+02   -0.17886E+02  8820   0.337E+01
DAV:   5    -0.376358808328E+03   -0.35506E+00   -0.35488E+00  9675   0.366E+00    0.330E+01
RMM:   6    -0.413408420474E+03   -0.37050E+02   -0.24326E+01  8330   0.115E+01    0.955E+01
RMM:   7    -0.454121545821E+03   -0.40713E+02   -0.35756E+01  8325   0.148E+01    0.132E+02
RMM:   8    -0.387846292951E+03    0.66275E+02   -0.22036E+01  8346   0.113E+01    0.529E+01
RMM:   9    -0.373537355255E+03    0.14309E+02   -0.12497E+01  8352   0.929E+00    0.303E+01
RMM:  10    -0.371509461913E+03    0.20279E+01   -0.80600E+00  8362   0.690E+00    0.294E+01
RMM:  11    -0.372492376877E+03   -0.98291E+00   -0.42122E+00  8349   0.534E+00    0.248E+01
RMM:  12    -0.370865859697E+03    0.16265E+01   -0.25779E+00  8358   0.419E+00    0.162E+01
RMM:  13    -0.373336212242E+03   -0.24704E+01   -0.26717E+00  8361   0.393E+00    0.261E+01
RMM:  14    -0.372860523671E+03    0.47569E+00   -0.23487E+00  8350   0.386E+00    0.142E+01
RMM:  15    -0.373098505627E+03   -0.23798E+00   -0.93867E-01  8349   0.239E+00    0.100E+01
RMM:  16    -0.375219506929E+03   -0.21210E+01   -0.99202E-01  8332   0.208E+00    0.121E+01
RMM:  17    -0.375441978676E+03   -0.22247E+00   -0.63309E-01  8336   0.186E+00    0.730E+00
RMM:  18    -0.376415204138E+03   -0.97323E+00   -0.43751E-01  8338   0.143E+00    0.817E+00
RMM:  19    -0.376934335907E+03   -0.51913E+00   -0.30900E-01  8322   0.119E+00    0.405E+00
RMM:  20    -0.377413950374E+03   -0.47961E+00   -0.14810E-01  8335   0.841E-01    0.395E+00
RMM:  21    -0.378504666645E+03   -0.10907E+01   -0.36229E-01  8310   0.875E-01    0.388E+00
RMM:  22    -0.378787442526E+03   -0.28278E+00   -0.10915E-01  8329   0.623E-01    0.244E+00
RMM:  23    -0.379633865261E+03   -0.84642E+00   -0.27719E-01  8312   0.748E-01    0.401E+00
RMM:  24    -0.380198139279E+03   -0.56427E+00   -0.19374E-01  8311   0.659E-01    0.233E+00
RMM:  25    -0.380487605513E+03   -0.28947E+00   -0.60249E-02  8332   0.433E-01    0.232E+00
RMM:  26    -0.380957240660E+03   -0.46964E+00   -0.12229E-01  8306   0.462E-01    0.259E+00
RMM:  27    -0.381031824069E+03   -0.74583E-01   -0.19001E-02  8342   0.275E-01    0.279E+00
RMM:  28    -0.381051209229E+03   -0.19385E-01   -0.10144E-02  8328   0.192E-01    0.104E+00
RMM:  29    -0.381132873515E+03   -0.81664E-01   -0.25113E-02  8323   0.300E-01    0.124E+00
RMM:  30    -0.381192716550E+03   -0.59843E-01   -0.26371E-02  8304   0.264E-01    0.915E-01
RMM:  31    -0.381206807676E+03   -0.14091E-01   -0.58219E-03  8342   0.168E-01    0.568E-01
RMM:  32    -0.381255975504E+03   -0.49168E-01   -0.52525E-03  8327   0.140E-01    0.753E-01
RMM:  33    -0.381286924582E+03   -0.30949E-01   -0.31992E-03  8330   0.118E-01    0.315E-01
RMM:  34    -0.381316717716E+03   -0.29793E-01   -0.13428E-03  8339   0.786E-02    0.379E-01
RMM:  35    -0.381365322727E+03   -0.48605E-01   -0.15450E-03  8318   0.677E-02    0.245E-01
RMM:  36    -0.381394014288E+03   -0.28692E-01   -0.60094E-04  8299   0.515E-02    0.261E-01
RMM:  37    -0.381471378635E+03   -0.77364E-01   -0.16900E-03  8306   0.570E-02    0.297E-01
RMM:  38    -0.381488467676E+03   -0.17089E-01   -0.35589E-04  8294   0.375E-02    0.223E-01
RMM:  39    -0.381509893376E+03   -0.21426E-01   -0.45531E-04  8279   0.323E-02    0.154E-01
RMM:  40    -0.381518606167E+03   -0.87128E-02   -0.19633E-04  8155   0.257E-02    0.826E-02
RMM:  41    -0.381527651804E+03   -0.90456E-02   -0.23405E-04  8241   0.238E-02    0.160E-01
RMM:  42    -0.381533818284E+03   -0.61665E-02   -0.19298E-04  7972   0.213E-02    0.205E-01
RMM:  43    -0.381535643942E+03   -0.18257E-02   -0.52811E-05  6367   0.127E-02    0.132E-01
RMM:  44    -0.381538750843E+03   -0.31069E-02   -0.99959E-05  6927   0.143E-02    0.644E-02
RMM:  45    -0.381540624917E+03   -0.18741E-02   -0.54943E-05  6085   0.113E-02    0.629E-02
RMM:  46    -0.381543650048E+03   -0.30251E-02   -0.98609E-05  6358   0.122E-02    0.650E-02
RMM:  47    -0.381544508518E+03   -0.85847E-03   -0.24159E-05  5509   0.787E-03    0.691E-02
RMM:  48    -0.381545125316E+03   -0.61680E-03   -0.40781E-05  5772   0.726E-03    0.932E-02
RMM:  49    -0.381545220340E+03   -0.95024E-04   -0.73600E-06  5097   0.497E-03    0.103E-01
RMM:  50    -0.381545237642E+03   -0.17302E-04   -0.52493E-06  4981   0.336E-03    0.821E-02
RMM:  51    -0.381545123965E+03    0.11368E-03   -0.16716E-05  5434   0.673E-03    0.102E-01
RMM:  52    -0.381545185220E+03   -0.61255E-04   -0.21749E-06  4595   0.340E-03    0.916E-02
RMM:  53    -0.381545198685E+03   -0.13465E-04   -0.77595E-07  4357   0.199E-03    0.791E-02
RMM:  54    -0.381545318019E+03   -0.11933E-03   -0.84656E-06  5267   0.389E-03    0.623E-02
RMM:  55    -0.381545369582E+03   -0.51562E-04   -0.52758E-06  4901   0.440E-03    0.453E-02
RMM:  56    -0.381545374413E+03   -0.48309E-05   -0.25331E-06  4651   0.339E-03
   1 F= -.38154537E+03 E0= -.38155621E+03  d E =-.381545E+03  mag=    81.2776
       N       E                     dE             d eps       ncg     rms          rms(c)
DAV:   1    -0.380797398935E+03    0.74797E+00   -0.21847E+02  8388   0.219E+01    0.120E+01
RMM:   2    -0.393549605209E+03   -0.12752E+02   -0.17471E+01  8317   0.115E+01    0.525E+01
RMM:   3    -0.390466501545E+03    0.30831E+01   -0.62829E+00  8323   0.628E+00    0.422E+01
RMM:   4    -0.383795948115E+03    0.66706E+01   -0.30106E+00  8340   0.416E+00    0.192E+01
RMM:   5    -0.382913602515E+03    0.88235E+00   -0.14134E+00  8333   0.307E+00    0.137E+01
RMM:   6    -0.382331692205E+03    0.58191E+00   -0.55463E-01  8332   0.198E+00    0.458E+00
RMM:   7    -0.382340582159E+03   -0.88900E-02   -0.14269E-01  8334   0.953E-01    0.446E+00
RMM:   8    -0.382307727672E+03    0.32854E-01   -0.60473E-02  8337   0.658E-01    0.305E+00
RMM:   9    -0.382306413408E+03    0.13143E-02   -0.48893E-02  8331   0.556E-01    0.315E+00
RMM:  10    -0.382276983658E+03    0.29430E-01   -0.43754E-02  8339   0.514E-01    0.218E+00
RMM:  11    -0.382260818875E+03    0.16165E-01   -0.24240E-02  8333   0.396E-01    0.114E+00
RMM:  12    -0.382261870394E+03   -0.10515E-02   -0.13801E-02  8341   0.288E-01    0.149E+00
RMM:  13    -0.382254004742E+03    0.78657E-02   -0.89510E-03  8334   0.244E-01    0.831E-01
RMM:  14    -0.382253735245E+03    0.26950E-03   -0.44220E-03  8341   0.165E-01    0.104E+00
RMM:  15    -0.382251089952E+03    0.26453E-02   -0.23067E-03  8328   0.127E-01    0.341E-01
RMM:  16    -0.382251924990E+03   -0.83504E-03   -0.72230E-04  8301   0.673E-02    0.249E-01
RMM:  17    -0.382256411968E+03   -0.44870E-02   -0.50465E-04  8311   0.539E-02    0.312E-01
RMM:  18    -0.382258770990E+03   -0.23590E-02   -0.34157E-04  8280   0.467E-02    0.173E-01
RMM:  19    -0.382263953978E+03   -0.51830E-02   -0.27090E-04  8280   0.371E-02    0.228E-01
RMM:  20    -0.382268146680E+03   -0.41927E-02   -0.16647E-04  8225   0.300E-02    0.120E-01
RMM:  21    -0.382271474420E+03   -0.33277E-02   -0.92394E-05  7926   0.208E-02    0.127E-01
RMM:  22    -0.382281161171E+03   -0.96868E-02   -0.30098E-04  8197   0.244E-02    0.994E-02
RMM:  23    -0.382284929405E+03   -0.37682E-02   -0.11386E-04  7757   0.195E-02    0.708E-02
RMM:  24    -0.382292326883E+03   -0.73975E-02   -0.33921E-04  8191   0.239E-02    0.928E-02
RMM:  25    -0.382295351506E+03   -0.30246E-02   -0.13164E-04  7669   0.186E-02    0.410E-02
RMM:  26    -0.382298017595E+03   -0.26661E-02   -0.10724E-04  7343   0.155E-02    0.760E-02
RMM:  27    -0.382300567700E+03   -0.25501E-02   -0.12167E-04  7316   0.153E-02    0.367E-02
RMM:  28    -0.382301275420E+03   -0.70772E-03   -0.26111E-05  5696   0.880E-03    0.408E-02
RMM:  29    -0.382302032122E+03   -0.75670E-03   -0.32563E-05  5919   0.826E-03    0.220E-02
RMM:  30    -0.382302176742E+03   -0.14462E-03   -0.60257E-06  4828   0.487E-03    0.145E-02
RMM:  31    -0.382302330829E+03   -0.15409E-03   -0.52379E-06  4855   0.351E-03    0.151E-02
RMM:  32    -0.382302396809E+03   -0.65980E-04   -0.23749E-06  4660   0.309E-03    0.962E-03
RMM:  33    -0.382302449285E+03   -0.52476E-04   -0.18817E-06  4475   0.205E-03    0.848E-03
RMM:  34    -0.382302474235E+03   -0.24950E-04   -0.94464E-07  4285   0.185E-03    0.417E-03
RMM:  35    -0.382302492878E+03   -0.18643E-04   -0.61129E-07  3580   0.137E-03    0.547E-03
RMM:  36    -0.382302509432E+03   -0.16553E-04   -0.54942E-07  3437   0.125E-03    0.269E-03
RMM:  37    -0.382302519294E+03   -0.98624E-05   -0.27432E-07  2523   0.109E-03
   2 F= -.38230252E+03 E0= -.38231188E+03  d E =-.757145E+00  mag=    81.6183
       N       E                     dE             d eps       ncg     rms          rms(c)
DAV:   1    -0.381222491571E+03    0.10800E+01   -0.17500E+02  8280   0.195E+01    0.105E+01
RMM:   2    -0.388849990014E+03   -0.76275E+01   -0.11021E+01  8319   0.915E+00    0.401E+01
RMM:   3    -0.388292806553E+03    0.55718E+00   -0.44460E+00  8324   0.523E+00    0.343E+01
RMM:   4    -0.384096714141E+03    0.41961E+01   -0.22688E+00  8341   0.358E+00    0.190E+01
RMM:   5    -0.382839051214E+03    0.12577E+01   -0.10485E+00  8334   0.268E+00    0.108E+01
RMM:   6    -0.382464486589E+03    0.37456E+00   -0.35622E-01  8341   0.156E+00    0.335E+00
RMM:   7    -0.382484485536E+03   -0.19999E-01   -0.10265E-01  8333   0.807E-01    0.378E+00
RMM:   8    -0.382449074390E+03    0.35411E-01   -0.42726E-02  8341   0.555E-01    0.208E+00
RMM:   9    -0.382451924436E+03   -0.28500E-02   -0.31576E-02  8324   0.444E-01    0.237E+00
RMM:  10    -0.382436581309E+03    0.15343E-01   -0.27674E-02  8344   0.408E-01    0.164E+00
RMM:  11    -0.382429067573E+03    0.75137E-02   -0.15184E-02  8337   0.313E-01    0.933E-01
RMM:  12    -0.382434453390E+03   -0.53858E-02   -0.10604E-02  8345   0.254E-01    0.145E+00
RMM:  13    -0.382429954232E+03    0.44992E-02   -0.68249E-03  8327   0.214E-01    0.709E-01
RMM:  14    -0.382430008378E+03   -0.54146E-04   -0.25468E-03  8332   0.124E-01    0.640E-01
RMM:  15    -0.382430718086E+03   -0.70971E-03   -0.11486E-03  8327   0.888E-02    0.234E-01
RMM:  16    -0.382431973959E+03   -0.12559E-02   -0.40947E-04  8291   0.513E-02    0.190E-01
RMM:  17    -0.382435852829E+03   -0.38789E-02   -0.26415E-04  8277   0.386E-02    0.198E-01
RMM:  18    -0.382437407090E+03   -0.15543E-02   -0.16210E-04  8239   0.321E-02    0.102E-01
RMM:  19    -0.382441341933E+03   -0.39348E-02   -0.14040E-04  8233   0.248E-02    0.151E-01
RMM:  20    -0.382443630616E+03   -0.22887E-02   -0.82310E-05  7781   0.210E-02    0.856E-02
RMM:  21    -0.382446436890E+03   -0.28063E-02   -0.68013E-05  7200   0.164E-02    0.102E-01
RMM:  22    -0.382450806997E+03   -0.43701E-02   -0.12612E-04  7532   0.177E-02    0.693E-02
RMM:  23    -0.382452627395E+03   -0.18204E-02   -0.49517E-05  6538   0.135E-02    0.589E-02
RMM:  24    -0.382456829390E+03   -0.42020E-02   -0.17560E-04  7605   0.172E-02    0.697E-02
RMM:  25    -0.382458593787E+03   -0.17644E-02   -0.64038E-05  6690   0.133E-02    0.341E-02
RMM:  26    -0.382460070358E+03   -0.14766E-02   -0.48869E-05  6303   0.111E-02    0.523E-02
RMM:  27    -0.382461760366E+03   -0.16900E-02   -0.75691E-05  6731   0.118E-02    0.258E-02
RMM:  28    -0.382462158883E+03   -0.39852E-03   -0.14906E-05  5075   0.677E-03    0.292E-02
RMM:  29    -0.382462603407E+03   -0.44452E-03   -0.21975E-05  5528   0.656E-03    0.116E-02
RMM:  30    -0.382462667031E+03   -0.63624E-04   -0.35923E-06  4741   0.366E-03    0.107E-02
RMM:  31    -0.382462728316E+03   -0.61285E-04   -0.31979E-06  4718   0.278E-03    0.889E-03
RMM:  32    -0.382462741041E+03   -0.12725E-04   -0.80258E-07  4318   0.193E-03    0.646E-03
RMM:  33    -0.382462766666E+03   -0.25625E-04   -0.93899E-07  3667   0.142E-03    0.491E-03
RMM:  34    -0.382462774599E+03   -0.79334E-05   -0.24001E-07  3080   0.118E-03
   3 F= -.38246277E+03 E0= -.38247302E+03  d E =-.917400E+00  mag=    81.8649
       N       E                     dE             d eps       ncg     rms          rms(c)
DAV:   1    -0.382451359491E+03    0.11407E-01   -0.21886E+00  8442   0.215E+00    0.107E+00
RMM:   2    -0.382489742334E+03   -0.38383E-01   -0.43497E-02  8332   0.559E-01    0.239E+00
RMM:   3    -0.382538248282E+03   -0.48506E-01   -0.43790E-02  8331   0.509E-01    0.384E+00
RMM:   4    -0.382509202742E+03    0.29046E-01   -0.25734E-02  8338   0.381E-01    0.354E+00
RMM:   5    -0.382467839460E+03    0.41363E-01   -0.17331E-02  8328   0.342E-01    0.831E-01
RMM:   6    -0.382465621262E+03    0.22182E-02   -0.26162E-03  8326   0.129E-01    0.263E-01
RMM:   7    -0.382465755507E+03   -0.13424E-03   -0.76554E-04  8298   0.680E-02    0.370E-01
RMM:   8    -0.382465041953E+03    0.71355E-03   -0.41512E-04  8282   0.539E-02    0.153E-01
RMM:   9    -0.382464954391E+03    0.87562E-04   -0.21567E-04  8282   0.372E-02    0.137E-01
RMM:  10    -0.382464837940E+03    0.11645E-03   -0.22576E-04  8272   0.365E-02    0.189E-01
RMM:  11    -0.382464687143E+03    0.15080E-03   -0.13286E-04  8217   0.296E-02    0.764E-02
RMM:  12    -0.382464748610E+03   -0.61467E-04   -0.41629E-05  6855   0.161E-02    0.831E-02
RMM:  13    -0.382464811723E+03   -0.63113E-04   -0.19893E-05  4893   0.128E-02    0.331E-02
RMM:  14    -0.382464842347E+03   -0.30624E-04   -0.48382E-06  4527   0.581E-03    0.183E-02
RMM:  15    -0.382464951266E+03   -0.10892E-03   -0.33344E-06  4619   0.438E-03    0.231E-02
RMM:  16    -0.382465026101E+03   -0.74835E-04   -0.22885E-06  4563   0.412E-03    0.101E-02
RMM:  17    -0.382465109112E+03   -0.83011E-04   -0.14002E-06  4565   0.259E-03    0.139E-02
RMM:  18    -0.382465266726E+03   -0.15761E-03   -0.22206E-06  4691   0.277E-03    0.847E-03
RMM:  19    -0.382465321586E+03   -0.54860E-04   -0.77593E-07  4387   0.190E-03    0.792E-03
RMM:  20    -0.382465408782E+03   -0.87195E-04   -0.78603E-07  4046   0.161E-03    0.611E-03
RMM:  21    -0.382465464518E+03   -0.55736E-04   -0.52120E-07  3947   0.147E-03    0.536E-03
RMM:  22    -0.382465581245E+03   -0.11673E-03   -0.13733E-06  4199   0.161E-03    0.627E-03
RMM:  23    -0.382465653600E+03   -0.72355E-04   -0.96996E-07  3906   0.154E-03    0.337E-03
RMM:  24    -0.382465747259E+03   -0.93659E-04   -0.19000E-06  4430   0.165E-03    0.610E-03
RMM:  25    -0.382465808410E+03   -0.61151E-04   -0.19715E-06  4141   0.165E-03    0.267E-03
RMM:  26    -0.382465822905E+03   -0.14495E-04   -0.46633E-07  2535   0.110E-03    0.268E-03
RMM:  27    -0.382465828147E+03   -0.52420E-05   -0.17751E-07  1979   0.938E-04
   4 F= -.38246583E+03 E0= -.38247584E+03  d E =-.920454E+00  mag=    81.8372
       N       E                     dE             d eps       ncg     rms          rms(c)
DAV:   1    -0.382416762393E+03    0.49061E-01   -0.54477E+01  8298   0.111E+01    0.386E+00
RMM:   2    -0.382852854835E+03   -0.43609E+00   -0.10213E+00  8328   0.297E+00    0.831E+00
RMM:   3    -0.383191692679E+03   -0.33884E+00   -0.68125E-01  8344   0.208E+00    0.112E+01
RMM:   4    -0.383469917675E+03   -0.27822E+00   -0.30827E-01  8333   0.134E+00    0.128E+01
RMM:   5    -0.382643112155E+03    0.82681E+00   -0.17362E-01  8342   0.106E+00    0.219E+00
RMM:   6    -0.382630863519E+03    0.12249E-01   -0.29895E-02  8334   0.432E-01    0.118E+00
RMM:   7    -0.382631715180E+03   -0.85166E-03   -0.11307E-02  8338   0.268E-01    0.143E+00
RMM:   8    -0.382623228257E+03    0.84869E-02   -0.70968E-03  8332   0.224E-01    0.552E-01
RMM:   9    -0.382625004573E+03   -0.17763E-02   -0.59567E-03  8341   0.189E-01    0.104E+00
RMM:  10    -0.382621861345E+03    0.31432E-02   -0.51835E-03  8342   0.178E-01    0.764E-01
RMM:  11    -0.382619898814E+03    0.19625E-02   -0.22318E-03  8324   0.120E-01    0.234E-01
RMM:  12    -0.382620805976E+03   -0.90716E-03   -0.91759E-04  8329   0.742E-02    0.374E-01
RMM:  13    -0.382620910894E+03   -0.10492E-03   -0.44187E-04  8283   0.560E-02    0.148E-01
RMM:  14    -0.382621104260E+03   -0.19337E-03   -0.11698E-04  8238   0.273E-02    0.818E-02
RMM:  15    -0.382621966930E+03   -0.86267E-03   -0.54967E-05  7283   0.180E-02    0.853E-02
RMM:  16    -0.382622373673E+03   -0.40674E-03   -0.32665E-05  6043   0.157E-02    0.367E-02
RMM:  17    -0.382623494961E+03   -0.11213E-02   -0.36924E-05  6041   0.128E-02    0.695E-02
RMM:  18    -0.382624246162E+03   -0.75120E-03   -0.24901E-05  5140   0.125E-02    0.312E-02
RMM:  19    -0.382624742898E+03   -0.49674E-03   -0.11455E-05  4761   0.747E-03    0.388E-02
RMM:  20    -0.382625882424E+03   -0.11395E-02   -0.22704E-05  5270   0.824E-03    0.285E-02
RMM:  21    -0.382626287135E+03   -0.40471E-03   -0.73059E-06  4738   0.601E-03    0.223E-02
RMM:  22    -0.382627400393E+03   -0.11133E-02   -0.22640E-05  5383   0.683E-03    0.310E-02
RMM:  23    -0.382628248867E+03   -0.84847E-03   -0.19469E-05  5125   0.727E-03    0.166E-02
RMM:  24    -0.382629021706E+03   -0.77284E-03   -0.22553E-05  5408   0.630E-03    0.230E-02
RMM:  25    -0.382629392677E+03   -0.37097E-03   -0.12968E-05  4924   0.564E-03    0.765E-03
RMM:  26    -0.382629515797E+03   -0.12312E-03   -0.52045E-06  4765   0.335E-03    0.113E-02
RMM:  27    -0.382629563968E+03   -0.48170E-04   -0.34974E-06  4705   0.307E-03    0.594E-03
RMM:  28    -0.382629567021E+03   -0.30530E-05   -0.11834E-06  4102   0.178E-03
   5 F= -.38262957E+03 E0= -.38263995E+03  d E =-.163739E+00  mag=    81.9153
       N       E                     dE             d eps       ncg     rms          rms(c)
DAV:   1    -0.382092424239E+03    0.53714E+00   -0.15577E+02  8280   0.189E+01    0.664E+00
RMM:   2    -0.383462965047E+03   -0.13705E+01   -0.35457E+00  8332   0.541E+00    0.149E+01
RMM:   3    -0.383820593130E+03   -0.35763E+00   -0.21435E+00  8344   0.372E+00    0.154E+01
RMM:   4    -0.385097761825E+03   -0.12772E+01   -0.83551E-01  8334   0.225E+00    0.212E+01
RMM:   5    -0.382784500860E+03    0.23133E+01   -0.39699E-01  8340   0.157E+00    0.425E+00
RMM:   6    -0.382735054827E+03    0.49446E-01   -0.94589E-02  8341   0.765E-01    0.222E+00
RMM:   7    -0.382736530806E+03   -0.14760E-02   -0.36530E-02  8332   0.480E-01    0.257E+00
RMM:   8    -0.382711881486E+03    0.24649E-01   -0.21850E-02  8339   0.393E-01    0.968E-01
RMM:   9    -0.382717802484E+03   -0.59210E-02   -0.16610E-02  8340   0.317E-01    0.179E+00
RMM:  10    -0.382709358613E+03    0.84439E-02   -0.15435E-02  8347   0.306E-01    0.133E+00
RMM:  11    -0.382703286130E+03    0.60725E-02   -0.69669E-03  8331   0.211E-01    0.424E-01
RMM:  12    -0.382706431816E+03   -0.31457E-02   -0.33203E-03  8340   0.141E-01    0.702E-01
RMM:  13    -0.382706510794E+03   -0.78978E-04   -0.16782E-03  8334   0.108E-01    0.273E-01
RMM:  14    -0.382707126037E+03   -0.61524E-03   -0.42123E-04  8295   0.515E-02    0.178E-01
RMM:  15    -0.382709689103E+03   -0.25631E-02   -0.21615E-04  8280   0.360E-02    0.170E-01
RMM:  16    -0.382710709780E+03   -0.10207E-02   -0.11253E-04  8206   0.276E-02    0.653E-02
RMM:  17    -0.382713185421E+03   -0.24756E-02   -0.90883E-05  8011   0.209E-02    0.119E-01
RMM:  18    -0.382715314482E+03   -0.21291E-02   -0.67766E-05  7277   0.185E-02    0.544E-02
RMM:  19    -0.382716483864E+03   -0.11694E-02   -0.29423E-05  5718   0.123E-02    0.612E-02
RMM:  20    -0.382719427849E+03   -0.29440E-02   -0.71561E-05  6753   0.135E-02    0.517E-02
RMM:  21    -0.382720265900E+03   -0.83805E-03   -0.17493E-05  4951   0.932E-03    0.355E-02
RMM:  22    -0.382722366560E+03   -0.21007E-02   -0.53233E-05  6415   0.109E-02    0.540E-02
RMM:  23    -0.382724353609E+03   -0.19870E-02   -0.59376E-05  6544   0.116E-02    0.249E-02
RMM:  24    -0.382725603537E+03   -0.12499E-02   -0.35593E-05  5922   0.922E-03    0.390E-02
RMM:  25    -0.382726861585E+03   -0.12580E-02   -0.49137E-05  6203   0.936E-03    0.180E-02
RMM:  26    -0.382727085557E+03   -0.22397E-03   -0.76895E-06  4818   0.500E-03    0.200E-02
RMM:  27    -0.382727329973E+03   -0.24442E-03   -0.12075E-05  4972   0.474E-03    0.163E-02
RMM:  28    -0.382727359801E+03   -0.29827E-04   -0.32844E-06  4726   0.337E-03    0.140E-02
RMM:  29    -0.382727364296E+03   -0.44950E-05   -0.31455E-06  4661   0.238E-03
   6 F= -.38272736E+03 E0= -.38273792E+03  d E =-.261536E+00  mag=    82.0397
       N       E                     dE             d eps       ncg     rms          rms(c)
DAV:   1    -0.382676384739E+03    0.50975E-01   -0.18679E+01  8397   0.641E+00    0.254E+00
RMM:   2    -0.382830144812E+03   -0.15376E+00   -0.29116E-01  8343   0.149E+00    0.435E+00
RMM:   3    -0.382989453121E+03   -0.15931E+00   -0.26712E-01  8343   0.130E+00    0.693E+00
RMM:   4    -0.383077777570E+03   -0.88324E-01   -0.11263E-01  8343   0.829E-01    0.844E+00
RMM:   5    -0.382771913787E+03    0.30586E+00   -0.62399E-02  8335   0.636E-01    0.164E+00
RMM:   6    -0.382763811530E+03    0.81023E-02   -0.12034E-02  8341   0.275E-01    0.570E-01
RMM:   7    -0.382764506917E+03   -0.69539E-03   -0.41687E-03  8332   0.161E-01    0.872E-01
RMM:   8    -0.382761575223E+03    0.29317E-02   -0.24845E-03  8322   0.132E-01    0.422E-01
RMM:   9    -0.382761597405E+03   -0.22182E-04   -0.16664E-03  8318   0.101E-01    0.507E-01
RMM:  10    -0.382760698270E+03    0.89914E-03   -0.15444E-03  8322   0.958E-02    0.361E-01
RMM:  11    -0.382760426981E+03    0.27129E-03   -0.77292E-04  8310   0.697E-02    0.196E-01
RMM:  12    -0.382760954173E+03   -0.52719E-03   -0.31734E-04  8282   0.443E-02    0.249E-01
RMM:  13    -0.382761036527E+03   -0.82354E-04   -0.16097E-04  8222   0.337E-02    0.786E-02
RMM:  14    -0.382761202017E+03   -0.16549E-03   -0.33871E-05  6313   0.147E-02    0.502E-02
RMM:  15    -0.382761741516E+03   -0.53950E-03   -0.19343E-05  4914   0.110E-02    0.511E-02
RMM:  16    -0.382761997453E+03   -0.25594E-03   -0.12030E-05  4681   0.100E-02    0.232E-02
RMM:  17    -0.382762599274E+03   -0.60182E-03   -0.12418E-05  4805   0.762E-03    0.428E-02
RMM:  18    -0.382763352700E+03   -0.75343E-03   -0.14820E-05  4868   0.855E-03    0.221E-02
RMM:  19    -0.382763616507E+03   -0.26381E-03   -0.43646E-06  4628   0.482E-03    0.203E-02
RMM:  20    -0.382764195581E+03   -0.57907E-03   -0.56013E-06  4699   0.448E-03    0.171E-02
RMM:  21    -0.382764527330E+03   -0.33175E-03   -0.32117E-06  4621   0.399E-03    0.144E-02
RMM:  22    -0.382765365860E+03   -0.83853E-03   -0.10051E-05  4801   0.432E-03    0.168E-02
RMM:  23    -0.382765713435E+03   -0.34758E-03   -0.42274E-06  4676   0.403E-03    0.110E-02
RMM:  24    -0.382766336214E+03   -0.62278E-03   -0.12566E-05  4915   0.389E-03    0.121E-02
RMM:  25    -0.382766454140E+03   -0.11793E-03   -0.33675E-06  4745   0.309E-03    0.501E-03
RMM:  26    -0.382766524279E+03   -0.70139E-04   -0.19955E-06  4479   0.199E-03    0.673E-03
RMM:  27    -0.382766540666E+03   -0.16387E-04   -0.89366E-07  4205   0.171E-03    0.315E-03
RMM:  28    -0.382766539218E+03    0.14481E-05   -0.60842E-07  2965   0.118E-03
   7 F= -.38276654E+03 E0= -.38277709E+03  d E =-.391749E-01  mag=    82.0319
       N       E                     dE             d eps       ncg     rms          rms(c)
DAV:   1    -0.382659714781E+03    0.10683E+00   -0.25383E+01  8298   0.748E+00    0.297E+00
RMM:   2    -0.382865258214E+03   -0.20554E+00   -0.39885E-01  8343   0.174E+00    0.499E+00
RMM:   3    -0.383088415218E+03   -0.22316E+00   -0.36584E-01  8343   0.152E+00    0.814E+00
RMM:   4    -0.383188471156E+03   -0.10006E+00   -0.15148E-01  8343   0.966E-01    0.962E+00
RMM:   5    -0.382790773774E+03    0.39770E+00   -0.81826E-02  8335   0.727E-01    0.194E+00
RMM:   6    -0.382779465308E+03    0.11308E-01   -0.16414E-02  8341   0.321E-01    0.697E-01
RMM:   7    -0.382780371883E+03   -0.90658E-03   -0.57039E-03  8335   0.189E-01    0.102E+00
RMM:   8    -0.382776522109E+03    0.38498E-02   -0.33712E-03  8328   0.154E-01    0.492E-01
RMM:   9    -0.382776613174E+03   -0.91065E-04   -0.22547E-03  8322   0.117E-01    0.603E-01
RMM:  10    -0.382775343981E+03    0.12692E-02   -0.21347E-03  8329   0.113E-01    0.415E-01
RMM:  11    -0.382775041160E+03    0.30282E-03   -0.10728E-03  8316   0.820E-02    0.233E-01
RMM:  12    -0.382775820975E+03   -0.77981E-03   -0.45713E-04  8288   0.531E-02    0.299E-01
RMM:  13    -0.382775891478E+03   -0.70503E-04   -0.23246E-04  8253   0.405E-02    0.915E-02
RMM:  14    -0.382776128933E+03   -0.23745E-03   -0.51183E-05  7386   0.178E-02    0.630E-02
RMM:  15    -0.382776829856E+03   -0.70092E-03   -0.26300E-05  5497   0.126E-02    0.599E-02
RMM:  16    -0.382777142959E+03   -0.31310E-03   -0.15809E-05  4742   0.115E-02    0.270E-02
RMM:  17    -0.382777922282E+03   -0.77932E-03   -0.16986E-05  4990   0.901E-03    0.505E-02
RMM:  18    -0.382778858540E+03   -0.93626E-03   -0.19754E-05  5035   0.100E-02    0.262E-02
RMM:  19    -0.382779190174E+03   -0.33163E-03   -0.58282E-06  4667   0.561E-03    0.244E-02
RMM:  20    -0.382779910634E+03   -0.72046E-03   -0.76512E-06  4735   0.533E-03    0.200E-02
RMM:  21    -0.382780313503E+03   -0.40287E-03   -0.43114E-06  4659   0.468E-03    0.166E-02
RMM:  22    -0.382781323568E+03   -0.10101E-02   -0.12465E-05  4869   0.495E-03    0.197E-02
RMM:  23    -0.382781768874E+03   -0.44531E-03   -0.56552E-06  4698   0.472E-03    0.128E-02
RMM:  24    -0.382782599660E+03   -0.83079E-03   -0.17008E-05  5056   0.454E-03    0.141E-02
RMM:  25    -0.382782751267E+03   -0.15161E-03   -0.41168E-06  4785   0.353E-03    0.584E-03
RMM:  26    -0.382782858637E+03   -0.10737E-03   -0.28997E-06  4634   0.231E-03    0.794E-03
RMM:  27    -0.382782884032E+03   -0.25394E-04   -0.12168E-06  4416   0.206E-03    0.350E-03
RMM:  28    -0.382782884322E+03   -0.29050E-06   -0.10354E-06  3608   0.138E-03
   8 F= -.38278288E+03 E0= -.38279343E+03  d E =-.555200E-01  mag=    82.0263
       N       E                     dE             d eps       ncg     rms          rms(c)
DAV:   1    -0.382761537305E+03    0.21347E-01   -0.10152E+01  8415   0.476E+00    0.158E+00
RMM:   2    -0.382842705557E+03   -0.81168E-01   -0.15598E-01  8343   0.112E+00    0.338E+00
RMM:   3    -0.382909130935E+03   -0.66425E-01   -0.10756E-01  8344   0.824E-01    0.483E+00
RMM:   4    -0.382913157314E+03   -0.40264E-02   -0.51617E-02  8331   0.541E-01    0.524E+00
RMM:   5    -0.382802011222E+03    0.11115E+00   -0.34174E-02  8344   0.477E-01    0.132E+00
RMM:   6    -0.382795791188E+03    0.62200E-02   -0.64784E-03  8329   0.208E-01    0.339E-01
RMM:   7    -0.382796234336E+03   -0.44315E-03   -0.19463E-03  8326   0.108E-01    0.570E-01
RMM:   8    -0.382794853353E+03    0.13810E-02   -0.11373E-03  8312   0.883E-02    0.324E-01
RMM:   9    -0.382794631240E+03    0.22211E-03   -0.81061E-04  8316   0.714E-02    0.290E-01
RMM:  10    -0.382794585551E+03    0.45688E-04   -0.81193E-04  8320   0.693E-02    0.356E-01
RMM:  11    -0.382794096623E+03    0.48893E-03   -0.49981E-04  8301   0.575E-02    0.101E-01
RMM:  12    -0.382794236726E+03   -0.14010E-03   -0.12173E-04  8240   0.269E-02    0.129E-01
RMM:  13    -0.382794330446E+03   -0.93720E-04   -0.50914E-05  7365   0.190E-02    0.569E-02
RMM:  14    -0.382794388853E+03   -0.58407E-04   -0.13809E-05  4731   0.102E-02    0.305E-02
RMM:  15    -0.382794554835E+03   -0.16598E-03   -0.85131E-06  4700   0.748E-03    0.373E-02
RMM:  16    -0.382794714598E+03   -0.15976E-03   -0.61862E-06  4654   0.712E-03    0.154E-02
RMM:  17    -0.382794887922E+03   -0.17332E-03   -0.38622E-06  4602   0.464E-03    0.237E-02
RMM:  18    -0.382795196317E+03   -0.30840E-03   -0.50268E-06  4681   0.479E-03    0.176E-02
RMM:  19    -0.382795293733E+03   -0.97415E-04   -0.17131E-06  4540   0.327E-03    0.108E-02
RMM:  20    -0.382795491089E+03   -0.19736E-03   -0.17163E-06  4535   0.240E-03    0.115E-02
RMM:  21    -0.382795618804E+03   -0.12771E-03   -0.11577E-06  4474   0.242E-03    0.859E-03
RMM:  22    -0.382795930411E+03   -0.31161E-03   -0.34126E-06  4666   0.252E-03    0.123E-02
RMM:  23    -0.382796126489E+03   -0.19608E-03   -0.23379E-06  4580   0.263E-03    0.672E-03
RMM:  24    -0.382796368824E+03   -0.24234E-03   -0.40954E-06  4699   0.250E-03    0.108E-02
RMM:  25    -0.382796534272E+03   -0.16545E-03   -0.45409E-06  4681   0.263E-03    0.418E-03
RMM:  26    -0.382796578090E+03   -0.43818E-04   -0.13893E-06  3919   0.161E-03    0.491E-03
RMM:  27    -0.382796594078E+03   -0.15989E-04   -0.85295E-07  3609   0.139E-03    0.206E-03
RMM:  28    -0.382796594236E+03   -0.15715E-06   -0.15892E-07  2099   0.929E-04
   9 F= -.38279659E+03 E0= -.38280710E+03  d E =-.137099E-01  mag=    82.0439
       N       E                     dE             d eps       ncg     rms          rms(c)
DAV:   1    -0.382787974177E+03    0.86199E-02   -0.30598E+00  8478   0.261E+00    0.868E-01
RMM:   2    -0.382813854782E+03   -0.25881E-01   -0.47282E-02  8343   0.615E-01    0.193E+00
RMM:   3    -0.382837264919E+03   -0.23410E-01   -0.31605E-02  8344   0.444E-01    0.283E+00
RMM:   4    -0.382829218367E+03    0.80466E-02   -0.15991E-02  8325   0.301E-01    0.273E+00
RMM:   5    -0.382800144178E+03    0.29074E-01   -0.10575E-02  8344   0.267E-01    0.742E-01
RMM:   6    -0.382798133116E+03    0.20111E-02   -0.19776E-03  8324   0.116E-01    0.180E-01
RMM:   7    -0.382798201932E+03   -0.68816E-04   -0.55015E-04  8298   0.574E-02    0.300E-01
RMM:   8    -0.382797729720E+03    0.47221E-03   -0.33207E-04  8281   0.471E-02    0.190E-01
RMM:   9    -0.382797592321E+03    0.13740E-03   -0.24261E-04  8280   0.392E-02    0.140E-01
RMM:  10    -0.382797568049E+03    0.24272E-04   -0.24267E-04  8281   0.379E-02    0.201E-01
RMM:  11    -0.382797391055E+03    0.17699E-03   -0.14754E-04  8234   0.315E-02    0.531E-02
RMM:  12    -0.382797430364E+03   -0.39309E-04   -0.26255E-05  5545   0.130E-02    0.572E-02
RMM:  13    -0.382797487316E+03   -0.56952E-04   -0.12494E-05  4651   0.106E-02    0.308E-02
RMM:  14    -0.382797515229E+03   -0.27913E-04   -0.37739E-06  4494   0.556E-03    0.145E-02
RMM:  15    -0.382797586397E+03   -0.71169E-04   -0.23402E-06  4542   0.379E-03    0.188E-02
RMM:  16    -0.382797681992E+03   -0.95595E-04   -0.20437E-06  4555   0.376E-03    0.872E-03
RMM:  17    -0.382797754462E+03   -0.72469E-04   -0.11691E-06  4521   0.250E-03    0.114E-02
RMM:  18    -0.382797883486E+03   -0.12902E-03   -0.14772E-06  4551   0.242E-03    0.882E-03
RMM:  19    -0.382797926599E+03   -0.43112E-04   -0.50963E-07  4326   0.174E-03    0.546E-03
RMM:  20    -0.382798012665E+03   -0.86066E-04   -0.52461E-07  3518   0.132E-03    0.615E-03
RMM:  21    -0.382798066860E+03   -0.54195E-04   -0.31882E-07  3401   0.126E-03    0.447E-03
RMM:  22    -0.382798197473E+03   -0.13061E-03   -0.12295E-06  4258   0.150E-03    0.689E-03
RMM:  23    -0.382798296995E+03   -0.99521E-04   -0.11132E-06  4097   0.158E-03    0.409E-03
RMM:  24    -0.382798387216E+03   -0.90221E-04   -0.13992E-06  3995   0.145E-03    0.557E-03
RMM:  25    -0.382798445879E+03   -0.58663E-04   -0.13706E-06  3689   0.141E-03    0.199E-03
RMM:  26    -0.382798460374E+03   -0.14495E-04   -0.36855E-07  2416   0.102E-03    0.224E-03
RMM:  27    -0.382798465263E+03   -0.48881E-05   -0.16822E-07  1866   0.931E-04
  10 F= -.38279847E+03 E0= -.38280894E+03  d E =-.155809E-01  mag=    82.0534
       N       E                     dE             d eps       ncg     rms          rms(c)
DAV:   1    -0.382795038777E+03    0.34216E-02   -0.19363E+00  8460   0.209E+00    0.637E-01
RMM:   2    -0.382817634668E+03   -0.22596E-01   -0.30776E-02  8343   0.498E-01    0.193E+00
RMM:   3    -0.382826674082E+03   -0.90394E-02   -0.16076E-02  8344   0.311E-01    0.235E+00
RMM:   4    -0.382811540827E+03    0.15133E-01   -0.10752E-02  8338   0.251E-01    0.169E+00
RMM:   5    -0.382801619874E+03    0.99210E-02   -0.59886E-03  8337   0.205E-01    0.510E-01
RMM:   6    -0.382800631758E+03    0.98812E-03   -0.10357E-03  8313   0.843E-02    0.139E-01
RMM:   7    -0.382800663394E+03   -0.31636E-04   -0.29760E-04  8288   0.430E-02    0.220E-01
RMM:   8    -0.382800383645E+03    0.27975E-03   -0.21084E-04  8280   0.370E-02    0.147E-01
RMM:   9    -0.382800301425E+03    0.82220E-04   -0.16409E-04  8276   0.321E-02    0.114E-01
RMM:  10    -0.382800280211E+03    0.21214E-04   -0.15135E-04  8266   0.301E-02    0.163E-01
RMM:  11    -0.382800162155E+03    0.11806E-03   -0.86899E-05  8105   0.244E-02    0.389E-02
RMM:  12    -0.382800169213E+03   -0.70574E-05   -0.11744E-05  4576   0.894E-03
  11 F= -.38280017E+03 E0= -.38281064E+03  d E =-.170395E-02  mag=    82.0520
