 vasp.5.4.4.18Apr17-6-g9f103f2a35 (build Sep 06 2021 19:49:22) complex          
  
 executed on             LinuxIFC date 2022.01.05  07:55:17
 running on   72 total cores
 distrk:  each k-point on   72 cores,    1 groups
 distr:  one band on NCORES_PER_BAND=  24 cores,    3 groups


--------------------------------------------------------------------------------------------------------


 INCAR:
 POTCAR:    PAW_PBE Ni 02Aug2007                  
 POTCAR:    PAW_PBE Fe 06Sep2000                  

 ----------------------------------------------------------------------------- 
|                                                                             |
|           W    W    AA    RRRRR   N    N  II  N    N   GGGG   !!!           |
|           W    W   A  A   R    R  NN   N  II  NN   N  G    G  !!!           |
|           W    W  A    A  R    R  N N  N  II  N N  N  G       !!!           |
|           W WW W  AAAAAA  RRRRR   N  N N  II  N  N N  G  GGG   !            |
|           WW  WW  A    A  R   R   N   NN  II  N   NN  G    G                |
|           W    W  A    A  R    R  N    N  II  N    N   GGGG   !!!           |
|                                                                             |
|      For optimal performance we recommend to set                            |
|        NCORE= 4 - approx SQRT( number of cores)                             |
|      NCORE specifies how many cores store one orbital (NPAR=cpu/NCORE).     |
|      This setting can  greatly improve the performance of VASP for DFT.     |
|      The default,   NCORE=1            might be grossly inefficient         |
|      on modern multi-core architectures or massively parallel machines.     |
|      Do your own testing !!!!                                               |
|      Unfortunately you need to use the default for GW and RPA calculations. |
|      (for HF NCORE is supported but not extensively tested yet)             |
|                                                                             |
 ----------------------------------------------------------------------------- 

 POTCAR:    PAW_PBE Ni 02Aug2007                  
   VRHFIN =Ni:                                                                  
   LEXCH  = PE                                                                  
   EATOM  =  1077.6739 eV,   79.2068 Ry                                         
                                                                                
   TITEL  = PAW_PBE Ni 02Aug2007                                                
   LULTRA =        F    use ultrasoft PP ?                                      
   IUNSCR =        1    unscreen: 0-lin 1-nonlin 2-no                           
   RPACOR =    2.000    partial core radius                                     
   POMASS =   58.690; ZVAL   =   10.000    mass and valenz                      
   RCORE  =    2.300    outmost cutoff radius                                   
   RWIGS  =    2.430; RWIGS  =    1.286    wigner-seitz radius (au A)           
   ENMAX  =  269.532; ENMIN  =  202.149 eV                                      
   RCLOC  =    1.201    cutoff for local pot                                    
   LCOR   =        T    correct aug charges                                     
   LPAW   =        T    paw PP                                                  
   EAUG   =  544.565                                                            
   DEXC   =    0.000                                                            
   RMAX   =    2.357    core radius for proj-oper                               
   RAUG   =    1.300    factor for augmentation sphere                          
   RDEP   =    2.390    radius for radial grids                                 
   RDEPT  =    1.838    core radius for aug-charge                              
                                                                                
   Atomic configuration                                                         
    9 entries                                                                   
     n  l   j            E        occ.                                          
     1  0  0.50     -8206.4253   2.0000                                         
     2  0  0.50      -976.1748   2.0000                                         
     2  1  1.50      -839.0571   6.0000                                         
     3  0  0.50      -105.9991   2.0000                                         
     3  1  1.50       -66.4603   6.0000                                         
     3  2  2.50        -4.6458   9.0000                                         
     4  0  0.50        -4.4926   1.0000                                         
     4  1  1.50        -4.0817   0.0000                                         
     4  3  2.50        -1.3606   0.0000                                         
   Description                                                                  
     l       E           TYP  RCUT    TYP  RCUT                                 
     2     -4.6457903     23  2.300                                             
     2     -6.0063729     23  2.300                                             
     0     -4.4925590     23  2.300                                             
     0      5.0102601     23  2.300                                             
     1     -2.7211652     23  2.300                                             
     1     16.5183231     23  2.300                                             
  local pseudopotential read in
  partial core-charges read in
  partial kinetic energy density read in
  atomic valenz-charges read in
  non local Contribution for L=           2  read in
    real space projection operators read in
  non local Contribution for L=           2  read in
    real space projection operators read in
  non local Contribution for L=           0  read in
    real space projection operators read in
  non local Contribution for L=           0  read in
    real space projection operators read in
  non local Contribution for L=           1  read in
    real space projection operators read in
  non local Contribution for L=           1  read in
    real space projection operators read in
    PAW grid and wavefunctions read in
 
   number of l-projection  operators is LMAX  =           6
   number of lm-projection operators is LMMAX =          18
 
 POTCAR:    PAW_PBE Fe 06Sep2000                  
   VRHFIN =Fe:  d7 s1                                                           
   LEXCH  = PE                                                                  
   EATOM  =   594.3153 eV,   43.6809 Ry                                         
                                                                                
   TITEL  = PAW_PBE Fe 06Sep2000                                                
   LULTRA =        F    use ultrasoft PP ?                                      
   IUNSCR =        1    unscreen: 0-lin 1-nonlin 2-no                           
   RPACOR =    2.000    partial core radius                                     
   POMASS =   55.847; ZVAL   =    8.000    mass and valenz                      
   RCORE  =    2.300    outmost cutoff radius                                   
   RWIGS  =    2.460; RWIGS  =    1.302    wigner-seitz radius (au A)           
   ENMAX  =  267.882; ENMIN  =  200.911 eV                                      
   RCLOC  =    1.701    cutoff for local pot                                    
   LCOR   =        T    correct aug charges                                     
   LPAW   =        T    paw PP                                                  
   EAUG   =  511.368                                                            
   DEXC   =    0.000                                                            
   RMAX   =    2.356    core radius for proj-oper                               
   RAUG   =    1.300    factor for augmentation sphere                          
   RDEP   =    2.442    radius for radial grids                                 
   RDEPT  =    1.890    core radius for aug-charge                              
                                                                                
   Atomic configuration                                                         
    9 entries                                                                   
     n  l   j            E        occ.                                          
     1  0  0.50     -6993.8440   2.0000                                         
     2  0  0.50      -814.6047   2.0000                                         
     2  1  1.50      -693.3689   6.0000                                         
     3  0  0.50       -89.4732   2.0000                                         
     3  1  1.50       -55.6373   6.0000                                         
     3  2  2.50        -3.8151   7.0000                                         
     4  0  0.50        -4.2551   1.0000                                         
     4  1  1.50        -3.4015   0.0000                                         
     4  3  2.50        -1.3606   0.0000                                         
   Description                                                                  
     l       E           TYP  RCUT    TYP  RCUT                                 
     2     -3.8151135     23  2.300                                             
     2     -5.1756961     23  2.300                                             
     0     -4.2550963     23  2.300                                             
     0      7.2035603     23  2.300                                             
     1     -2.7211652     23  2.300                                             
     1     18.4316424     23  2.300                                             
  local pseudopotential read in
  partial core-charges read in
  partial kinetic energy density read in
  atomic valenz-charges read in
  non local Contribution for L=           2  read in
    real space projection operators read in
  non local Contribution for L=           2  read in
    real space projection operators read in
  non local Contribution for L=           0  read in
    real space projection operators read in
  non local Contribution for L=           0  read in
    real space projection operators read in
  non local Contribution for L=           1  read in
    real space projection operators read in
  non local Contribution for L=           1  read in
    real space projection operators read in
    PAW grid and wavefunctions read in
 
   number of l-projection  operators is LMAX  =           6
   number of lm-projection operators is LMMAX =          18
 
 Optimization of the real space projectors (new method)

 maximal supplied QI-value         = 16.25
 optimisation between [QCUT,QGAM] = [ 11.54, 23.24] = [ 37.28,151.24] Ry 
 Optimized for a Real-space Cutoff    1.45 Angstroem

   l    n(q)    QCUT    max X(q) W(low)/X(q) W(high)/X(q)  e(spline) 
   2      9    11.539    60.317    0.19E-03    0.47E-04    0.16E-06
   2      9    11.539    55.921    0.19E-03    0.48E-04    0.16E-06
   0     10    11.539    51.690    0.80E-04    0.50E-04    0.24E-06
   0     10    11.539    30.015    0.73E-04    0.45E-04    0.22E-06
   1     10    11.539    18.849    0.87E-04    0.16E-03    0.71E-07
   1     10    11.539    14.624    0.73E-04    0.13E-03    0.64E-07
 Optimization of the real space projectors (new method)

 maximal supplied QI-value         = 16.25
 optimisation between [QCUT,QGAM] = [ 11.54, 23.24] = [ 37.28,151.24] Ry 
 Optimized for a Real-space Cutoff    1.53 Angstroem

   l    n(q)    QCUT    max X(q) W(low)/X(q) W(high)/X(q)  e(spline) 
   2     10    11.539    80.901    0.11E-03    0.14E-03    0.21E-06
   2     10    11.539    75.754    0.11E-03    0.14E-03    0.22E-06
   0     11    11.539    58.752    0.52E-04    0.18E-04    0.33E-06
   0     11    11.539    30.679    0.44E-04    0.16E-04    0.30E-06
   1     10    11.539    17.977    0.53E-04    0.29E-04    0.13E-06
   1     10    11.539    13.559    0.44E-04    0.25E-04    0.11E-06
  PAW_PBE Ni 02Aug2007                  :
 energy of atom  1       EATOM=-1077.6739
 kinetic energy error for atom=    0.0030 (will be added to EATOM!!)
  PAW_PBE Fe 06Sep2000                  :
 energy of atom  2       EATOM= -594.3153
 kinetic energy error for atom=    0.0026 (will be added to EATOM!!)
 
 
 POSCAR: POSCAR                                  
  positions in direct lattice
  velocities in cartesian coordinates
 exchange correlation table for  LEXCH =        8
   RHO(1)=    0.500       N(1)  =     2000
   RHO(2)=  100.500       N(2)  =     4000
 


--------------------------------------------------------------------------------------------------------


 ion  position               nearest neighbor table
   1  0.001  0.001  0.193-  35 2.48   7 2.48  41 2.49   5 2.50  46 2.50  28 2.50   2 2.50   6 2.50
                            23 2.50  15 2.51   4 2.51  44 2.51
   2  0.250  0.000  0.193-   9 2.46  35 2.50  23 2.50  36 2.50  48 2.50  37 2.50   1 2.50   8 2.50
                             6 2.51   3 2.51  24 2.52  46 2.53
   3  0.499  0.999  0.193-  36 2.46  11 2.47  64 2.49  48 2.49  13 2.50   8 2.50   4 2.50  26 2.51
                             2 2.51  24 2.51  39 2.51  10 2.52
   4  0.749  0.999  0.193-  41 2.47  64 2.48  12 2.49  28 2.50   5 2.50  42 2.50   3 2.50  26 2.50
                            13 2.51  10 2.51   1 2.51  15 2.51
   5  0.999  0.249  0.193-  18 2.44  58 2.46  12 2.49  10 2.50   1 2.50   7 2.50   4 2.50  50 2.51
                            15 2.51  17 2.51   6 2.51  19 2.51
   6  0.250  0.250  0.193-   9 2.45  52 2.47   7 2.48  53 2.49   1 2.50  50 2.50   2 2.51  19 2.51
                             5 2.51   8 2.52  46 2.52  51 2.55
   7  0.086  0.167  0.289-  47 2.43  20 2.44  16 2.46   6 2.48   1 2.48   9 2.49  18 2.49  35 2.50
                             5 2.50  41 2.53  12 2.53  52 2.54
   8  0.501  0.249  0.193-  22 2.43   9 2.45  56 2.47  11 2.48   3 2.50  10 2.50   2 2.50  53 2.50
                            51 2.51   6 2.52  21 2.53  48 2.54
   9  0.333  0.167  0.286-  47 2.36  49 2.37  54 2.37   8 2.45   6 2.45   2 2.46   7 2.49  35 2.51
                            22 2.52  52 2.52  36 2.52  11 2.53
  10  0.751  0.250  0.194-  11 2.46  12 2.48  58 2.48  56 2.48   5 2.50   8 2.50  55 2.51   4 2.51
                            17 2.52   3 2.52  13 2.52  21 2.52
  11  0.584  0.164  0.288-  57 2.40  49 2.41  14 2.43  10 2.46   3 2.47   8 2.48  12 2.48  64 2.49
                            36 2.49  55 2.50   9 2.53  22 2.53
  12  0.832  0.165  0.289-  59 2.43  16 2.45  14 2.46  10 2.48  11 2.48  55 2.49   4 2.49  41 2.49
                             5 2.49  64 2.50  18 2.53   7 2.53
  13  0.666  0.083  0.097-  58 2.47  48 2.48  56 2.49   3 2.50  39 2.50  42 2.51   4 2.51  10 2.52
                            15 2.52
  14  0.665  0.087  0.382-  11 2.43  12 2.46  64 2.48  40 2.52  57 2.53  49 2.55  16 2.55  43 2.55
                            59 2.59
  15  0.916  0.082  0.097-  46 2.46  58 2.47  44 2.50  42 2.50   1 2.51   5 2.51   4 2.51  19 2.51
                            13 2.52
  16  0.919  0.086  0.382-  12 2.45   7 2.46  41 2.48  20 2.49  45 2.52  43 2.54  14 2.55  59 2.59
                            47 2.61
  17  0.002  0.500  0.192-  18 2.47  50 2.48  25 2.48  24 2.48  58 2.49   5 2.51  33 2.51  21 2.52
                            10 2.52  23 2.52  60 2.53  55 2.57
  18  0.086  0.416  0.285-  61 2.38  59 2.41  50 2.42   5 2.44  17 2.47   7 2.49  27 2.49  20 2.50
                            25 2.51  52 2.51  55 2.52  12 2.53
  19  0.166  0.334  0.097-  58 2.49  50 2.49  30 2.50  46 2.50   6 2.51   5 2.51  15 2.51  53 2.52
                            60 2.54
  20  0.169  0.333  0.381-   7 2.44  31 2.47  61 2.47  54 2.49  16 2.49  18 2.50  52 2.50  47 2.50
                            59 2.54
  21  0.752  0.502  0.192-  22 2.44  51 2.46  56 2.47  32 2.48  28 2.50  23 2.50  33 2.51  17 2.52
                            10 2.52   8 2.53  62 2.54  55 2.58
  22  0.585  0.417  0.285-  57 2.38  63 2.38  54 2.40  51 2.41   8 2.43  21 2.44  52 2.49  32 2.49
                            29 2.51   9 2.52  55 2.52  11 2.53
  23  0.001  0.751  0.192-  44 2.49   2 2.50  24 2.50  37 2.50  35 2.50  21 2.50  25 2.50  32 2.50
                             1 2.50  28 2.50  17 2.52  33 2.52
  24  0.249  0.749  0.192-  17 2.48  27 2.49  39 2.50  23 2.50  36 2.50  50 2.50  60 2.50  25 2.51
                             3 2.51  37 2.51  26 2.51   2 2.52
  25  0.081  0.663  0.288-  61 2.38  17 2.48  38 2.48  55 2.49  32 2.49  23 2.50  18 2.51  34 2.51
                            24 2.51  27 2.53  35 2.53  36 2.54
  26  0.500  0.749  0.192-  27 2.47  42 2.49  39 2.49  29 2.49   4 2.50   3 2.51  51 2.51  64 2.51
                            24 2.51  28 2.51  50 2.51  30 2.51
  27  0.334  0.665  0.287-  50 2.47  61 2.47  40 2.47  31 2.47  26 2.47  52 2.48  24 2.49  29 2.49
                            18 2.49  64 2.51  36 2.51  25 2.53
  28  0.751  0.751  0.193-  51 2.47  41 2.48  29 2.49  32 2.49  44 2.50   4 2.50  21 2.50   1 2.50
                            23 2.50  42 2.50  26 2.51  62 2.52
  29  0.583  0.667  0.288-  63 2.44  43 2.45  51 2.46  52 2.46  31 2.47  28 2.49  26 2.49  27 2.49
                            64 2.49  41 2.50  22 2.51  32 2.52
  30  0.417  0.582  0.095-  19 2.50  62 2.50  39 2.51  53 2.51  42 2.51  60 2.51  26 2.51  50 2.53
                            51 2.55
  31  0.414  0.580  0.381-  52 2.45  20 2.47  29 2.47  27 2.47  54 2.49  63 2.52  43 2.53  40 2.53
                            61 2.56
  32  0.834  0.665  0.288-  63 2.43  45 2.47  34 2.48  21 2.48  25 2.49  22 2.49  28 2.49  23 2.50
                            35 2.52  29 2.52  55 2.52  41 2.53
  33  0.917  0.583  0.095-  60 2.50  21 2.51  44 2.51  56 2.51  62 2.51  17 2.51  37 2.51  23 2.52
                            58 2.56
  34  0.912  0.581  0.384-  59 2.43  55 2.44  57 2.47  32 2.48  63 2.48  61 2.49  25 2.51  45 2.51
                            38 2.55
  35  0.083  0.917  0.288-  47 2.43  45 2.45  38 2.46   1 2.48   7 2.50   2 2.50  23 2.50   9 2.51
                            32 2.52  41 2.52  36 2.53  25 2.53
  36  0.335  0.916  0.288-  40 2.44  49 2.45   3 2.46  38 2.47  11 2.49  64 2.50   2 2.50  24 2.50
                            27 2.51   9 2.52  35 2.53  25 2.54
  37  0.167  0.835  0.096-  48 2.47  60 2.49  44 2.49  23 2.50  46 2.50   2 2.50  24 2.51  33 2.51
                            39 2.53
  38  0.168  0.834  0.382-  35 2.46  36 2.47  25 2.48  40 2.49  47 2.50  45 2.52  49 2.54  34 2.55
                            61 2.57
  39  0.417  0.832  0.097-  60 2.47  48 2.47  26 2.49  42 2.49  24 2.50  13 2.50  30 2.51   3 2.51
                            37 2.53
  40  0.416  0.833  0.381-  36 2.44  64 2.44  27 2.47  38 2.49  43 2.51  14 2.52  31 2.53  49 2.61
                            61 2.62
  41  0.832  0.916  0.288-  43 2.45  45 2.47   4 2.47  28 2.48  64 2.48  16 2.48   1 2.49  12 2.49
                            29 2.50  35 2.52  32 2.53   7 2.53
  42  0.666  0.833  0.097-  62 2.47  26 2.49  39 2.49  15 2.50   4 2.50  28 2.50  13 2.51  30 2.51
                            44 2.52
  43  0.666  0.832  0.381-  64 2.44  41 2.45  29 2.45  40 2.51  45 2.51  31 2.53  16 2.54  14 2.55
                            63 2.61
  44  0.917  0.833  0.097-  62 2.46  46 2.47  23 2.49  37 2.49  28 2.50  15 2.50  33 2.51   1 2.51
                            42 2.52
  45  0.917  0.834  0.382-  35 2.45  41 2.47  32 2.47  34 2.51  43 2.51  16 2.52  38 2.52  47 2.61
                            63 2.62
  46  0.162  0.082  0.096-  15 2.46  44 2.47   1 2.50  37 2.50  19 2.50   6 2.52  53 2.53   2 2.53
                            48 2.57
  47  0.181  0.089  0.378-  49 2.33   9 2.36  54 2.41   7 2.43  35 2.43  20 2.50  38 2.50  16 2.61
                            45 2.61
  48  0.416  0.078  0.096-  37 2.47  39 2.47  13 2.48   3 2.49   2 2.50  56 2.54   8 2.54  53 2.54
                            46 2.57
  49  0.414  0.092  0.378-  47 2.33   9 2.37  54 2.40  11 2.41  36 2.45  57 2.48  38 2.54  14 2.55
                            40 2.61
  50  0.248  0.499  0.193-  18 2.42  27 2.47  52 2.47  17 2.48  19 2.49  24 2.50   6 2.50   5 2.51
                            26 2.51  30 2.53  60 2.55  51 2.57
  51  0.506  0.503  0.193-  22 2.41  52 2.45  29 2.46  21 2.46  28 2.47  26 2.51   8 2.51  53 2.53
                            62 2.53  30 2.55   6 2.55  50 2.57
  52  0.339  0.420  0.286-  54 2.37  51 2.45  31 2.45  29 2.46  50 2.47   6 2.47  27 2.48  22 2.49
                            20 2.50  18 2.51   9 2.52   7 2.54
  53  0.416  0.331  0.097-   6 2.49   8 2.50  30 2.51  56 2.51  19 2.52  51 2.53  46 2.53  48 2.54
                            62 2.56
  54  0.417  0.334  0.375-  52 2.37   9 2.37  22 2.40  63 2.40  49 2.40  47 2.41  57 2.45  31 2.49
                            20 2.49
  55  0.834  0.414  0.291-  59 2.27  57 2.33  34 2.44  12 2.49  25 2.49  11 2.50  10 2.51  22 2.52
                            18 2.52  32 2.52  17 2.57  21 2.58
  56  0.667  0.332  0.099-  21 2.47   8 2.47  10 2.48  13 2.49  58 2.51  33 2.51  53 2.51  48 2.54
                            62 2.57
  57  0.664  0.338  0.376-  55 2.33  63 2.34  22 2.38  11 2.40  54 2.45  34 2.47  49 2.48  14 2.53
                            59 2.55
  58  0.914  0.327  0.099-   5 2.46  15 2.47  13 2.47  10 2.48  19 2.49  17 2.49  56 2.51  33 2.56
                            60 2.59
  59  0.922  0.345  0.376-  55 2.27  61 2.31  18 2.41  34 2.43  12 2.43  20 2.54  57 2.55  14 2.59
                            16 2.59
  60  0.169  0.588  0.094-  39 2.47  37 2.49  33 2.50  24 2.50  30 2.51  17 2.53  19 2.54  50 2.55
                            58 2.59
  61  0.155  0.572  0.377-  59 2.31  18 2.38  25 2.38  27 2.47  20 2.47  34 2.49  31 2.56  38 2.57
                            40 2.62
  62  0.670  0.589  0.095-  44 2.46  42 2.47  30 2.50  33 2.51  28 2.52  51 2.53  21 2.54  53 2.56
                            56 2.57
  63  0.660  0.569  0.378-  57 2.34  22 2.38  54 2.40  32 2.43  29 2.44  34 2.48  31 2.52  43 2.61
                            45 2.62
  64  0.584  0.916  0.289-  40 2.44  43 2.44  14 2.48   4 2.48  41 2.48  11 2.49  29 2.49   3 2.49
                            36 2.50  12 2.50  27 2.51  26 2.51
 

IMPORTANT INFORMATION: All symmetrisations will be switched off!
NOSYMM: (Re-)initialisation of all symmetry stuff for point group C_1.

 
 

Automatic generation of k-mesh.
 generate k-points for:    3    3    1
Space group operators:
 irot       det(A)        alpha          n_x          n_y          n_z        tau_x        tau_y        tau_z
    1     1.000000     0.000000     1.000000     0.000000     0.000000     0.000000     0.000000     0.000000
 
 Subroutine IBZKPT returns following result:
 ===========================================
 
 Found      5 irreducible k-points:
 
 Following reciprocal coordinates:
            Coordinates               Weight
  0.000000  0.000000  0.000000      1.000000
  0.333333  0.000000  0.000000      2.000000
  0.000000  0.333333  0.000000      2.000000
  0.333333  0.333333  0.000000      2.000000
 -0.333333  0.333333  0.000000      2.000000
 
 Following cartesian coordinates:
            Coordinates               Weight
  0.000000  0.000000  0.000000      1.000000
  0.033244  0.019194  0.000000      2.000000
  0.000000  0.038387  0.000000      2.000000
  0.033244  0.057581  0.000000      2.000000
 -0.033244  0.019194  0.000000      2.000000
 


--------------------------------------------------------------------------------------------------------




 Dimension of arrays:
   k-points           NKPTS =      5   k-points in BZ     NKDIM =      5   number of bands    NBANDS=    414
   number of dos      NEDOS =    301   number of ions     NIONS =     64
   non local maximal  LDIM  =      6   non local SUM 2l+1 LMDIM =     18
   total plane-waves  NPLWV = ******
   max r-space proj   IRMAX =   8418   max aug-charges    IRDMAX=  19919
   dimension x,y,z NGX =    80 NGY =   80 NGZ =  160
   dimension x,y,z NGXF=   160 NGYF=  160 NGZF=  320
   support grid    NGXF=   160 NGYF=  160 NGZF=  320
   ions per type =              45  19
   NGX,Y,Z   is equivalent  to a cutoff of  13.26, 13.26, 12.52 a.u.
   NGXF,Y,Z  is equivalent  to a cutoff of  26.53, 26.53, 25.04 a.u.

 SYSTEM =  SQS-NiFe                                
 POSCAR =  POSCAR                                  

 Startparameter for this run:
   NWRITE =      2    write-flag & timer
   PREC   = accura    normal or accurate (medium, high low for compatibility)
   ISTART =      0    job   : 0-new  1-cont  2-samecut
   ICHARG =      1    charge: 1-file 2-atom 10-const
   ISPIN  =      2    spin polarized calculation?
   LNONCOLLINEAR =      F non collinear calculations
   LSORBIT =      F    spin-orbit coupling
   INIWAV =      1    electr: 0-lowe 1-rand  2-diag
   LASPH  =      F    aspherical Exc in radial PAW
   METAGGA=      F    non-selfconsistent MetaGGA calc.

 Electronic Relaxation 1
   ENCUT  =  520.0 eV  38.22 Ry    6.18 a.u.  18.64 18.64 39.50*2*pi/ulx,y,z
   ENINI  =  520.0     initial cutoff
   ENAUG  =  544.6 eV  augmentation charge cutoff
   NELM   =    200;   NELMIN=  2; NELMDL= -5     # of ELM steps 
   EDIFF  = 0.1E-04   stopping-criterion for ELM
   LREAL  =      T    real-space projection
   NLSPLINE    = F    spline interpolate recip. space projectors
   LCOMPAT=      F    compatible to vasp.4.4
   GGA_COMPAT  = T    GGA compatible to vasp.4.4-vasp.4.6
   LMAXPAW     = -100 max onsite density
   LMAXMIX     =    2 max onsite mixed and CHGCAR
   VOSKOWN=      0    Vosko Wilk Nusair interpolation
   ROPT   =   -0.00025  -0.00025
 Ionic relaxation
   EDIFFG = -.5E-01   stopping-criterion for IOM
   NSW    =     99    number of steps for IOM
   NBLOCK =      1;   KBLOCK =     99    inner block; outer block 
   IBRION =      2    ionic relax: 0-MD 1-quasi-New 2-CG
   NFREE  =      1    steps in history (QN), initial steepest desc. (CG)
   ISIF   =      2    stress and relaxation
   IWAVPR =     11    prediction:  0-non 1-charg 2-wave 3-comb
   ISYM   =      0    0-nonsym 1-usesym 2-fastsym
   LCORR  =      T    Harris-Foulkes like correction to forces

   POTIM  = 0.5000    time-step for ionic-motion
   TEIN   =    0.0    initial temperature
   TEBEG  =    0.0;   TEEND  =   0.0 temperature during run
   SMASS  =  -3.00    Nose mass-parameter (am)
   estimated Nose-frequenzy (Omega)   =  0.10E-29 period in steps =****** mass=  -0.230E-26a.u.
   SCALEE = 1.0000    scale energy and forces
   NPACO  =    256;   APACO  = 16.0  distance and # of slots for P.C.
   PSTRESS=    0.0 pullay stress

  Mass of Ions in am
   POMASS =  58.69 55.85
  Ionic Valenz
   ZVAL   =  10.00  8.00
  Atomic Wigner-Seitz radii
   RWIGS  =  -1.00 -1.00
  virtual crystal weights 
   VCA    =   1.00  1.00
   NELECT =     602.0000    total number of electrons
   NUPDOWN=      -1.0000    fix difference up-down

 DOS related values:
   EMIN   =  10.00;   EMAX   =-10.00  energy-range for DOS
   EFERMI =   0.00
   ISMEAR =     1;   SIGMA  =   0.20  broadening in eV -4-tet -1-fermi 0-gaus

 Electronic relaxation 2 (details)
   IALGO  =     68    algorithm
   LDIAG  =      T    sub-space diagonalisation (order eigenvalues)
   LSUBROT=      F    optimize rotation matrix (better conditioning)
   TURBO    =      0    0=normal 1=particle mesh
   IRESTART =      0    0=no restart 2=restart with 2 vectors
   NREBOOT  =      0    no. of reboots
   NMIN     =      0    reboot dimension
   EREF     =   0.00    reference energy to select bands
   IMIX   =      4    mixing-type and parameters
     AMIX     =   0.40;   BMIX     =  1.00
     AMIX_MAG =   1.60;   BMIX_MAG =  1.00
     AMIN     =   0.10
     WC   =   100.;   INIMIX=   1;  MIXPRE=   1;  MAXMIX= -45

 Intra band minimization:
   WEIMIN = 0.0010     energy-eigenvalue tresh-hold
   EBREAK =  0.60E-08  absolut break condition
   DEPER  =   0.30     relativ break condition  

   TIME   =   0.40     timestep for ELM

  volume/ion in A,a.u.               =      28.90       195.03
  Fermi-wavevector in a.u.,A,eV,Ry     =   1.126111  2.128040 17.253886  1.268125
  Thomas-Fermi vector in A             =   2.262791
 
 Write flags
   LWAVE        =      F    write WAVECAR
   LDOWNSAMPLE  =      F    k-point downsampling of WAVECAR
   LCHARG       =      T    write CHGCAR
   LVTOT        =      F    write LOCPOT, total local potential
   LVHAR        =      F    write LOCPOT, Hartree potential only
   LELF         =      F    write electronic localiz. function (ELF)
   LORBIT       =     10    0 simple, 1 ext, 2 COOP (PROOUT), +10 PAW based schemes


 Dipole corrections
   LMONO  =      F    monopole corrections only (constant potential shift)
   LDIPOL =      T    correct potential (dipole corrections)
   IDIPOL =      3    1-x, 2-y, 3-z, 4-all directions 
   EPSILON=  1.0000000 bulk dielectric constant

 Exchange correlation treatment:
   GGA     =    --    GGA type
   LEXCH   =     8    internal setting for exchange type
   VOSKOWN=      0    Vosko Wilk Nusair interpolation
   LHFCALC =     F    Hartree Fock is set to
   LHFONE  =     F    Hartree Fock one center treatment
   AEXX    =    0.0000 exact exchange contribution

 Linear response parameters
   LEPSILON=     F    determine dielectric tensor
   LRPA    =     F    only Hartree local field effects (RPA)
   LNABLA  =     F    use nabla operator in PAW spheres
   LVEL    =     F    velocity operator in full k-point grid
   LINTERFAST=   F  fast interpolation
   KINTER  =     0    interpolate to denser k-point grid
   CSHIFT  =0.1000    complex shift for real part using Kramers Kronig
   OMEGAMAX=  -1.0    maximum frequency
   DEG_THRESHOLD= 0.2000000E-02 threshold for treating states as degnerate
   RTIME   =   -0.100 relaxation time in fs
  (WPLASMAI=    0.000 imaginary part of plasma frequency in eV, 0.658/RTIME)
   DFIELD  = 0.0000000 0.0000000 0.0000000 field for delta impulse in time
 
 Orbital magnetization related:
   ORBITALMAG=     F  switch on orbital magnetization
   LCHIMAG   =     F  perturbation theory with respect to B field
   DQ        =  0.001000  dq finite difference perturbation B field
   LLRAUG    =     F  two centre corrections for induced B field



--------------------------------------------------------------------------------------------------------


 conjugate gradient relaxation of ions
   using selective dynamics as specified on POSCAR
 charge density and potential will be updated during run
 spin polarized calculation
 RMM-DIIS sequential band-by-band and
  variant of blocked Davidson during initial phase
 perform sub-space diagonalisation
    before iterative eigenvector-optimisation
 modified Broyden-mixing scheme, WC =      100.0
 initial mixing is a Kerker type mixing with AMIX =  0.4000 and BMIX =      1.0000
 Hartree-type preconditioning will be used
 using additional bands          113
 real space projection scheme for non local part
 use partial core corrections
 calculate Harris-corrections to forces 
   (improved forces if not selfconsistent)
 use gradient corrections 
 use of overlap-Matrix (Vanderbilt PP)
 Methfessel and Paxton  Order N= 1 SIGMA  =   0.20


--------------------------------------------------------------------------------------------------------


  energy-cutoff  :      520.00
  volume of cell :     1849.60
      direct lattice vectors                 reciprocal lattice vectors
    10.026770000  0.000000000  0.000000000     0.099733015  0.057580883  0.000000000
    -5.013385000  8.683437540  0.000000000     0.000000000  0.115161766  0.000000000
     0.000000000  0.000000000 21.243458220     0.000000000  0.000000000  0.047073315

  length of vectors
    10.026770000 10.026770002 21.243458220     0.115161766  0.115161766  0.047073315


 
 k-points in units of 2pi/SCALE and weight: read from INCAR                         
   0.00000000  0.00000000  0.00000000       0.111
   0.03324434  0.01919363  0.00000000       0.222
   0.00000000  0.03838726  0.00000000       0.222
   0.03324434  0.05758088  0.00000000       0.222
  -0.03324434  0.01919363  0.00000000       0.222
 
 k-points in reciprocal lattice and weights: read from INCAR                         
   0.00000000  0.00000000  0.00000000       0.111
   0.33333333  0.00000000  0.00000000       0.222
   0.00000000  0.33333333  0.00000000       0.222
   0.33333333  0.33333333  0.00000000       0.222
  -0.33333333  0.33333333  0.00000000       0.222
 
 position of ions in fractional coordinates (direct lattice) 
   0.00052900  0.00053000  0.19343852
   0.25001300  0.00028700  0.19258269
   0.49948700  0.99908000  0.19330643
   0.74930200  0.99919300  0.19338794
   0.99864000  0.24850700  0.19328475
   0.25012600  0.25021600  0.19292722
   0.08563121  0.16704761  0.28854217
   0.50064200  0.24891300  0.19337349
   0.33339410  0.16681899  0.28602662
   0.75052500  0.25006200  0.19419811
   0.58424307  0.16436644  0.28791404
   0.83235970  0.16519006  0.28887843
   0.66558100  0.08305500  0.09724336
   0.66509791  0.08657322  0.38213111
   0.91639700  0.08203100  0.09671153
   0.91924084  0.08573283  0.38220873
   0.00183400  0.50047500  0.19189796
   0.08608706  0.41583404  0.28531924
   0.16611800  0.33395200  0.09673755
   0.16897682  0.33268673  0.38125336
   0.75170200  0.50186900  0.19211445
   0.58493429  0.41716403  0.28481897
   0.00109100  0.75115300  0.19219162
   0.24902600  0.74885700  0.19200086
   0.08094101  0.66311387  0.28794847
   0.49972500  0.74917300  0.19214971
   0.33386525  0.66531772  0.28684789
   0.75128300  0.75093600  0.19293993
   0.58322698  0.66704596  0.28776042
   0.41661000  0.58200200  0.09548198
   0.41430645  0.57984568  0.38143520
   0.83360419  0.66532490  0.28809577
   0.91708300  0.58323900  0.09545972
   0.91236698  0.58119655  0.38373872
   0.08346800  0.91711061  0.28832763
   0.33506800  0.91634212  0.28777482
   0.16670900  0.83524200  0.09602941
   0.16783480  0.83363056  0.38182978
   0.41703500  0.83214900  0.09672078
   0.41608295  0.83329401  0.38078563
   0.83167556  0.91644744  0.28798704
   0.66623900  0.83337000  0.09700230
   0.66580026  0.83235773  0.38148684
   0.91705900  0.83319500  0.09682368
   0.91688177  0.83371659  0.38169252
   0.16168500  0.08211500  0.09597016
   0.18077078  0.08930813  0.37817828
   0.41607500  0.07807100  0.09643550
   0.41444274  0.09247451  0.37770771
   0.24829900  0.49904600  0.19264223
   0.50648100  0.50259500  0.19338476
   0.33850896  0.42038421  0.28607294
   0.41638400  0.33144300  0.09718295
   0.41730274  0.33350843  0.37460710
   0.83385703  0.41382950  0.29137779
   0.66732400  0.33240600  0.09901110
   0.66426388  0.33806971  0.37598767
   0.91446400  0.32695500  0.09862235
   0.92206248  0.34477016  0.37644505
   0.16914200  0.58833400  0.09414663
   0.15531937  0.57179438  0.37722046
   0.66961600  0.58928900  0.09452787
   0.65978175  0.56929886  0.37778061
   0.58372962  0.91585961  0.28863976
 
 position of ions in cartesian coordinates  (Angst):
   0.00264707  0.00460222  4.10930312
   2.50538401  0.00249215  4.09112233
  -0.00053142  8.67544878  4.10649707
   2.50373962  8.67643001  4.10822862
   8.76727233  2.15789501  4.10603651
   1.25352673  2.17273501  4.09844134
   0.02113043  1.45054751  6.12963360
   3.77192549  2.16142049  4.10792166
   2.50653818  1.44856224  6.07619460
   6.27168447  2.17139776  4.12543944
   5.03403863  1.42726572  6.11628996
   7.51771794  1.43441757  6.13677686
   6.25724091  0.72120290  2.06578526
   6.23475895  0.75175311  8.11778636
   8.77724896  0.71231106  2.05448735
   8.78720484  0.74445564  8.11943518
  -2.49068476  4.34584340  4.07657630
  -1.22156094  3.61086891  6.06116729
  -0.00860297  2.89985133  2.05504010
   0.02640502  2.88886446  8.09913980
   5.02108055  4.35794811  4.08117529
   3.77359773  3.62241779  6.05053980
  -3.75487998  6.52259016  4.08281465
  -1.25738202  6.50265299  4.07876225
  -2.51286819  5.75810785  6.11702133
   1.25473496  6.50539695  4.08192434
   0.01209616  5.77724490  6.09364126
   3.76821057  6.52070585  4.09871134
   2.50372457  5.79225196  6.11302654
   1.25945255  5.05377802  2.02836745
   1.24716589  5.03505372  8.10300264
   5.02282760  5.77730723  6.12015044
   6.27137866  5.06451943  2.02789457
   6.23433175  5.04678396  8.15193746
  -3.76091417  7.96367272  6.12507593
  -1.23432601  7.95699953  6.11333227
  -2.51583691  7.25277174  2.03999676
  -2.49647004  7.23877894  8.11138494
   0.00963071  7.22591387  2.05468385
  -0.00565570  7.23585651  8.08920357
   3.74451574  7.95791409  6.11784073
   2.50222056  7.23651634  2.06066431
   2.50289626  7.22772639  8.10409969
   5.01801235  7.23499674  2.05686980
   5.01362043  7.23952590  8.10846902
   1.20950420  0.71304047  2.03873808
   1.36481097  0.77550154  8.03381454
   3.78048835  0.67792465  2.04862352
   3.69191174  0.80299664  8.02381793
  -0.01227277  4.33343477  4.09238716
   2.55866626  4.36425229  4.10816107
   1.28660359  3.65037999  6.07717857
   2.51333524  2.87806459  2.06450194
   2.51219244  2.89599963  7.95795019
   6.28620604  3.59346257  6.18987183
   5.02462501  2.88642674  2.10333817
   4.96554754  2.93560719  7.98727843
   7.52996891  2.83909332  2.09507977
   7.51684281  2.99379017  7.99699473
  -1.25359692  5.10876154  2.00000000
  -1.30927382  4.96514082  8.01346709
   3.75975299  5.11705422  2.00809886
   3.76136550  4.94347105  8.02536658
   1.26136581  7.95280970  6.13170666
 


--------------------------------------------------------------------------------------------------------


 k-point  1 :   0.0000 0.0000 0.0000  plane waves:   49897
 k-point  2 :   0.3333 0.0000 0.0000  plane waves:   49798
 k-point  3 :   0.0000 0.3333 0.0000  plane waves:   49798
 k-point  4 :   0.3333 0.3333 0.0000  plane waves:   49764
 k-point  5 :  -0.3333 0.3333 0.0000  plane waves:   49798

 maximum and minimum number of plane-waves per node :      2104     2054

 maximum number of plane-waves:     49897
 maximum index in each direction: 
   IXMAX=   18   IYMAX=   18   IZMAX=   39
   IXMIN=  -18   IYMIN=  -18   IZMIN=  -39


 real space projection operators:
  total allocation   :      64718.58 KBytes
  max/ min on nodes  :       3267.70       2368.41


 parallel 3D FFT for wavefunctions:
    minimum data exchange during FFTs selected (reduces bandwidth)
 parallel 3D FFT for charge:
    minimum data exchange during FFTs selected (reduces bandwidth)


 total amount of memory used by VASP MPI-rank0   113090. kBytes
=======================================================================

   base      :      30000. kBytes
   nonlr-proj:      13110. kBytes
   fftplans  :       6402. kBytes
   grid      :      16455. kBytes
   one-center:         93. kBytes
   wavefun   :      47030. kBytes
 
     INWAV:  cpu time    0.0000: real time    0.0000
 Broyden mixing: mesh for mixing (old mesh)
   NGX = 37   NGY = 37   NGZ = 79
  (NGX  =160   NGY  =160   NGZ  =320)
  gives a total of 108151 points

 initial charge density was supplied:
 number of electron     601.9999965 magnetization     102.0000000
 keeping initial charge density in first step


--------------------------------------------------------------------------------------------------------


 Maximum index for non-local projection operator          776
 Maximum index for augmentation-charges         1173 (set IRDMAX)


--------------------------------------------------------------------------------------------------------


 First call to EWALD:  gamma=   0.144
 Maximum number of real-space cells 4x 4x 2
 Maximum number of reciprocal cells 2x 2x 4

    FEWALD:  cpu time    0.0030: real time    0.0032


--------------------------------------- Iteration      1(   1)  ---------------------------------------


    POTLOK:  cpu time    0.2480: real time    0.2559
    SETDIJ:  cpu time    0.0180: real time    0.0201
     EDDAV:  cpu time   24.5023: real time   24.9338
       DOS:  cpu time    0.0040: real time    0.0054
    --------------------------------------------
      LOOP:  cpu time   24.7722: real time   25.2152

 eigenvalue-minimisations  :  8289
 total energy-change (2. order) : 0.4586713E+04  (-0.2634511E+05)
 number of electron     601.9999965 magnetization     102.0000000
 augmentation part      601.9999965 magnetization     102.0000000

 DIPCOR: dipole corrections for dipol
 direction  3 min pos   239,
 dipolmoment           0.000000      0.000000     -0.016872 electrons x Angstroem
 Tr[quadrupol]     -9890.292160

 energy correction for charged system         0.000000 eV
 dipol+quadrupol energy correction           -0.000014 eV
 added-field ion interaction         -0.098253 eV  (added to PSCEN)


 Free energy of the ion-electron system (eV)
  ---------------------------------------------------
  alpha Z        PSCENC =      1281.11239120
  Ewald energy   TEWEN  =    218130.08974462
  -Hartree energ DENC   =   -276541.91353826
  -exchange      EXHF   =         0.00000000
  -V(xc)+E(xc)   XCENC  =      1452.66496183
  PAW double counting   =     63249.39231173   -66482.42807977
  entropy T*S    EENTRO =        -0.01105871
  eigenvalues    EBANDS =      3710.67386308
  atomic energy  EATOM  =     59787.13230648
  Solvation  Ediel_sol  =         0.00000000
  ---------------------------------------------------
  free energy    TOTEN  =      4586.71290219 eV

  energy without entropy =     4586.72396090  energy(sigma->0) =     4586.71658843


--------------------------------------------------------------------------------------------------------




--------------------------------------- Iteration      1(   2)  ---------------------------------------


     EDDAV:  cpu time   24.8272: real time   25.0855
       DOS:  cpu time    0.0070: real time    0.0068
    --------------------------------------------
      LOOP:  cpu time   24.8342: real time   25.0923

 eigenvalue-minimisations  :  8280
 total energy-change (2. order) :-0.4507928E+04  (-0.4239037E+04)
 number of electron     601.9999965 magnetization     102.0000000
 augmentation part      601.9999965 magnetization     102.0000000

 DIPCOR: dipole corrections for dipol
 direction  3 min pos   239,
 dipolmoment           0.000000      0.000000     -0.016872 electrons x Angstroem
 Tr[quadrupol]     -9890.292160

 energy correction for charged system         0.000000 eV
 dipol+quadrupol energy correction           -0.000014 eV
 added-field ion interaction         -0.098253 eV  (added to PSCEN)


 Free energy of the ion-electron system (eV)
  ---------------------------------------------------
  alpha Z        PSCENC =      1281.11239120
  Ewald energy   TEWEN  =    218130.08974462
  -Hartree energ DENC   =   -276541.91353826
  -exchange      EXHF   =         0.00000000
  -V(xc)+E(xc)   XCENC  =      1452.66496183
  PAW double counting   =     63249.39231173   -66482.42807977
  entropy T*S    EENTRO =        -0.00987085
  eigenvalues    EBANDS =      -797.25562905
  atomic energy  EATOM  =     59787.13230648
  Solvation  Ediel_sol  =         0.00000000
  ---------------------------------------------------
  free energy    TOTEN  =        78.78459793 eV

  energy without entropy =       78.79446877  energy(sigma->0) =       78.78788821


--------------------------------------------------------------------------------------------------------




--------------------------------------- Iteration      1(   3)  ---------------------------------------


     EDDAV:  cpu time   25.0302: real time   25.4577
       DOS:  cpu time    0.0070: real time    0.0075
    --------------------------------------------
      LOOP:  cpu time   25.0372: real time   25.4652

 eigenvalue-minimisations  :  8514
 total energy-change (2. order) :-0.4365559E+03  (-0.3742518E+03)
 number of electron     601.9999965 magnetization     102.0000000
 augmentation part      601.9999965 magnetization     102.0000000

 DIPCOR: dipole corrections for dipol
 direction  3 min pos   239,
 dipolmoment           0.000000      0.000000     -0.016872 electrons x Angstroem
 Tr[quadrupol]     -9890.292160

 energy correction for charged system         0.000000 eV
 dipol+quadrupol energy correction           -0.000014 eV
 added-field ion interaction         -0.098253 eV  (added to PSCEN)


 Free energy of the ion-electron system (eV)
  ---------------------------------------------------
  alpha Z        PSCENC =      1281.11239120
  Ewald energy   TEWEN  =    218130.08974462
  -Hartree energ DENC   =   -276541.91353826
  -exchange      EXHF   =         0.00000000
  -V(xc)+E(xc)   XCENC  =      1452.66496183
  PAW double counting   =     63249.39231173   -66482.42807977
  entropy T*S    EENTRO =         0.02266055
  eigenvalues    EBANDS =     -1233.84408391
  atomic energy  EATOM  =     59787.13230648
  Solvation  Ediel_sol  =         0.00000000
  ---------------------------------------------------
  free energy    TOTEN  =      -357.77132554 eV

  energy without entropy =     -357.79398609  energy(sigma->0) =     -357.77887905


--------------------------------------------------------------------------------------------------------




--------------------------------------- Iteration      1(   4)  ---------------------------------------


     EDDAV:  cpu time   25.5251: real time   25.9525
       DOS:  cpu time    0.0080: real time    0.0081
    --------------------------------------------
      LOOP:  cpu time   25.5331: real time   25.9606

 eigenvalue-minimisations  :  8820
 total energy-change (2. order) :-0.1823243E+02  (-0.1788594E+02)
 number of electron     601.9999965 magnetization     102.0000000
 augmentation part      601.9999965 magnetization     102.0000000

 DIPCOR: dipole corrections for dipol
 direction  3 min pos   239,
 dipolmoment           0.000000      0.000000     -0.016872 electrons x Angstroem
 Tr[quadrupol]     -9890.292160

 energy correction for charged system         0.000000 eV
 dipol+quadrupol energy correction           -0.000014 eV
 added-field ion interaction         -0.098253 eV  (added to PSCEN)


 Free energy of the ion-electron system (eV)
  ---------------------------------------------------
  alpha Z        PSCENC =      1281.11239120
  Ewald energy   TEWEN  =    218130.08974462
  -Hartree energ DENC   =   -276541.91353826
  -exchange      EXHF   =         0.00000000
  -V(xc)+E(xc)   XCENC  =      1452.66496183
  PAW double counting   =     63249.39231173   -66482.42807977
  entropy T*S    EENTRO =         0.01969146
  eigenvalues    EBANDS =     -1252.07354244
  atomic energy  EATOM  =     59787.13230648
  Solvation  Ediel_sol  =         0.00000000
  ---------------------------------------------------
  free energy    TOTEN  =      -376.00375315 eV

  energy without entropy =     -376.02344461  energy(sigma->0) =     -376.01031697


--------------------------------------------------------------------------------------------------------




--------------------------------------- Iteration      1(   5)  ---------------------------------------


     EDDAV:  cpu time   27.3618: real time   27.7477
       DOS:  cpu time    0.0080: real time    0.0081
    CHARGE:  cpu time    1.0068: real time    1.0179
    MIXING:  cpu time    0.0040: real time    0.0045
    --------------------------------------------
      LOOP:  cpu time   28.3807: real time   28.7781

 eigenvalue-minimisations  :  9675
 total energy-change (2. order) :-0.3550552E+00  (-0.3548795E+00)
 number of electron     601.9999966 magnetization      99.5421840
 augmentation part      358.8327342 magnetization      80.8614247

 DIPCOR: dipole corrections for dipol
 direction  3 min pos   239,
 dipolmoment           0.000000      0.000000     -0.016872 electrons x Angstroem
 Tr[quadrupol]     -9890.292160

 energy correction for charged system         0.000000 eV
 dipol+quadrupol energy correction           -0.000014 eV
 added-field ion interaction         -0.098253 eV  (added to PSCEN)


 Broyden mixing:
  rms(total) = 0.33017E+01    rms(broyden)= 0.33015E+01
  rms(prec ) = 0.33532E+01
  weight for this iteration     100.00

 Free energy of the ion-electron system (eV)
  ---------------------------------------------------
  alpha Z        PSCENC =      1281.11239120
  Ewald energy   TEWEN  =    218130.08974462
  -Hartree energ DENC   =   -276541.91353826
  -exchange      EXHF   =         0.00000000
  -V(xc)+E(xc)   XCENC  =      1452.66496183
  PAW double counting   =     63249.39231173   -66482.42807977
  entropy T*S    EENTRO =         0.01964470
  eigenvalues    EBANDS =     -1252.42855085
  atomic energy  EATOM  =     59787.13230648
  Solvation  Ediel_sol  =         0.00000000
  ---------------------------------------------------
  free energy    TOTEN  =      -376.35880833 eV

  energy without entropy =     -376.37845302  energy(sigma->0) =     -376.36535656


--------------------------------------------------------------------------------------------------------




--------------------------------------- Iteration      1(   6)  ---------------------------------------


    POTLOK:  cpu time    0.2440: real time    0.2462
    SETDIJ:  cpu time    0.0190: real time    0.0182
    EDDIAG:  cpu time    3.7134: real time    3.7239
  RMM-DIIS:  cpu time   14.9417: real time   14.9851
    ORTHCH:  cpu time    0.6779: real time    0.6793
       DOS:  cpu time    0.0080: real time    0.0078
    CHARGE:  cpu time    1.0038: real time    1.0040
    MIXING:  cpu time    0.0050: real time    0.0045
    --------------------------------------------
      LOOP:  cpu time   20.6129: real time   20.6690

 eigenvalue-minimisations  :  8330
 total energy-change (2. order) :-0.3704961E+02  (-0.2432648E+01)
 number of electron     601.9999967 magnetization      98.9007677
 augmentation part      354.5996018 magnetization      84.8887924

 DIPCOR: dipole corrections for dipol
 direction  3 min pos   233,
 dipolmoment           0.000000      0.000000      0.875142 electrons x Angstroem
 Tr[quadrupol]     -9892.346005

 energy correction for charged system         0.000000 eV
 dipol+quadrupol energy correction           -0.037466 eV
 added-field ion interaction        -15.434454 eV  (added to PSCEN)


 Broyden mixing:
  rms(total) = 0.95485E+01    rms(broyden)= 0.95484E+01
  rms(prec ) = 0.12007E+02
  weight for this iteration     100.00

 eigenvalues of (default mixing * dielectric matrix)
  average eigenvalue GAMMA=   0.2767
  0.2767

 Free energy of the ion-electron system (eV)
  ---------------------------------------------------
  alpha Z        PSCENC =      1265.73873826
  Ewald energy   TEWEN  =    218130.08974462
  -Hartree energ DENC   =   -276708.60094046
  -exchange      EXHF   =         0.00000000
  -V(xc)+E(xc)   XCENC  =      1468.44569458
  PAW double counting   =     63669.98646242   -66929.27156844
  entropy T*S    EENTRO =        -0.01339664
  eigenvalues    EBANDS =     -1096.91546129
  atomic energy  EATOM  =     59787.13230648
  Solvation  Ediel_sol  =         0.00000000
  ---------------------------------------------------
  free energy    TOTEN  =      -413.40842047 eV

  energy without entropy =     -413.39502383  energy(sigma->0) =     -413.40395493


--------------------------------------------------------------------------------------------------------




--------------------------------------- Iteration      1(   7)  ---------------------------------------


    POTLOK:  cpu time    0.2450: real time    0.2456
    SETDIJ:  cpu time    0.0180: real time    0.0179
    EDDIAG:  cpu time    3.7524: real time    3.7591
  RMM-DIIS:  cpu time   14.9607: real time   14.9861
    ORTHCH:  cpu time    0.6509: real time    0.6518
       DOS:  cpu time    0.0070: real time    0.0076
    CHARGE:  cpu time    1.0088: real time    1.0083
    MIXING:  cpu time    0.0050: real time    0.0046
    --------------------------------------------
      LOOP:  cpu time   20.6479: real time   20.6810

 eigenvalue-minimisations  :  8325
 total energy-change (2. order) :-0.4071313E+02  (-0.3575624E+01)
 number of electron     601.9999982 magnetization      98.0754525
 augmentation part      353.7062272 magnetization      83.1321705

 DIPCOR: dipole corrections for dipol
 direction  3 min pos   236,
 dipolmoment           0.000000      0.000000     -1.590692 electrons x Angstroem
 Tr[quadrupol]     -9891.040256

 energy correction for charged system         0.000000 eV
 dipol+quadrupol energy correction           -0.123779 eV
 added-field ion interaction          9.395448 eV  (added to PSCEN)


 Broyden mixing:
  rms(total) = 0.13174E+02    rms(broyden)= 0.13174E+02
  rms(prec ) = 0.18566E+02
  weight for this iteration     100.00

 eigenvalues of (default mixing * dielectric matrix)
  average eigenvalue GAMMA=   0.2020
  0.3443  0.0596

 Free energy of the ion-electron system (eV)
  ---------------------------------------------------
  alpha Z        PSCENC =      1290.48232667
  Ewald energy   TEWEN  =    218130.08974462
  -Hartree energ DENC   =   -276612.38372761
  -exchange      EXHF   =         0.00000000
  -V(xc)+E(xc)   XCENC  =      1464.57660993
  PAW double counting   =     63680.73147980   -66934.83730783
  entropy T*S    EENTRO =        -0.07912894
  eigenvalues    EBANDS =     -1259.83384893
  atomic energy  EATOM  =     59787.13230648
  Solvation  Ediel_sol  =         0.00000000
  ---------------------------------------------------
  free energy    TOTEN  =      -454.12154582 eV

  energy without entropy =     -454.04241688  energy(sigma->0) =     -454.09516951


--------------------------------------------------------------------------------------------------------




--------------------------------------- Iteration      1(   8)  ---------------------------------------


    POTLOK:  cpu time    0.2760: real time    0.2771
    SETDIJ:  cpu time    0.0190: real time    0.0180
    EDDIAG:  cpu time    3.7134: real time    3.7191
  RMM-DIIS:  cpu time   14.9247: real time   14.9474
    ORTHCH:  cpu time    0.6359: real time    0.6372
       DOS:  cpu time    0.0080: real time    0.0076
    CHARGE:  cpu time    1.0198: real time    1.0199
    MIXING:  cpu time    0.0050: real time    0.0046
    --------------------------------------------
      LOOP:  cpu time   20.6019: real time   20.6308

 eigenvalue-minimisations  :  8346
 total energy-change (2. order) : 0.6627525E+02  (-0.2203596E+01)
 number of electron     601.9999959 magnetization      97.1263054
 augmentation part      358.2566328 magnetization      76.5186466

 DIPCOR: dipole corrections for dipol
 direction  3 min pos   231,
 dipolmoment           0.000000      0.000000      0.244341 electrons x Angstroem
 Tr[quadrupol]     -9890.888548

 energy correction for charged system         0.000000 eV
 dipol+quadrupol energy correction           -0.002921 eV
 added-field ion interaction         -6.220079 eV  (added to PSCEN)


 Broyden mixing:
  rms(total) = 0.52872E+01    rms(broyden)= 0.52870E+01
  rms(prec ) = 0.59313E+01
  weight for this iteration     100.00

 eigenvalues of (default mixing * dielectric matrix)
  average eigenvalue GAMMA=   0.2188
  0.4704  0.1350  0.0509

 Free energy of the ion-electron system (eV)
  ---------------------------------------------------
  alpha Z        PSCENC =      1274.98765821
  Ewald energy   TEWEN  =    218130.08974462
  -Hartree energ DENC   =   -276591.12580978
  -exchange      EXHF   =         0.00000000
  -V(xc)+E(xc)   XCENC  =      1460.88131042
  PAW double counting   =     63703.04743845   -66951.27385141
  entropy T*S    EENTRO =         0.12189870
  eigenvalues    EBANDS =     -1201.70698863
  atomic energy  EATOM  =     59787.13230648
  Solvation  Ediel_sol  =         0.00000000
  ---------------------------------------------------
  free energy    TOTEN  =      -387.84629295 eV

  energy without entropy =     -387.96819165  energy(sigma->0) =     -387.88692585


--------------------------------------------------------------------------------------------------------




--------------------------------------- Iteration      1(   9)  ---------------------------------------


    POTLOK:  cpu time    0.2700: real time    0.2716
    SETDIJ:  cpu time    0.0180: real time    0.0180
    EDDIAG:  cpu time    3.6624: real time    3.6650
  RMM-DIIS:  cpu time   14.8827: real time   14.9155
    ORTHCH:  cpu time    0.6339: real time    0.6336
       DOS:  cpu time    0.0070: real time    0.0075
    CHARGE:  cpu time    0.9978: real time    0.9985
    MIXING:  cpu time    0.0050: real time    0.0047
    --------------------------------------------
      LOOP:  cpu time   20.4769: real time   20.5144

 eigenvalue-minimisations  :  8352
 total energy-change (2. order) : 0.1430894E+02  (-0.1249675E+01)
 number of electron     601.9999961 magnetization      96.4032323
 augmentation part      357.9439613 magnetization      76.2046449

 DIPCOR: dipole corrections for dipol
 direction  3 min pos   237,
 dipolmoment           0.000000      0.000000     -0.130843 electrons x Angstroem
 Tr[quadrupol]     -9891.659024

 energy correction for charged system         0.000000 eV
 dipol+quadrupol energy correction           -0.000837 eV
 added-field ion interaction          0.261231 eV  (added to PSCEN)


 Broyden mixing:
  rms(total) = 0.30261E+01    rms(broyden)= 0.30259E+01
  rms(prec ) = 0.33718E+01
  weight for this iteration     100.00

 eigenvalues of (default mixing * dielectric matrix)
  average eigenvalue GAMMA=   0.2383
  0.5674  0.0510  0.1675  0.1675

 Free energy of the ion-electron system (eV)
  ---------------------------------------------------
  alpha Z        PSCENC =      1281.47105175
  Ewald energy   TEWEN  =    218130.08974462
  -Hartree energ DENC   =   -276625.07964328
  -exchange      EXHF   =         0.00000000
  -V(xc)+E(xc)   XCENC  =      1462.59545509
  PAW double counting   =     63813.53940118   -67067.64473744
  entropy T*S    EENTRO =         0.03822512
  eigenvalues    EBANDS =     -1155.67915878
  atomic energy  EATOM  =     59787.13230648
  Solvation  Ediel_sol  =         0.00000000
  ---------------------------------------------------
  free energy    TOTEN  =      -373.53735526 eV

  energy without entropy =     -373.57558038  energy(sigma->0) =     -373.55009696


--------------------------------------------------------------------------------------------------------




--------------------------------------- Iteration      1(  10)  ---------------------------------------


    POTLOK:  cpu time    0.2440: real time    0.2448
    SETDIJ:  cpu time    0.0180: real time    0.0179
    EDDIAG:  cpu time    3.7204: real time    3.7226
  RMM-DIIS:  cpu time   15.1197: real time   15.1552
    ORTHCH:  cpu time    0.6319: real time    0.6348
       DOS:  cpu time    0.0070: real time    0.0077
    CHARGE:  cpu time    1.0058: real time    1.0052
    MIXING:  cpu time    0.0180: real time    0.0185
    --------------------------------------------
      LOOP:  cpu time   20.7648: real time   20.8066

 eigenvalue-minimisations  :  8362
 total energy-change (2. order) : 0.2027893E+01  (-0.8059965E+00)
 number of electron     601.9999973 magnetization      94.8782166
 augmentation part      356.3595960 magnetization      76.1137961

 DIPCOR: dipole corrections for dipol
 direction  3 min pos   234,
 dipolmoment           0.000000      0.000000      0.122191 electrons x Angstroem
 Tr[quadrupol]     -9891.237169

 energy correction for charged system         0.000000 eV
 dipol+quadrupol energy correction           -0.000730 eV
 added-field ion interaction         -1.677262 eV  (added to PSCEN)


 Broyden mixing:
  rms(total) = 0.29419E+01    rms(broyden)= 0.29418E+01
  rms(prec ) = 0.33835E+01
  weight for this iteration     100.00

 eigenvalues of (default mixing * dielectric matrix)
  average eigenvalue GAMMA=   0.2887
  0.7995  0.3182  0.0507  0.1572  0.1180

 Free energy of the ion-electron system (eV)
  ---------------------------------------------------
  alpha Z        PSCENC =      1279.53266542
  Ewald energy   TEWEN  =    218130.08974462
  -Hartree energ DENC   =   -276632.98301546
  -exchange      EXHF   =         0.00000000
  -V(xc)+E(xc)   XCENC  =      1465.57900080
  PAW double counting   =     63896.96566605   -67156.78420658
  entropy T*S    EENTRO =         0.06650962
  eigenvalues    EBANDS =     -1141.10813286
  atomic energy  EATOM  =     59787.13230648
  Solvation  Ediel_sol  =         0.00000000
  ---------------------------------------------------
  free energy    TOTEN  =      -371.50946191 eV

  energy without entropy =     -371.57597153  energy(sigma->0) =     -371.53163179


--------------------------------------------------------------------------------------------------------




--------------------------------------- Iteration      1(  11)  ---------------------------------------


    POTLOK:  cpu time    0.2570: real time    0.2572
    SETDIJ:  cpu time    0.0190: real time    0.0191
    EDDIAG:  cpu time    3.8434: real time    3.8551
  RMM-DIIS:  cpu time   15.0767: real time   15.1102
    ORTHCH:  cpu time    0.6589: real time    0.6629
       DOS:  cpu time    0.0070: real time    0.0078
    CHARGE:  cpu time    1.0008: real time    1.0050
    MIXING:  cpu time    0.0060: real time    0.0050
    --------------------------------------------
      LOOP:  cpu time   20.8688: real time   20.9224

 eigenvalue-minimisations  :  8349
 total energy-change (2. order) :-0.9829150E+00  (-0.4212208E+00)
 number of electron     601.9999961 magnetization      94.2395916
 augmentation part      357.4597934 magnetization      75.6541578

 DIPCOR: dipole corrections for dipol
 direction  3 min pos   244,
 dipolmoment           0.000000      0.000000     -0.141219 electrons x Angstroem
 Tr[quadrupol]     -9892.425965

 energy correction for charged system         0.000000 eV
 dipol+quadrupol energy correction           -0.000976 eV
 added-field ion interaction         -3.583208 eV  (added to PSCEN)


 Broyden mixing:
  rms(total) = 0.24832E+01    rms(broyden)= 0.24830E+01
  rms(prec ) = 0.28074E+01
  weight for this iteration     100.00

 eigenvalues of (default mixing * dielectric matrix)
  average eigenvalue GAMMA=   0.2818
  0.8436  0.2840  0.2840  0.0507  0.1294  0.0990

 Free energy of the ion-electron system (eV)
  ---------------------------------------------------
  alpha Z        PSCENC =      1277.62647448
  Ewald energy   TEWEN  =    218130.08974462
  -Hartree energ DENC   =   -276670.57717788
  -exchange      EXHF   =         0.00000000
  -V(xc)+E(xc)   XCENC  =      1466.36408447
  PAW double counting   =     63988.14797522   -67245.32514290
  entropy T*S    EENTRO =         0.05242901
  eigenvalues    EBANDS =     -1106.00307037
  atomic energy  EATOM  =     59787.13230648
  Solvation  Ediel_sol  =         0.00000000
  ---------------------------------------------------
  free energy    TOTEN  =      -372.49237688 eV

  energy without entropy =     -372.54480588  energy(sigma->0) =     -372.50985321


--------------------------------------------------------------------------------------------------------




--------------------------------------- Iteration      1(  12)  ---------------------------------------


    POTLOK:  cpu time    0.2440: real time    0.2458
    SETDIJ:  cpu time    0.0190: real time    0.0187
    EDDIAG:  cpu time    5.0472: real time    5.2140
  RMM-DIIS:  cpu time   15.5976: real time   15.6614
    ORTHCH:  cpu time    0.6549: real time    0.6552
       DOS:  cpu time    0.0080: real time    0.0079
    CHARGE:  cpu time    1.0118: real time    1.0138
    MIXING:  cpu time    0.0060: real time    0.0055
    --------------------------------------------
      LOOP:  cpu time   22.5886: real time   22.8223

 eigenvalue-minimisations  :  8358
 total energy-change (2. order) : 0.1626517E+01  (-0.2577925E+00)
 number of electron     601.9999965 magnetization      92.8521778
 augmentation part      357.5980985 magnetization      74.6458067

 DIPCOR: dipole corrections for dipol
 direction  3 min pos   233,
 dipolmoment           0.000000      0.000000     -0.026909 electrons x Angstroem
 Tr[quadrupol]     -9892.501301

 energy correction for charged system         0.000000 eV
 dipol+quadrupol energy correction           -0.000035 eV
 added-field ion interaction          0.474589 eV  (added to PSCEN)


 Broyden mixing:
  rms(total) = 0.16209E+01    rms(broyden)= 0.16208E+01
  rms(prec ) = 0.17664E+01
  weight for this iteration     100.00

 eigenvalues of (default mixing * dielectric matrix)
  average eigenvalue GAMMA=   0.3488
  0.9881  0.5156  0.5156  0.0507  0.1313  0.1313  0.1087

 Free energy of the ion-electron system (eV)
  ---------------------------------------------------
  alpha Z        PSCENC =      1281.68521203
  Ewald energy   TEWEN  =    218130.08974462
  -Hartree energ DENC   =   -276670.96940651
  -exchange      EXHF   =         0.00000000
  -V(xc)+E(xc)   XCENC  =      1467.47174014
  PAW double counting   =     64026.26569357   -67283.39124955
  entropy T*S    EENTRO =         0.05334923
  eigenvalues    EBANDS =     -1109.20324971
  atomic energy  EATOM  =     59787.13230648
  Solvation  Ediel_sol  =         0.00000000
  ---------------------------------------------------
  free energy    TOTEN  =      -370.86585970 eV

  energy without entropy =     -370.91920893  energy(sigma->0) =     -370.88364277


--------------------------------------------------------------------------------------------------------




--------------------------------------- Iteration      1(  13)  ---------------------------------------


    POTLOK:  cpu time    0.2450: real time    0.2457
    SETDIJ:  cpu time    0.0190: real time    0.0187
    EDDIAG:  cpu time    3.7764: real time    3.7810
  RMM-DIIS:  cpu time   15.5016: real time   15.5435
    ORTHCH:  cpu time    0.6299: real time    0.6322
       DOS:  cpu time    0.0080: real time    0.0077
    CHARGE:  cpu time    1.0478: real time    1.0518
    MIXING:  cpu time    0.0060: real time    0.0054
    --------------------------------------------
      LOOP:  cpu time   21.2338: real time   21.2860

 eigenvalue-minimisations  :  8361
 total energy-change (2. order) :-0.2470353E+01  (-0.2671673E+00)
 number of electron     601.9999965 magnetization      91.0218525
 augmentation part      356.4852844 magnetization      73.8539456

 DIPCOR: dipole corrections for dipol
 direction  3 min pos   228,
 dipolmoment           0.000000      0.000000     -0.006565 electrons x Angstroem
 Tr[quadrupol]     -9893.103437

 energy correction for charged system         0.000000 eV
 dipol+quadrupol energy correction           -0.000002 eV
 added-field ion interaction          0.244129 eV  (added to PSCEN)


 Broyden mixing:
  rms(total) = 0.26140E+01    rms(broyden)= 0.26139E+01
  rms(prec ) = 0.28823E+01
  weight for this iteration     100.00

 eigenvalues of (default mixing * dielectric matrix)
  average eigenvalue GAMMA=   0.4062
  1.5268  0.7297  0.4467  0.0507  0.1430  0.1430  0.1095  0.1000

 Free energy of the ion-electron system (eV)
  ---------------------------------------------------
  alpha Z        PSCENC =      1281.45478527
  Ewald energy   TEWEN  =    218130.08974462
  -Hartree energ DENC   =   -276706.98761738
  -exchange      EXHF   =         0.00000000
  -V(xc)+E(xc)   XCENC  =      1468.46631912
  PAW double counting   =     64115.44133708   -67374.93870383
  entropy T*S    EENTRO =         0.06296606
  eigenvalues    EBANDS =     -1074.05734965
  atomic energy  EATOM  =     59787.13230648
  Solvation  Ediel_sol  =         0.00000000
  ---------------------------------------------------
  free energy    TOTEN  =      -373.33621224 eV

  energy without entropy =     -373.39917830  energy(sigma->0) =     -373.35720093


--------------------------------------------------------------------------------------------------------




--------------------------------------- Iteration      1(  14)  ---------------------------------------


    POTLOK:  cpu time    0.2430: real time    0.2472
    SETDIJ:  cpu time    0.0190: real time    0.0188
    EDDIAG:  cpu time    3.6694: real time    3.6929
  RMM-DIIS:  cpu time   15.0687: real time   15.1310
    ORTHCH:  cpu time    0.6789: real time    0.6821
       DOS:  cpu time    0.0080: real time    0.0078
    CHARGE:  cpu time    1.0318: real time    1.0511
    MIXING:  cpu time    0.0060: real time    0.0059
    --------------------------------------------
      LOOP:  cpu time   20.7248: real time   20.8369

 eigenvalue-minimisations  :  8350
 total energy-change (2. order) : 0.4756886E+00  (-0.2348732E+00)
 number of electron     601.9999968 magnetization      90.4350178
 augmentation part      356.9153542 magnetization      73.8956181

 DIPCOR: dipole corrections for dipol
 direction  3 min pos   241,
 dipolmoment           0.000000      0.000000     -0.116153 electrons x Angstroem
 Tr[quadrupol]     -9893.455226

 energy correction for charged system         0.000000 eV
 dipol+quadrupol energy correction           -0.000660 eV
 added-field ion interaction         -1.584733 eV  (added to PSCEN)


 Broyden mixing:
  rms(total) = 0.14223E+01    rms(broyden)= 0.14222E+01
  rms(prec ) = 0.16196E+01
  weight for this iteration     100.00

 eigenvalues of (default mixing * dielectric matrix)
  average eigenvalue GAMMA=   0.4041
  1.6838  0.7748  0.4553  0.1883  0.0507  0.1506  0.1307  0.1086  0.0940

 Free energy of the ion-electron system (eV)
  ---------------------------------------------------
  alpha Z        PSCENC =      1279.62526482
  Ewald energy   TEWEN  =    218130.08974462
  -Hartree energ DENC   =   -276726.74740650
  -exchange      EXHF   =         0.00000000
  -V(xc)+E(xc)   XCENC  =      1468.86311359
  PAW double counting   =     64203.43819673   -67461.89494529
  entropy T*S    EENTRO =         0.03907057
  eigenvalues    EBANDS =     -1053.40586868
  atomic energy  EATOM  =     59787.13230648
  Solvation  Ediel_sol  =         0.00000000
  ---------------------------------------------------
  free energy    TOTEN  =      -372.86052367 eV

  energy without entropy =     -372.89959424  energy(sigma->0) =     -372.87354719


--------------------------------------------------------------------------------------------------------




--------------------------------------- Iteration      1(  15)  ---------------------------------------


    POTLOK:  cpu time    0.2450: real time    0.2474
    SETDIJ:  cpu time    0.0190: real time    0.0187
    EDDIAG:  cpu time    3.7774: real time    3.8019
  RMM-DIIS:  cpu time   15.0857: real time   15.1632
    ORTHCH:  cpu time    0.6389: real time    0.6397
       DOS:  cpu time    0.0060: real time    0.0077
    CHARGE:  cpu time    1.0548: real time    1.0569
    MIXING:  cpu time    0.0060: real time    0.0058
    --------------------------------------------
      LOOP:  cpu time   20.8328: real time   20.9414

 eigenvalue-minimisations  :  8349
 total energy-change (2. order) :-0.2379820E+00  (-0.9386651E-01)
 number of electron     601.9999968 magnetization      89.2783319
 augmentation part      356.6051881 magnetization      73.2836228

 DIPCOR: dipole corrections for dipol
 direction  3 min pos   247,
 dipolmoment           0.000000      0.000000     -0.116912 electrons x Angstroem
 Tr[quadrupol]     -9893.463657

 energy correction for charged system         0.000000 eV
 dipol+quadrupol energy correction           -0.000669 eV
 added-field ion interaction         -4.337833 eV  (added to PSCEN)


 Broyden mixing:
  rms(total) = 0.10003E+01    rms(broyden)= 0.10002E+01
  rms(prec ) = 0.11312E+01
  weight for this iteration     100.00

 eigenvalues of (default mixing * dielectric matrix)
  average eigenvalue GAMMA=   0.4561
  1.8570  1.0682  0.6021  0.3726  0.0507  0.1478  0.1314  0.1314  0.0999  0.0999

 Free energy of the ion-electron system (eV)
  ---------------------------------------------------
  alpha Z        PSCENC =      1276.87215669
  Ewald energy   TEWEN  =    218130.08974462
  -Hartree energ DENC   =   -276732.45598050
  -exchange      EXHF   =         0.00000000
  -V(xc)+E(xc)   XCENC  =      1468.88944230
  PAW double counting   =     64225.40724083   -67483.99931993
  entropy T*S    EENTRO =         0.04616472
  eigenvalues    EBANDS =     -1045.08026083
  atomic energy  EATOM  =     59787.13230648
  Solvation  Ediel_sol  =         0.00000000
  ---------------------------------------------------
  free energy    TOTEN  =      -373.09850563 eV

  energy without entropy =     -373.14467035  energy(sigma->0) =     -373.11389387


--------------------------------------------------------------------------------------------------------




--------------------------------------- Iteration      1(  16)  ---------------------------------------


    POTLOK:  cpu time    0.2450: real time    0.2462
    SETDIJ:  cpu time    0.0200: real time    0.0190
    EDDIAG:  cpu time    3.8374: real time    3.8509
  RMM-DIIS:  cpu time   14.9677: real time   15.0192
    ORTHCH:  cpu time    0.6719: real time    0.6723
       DOS:  cpu time    0.0070: real time    0.0074
    CHARGE:  cpu time    1.0318: real time    1.0343
    MIXING:  cpu time    0.0080: real time    0.0082
    --------------------------------------------
      LOOP:  cpu time   20.7888: real time   20.8575

 eigenvalue-minimisations  :  8332
 total energy-change (2. order) :-0.2121001E+01  (-0.9920192E-01)
 number of electron     601.9999967 magnetization      88.5597859
 augmentation part      356.6569007 magnetization      73.3455130

 DIPCOR: dipole corrections for dipol
 direction  3 min pos   236,
 dipolmoment           0.000000      0.000000     -0.034243 electrons x Angstroem
 Tr[quadrupol]     -9893.735774

 energy correction for charged system         0.000000 eV
 dipol+quadrupol energy correction           -0.000057 eV
 added-field ion interaction          0.202259 eV  (added to PSCEN)


 Broyden mixing:
  rms(total) = 0.12076E+01    rms(broyden)= 0.12076E+01
  rms(prec ) = 0.13207E+01
  weight for this iteration     100.00

 eigenvalues of (default mixing * dielectric matrix)
  average eigenvalue GAMMA=   0.4688
  2.1007  1.2189  0.6313  0.3820  0.0507  0.1546  0.1546  0.1522  0.1086  0.1086
  0.0949

 Free energy of the ion-electron system (eV)
  ---------------------------------------------------
  alpha Z        PSCENC =      1281.41285925
  Ewald energy   TEWEN  =    218130.08974462
  -Hartree energ DENC   =   -276736.29114281
  -exchange      EXHF   =         0.00000000
  -V(xc)+E(xc)   XCENC  =      1468.02891361
  PAW double counting   =     64235.08604708   -67491.53145530
  entropy T*S    EENTRO =         0.03680765
  eigenvalues    EBANDS =     -1049.18358751
  atomic energy  EATOM  =     59787.13230648
  Solvation  Ediel_sol  =         0.00000000
  ---------------------------------------------------
  free energy    TOTEN  =      -375.21950693 eV

  energy without entropy =     -375.25631458  energy(sigma->0) =     -375.23177615


--------------------------------------------------------------------------------------------------------




--------------------------------------- Iteration      1(  17)  ---------------------------------------


    POTLOK:  cpu time    0.2490: real time    0.2489
    SETDIJ:  cpu time    0.0190: real time    0.0188
    EDDIAG:  cpu time    3.7514: real time    3.7556
  RMM-DIIS:  cpu time   15.0807: real time   15.1465
    ORTHCH:  cpu time    0.6809: real time    0.6813
       DOS:  cpu time    0.0070: real time    0.0075
    CHARGE:  cpu time    1.0178: real time    1.0186
    MIXING:  cpu time    0.0060: real time    0.0061
    --------------------------------------------
      LOOP:  cpu time   20.8118: real time   20.8833

 eigenvalue-minimisations  :  8336
 total energy-change (2. order) :-0.2224717E+00  (-0.6330941E-01)
 number of electron     601.9999968 magnetization      87.8899298
 augmentation part      356.7338041 magnetization      73.1769824

 DIPCOR: dipole corrections for dipol
 direction  3 min pos   231,
 dipolmoment           0.000000      0.000000     -0.006583 electrons x Angstroem
 Tr[quadrupol]     -9893.872771

 energy correction for charged system         0.000000 eV
 dipol+quadrupol energy correction           -0.000002 eV
 added-field ion interaction          0.167572 eV  (added to PSCEN)


 Broyden mixing:
  rms(total) = 0.72991E+00    rms(broyden)= 0.72988E+00
  rms(prec ) = 0.80173E+00
  weight for this iteration     100.00

 eigenvalues of (default mixing * dielectric matrix)
  average eigenvalue GAMMA=   0.5033
  2.5136  1.1810  0.6008  0.5453  0.4147  0.0507  0.1551  0.1397  0.1235  0.1170
  0.0997  0.0986

 Free energy of the ion-electron system (eV)
  ---------------------------------------------------
  alpha Z        PSCENC =      1281.37822813
  Ewald energy   TEWEN  =    218130.08974462
  -Hartree energ DENC   =   -276738.39068866
  -exchange      EXHF   =         0.00000000
  -V(xc)+E(xc)   XCENC  =      1467.96733150
  PAW double counting   =     64237.86008824   -67493.02690834
  entropy T*S    EENTRO =         0.03981530
  eigenvalues    EBANDS =     -1048.49189594
  atomic energy  EATOM  =     59787.13230648
  Solvation  Ediel_sol  =         0.00000000
  ---------------------------------------------------
  free energy    TOTEN  =      -375.44197868 eV

  energy without entropy =     -375.48179398  energy(sigma->0) =     -375.45525044


--------------------------------------------------------------------------------------------------------




--------------------------------------- Iteration      1(  18)  ---------------------------------------


    POTLOK:  cpu time    0.2470: real time    0.2478
    SETDIJ:  cpu time    0.0190: real time    0.0185
    EDDIAG:  cpu time    3.7444: real time    3.7510
  RMM-DIIS:  cpu time   14.9237: real time   14.9644
    ORTHCH:  cpu time    0.6519: real time    0.6522
       DOS:  cpu time    0.0080: real time    0.0078
    CHARGE:  cpu time    1.0398: real time    1.0422
    MIXING:  cpu time    0.0070: real time    0.0064
    --------------------------------------------
      LOOP:  cpu time   20.6409: real time   20.6903

 eigenvalue-minimisations  :  8338
 total energy-change (2. order) :-0.9732255E+00  (-0.4375143E-01)
 number of electron     601.9999966 magnetization      87.2558409
 augmentation part      356.6394104 magnetization      72.9368846

 DIPCOR: dipole corrections for dipol
 direction  3 min pos   229,
 dipolmoment           0.000000      0.000000     -0.023260 electrons x Angstroem
 Tr[quadrupol]     -9893.976164

 energy correction for charged system         0.000000 eV
 dipol+quadrupol energy correction           -0.000026 eV
 added-field ion interaction          0.773995 eV  (added to PSCEN)


 Broyden mixing:
  rms(total) = 0.81653E+00    rms(broyden)= 0.81651E+00
  rms(prec ) = 0.89015E+00
  weight for this iteration     100.00

 eigenvalues of (default mixing * dielectric matrix)
  average eigenvalue GAMMA=   0.5117
  2.7589  1.1312  0.7823  0.6648  0.4004  0.0507  0.1613  0.1375  0.1375  0.1232
  0.0963  0.1040  0.1040

 Free energy of the ion-electron system (eV)
  ---------------------------------------------------
  alpha Z        PSCENC =      1281.98462688
  Ewald energy   TEWEN  =    218130.08974462
  -Hartree energ DENC   =   -276740.20809198
  -exchange      EXHF   =         0.00000000
  -V(xc)+E(xc)   XCENC  =      1467.45913864
  PAW double counting   =     64236.77613887   -67491.72287926
  entropy T*S    EENTRO =         0.04225655
  eigenvalues    EBANDS =     -1047.96844493
  atomic energy  EATOM  =     59787.13230648
  Solvation  Ediel_sol  =         0.00000000
  ---------------------------------------------------
  free energy    TOTEN  =      -376.41520414 eV

  energy without entropy =     -376.45746068  energy(sigma->0) =     -376.42928965


[...]
   0.304E+02 0.239E+02 -.106E+04   -.305E+02 -.240E+02 0.106E+04   0.106E+00 0.338E-01 0.146E+00   -.578E-02 0.477E-01 -.275E-01
   -.766E+01 0.410E+02 0.101E+04   0.765E+01 -.409E+02 -.101E+04   -.970E-02 -.173E-01 -.236E+00   -.255E-01 -.350E-01 0.358E-01
   -.354E+02 0.552E+02 0.102E+04   0.355E+02 -.552E+02 -.102E+04   0.298E-01 -.931E-02 -.420E+00   -.926E-02 -.391E-01 0.220E-01
   -.143E+02 0.760E+02 -.992E+03   0.143E+02 -.759E+02 0.992E+03   0.422E-01 -.107E+00 0.323E+00   -.231E-01 -.300E-01 -.831E-02
   0.673E+01 0.942E+02 0.972E+03   -.677E+01 -.942E+02 -.972E+03   0.400E-01 -.396E-01 -.247E+00   0.287E-01 -.453E-01 0.471E-01
   -.353E+02 0.657E+02 -.955E+03   0.353E+02 -.656E+02 0.955E+03   -.309E-01 0.571E-02 0.365E+00   0.230E-01 -.407E-01 -.389E-02
   0.351E+02 0.906E+02 0.100E+04   -.352E+02 -.905E+02 -.100E+04   -.563E-01 -.788E-01 -.397E+00   0.586E-02 -.380E-01 0.623E-01
   0.335E+02 0.908E+02 -.960E+03   -.336E+02 -.907E+02 0.959E+03   0.546E-01 -.424E-01 0.364E+00   0.280E-01 -.268E-01 -.107E-01
   -.253E+02 0.939E+02 0.288E+04   0.255E+02 -.943E+02 -.288E+04   -.128E+00 0.473E+00 -.990E+00   0.488E-02 -.290E-01 0.379E-01
   -.122E+02 0.758E+02 -.289E+04   0.123E+02 -.760E+02 0.289E+04   -.109E+00 0.204E+00 0.607E+00   0.163E-01 -.718E-02 -.386E-01
   0.148E+02 0.974E+02 -.995E+03   -.147E+02 -.972E+02 0.995E+03   -.696E-01 -.131E+00 0.389E+00   -.292E-01 -.171E-01 -.132E-01
   0.572E+01 0.943E+02 0.295E+04   -.572E+01 -.948E+02 -.295E+04   0.167E-01 0.591E+00 -.383E+00   -.637E-03 -.231E-01 0.323E-01
   -.330E+01 0.103E+03 -.291E+04   0.335E+01 -.103E+03 0.291E+04   -.330E-01 0.533E+00 0.263E+00   -.102E-01 -.156E-01 -.295E-01
   -.243E+02 -.341E+02 -.997E+03   0.244E+02 0.341E+02 0.997E+03   0.270E-01 0.840E-01 0.339E+00   -.369E-01 -.151E-01 -.101E-02
   -.320E+02 -.323E+02 -.101E+04   0.320E+02 0.324E+02 0.101E+04   -.703E-02 -.186E-01 0.365E+00   0.190E-04 -.493E-02 0.388E-02
   -.226E+02 -.284E+02 0.295E+04   0.226E+02 0.286E+02 -.295E+04   -.108E+00 -.206E+00 -.582E+00   -.690E-02 -.207E-01 0.142E-01
   -.254E+02 -.118E+02 -.294E+04   0.255E+02 0.119E+02 0.294E+04   -.420E-01 -.100E+00 0.581E+00   -.128E-01 -.915E-02 -.349E-02
   0.314E+02 0.102E+02 0.293E+04   -.314E+02 -.103E+02 -.293E+04   0.578E-01 -.270E-01 -.985E+00   -.954E-02 -.144E-01 0.111E-01
   0.304E+02 0.837E+01 -.292E+04   -.303E+02 -.836E+01 0.292E+04   -.725E-01 0.824E-02 0.106E+01   0.738E-02 -.171E-01 -.132E-02
   0.337E+02 0.885E+01 -.987E+03   -.337E+02 -.877E+01 0.987E+03   -.127E-01 -.425E-01 0.239E+00   0.356E-02 -.302E-01 -.346E-02
   -.315E+01 0.489E+02 0.293E+04   0.316E+01 -.488E+02 -.293E+04   -.429E-01 -.941E-01 -.115E+01   0.870E-02 -.241E-01 0.290E-01
   0.126E+02 0.448E+02 -.293E+04   -.128E+02 -.447E+02 0.293E+04   0.872E-01 0.166E-02 0.121E+01   0.236E-01 -.203E-01 -.210E-01
   -.527E+01 0.159E+02 0.294E+04   0.527E+01 -.158E+02 -.294E+04   0.804E-01 -.102E+00 -.850E+00   0.815E-02 -.299E-01 0.328E-01
   -.176E+02 0.268E+02 -.295E+04   0.176E+02 -.268E+02 0.295E+04   0.529E-02 0.673E-01 0.933E+00   -.200E-01 -.169E-01 -.258E-01
   -.672E+02 -.655E+02 0.236E+04   0.674E+02 0.658E+02 -.236E+04   -.357E+00 -.375E+00 -.243E+01   0.825E-02 0.123E-01 0.141E-01
   -.672E+02 -.597E+02 -.237E+04   0.676E+02 0.599E+02 0.236E+04   -.405E+00 -.244E+00 0.217E+01   -.147E-01 0.414E-02 -.524E-02
   0.372E+02 -.901E+02 0.235E+04   -.375E+02 0.906E+02 -.235E+04   0.289E+00 -.627E+00 -.202E+01   -.175E-02 0.196E-01 0.951E-02
   0.318E+02 -.786E+02 -.236E+04   -.322E+02 0.792E+02 0.236E+04   0.371E+00 -.565E+00 0.194E+01   -.483E-02 0.381E-02 0.238E-03
   -.531E+02 0.217E+02 0.794E+03   0.531E+02 -.216E+02 -.794E+03   -.101E+00 -.124E+00 -.328E+00   0.166E-01 -.751E-02 0.274E-01
   0.383E+02 0.597E+02 0.805E+03   -.383E+02 -.598E+02 -.805E+03   0.549E-01 0.897E-01 -.159E+00   0.664E-02 0.134E-03 0.389E-01
   -.327E+02 -.116E+01 -.788E+03   0.328E+02 0.121E+01 0.788E+03   -.121E+00 -.536E-01 0.290E+00   0.981E-02 0.169E-01 -.267E-01
   -.386E+02 -.249E+01 0.231E+04   0.392E+02 0.222E+01 -.231E+04   -.654E+00 0.321E+00 -.221E+01   0.603E-02 0.159E-01 0.300E-01
   -.265E+02 0.111E+02 -.236E+04   0.270E+02 -.115E+02 0.236E+04   -.582E+00 0.340E+00 0.241E+01   -.553E-02 0.192E-01 -.212E-01
   0.154E+02 0.262E+02 -.841E+03   -.154E+02 -.265E+02 0.841E+03   -.254E-02 0.281E+00 -.133E+00   -.874E-02 0.777E-02 -.124E-01
   0.517E+02 -.114E+02 0.232E+04   -.522E+02 0.114E+02 -.232E+04   0.410E+00 0.101E+00 -.184E+01   0.273E-02 0.189E-01 0.249E-01
   0.245E+02 -.167E+02 -.236E+04   -.249E+02 0.167E+02 0.236E+04   0.409E+00 -.419E-01 0.265E+01   0.102E-01 0.214E-01 -.202E-01
   0.185E+02 -.516E+02 0.233E+04   -.185E+02 0.517E+02 -.233E+04   0.120E+00 -.127E+00 -.222E+01   -.115E-01 0.256E-01 0.176E-01
   0.353E+02 -.630E+02 -.236E+04   -.356E+02 0.631E+02 0.236E+04   0.247E+00 -.131E+00 0.296E+01   0.488E-02 0.947E-02 -.110E-01
   -.514E+01 0.625E+02 0.235E+04   0.523E+01 -.626E+02 -.235E+04   -.273E-01 0.237E+00 -.280E+01   -.947E-02 -.199E-01 0.185E-01
   0.129E+02 0.452E+02 -.234E+04   -.130E+02 -.453E+02 0.234E+04   0.831E-01 0.763E-01 0.259E+01   -.325E-02 -.195E-01 -.592E-02
   0.183E+02 0.107E+03 0.235E+04   -.185E+02 -.108E+03 -.234E+04   0.149E+00 0.581E+00 -.272E+01   0.613E-02 -.207E-01 0.366E-01
   -.477E+00 0.942E+02 -.234E+04   0.429E+00 -.946E+02 0.234E+04   0.583E-01 0.482E+00 0.201E+01   -.469E-02 0.795E-02 -.294E-01
   0.190E+02 -.145E+01 -.789E+03   -.190E+02 0.139E+01 0.789E+03   -.809E-01 0.785E-01 0.184E+00   0.283E-01 -.151E-01 -.425E-02
 -----------------------------------------------------------------------------------------------
   0.301E+00 -.416E+00 -.143E+00   -.185E-12 -.760E-12 0.614E-11   -.280E+00 0.447E+00 -.415E+00   -.185E-01 -.278E-01 0.557E+00
 
 
 POSITION                                       TOTAL-FORCE (eV/Angst)
 -----------------------------------------------------------------------------------
      0.00265      0.00460      4.10930         0.055953      0.050251     -0.141783
      2.50538      0.00249      4.09112         0.016964      0.080870     -0.188670
     -0.00053      8.67545      4.10650        -0.033652      0.100483     -0.150503
      2.50374      8.67643      4.10823         0.028623      0.035291     -0.098703
      8.76727      2.15790      4.10604         0.053828      0.015682     -0.234250
      1.25353      2.17274      4.09844         0.058438      0.000566     -0.090501
     -0.00009      1.44787      6.15452         0.000883      0.001051      0.004818
      3.77193      2.16142      4.10792         0.005819     -0.004165     -0.077718
      2.49822      1.44772      6.16141         0.002912      0.001531      0.010351
      6.27168      2.17140      4.12544        -0.032795     -0.051981     -0.238007
      4.99643      1.45448      6.17805         0.009097     -0.002773      0.014650
      7.51952      1.45440      6.15297        -0.005069      0.000240      0.004854
      6.25724      0.72120      2.06579         0.026052     -0.045145      0.212730
      6.26138      0.72438      8.17338         0.005743     -0.009262      0.009666
      8.77725      0.71231      2.05449        -0.079080     -0.060571      0.281825
      8.76760      0.69417      8.13660        -0.004853     -0.004315      0.017319
     -2.49068      4.34584      4.07658         0.012441     -0.062052     -0.154505
     -1.28085      3.62163      6.15538         0.000190     -0.010304      0.004756
     -0.00860      2.89985      2.05504        -0.081856      0.032847      0.254014
      0.00378      2.89635      8.14449        -0.002752     -0.007332      0.007178
      5.02108      4.35795      4.08118        -0.041896     -0.092375     -0.130571
      3.76768      3.61754      6.17002         0.009721     -0.006739      0.005911
     -3.75488      6.52259      4.08281        -0.047353      0.027371     -0.320220
     -1.25738      6.50265      4.07876         0.105408     -0.028839     -0.285315
     -2.50236      5.79724      6.11504         0.005726     -0.002042      0.013477
      1.25473      6.50540      4.08192         0.031048     -0.054560     -0.205869
     -0.01061      5.77913      6.11770         0.003897      0.005699     -0.004706
      3.76821      6.52071      4.09871        -0.079629     -0.016432     -0.273207
      2.50687      5.78512      6.12437         0.000269     -0.009279      0.002800
      1.25945      5.05378      2.02837         0.062263      0.046777      0.235347
      1.28395      5.05908      8.13182         0.001399      0.015157      0.021042
      5.01850      5.78882      6.12520        -0.002841      0.011133      0.002197
      6.27138      5.06452      2.02789         0.015537      0.024653      0.349372
      6.27640      5.06536      8.12130         0.004166      0.001171      0.019849
     -3.75860      7.96831      6.12216         0.006374     -0.024626     -0.004124
     -1.24378      7.96301      6.14074        -0.002755     -0.006770     -0.005701
     -2.51584      7.25277      2.04000        -0.115010     -0.011486      0.260316
     -2.51982      7.26025      8.10478        -0.008340     -0.009714      0.018882
      0.00963      7.22591      2.05468         0.045073     -0.072409      0.229908
      0.02578      7.23010      8.14660         0.010548      0.008403      0.018344
      3.75071      7.96102      6.14361        -0.001178      0.006101      0.002224
      2.50222      7.23652      2.06066        -0.019415     -0.006854      0.237395
      2.49741      7.25499      8.15115         0.000309      0.002616      0.015892
      5.01801      7.23500      2.05687         0.087639     -0.042088      0.254317
      5.01087      7.23684      8.11686         0.004051      0.008142      0.016549
      1.20950      0.71304      2.03874        -0.063806     -0.094549      0.154539
      1.20669      0.70941      8.15134         0.001934     -0.004858      0.007076
      3.78049      0.67792      2.04862        -0.078089     -0.054842      0.189611
      3.77979      0.66848      8.15895         0.007697     -0.003877     -0.003645
     -0.01227      4.33343      4.09239        -0.029684     -0.033700     -0.262600
      2.55867      4.36425      4.10816         0.027859     -0.046227     -0.239133
      1.25179      3.61165      6.17999        -0.001851      0.011515      0.021000
      2.51334      2.87806      2.06450        -0.068596      0.067452     -0.073372
      2.54536      2.88212      8.24309        -0.001051     -0.011237     -0.000372
      6.25981      3.62739      6.14423         0.003464      0.007034      0.019556
      5.02463      2.88643      2.10334        -0.104091      0.140590      0.018133
      5.02383      2.89744      8.23981         0.012463     -0.002418     -0.003252
      7.52997      2.83909      2.09508         0.139750      0.017634      0.034722
      7.54539      2.83389      8.20619        -0.006001     -0.003082      0.005266
     -1.25360      5.10876      2.00000         0.052623      0.043973      0.052962
     -1.24042      5.09631      8.12845         0.002947     -0.000035      0.004572
      3.75975      5.11705      2.00810        -0.009699      0.122054      0.132849
      3.76393      5.12546      8.13124         0.006343      0.011670      0.004712
      1.25259      7.95599      6.14566        -0.004109     -0.001023      0.015746
 -----------------------------------------------------------------------------------
    total drift:                                0.001756      0.003302     -0.001261


--------------------------------------------------------------------------------------------------------



  FREE ENERGIE OF THE ION-ELECTRON SYSTEM (eV)
  ---------------------------------------------------
  free  energy   TOTEN  =      -382.80016921 eV

  energy  without entropy=     -382.83158270  energy(sigma->0) =     -382.81064038
 
 d Force = 0.2249569E-02[ 0.107E-02, 0.343E-02]  d Energy = 0.1703950E-02 0.546E-03
 d Force = 0.1680691E+03[ 0.168E+03, 0.168E+03]  d Ewald  = 0.1680691E+03-0.534E-05


--------------------------------------------------------------------------------------------------------


    POTLOK:  cpu time    0.2640: real time    0.2670


--------------------------------------------------------------------------------------------------------


 Conjugate gradient step on ions:
 trial-energy change:   -0.001704  1 .order   -0.002250   -0.003425   -0.001074
  (g-gl).g = 0.206E-02      g.g   = 0.163E-02  gl.gl    = 0.105E-01
 g(Force)  = 0.163E-02   g(Stress)= 0.000E+00 ortho     =-0.842E-04
 gamma     =   0.19654
 trial     =   2.12047
 opt step  =   3.08910  (harmonic =   3.08910) maximal distance =0.00993214
 next E    =  -382.800960   (d E  =  -0.00249)


--------------------------------------------------------------------------------------------------------


  
 reached required accuracy - stopping structural energy minimisation
     LOOP+:  cpu time  291.4887: real time  295.7111
    4ORBIT:  cpu time    0.0000: real time    0.0000
 


 total charge     
 
# of ion       s       p       d       tot
------------------------------------------
    1        0.492   0.485   8.319   9.296
    2        0.492   0.487   8.319   9.298
    3        0.493   0.485   8.325   9.303
    4        0.489   0.479   8.324   9.292
    5        0.495   0.491   8.322   9.308
    6        0.502   0.499   8.319   9.320
    7        0.499   0.499   8.327   9.325
    8        0.500   0.499   8.318   9.317
    9        0.502   0.505   8.317   9.323
   10        0.500   0.499   8.325   9.324
   11        0.503   0.505   8.326   9.333
   12        0.501   0.503   8.327   9.331
   13        0.500   0.390   8.316   9.206
   14        0.507   0.405   8.322   9.234
   15        0.492   0.382   8.324   9.198
   16        0.501   0.402   8.325   9.229
   17        0.500   0.500   8.320   9.320
   18        0.508   0.513   8.329   9.350
   19        0.503   0.402   8.313   9.218
   20        0.510   0.410   8.318   9.238
   21        0.501   0.500   8.326   9.327
   22        0.509   0.513   8.326   9.348
   23        0.486   0.477   8.316   9.279
   24        0.495   0.492   8.313   9.300
   25        0.499   0.500   8.331   9.330
   26        0.495   0.491   8.327   9.313
   27        0.503   0.508   8.337   9.348
   28        0.497   0.496   8.315   9.308
   29        0.505   0.513   8.333   9.351
   30        0.502   0.391   8.311   9.204
   31        0.505   0.403   8.323   9.231
   32        0.499   0.500   8.332   9.330
   33        0.497   0.389   8.303   9.189
   34        0.508   0.408   8.313   9.229
   35        0.496   0.494   8.326   9.317
   36        0.499   0.495   8.333   9.328
   37        0.498   0.392   8.314   9.204
   38        0.504   0.403   8.324   9.231
   39        0.494   0.386   8.321   9.201
   40        0.502   0.395   8.327   9.225
   41        0.494   0.491   8.328   9.313
   42        0.487   0.379   8.313   9.178
   43        0.499   0.395   8.317   9.212
   44        0.495   0.385   8.321   9.201
   45        0.501   0.399   8.325   9.225
   46        0.470   0.397   6.111   6.978
   47        0.473   0.408   6.124   7.005
   48        0.470   0.403   6.128   7.001
   49        0.474   0.414   6.142   7.029
   50        0.468   0.496   6.169   7.134
   51        0.471   0.500   6.186   7.157
   52        0.473   0.502   6.179   7.154
   53        0.469   0.404   6.158   7.031
   54        0.465   0.394   6.158   7.017
   55        0.472   0.501   6.169   7.142
   56        0.473   0.412   6.157   7.042
   57        0.470   0.398   6.163   7.030
   58        0.470   0.405   6.129   7.003
   59        0.469   0.395   6.137   7.001
   60        0.465   0.386   6.110   6.961
   61        0.466   0.395   6.114   6.975
   62        0.469   0.393   6.122   6.984
   63        0.474   0.410   6.130   7.014
   64        0.470   0.502   6.141   7.113
--------------------------------------------------
tot         31.387  28.652 491.220 551.259
 


 magnetization (x)
 
# of ion       s       p       d       tot
------------------------------------------
    1       -0.010  -0.030   0.690   0.650
    2       -0.013  -0.036   0.704   0.655
    3       -0.013  -0.030   0.684   0.641
    4       -0.010  -0.026   0.656   0.620
    5       -0.011  -0.032   0.701   0.658
    6       -0.021  -0.045   0.726   0.660
    7       -0.012  -0.033   0.694   0.649
    8       -0.017  -0.045   0.728   0.667
    9       -0.018  -0.047   0.745   0.680
   10       -0.015  -0.039   0.702   0.649
   11       -0.018  -0.043   0.714   0.653
   12       -0.015  -0.039   0.697   0.643
   13       -0.021  -0.031   0.682   0.631
   14       -0.021  -0.035   0.695   0.639
   15       -0.016  -0.029   0.630   0.585
   16       -0.015  -0.031   0.657   0.612
   17       -0.017  -0.042   0.731   0.672
   18       -0.021  -0.045   0.722   0.656
   19       -0.024  -0.044   0.708   0.639
   20       -0.026  -0.042   0.718   0.650
   21       -0.017  -0.041   0.712   0.654
   22       -0.024  -0.051   0.735   0.660
   23       -0.006  -0.023   0.681   0.652
   24       -0.012  -0.033   0.728   0.683
   25       -0.012  -0.034   0.667   0.621
   26       -0.014  -0.032   0.672   0.626
   27       -0.016  -0.042   0.668   0.610
   28       -0.012  -0.034   0.723   0.678
   29       -0.016  -0.042   0.689   0.631
   30       -0.025  -0.036   0.718   0.657
   31       -0.022  -0.037   0.689   0.630
   32       -0.012  -0.033   0.673   0.628
   33       -0.023  -0.039   0.732   0.670
   34       -0.028  -0.044   0.717   0.645
   35       -0.010  -0.029   0.673   0.634
   36       -0.013  -0.029   0.659   0.617
   37       -0.018  -0.033   0.697   0.646
   38       -0.020  -0.035   0.673   0.618
   39       -0.013  -0.028   0.661   0.620
   40       -0.019  -0.031   0.669   0.619
   41       -0.010  -0.024   0.658   0.624
   42       -0.011  -0.027   0.674   0.637
   43       -0.016  -0.031   0.697   0.650
   44       -0.014  -0.026   0.660   0.620
   45       -0.014  -0.028   0.673   0.630
   46        0.011  -0.009   2.901   2.902
   47        0.010  -0.012   2.883   2.881
   48        0.008  -0.019   2.852   2.840
   49        0.008  -0.020   2.824   2.811
   50        0.003  -0.018   2.758   2.743
   51       -0.000  -0.024   2.714   2.690
   52        0.003  -0.014   2.739   2.728
   53        0.000  -0.030   2.765   2.735
   54        0.001  -0.028   2.784   2.757
   55        0.004  -0.016   2.765   2.753
   56        0.004  -0.024   2.775   2.756
   57        0.002  -0.023   2.767   2.746
   58        0.012  -0.012   2.855   2.856
   59        0.010  -0.012   2.843   2.841
   60        0.010  -0.008   2.912   2.914
   61        0.014  -0.006   2.907   2.914
   62        0.008  -0.011   2.878   2.875
   63        0.010  -0.012   2.864   2.863
   64        0.010  -0.008   2.839   2.841
--------------------------------------------------
tot         -0.604  -1.892  84.808  82.313
 

 total amount of memory used by VASP MPI-rank0   113090. kBytes
=======================================================================

   base      :      30000. kBytes
   nonlr-proj:      13110. kBytes
   fftplans  :       6402. kBytes
   grid      :      16455. kBytes
   one-center:         93. kBytes
   wavefun   :      47030. kBytes
 
  
  
 General timing and accounting informations for this job:
 ========================================================
  
                  Total CPU time used (sec):     6566.855
                            User time (sec):     6494.910
                          System time (sec):       71.946
                         Elapsed time (sec):     6637.401
  
                   Maximum memory used (kb):      164232.
                   Average memory used (kb):           0.
  
                          Minor page faults:      1656327
                          Major page faults:            0
                 Voluntary context switches:         8462
