SQS-NiFe                                
           1
    10.026770    0.000000    0.000000
    -5.013385    8.683438    0.000000
     0.000000    0.000000   21.243458
   Ni   Fe
  45  19
Direct configuration=     1
   0.00052900  0.00053000  0.19343852
   0.25001300  0.00028700  0.19258269
   0.49948700  0.99908000  0.19330643
   0.74930200  0.99919300  0.19338794
   0.99864000  0.24850700  0.19328475
   0.25012600  0.25021600  0.19292722
   0.08563121  0.16704761  0.28854217
   0.50064200  0.24891300  0.19337349
   0.33339410  0.16681899  0.28602662
   0.75052500  0.25006200  0.19419811
   0.58424307  0.16436644  0.28791404
   0.83235970  0.16519006  0.28887843
   0.66558100  0.08305500  0.09724336
   0.66509791  0.08657322  0.38213111
   0.91639700  0.08203100  0.09671153
   0.91924084  0.08573283  0.38220873
   0.00183400  0.50047500  0.19189796
   0.08608706  0.41583404  0.28531924
   0.16611800  0.33395200  0.09673755
   0.16897682  0.33268673  0.38125336
   0.75170200  0.50186900  0.19211445
   0.58493429  0.41716403  0.28481897
   0.00109100  0.75115300  0.19219162
   0.24902600  0.74885700  0.19200086
   0.08094101  0.66311387  0.28794847
   0.49972500  0.74917300  0.19214971
   0.33386525  0.66531772  0.28684789
   0.75128300  0.75093600  0.19293993
   0.58322698  0.66704596  0.28776042
   0.41661000  0.58200200  0.09548198
   0.41430645  0.57984568  0.38143520
   0.83360419  0.66532490  0.28809577
   0.91708300  0.58323900  0.09545972
   0.91236698  0.58119655  0.38373872
   0.08346800  0.91711061  0.28832763
   0.33506800  0.91634212  0.28777482
   0.16670900  0.83524200  0.09602941
   0.16783480  0.83363056  0.38182978
   0.41703500  0.83214900  0.09672078
   0.41608295  0.83329401  0.38078563
   0.83167556  0.91644744  0.28798704
   0.66623900  0.83337000  0.09700230
   0.66580026  0.83235773  0.38148684
   0.91705900  0.83319500  0.09682368
   0.91688177  0.83371659  0.38169252
   0.16168500  0.08211500  0.09597016
   0.18077078  0.08930813  0.37817828
   0.41607500  0.07807100  0.09643550
   0.41444274  0.09247451  0.37770771
   0.24829900  0.49904600  0.19264223
   0.50648100  0.50259500  0.19338476
   0.33850896  0.42038421  0.28607294
   0.41638400  0.33144300  0.09718295
   0.41730274  0.33350843  0.37460710
   0.83385703  0.41382950  0.29137779
   0.66732400  0.33240600  0.09901110
   0.66426388  0.33806971  0.37598767
   0.91446400  0.32695500  0.09862235
   0.92206248  0.34477016  0.37644505
   0.16914200  0.58833400  0.09414663
   0.15531937  0.57179438  0.37722046
   0.66961600  0.58928900  0.09452787
   0.65978175  0.56929886  0.37778061
   0.58372962  0.91585961  0.28863976
Direct configuration=     2
   0.00052900  0.00053000  0.19343852
   0.25001300  0.00028700  0.19258269
   0.49948700  0.99908000  0.19330643
   0.74930200  0.99919300  0.19338794
   0.99864000  0.24850700  0.19328475
   0.25012600  0.25021600  0.19292722
   0.08495696  0.16653461  0.28849081
   0.50064200  0.24891300  0.19337349
   0.33300421  0.16593122  0.28465855
   0.75052500  0.25006200  0.19419811
   0.58317499  0.16413564  0.28749005
   0.83355938  0.16516197  0.28861616
   0.66558100  0.08305500  0.09724336
   0.66545882  0.08630031  0.38238768
   0.91639700  0.08203100  0.09671153
   0.91858622  0.08468994  0.38200793
   0.00183400  0.50047500  0.19189796
   0.08527721  0.41505771  0.28542154
   0.16611800  0.33395200  0.09673755
   0.16859149  0.33256595  0.38103822
   0.75170200  0.50186900  0.19211445
   0.58561346  0.41719002  0.28412120
   0.00109100  0.75115300  0.19219162
   0.24902600  0.74885700  0.19200086
   0.08188041  0.66503932  0.28763206
   0.49972500  0.74917300  0.19214971
   0.33326634  0.66595358  0.28694717
   0.75128300  0.75093600  0.19293993
   0.58376332  0.66724594  0.28759608
   0.41661000  0.58200200  0.09548198
   0.41508129  0.58118410  0.38133103
   0.83413509  0.66617116  0.28806797
   0.91708300  0.58323900  0.09545972
   0.91415246  0.58430885  0.38348528
   0.08320061  0.91599550  0.28809582
   0.33413524  0.91602454  0.28791032
   0.16670900  0.83524200  0.09602941
   0.16732445  0.83358762  0.38150514
   0.41703500  0.83214900  0.09672078
   0.41646280  0.83350779  0.38123846
   0.83267151  0.91698927  0.28855020
   0.66623900  0.83337000  0.09700230
   0.66598492  0.83283560  0.38190170
   0.91705900  0.83319500  0.09682368
   0.91674660  0.83393713  0.38162198
   0.16168500  0.08211500  0.09597016
   0.17196888  0.08572270  0.37963418
   0.41607500  0.07807100  0.09643550
   0.41701232  0.08663450  0.37905422
   0.24829900  0.49904600  0.19264223
   0.50648100  0.50259500  0.19338476
   0.33573954  0.41979212  0.28644398
   0.41638400  0.33144300  0.09718295
   0.41646636  0.33498885  0.37764419
   0.83443351  0.41686653  0.28824886
   0.66732400  0.33240600  0.09901110
   0.66450711  0.33408938  0.37904138
   0.91446400  0.32695500  0.09862235
   0.91890427  0.33621951  0.37940400
   0.16914200  0.58833400  0.09414663
   0.16208084  0.57843857  0.37862161
   0.66961600  0.58928900  0.09452787
   0.66292222  0.57736320  0.37902120
   0.58347778  0.91555468  0.28874467
Direct configuration=     3
   0.00052900  0.00053000  0.19343852
   0.25001300  0.00028700  0.19258269
   0.49948700  0.99908000  0.19330643
   0.74930200  0.99919300  0.19338794
   0.99864000  0.24850700  0.19328475
   0.25012600  0.25021600  0.19292722
   0.08435159  0.16607401  0.28844470
   0.50064200  0.24891300  0.19337349
   0.33265415  0.16513414  0.28343023
   0.75052500  0.25006200  0.19419811
   0.58221601  0.16392842  0.28710936
   0.83463651  0.16513674  0.28838069
   0.66558100  0.08305500  0.09724336
   0.66578287  0.08605527  0.38261804
   0.91639700  0.08203100  0.09671153
   0.91799846  0.08375359  0.38182764
   0.00183400  0.50047500  0.19189796
   0.08455007  0.41436068  0.28551339
   0.16611800  0.33395200  0.09673755
   0.16824553  0.33245751  0.38084505
   0.75170200  0.50186900  0.19211445
   0.58622324  0.41721336  0.28349471
   0.00109100  0.75115300  0.19219162
   0.24902600  0.74885700  0.19200086
   0.08272384  0.66676808  0.28734797
   0.49972500  0.74917300  0.19214971
   0.33272861  0.66652448  0.28703631
   0.75128300  0.75093600  0.19293993
   0.58424487  0.66742548  0.28744853
   0.41661000  0.58200200  0.09548198
   0.41577697  0.58238580  0.38123751
   0.83461176  0.66693097  0.28804302
   0.91708300  0.58323900  0.09545972
   0.91575555  0.58710321  0.38325772
   0.08296054  0.91499430  0.28788770
   0.33329776  0.91573940  0.28803198
   0.16670900  0.83524200  0.09602941
   0.16686623  0.83354907  0.38121367
   0.41703500  0.83214900  0.09672078
   0.41680385  0.83369974  0.38164503
   0.83356572  0.91747575  0.28905582
   0.66623900  0.83337000  0.09700230
   0.66615072  0.83326465  0.38227419
   0.91705900  0.83319500  0.09682368
   0.91662524  0.83413515  0.38155865
   0.16168500  0.08211500  0.09597016
   0.16406612  0.08250354  0.38094135
   0.41607500  0.07807100  0.09643550
   0.41931941  0.08139106  0.38026318
   0.24829900  0.49904600  0.19264223
   0.50648100  0.50259500  0.19338476
   0.33325303  0.41926051  0.28677712
   0.41638400  0.33144300  0.09718295
   0.41571542  0.33631805  0.38037104
   0.83495109  0.41959332  0.28543955
   0.66732400  0.33240600  0.09901110
   0.66472550  0.33051565  0.38178315
   0.91446400  0.32695500  0.09862235
   0.91606868  0.32854232  0.38206069
   0.16914200  0.58833400  0.09414663
   0.16815162  0.58440404  0.37987963
   0.66961600  0.58928900  0.09452787
   0.66574189  0.58460375  0.38013507
   0.58325167  0.91528091  0.28883886
Direct configuration=     4
   0.00052900  0.00053000  0.19343852
   0.25001300  0.00028700  0.19258269
   0.49948700  0.99908000  0.19330643
   0.74930200  0.99919300  0.19338794
   0.99864000  0.24850700  0.19328475
   0.25012600  0.25021600  0.19292722
   0.08441992  0.16612600  0.28844991
   0.50064200  0.24891300  0.19337349
   0.33269366  0.16522411  0.28356887
   0.75052500  0.25006200  0.19419811
   0.58232425  0.16395181  0.28715233
   0.83451493  0.16513959  0.28840726
   0.66558100  0.08305500  0.09724336
   0.66574629  0.08608293  0.38259204
   0.91639700  0.08203100  0.09671153
   0.91806481  0.08385928  0.38184799
   0.00183400  0.50047500  0.19189796
   0.08463215  0.41443936  0.28550302
   0.16611800  0.33395200  0.09673755
   0.16828458  0.33246975  0.38086686
   0.75170200  0.50186900  0.19211445
   0.58615441  0.41721072  0.28356542
   0.00109100  0.75115300  0.19219162
   0.24902600  0.74885700  0.19200086
   0.08262864  0.66657295  0.28738004
   0.49972500  0.74917300  0.19214971
   0.33278931  0.66646004  0.28702625
   0.75128300  0.75093600  0.19293993
   0.58419051  0.66740522  0.28746519
   0.41661000  0.58200200  0.09548198
   0.41569845  0.58225016  0.38124807
   0.83455795  0.66684521  0.28804583
   0.91708300  0.58323900  0.09545972
   0.91557460  0.58678780  0.38328341
   0.08298764  0.91510731  0.28791119
   0.33339229  0.91577159  0.28801825
   0.16670900  0.83524200  0.09602941
   0.16691795  0.83355342  0.38124657
   0.41703500  0.83214900  0.09672078
   0.41676535  0.83367807  0.38159914
   0.83346479  0.91742083  0.28899875
   0.66623900  0.83337000  0.09700230
   0.66613200  0.83321622  0.38223215
   0.91705900  0.83319500  0.09682368
   0.91663894  0.83411280  0.38156580
   0.16168500  0.08211500  0.09597016
   0.16495813  0.08286689  0.38079381
   0.41607500  0.07807100  0.09643550
   0.41905900  0.08198290  0.38012672
   0.24829900  0.49904600  0.19264223
   0.50648100  0.50259500  0.19338476
   0.33353370  0.41932051  0.28673952
   0.41638400  0.33144300  0.09718295
   0.41580018  0.33616802  0.38006325
   0.83489267  0.41928554  0.28575665
   0.66732400  0.33240600  0.09901110
   0.66470085  0.33091903  0.38147368
   0.91446400  0.32695500  0.09862235
   0.91638875  0.32940888  0.38176082
   0.16914200  0.58833400  0.09414663
   0.16746639  0.58373070  0.37973763
   0.66961600  0.58928900  0.09452787
   0.66542363  0.58378648  0.38000934
   0.58327719  0.91531181  0.28882822
Direct configuration=     5
   0.00052900  0.00053000  0.19343852
   0.25001300  0.00028700  0.19258269
   0.49948700  0.99908000  0.19330643
   0.74930200  0.99919300  0.19338794
   0.99864000  0.24850700  0.19328475
   0.25012600  0.25021600  0.19292722
   0.08434300  0.16562901  0.28850915
   0.50064200  0.24891300  0.19337349
   0.33257749  0.16546659  0.28559323
   0.75052500  0.25006200  0.19419811
   0.58234960  0.16491091  0.28775450
   0.83485163  0.16606289  0.28843982
   0.66558100  0.08305500  0.09724336
   0.66634478  0.08500899  0.38280476
   0.91639700  0.08203100  0.09671153
   0.91684824  0.08254888  0.38198105
   0.00183400  0.50047500  0.19189796
   0.08282921  0.41510213  0.28684045
   0.16611800  0.33395200  0.09673755
   0.16736901  0.33296762  0.38085004
   0.75170200  0.50186900  0.19211445
   0.58556332  0.41666602  0.28576188
   0.00109100  0.75115300  0.19219162
   0.24902600  0.74885700  0.19200086
   0.08321889  0.66670020  0.28747479
   0.49972500  0.74917300  0.19214971
   0.33228985  0.66664693  0.28703281
   0.75128300  0.75093600  0.19293993
   0.58404838  0.66710197  0.28748587
   0.41661000  0.58200200  0.09548198
   0.41677493  0.58338613  0.38119458
   0.83437316  0.66706162  0.28805227
   0.91708300  0.58323900  0.09545972
   0.91593673  0.58570345  0.38253632
   0.08332979  0.91538186  0.28783125
   0.33313883  0.91595146  0.28813415
   0.16670900  0.83524200  0.09602941
   0.16683251  0.83436499  0.38113939
   0.41703500  0.83214900  0.09672078
   0.41764115  0.83366923  0.38209221
   0.83357860  0.91729435  0.28910156
   0.66623900  0.83337000  0.09700230
   0.66626039  0.83406875  0.38267228
   0.91705900  0.83319500  0.09682368
   0.91646418  0.83420691  0.38173309
   0.16168500  0.08211500  0.09597016
   0.16269925  0.08143852  0.38131363
   0.41607500  0.07807100  0.09643550
   0.41740826  0.07938904  0.38066205
   0.24829900  0.49904600  0.19264223
   0.50648100  0.50259500  0.19338476
   0.33320774  0.41846177  0.28760397
   0.41638400  0.33144300  0.09718295
   0.41685822  0.33457802  0.38133284
   0.83542377  0.41975461  0.28642980
   0.66732400  0.33240600  0.09901110
   0.66602663  0.33222698  0.38260687
   0.91446400  0.32695500  0.09862235
   0.91561362  0.32754182  0.38277718
   0.16914200  0.58833400  0.09414663
   0.16887738  0.58542501  0.38042880
   0.66961600  0.58928900  0.09452787
   0.66731327  0.58707429  0.38049443
   0.58319983  0.91524476  0.28884004
Direct configuration=     6
   0.00052900  0.00053000  0.19343852
   0.25001300  0.00028700  0.19258269
   0.49948700  0.99908000  0.19330643
   0.74930200  0.99919300  0.19338794
   0.99864000  0.24850700  0.19328475
   0.25012600  0.25021600  0.19292722
   0.08421355  0.16479270  0.28860883
   0.50064200  0.24891300  0.19337349
   0.33238200  0.16587461  0.28899972
   0.75052500  0.25006200  0.19419811
   0.58239224  0.16652484  0.28876779
   0.83541821  0.16761657  0.28849459
   0.66558100  0.08305500  0.09724336
   0.66735189  0.08320181  0.38316271
   0.91639700  0.08203100  0.09671153
   0.91480106  0.08034380  0.38220496
   0.00183400  0.50047500  0.19189796
   0.07979531  0.41621740  0.28909101
   0.16611800  0.33395200  0.09673755
   0.16582833  0.33380540  0.38082173
   0.75170200  0.50186900  0.19211445
   0.58456867  0.41574944  0.28945796
   0.00109100  0.75115300  0.19219162
   0.24902600  0.74885700  0.19200086
   0.08421212  0.66691433  0.28763422
   0.49972500  0.74917300  0.19214971
   0.33144939  0.66696142  0.28704386
   0.75128300  0.75093600  0.19293993
   0.58380921  0.66659168  0.28752068
   0.41661000  0.58200200  0.09548198
   0.41858638  0.58529769  0.38110457
   0.83406220  0.66742579  0.28806309
   0.91708300  0.58323900  0.09545972
   0.91654611  0.58387877  0.38127916
   0.08390553  0.91584387  0.28769673
   0.33271233  0.91625414  0.28832920
   0.16670900  0.83524200  0.09602941
   0.16668875  0.83573066  0.38095904
   0.41703500  0.83214900  0.09672078
   0.41911491  0.83365435  0.38292192
   0.83377011  0.91708150  0.28927456
   0.66623900  0.83337000  0.09700230
   0.66647642  0.83550336  0.38341291
   0.91705900  0.83319500  0.09682368
   0.91617012  0.83436527  0.38201460
   0.16168500  0.08211500  0.09597016
   0.15889813  0.07903492  0.38218836
   0.41607500  0.07807100  0.09643550
   0.41463049  0.07502424  0.38156289
   0.24829900  0.49904600  0.19264223
   0.50648100  0.50259500  0.19338476
   0.33265925  0.41701672  0.28905863
   0.41638400  0.33144300  0.09718295
   0.41863864  0.33190247  0.38346922
   0.83631748  0.42054395  0.28756255
   0.66732400  0.33240600  0.09901110
   0.66825759  0.33442794  0.38451376
   0.91446400  0.32695500  0.09862235
   0.91430928  0.32440004  0.38448746
   0.16914200  0.58833400  0.09414663
   0.17125173  0.58827612  0.38159187
   0.66961600  0.58928900  0.09452787
   0.67049306  0.59260684  0.38131072
   0.58306964  0.91513194  0.28885992
Direct configuration=     7
   0.00052900  0.00053000  0.19343852
   0.25001300  0.00028700  0.19258269
   0.49948700  0.99908000  0.19330643
   0.74930200  0.99919300  0.19338794
   0.99864000  0.24850700  0.19328475
   0.25012600  0.25021600  0.19292722
   0.08399710  0.16556979  0.28886106
   0.50064200  0.24891300  0.19337349
   0.33238797  0.16604909  0.28944534
   0.75052500  0.25006200  0.19419811
   0.58274293  0.16693674  0.28963567
   0.83458010  0.16740261  0.28872711
   0.66558100  0.08305500  0.09724336
   0.66682280  0.08302863  0.38339446
   0.91639700  0.08203100  0.09671153
   0.91440096  0.07991788  0.38241967
   0.00183400  0.50047500  0.19189796
   0.08022541  0.41705924  0.28930816
   0.16611800  0.33395200  0.09673755
   0.16627233  0.33372692  0.38146491
   0.75170200  0.50186900  0.19211445
   0.58478908  0.41642890  0.28974282
   0.00109100  0.75115300  0.19219162
   0.24902600  0.74885700  0.19200086
   0.08439930  0.66727033  0.28760501
   0.49972500  0.74917300  0.19214971
   0.33147512  0.66642122  0.28717127
   0.75128300  0.75093600  0.19293993
   0.58340253  0.66637297  0.28761052
   0.41661000  0.58200200  0.09548198
   0.41897159  0.58441239  0.38135184
   0.83394157  0.66725957  0.28796063
   0.91708300  0.58323900  0.09545972
   0.91698066  0.58329026  0.38136057
   0.08371335  0.91605849  0.28768033
   0.33366666  0.91651892  0.28827747
   0.16670900  0.83524200  0.09602941
   0.16616175  0.83555433  0.38116149
   0.41703500  0.83214900  0.09672078
   0.41944751  0.83356477  0.38312301
   0.83303045  0.91680837  0.28906894
   0.66623900  0.83337000  0.09700230
   0.66665635  0.83603986  0.38358166
   0.91705900  0.83319500  0.09682368
   0.91623308  0.83378704  0.38212866
   0.16168500  0.08211500  0.09597016
   0.15960546  0.08002021  0.38274845
   0.41607500  0.07807100  0.09643550
   0.41512406  0.07586953  0.38229351
   0.24829900  0.49904600  0.19264223
   0.50648100  0.50259500  0.19338476
   0.33273354  0.41687989  0.28955047
   0.41638400  0.33144300  0.09718295
   0.41879483  0.33156025  0.38495196
   0.83494118  0.41920197  0.28821454
   0.66732400  0.33240600  0.09901110
   0.66853444  0.33420413  0.38543108
   0.91446400  0.32695500  0.09862235
   0.91451700  0.32538988  0.38508992
   0.16914200  0.58833400  0.09414663
   0.17043660  0.58781138  0.38203008
   0.66961600  0.58928900  0.09452787
   0.67048610  0.59222437  0.38184074
   0.58314270  0.91558711  0.28889390
Direct configuration=     8
   0.00052900  0.00053000  0.19343852
   0.25001300  0.00028700  0.19258269
   0.49948700  0.99908000  0.19330643
   0.74930200  0.99919300  0.19338794
   0.99864000  0.24850700  0.19328475
   0.25012600  0.25021600  0.19292722
   0.08374483  0.16647550  0.28915504
   0.50064200  0.24891300  0.19337349
   0.33239493  0.16625244  0.28996471
   0.75052500  0.25006200  0.19419811
   0.58315166  0.16741683  0.29064722
   0.83360326  0.16715323  0.28899812
   0.66558100  0.08305500  0.09724336
   0.66620613  0.08282678  0.38366458
   0.91639700  0.08203100  0.09671153
   0.91393463  0.07942146  0.38266993
   0.00183400  0.50047500  0.19189796
   0.08072671  0.41804043  0.28956126
   0.16611800  0.33395200  0.09673755
   0.16678984  0.33363544  0.38221457
   0.75170200  0.50186900  0.19211445
   0.58504598  0.41722083  0.29007485
   0.00109100  0.75115300  0.19219162
   0.24902600  0.74885700  0.19200086
   0.08461746  0.66768526  0.28757098
   0.49972500  0.74917300  0.19214971
   0.33150511  0.66579160  0.28731977
   0.75128300  0.75093600  0.19293993
   0.58292853  0.66611805  0.28771522
   0.41661000  0.58200200  0.09548198
   0.41942057  0.58338055  0.38164005
   0.83380097  0.66706584  0.28784121
   0.91708300  0.58323900  0.09545972
   0.91748714  0.58260435  0.38145546
   0.08348936  0.91630864  0.28766122
   0.33477897  0.91682752  0.28821717
   0.16670900  0.83524200  0.09602941
   0.16554751  0.83534881  0.38139746
   0.41703500  0.83214900  0.09672078
   0.41983516  0.83346037  0.38335738
   0.83216836  0.91649002  0.28882929
   0.66623900  0.83337000  0.09700230
   0.66686605  0.83666517  0.38377834
   0.91705900  0.83319500  0.09682368
   0.91630646  0.83311309  0.38226160
   0.16168500  0.08211500  0.09597016
   0.16042988  0.08116859  0.38340126
   0.41607500  0.07807100  0.09643550
   0.41569934  0.07685475  0.38314508
   0.24829900  0.49904600  0.19264223
   0.50648100  0.50259500  0.19338476
   0.33282012  0.41672042  0.29012374
   0.41638400  0.33144300  0.09718295
   0.41897689  0.33116139  0.38668013
   0.83333706  0.41763784  0.28897446
   0.66732400  0.33240600  0.09901110
   0.66885713  0.33394327  0.38650025
   0.91446400  0.32695500  0.09862235
   0.91475911  0.32654357  0.38579211
   0.16914200  0.58833400  0.09414663
   0.16948653  0.58726972  0.38254083
   0.66961600  0.58928900  0.09452787
   0.67047798  0.59177858  0.38245850
   0.58322786  0.91611763  0.28893349
Direct configuration=     9
   0.00052900  0.00053000  0.19343852
   0.25001300  0.00028700  0.19258269
   0.49948700  0.99908000  0.19330643
   0.74930200  0.99919300  0.19338794
   0.99864000  0.24850700  0.19328475
   0.25012600  0.25021600  0.19292722
   0.08337250  0.16671713  0.28950639
   0.50064200  0.24891300  0.19337349
   0.33255335  0.16649758  0.28995664
   0.75052500  0.25006200  0.19419811
   0.58248119  0.16748819  0.29069013
   0.83386730  0.16736537  0.28937066
   0.66558100  0.08305500  0.09724336
   0.66626043  0.08321081  0.38423263
   0.91639700  0.08203100  0.09671153
   0.91421610  0.07982166  0.38273353
   0.00183400  0.50047500  0.19189796
   0.08069234  0.41748912  0.28962332
   0.16611800  0.33395200  0.09673755
   0.16690884  0.33348749  0.38283159
   0.75170200  0.50186900  0.19211445
   0.58451724  0.41705719  0.29022086
   0.00109100  0.75115300  0.19219162
   0.24902600  0.74885700  0.19200086
   0.08446772  0.66782529  0.28767604
   0.49972500  0.74917300  0.19214971
   0.33172087  0.66584120  0.28771666
   0.75128300  0.75093600  0.19293993
   0.58310283  0.66632391  0.28801979
   0.41661000  0.58200200  0.09548198
   0.41940289  0.58286862  0.38218164
   0.83382459  0.66687959  0.28813152
   0.91708300  0.58323900  0.09545972
   0.91760261  0.58307665  0.38185381
   0.08368180  0.91702716  0.28801818
   0.33481386  0.91695294  0.28875272
   0.16670900  0.83524200  0.09602941
   0.16627451  0.83582875  0.38136540
   0.41703500  0.83214900  0.09672078
   0.41912351  0.83293570  0.38331680
   0.83220925  0.91653818  0.28905670
   0.66623900  0.83337000  0.09700230
   0.66692145  0.83610243  0.38369082
   0.91705900  0.83319500  0.09682368
   0.91631553  0.83307257  0.38207651
   0.16168500  0.08211500  0.09597016
   0.16085953  0.08152573  0.38357289
   0.41607500  0.07807100  0.09643550
   0.41544799  0.07685278  0.38364552
   0.24829900  0.49904600  0.19264223
   0.50648100  0.50259500  0.19338476
   0.33282109  0.41615568  0.29042574
   0.41638400  0.33144300  0.09718295
   0.41952419  0.33167581  0.38746577
   0.83307133  0.41742718  0.28900691
   0.66732400  0.33240600  0.09901110
   0.66826158  0.33379995  0.38728230
   0.91446400  0.32695500  0.09862235
   0.91531968  0.32644496  0.38606426
   0.16914200  0.58833400  0.09414663
   0.16961334  0.58713752  0.38262537
   0.66961600  0.58928900  0.09452787
   0.67038225  0.59087557  0.38262561
   0.58300539  0.91600727  0.28906232
Direct configuration=    10
   0.00052900  0.00053000  0.19343852
   0.25001300  0.00028700  0.19258269
   0.49948700  0.99908000  0.19330643
   0.74930200  0.99919300  0.19338794
   0.99864000  0.24850700  0.19328475
   0.25012600  0.25021600  0.19292722
   0.08316806  0.16684980  0.28969931
   0.50064200  0.24891300  0.19337349
   0.33264034  0.16663218  0.28995221
   0.75052500  0.25006200  0.19419811
   0.58211306  0.16752738  0.29071369
   0.83401228  0.16748185  0.28957520
   0.66558100  0.08305500  0.09724336
   0.66629024  0.08342167  0.38454453
   0.91639700  0.08203100  0.09671153
   0.91437065  0.08004139  0.38276845
   0.00183400  0.50047500  0.19189796
   0.08067347  0.41718641  0.28965739
   0.16611800  0.33395200  0.09673755
   0.16697418  0.33340625  0.38317038
   0.75170200  0.50186900  0.19211445
   0.58422692  0.41696733  0.29030103
   0.00109100  0.75115300  0.19219162
   0.24902600  0.74885700  0.19200086
   0.08438550  0.66790218  0.28773372
   0.49972500  0.74917300  0.19214971
   0.33183933  0.66586843  0.28793458
   0.75128300  0.75093600  0.19293993
   0.58319853  0.66643694  0.28818702
   0.41661000  0.58200200  0.09548198
   0.41939319  0.58258754  0.38247901
   0.83383756  0.66677732  0.28829092
   0.91708300  0.58323900  0.09545972
   0.91766601  0.58333597  0.38207252
   0.08378747  0.91742168  0.28821417
   0.33483302  0.91702180  0.28904678
   0.16670900  0.83524200  0.09602941
   0.16667368  0.83609226  0.38134780
   0.41703500  0.83214900  0.09672078
   0.41873277  0.83264762  0.38329451
   0.83223170  0.91656462  0.28918156
   0.66623900  0.83337000  0.09700230
   0.66695187  0.83579345  0.38364277
   0.91705900  0.83319500  0.09682368
   0.91632052  0.83305032  0.38197488
   0.16168500  0.08211500  0.09597016
   0.16109545  0.08172183  0.38366712
   0.41607500  0.07807100  0.09643550
   0.41530998  0.07685170  0.38392029
   0.24829900  0.49904600  0.19264223
   0.50648100  0.50259500  0.19338476
   0.33282163  0.41584561  0.29059155
   0.41638400  0.33144300  0.09718295
   0.41982469  0.33195825  0.38789714
   0.83292543  0.41731150  0.28902473
   0.66732400  0.33240600  0.09901110
   0.66793458  0.33372126  0.38771169
   0.91446400  0.32695500  0.09862235
   0.91562747  0.32639081  0.38621368
   0.16914200  0.58833400  0.09414663
   0.16968296  0.58706494  0.38267178
   0.66961600  0.58928900  0.09452787
   0.67032969  0.59037976  0.38271736
   0.58288324  0.91594668  0.28913306
Direct configuration=    11
   0.00052900  0.00053000  0.19343852
   0.25001300  0.00028700  0.19258269
   0.49948700  0.99908000  0.19330643
   0.74930200  0.99919300  0.19338794
   0.99864000  0.24850700  0.19328475
   0.25012600  0.25021600  0.19292722
   0.08336116  0.16673942  0.28971363
   0.50064200  0.24891300  0.19337349
   0.33251558  0.16672146  0.29003809
   0.75052500  0.25006200  0.19419811
   0.58205899  0.16750077  0.29082113
   0.83368973  0.16749147  0.28964068
   0.66558100  0.08305500  0.09724336
   0.66617656  0.08342066  0.38474791
   0.91639700  0.08203100  0.09671153
   0.91438979  0.07994219  0.38301659
   0.00183400  0.50047500  0.19189796
   0.08079342  0.41707357  0.28975401
   0.16611800  0.33395200  0.09673755
   0.16715157  0.33354935  0.38338823
   0.75170200  0.50186900  0.19211445
   0.58406285  0.41660187  0.29044328
   0.00109100  0.75115300  0.19219162
   0.24902600  0.74885700  0.19200086
   0.08424204  0.66762005  0.28785500
   0.49972500  0.74917300  0.19214971
   0.33170912  0.66553522  0.28798041
   0.75128300  0.75093600  0.19293993
   0.58313031  0.66622498  0.28829452
   0.41661000  0.58200200  0.09548198
   0.41935871  0.58261286  0.38279187
   0.83383535  0.66665020  0.28833359
   0.91708300  0.58323900  0.09545972
   0.91763157  0.58333526  0.38229636
   0.08396559  0.91764489  0.28819018
   0.33447158  0.91703463  0.28906484
   0.16670900  0.83524200  0.09602941
   0.16674247  0.83610271  0.38151894
   0.41703500  0.83214900  0.09672078
   0.41888676  0.83263147  0.38348745
   0.83247151  0.91680478  0.28920011
   0.66623900  0.83337000  0.09700230
   0.66682335  0.83549780  0.38370170
   0.91705900  0.83319500  0.09682368
   0.91645265  0.83340763  0.38208738
   0.16168500  0.08211500  0.09597016
   0.16119563  0.08169737  0.38371049
   0.41607500  0.07807100  0.09643550
   0.41546189  0.07698330  0.38406887
   0.24829900  0.49904600  0.19264223
   0.50648100  0.50259500  0.19338476
   0.33280719  0.41592383  0.29091249
   0.41638400  0.33144300  0.09718295
   0.41981185  0.33191054  0.38802946
   0.83317826  0.41773702  0.28922934
   0.66732400  0.33240600  0.09901110
   0.66787905  0.33367392  0.38787520
   0.91446400  0.32695500  0.09862235
   0.91570289  0.32635611  0.38629279
   0.16914200  0.58833400  0.09414663
   0.16973924  0.58690001  0.38263309
   0.66961600  0.58928900  0.09452787
   0.67051604  0.59025680  0.38276460
   0.58303765  0.91622621  0.28929666
