       N       E                     dE             d eps       ncg     rms          rms(c)
DAV:   1    -0.372908232145E+03   -0.37291E+03   -0.78145E-02  9444   0.245E+00    0.162E+00
RMM:   2    -0.373604884667E+03   -0.69665E+00   -0.29753E-01  9394   0.138E+00    0.196E+01
RMM:   3    -0.372813751367E+03    0.79113E+00   -0.10971E-01  9459   0.818E-01    0.822E+00
RMM:   4    -0.372708375768E+03    0.10538E+00   -0.11059E-01  9322   0.780E-01    0.382E+00
RMM:   5    -0.372709639012E+03   -0.12632E-02   -0.41648E-02  9444   0.489E-01    0.383E+00
RMM:   6    -0.372672882785E+03    0.36756E-01   -0.25237E-02  9404   0.407E-01    0.119E+00
RMM:   7    -0.372666050420E+03    0.68324E-02   -0.49877E-03  9313   0.173E-01    0.102E+00
RMM:   8    -0.372665371224E+03    0.67920E-03   -0.33828E-03  9379   0.139E-01    0.975E-01
RMM:   9    -0.372663568250E+03    0.18030E-02   -0.29524E-03  9410   0.136E-01    0.633E-01
RMM:  10    -0.372664763867E+03   -0.11956E-02   -0.20289E-03  9383   0.107E-01    0.776E-01
RMM:  11    -0.372665586997E+03   -0.82313E-03   -0.16505E-03  9223   0.980E-02    0.472E-01
RMM:  12    -0.372666151911E+03   -0.56491E-03   -0.79556E-04  9437   0.679E-02    0.352E-01
RMM:  13    -0.372667217095E+03   -0.10652E-02   -0.64503E-04  9236   0.588E-02    0.401E-01
RMM:  14    -0.372667832072E+03   -0.61498E-03   -0.49704E-04  9322   0.544E-02    0.220E-01
RMM:  15    -0.372668521716E+03   -0.68964E-03   -0.28422E-04  9391   0.400E-02    0.277E-01
RMM:  16    -0.372669517365E+03   -0.99565E-03   -0.21051E-04  9316   0.340E-02    0.264E-01
RMM:  17    -0.372669885351E+03   -0.36799E-03   -0.14584E-04  9444   0.295E-02    0.181E-01
RMM:  18    -0.372670469520E+03   -0.58417E-03   -0.10030E-04  9431   0.228E-02    0.181E-01
RMM:  19    -0.372671088635E+03   -0.61911E-03   -0.92278E-05  9309   0.228E-02    0.911E-02
RMM:  20    -0.372671427855E+03   -0.33922E-03   -0.45614E-05  9404   0.159E-02    0.118E-01
RMM:  21    -0.372672295762E+03   -0.86791E-03   -0.32111E-05  9358   0.132E-02    0.745E-02
RMM:  22    -0.372672621261E+03   -0.32550E-03   -0.22977E-05  9303   0.115E-02    0.818E-02
RMM:  23    -0.372673455304E+03   -0.83404E-03   -0.25404E-05  9193   0.109E-02    0.981E-02
RMM:  24    -0.372673846747E+03   -0.39144E-03   -0.18529E-05  9368   0.103E-02    0.425E-02
RMM:  25    -0.372674322779E+03   -0.47603E-03   -0.16584E-05  9277   0.949E-03    0.760E-02
RMM:  26    -0.372674896746E+03   -0.57397E-03   -0.13178E-05  9210   0.854E-03    0.512E-02
RMM:  27    -0.372675135901E+03   -0.23915E-03   -0.90230E-06  9078   0.706E-03    0.555E-02
RMM:  28    -0.372675635161E+03   -0.49926E-03   -0.14090E-05  9294   0.781E-03    0.639E-02
RMM:  29    -0.372675812985E+03   -0.17782E-03   -0.97223E-06  9070   0.701E-03    0.201E-02
RMM:  30    -0.372675876436E+03   -0.63451E-04   -0.49212E-06  7919   0.488E-03    0.286E-02
RMM:  31    -0.372675888423E+03   -0.11987E-04   -0.39318E-06  7012   0.425E-03    0.160E-02
RMM:  32    -0.372675889167E+03   -0.74430E-06   -0.12339E-06  5885   0.277E-03
   1 F= -.39089316E+03 E0= -.39089316E+03  d E =0.000000E+00  mag=    43.2224
