 vasp.5.4.4.18Apr17-6-g9f103f2a35 (build Dec 15 2018 21:27:11) complex          
  
 executed on             LinuxIFC date 2022.02.23  04:07:05
 running on   72 total cores
 distrk:  each k-point on   72 cores,    1 groups
 distr:  one band on NCORES_PER_BAND=  24 cores,    3 groups


--------------------------------------------------------------------------------------------------------


 INCAR:
 POTCAR:    PAW_PBE Ni 02Aug2007                  
 POTCAR:    PAW_PBE O 08Apr2002                   
 POTCAR:    PAW_PBE H 15Jun2001                   

 ----------------------------------------------------------------------------- 
|                                                                             |
|           W    W    AA    RRRRR   N    N  II  N    N   GGGG   !!!           |
|           W    W   A  A   R    R  NN   N  II  NN   N  G    G  !!!           |
|           W    W  A    A  R    R  N N  N  II  N N  N  G       !!!           |
|           W WW W  AAAAAA  RRRRR   N  N N  II  N  N N  G  GGG   !            |
|           WW  WW  A    A  R   R   N   NN  II  N   NN  G    G                |
|           W    W  A    A  R    R  N    N  II  N    N   GGGG   !!!           |
|                                                                             |
|      For optimal performance we recommend to set                            |
|        NCORE= 4 - approx SQRT( number of cores)                             |
|      NCORE specifies how many cores store one orbital (NPAR=cpu/NCORE).     |
|      This setting can  greatly improve the performance of VASP for DFT.     |
|      The default,   NCORE=1            might be grossly inefficient         |
|      on modern multi-core architectures or massively parallel machines.     |
|      Do your own testing !!!!                                               |
|      Unfortunately you need to use the default for GW and RPA calculations. |
|      (for HF NCORE is supported but not extensively tested yet)             |
|                                                                             |
 ----------------------------------------------------------------------------- 

 POTCAR:    PAW_PBE Ni 02Aug2007                  
   VRHFIN =Ni:                                                                  
   LEXCH  = PE                                                                  
   EATOM  =  1077.6739 eV,   79.2068 Ry                                         
                                                                                
   TITEL  = PAW_PBE Ni 02Aug2007                                                
   LULTRA =        F    use ultrasoft PP ?                                      
   IUNSCR =        1    unscreen: 0-lin 1-nonlin 2-no                           
   RPACOR =    2.000    partial core radius                                     
   POMASS =   58.690; ZVAL   =   10.000    mass and valenz                      
   RCORE  =    2.300    outmost cutoff radius                                   
   RWIGS  =    2.430; RWIGS  =    1.286    wigner-seitz radius (au A)           
   ENMAX  =  269.532; ENMIN  =  202.149 eV                                      
   RCLOC  =    1.201    cutoff for local pot                                    
   LCOR   =        T    correct aug charges                                     
   LPAW   =        T    paw PP                                                  
   EAUG   =  544.565                                                            
   DEXC   =    0.000                                                            
   RMAX   =    2.357    core radius for proj-oper                               
   RAUG   =    1.300    factor for augmentation sphere                          
   RDEP   =    2.390    radius for radial grids                                 
   RDEPT  =    1.838    core radius for aug-charge                              
                                                                                
   Atomic configuration                                                         
    9 entries                                                                   
     n  l   j            E        occ.                                          
     1  0  0.50     -8206.4253   2.0000                                         
     2  0  0.50      -976.1748   2.0000                                         
     2  1  1.50      -839.0571   6.0000                                         
     3  0  0.50      -105.9991   2.0000                                         
     3  1  1.50       -66.4603   6.0000                                         
     3  2  2.50        -4.6458   9.0000                                         
     4  0  0.50        -4.4926   1.0000                                         
     4  1  1.50        -4.0817   0.0000                                         
     4  3  2.50        -1.3606   0.0000                                         
   Description                                                                  
     l       E           TYP  RCUT    TYP  RCUT                                 
     2     -4.6457903     23  2.300                                             
     2     -6.0063729     23  2.300                                             
     0     -4.4925590     23  2.300                                             
     0      5.0102601     23  2.300                                             
     1     -2.7211652     23  2.300                                             
     1     16.5183231     23  2.300                                             
  local pseudopotential read in
  partial core-charges read in
  partial kinetic energy density read in
  atomic valenz-charges read in
  non local Contribution for L=           2  read in
    real space projection operators read in
  non local Contribution for L=           2  read in
    real space projection operators read in
  non local Contribution for L=           0  read in
    real space projection operators read in
  non local Contribution for L=           0  read in
    real space projection operators read in
  non local Contribution for L=           1  read in
    real space projection operators read in
  non local Contribution for L=           1  read in
    real space projection operators read in
    PAW grid and wavefunctions read in
 
   number of l-projection  operators is LMAX  =           6
   number of lm-projection operators is LMMAX =          18
 
 POTCAR:    PAW_PBE O 08Apr2002                   
   VRHFIN =O: s2p4                                                              
   LEXCH  = PE                                                                  
   EATOM  =   432.3788 eV,   31.7789 Ry                                         
                                                                                
   TITEL  = PAW_PBE O 08Apr2002                                                 
   LULTRA =        F    use ultrasoft PP ?                                      
   IUNSCR =        1    unscreen: 0-lin 1-nonlin 2-no                           
   RPACOR =    1.200    partial core radius                                     
   POMASS =   16.000; ZVAL   =    6.000    mass and valenz                      
   RCORE  =    1.520    outmost cutoff radius                                   
   RWIGS  =    1.550; RWIGS  =    0.820    wigner-seitz radius (au A)           
   ENMAX  =  400.000; ENMIN  =  300.000 eV                                      
   ICORE  =        2    local potential                                         
   LCOR   =        T    correct aug charges                                     
   LPAW   =        T    paw PP                                                  
   EAUG   =  605.392                                                            
   DEXC   =    0.000                                                            
   RMAX   =    1.553    core radius for proj-oper                               
   RAUG   =    1.300    factor for augmentation sphere                          
   RDEP   =    1.550    radius for radial grids                                 
   RDEPT  =    1.329    core radius for aug-charge                              
                                                                                
   Atomic configuration                                                         
    4 entries                                                                   
     n  l   j            E        occ.                                          
     1  0  0.50      -514.6923   2.0000                                         
     2  0  0.50       -23.9615   2.0000                                         
     2  1  0.50        -9.0305   4.0000                                         
     3  2  1.50        -9.5241   0.0000                                         
   Description                                                                  
     l       E           TYP  RCUT    TYP  RCUT                                 
     0    -23.9615318     23  1.200                                             
     0     -9.5240782     23  1.200                                             
     1     -9.0304911     23  1.520                                             
     1      8.1634956     23  1.520                                             
     2     -9.5240782      7  1.500                                             
  local pseudopotential read in
  partial core-charges read in
  partial kinetic energy density read in
  kinetic energy density of atom read in
  atomic valenz-charges read in
  non local Contribution for L=           0  read in
    real space projection operators read in
  non local Contribution for L=           0  read in
    real space projection operators read in
  non local Contribution for L=           1  read in
    real space projection operators read in
  non local Contribution for L=           1  read in
    real space projection operators read in
    PAW grid and wavefunctions read in
 
   number of l-projection  operators is LMAX  =           4
   number of lm-projection operators is LMMAX =           8
 
 POTCAR:    PAW_PBE H 15Jun2001                   
   VRHFIN =H: ultrasoft test                                                    
   LEXCH  = PE                                                                  
   EATOM  =    12.4884 eV,    0.9179 Ry                                         
                                                                                
   TITEL  = PAW_PBE H 15Jun2001                                                 
   LULTRA =        F    use ultrasoft PP ?                                      
   IUNSCR =        0    unscreen: 0-lin 1-nonlin 2-no                           
   RPACOR =    0.000    partial core radius                                     
   POMASS =    1.000; ZVAL   =    1.000    mass and valenz                      
   RCORE  =    1.100    outmost cutoff radius                                   
   RWIGS  =    0.700; RWIGS  =    0.370    wigner-seitz radius (au A)           
   ENMAX  =  250.000; ENMIN  =  200.000 eV                                      
   RCLOC  =    0.701    cutoff for local pot                                    
   LCOR   =        T    correct aug charges                                     
   LPAW   =        T    paw PP                                                  
   EAUG   =  400.000                                                            
   RMAX   =    1.123    core radius for proj-oper                               
   RAUG   =    1.200    factor for augmentation sphere                          
   RDEP   =    1.112    radius for radial grids                                 
   RDEPT  =    0.926    core radius for aug-charge                              
                                                                                
   Atomic configuration                                                         
    2 entries                                                                   
     n  l   j            E        occ.                                          
     1  0  0.50        -6.4927   1.0000                                         
     2  1  0.50        -3.4015   0.0000                                         
   Description                                                                  
     l       E           TYP  RCUT    TYP  RCUT                                 
     0     -6.4927494     23  1.100                                             
     0      6.8029130     23  1.100                                             
     1     -4.0817478     23  1.100                                             
  local pseudopotential read in
  atomic valenz-charges read in
  non local Contribution for L=           0  read in
    real space projection operators read in
  non local Contribution for L=           0  read in
    real space projection operators read in
  non local Contribution for L=           1  read in
    real space projection operators read in
    PAW grid and wavefunctions read in
 
   number of l-projection  operators is LMAX  =           3
   number of lm-projection operators is LMMAX =           5
 
 Optimization of the real space projectors (new method)

 maximal supplied QI-value         = 16.25
 optimisation between [QCUT,QGAM] = [ 11.54, 23.24] = [ 37.28,151.24] Ry 
 Optimized for a Real-space Cutoff    1.45 Angstroem

   l    n(q)    QCUT    max X(q) W(low)/X(q) W(high)/X(q)  e(spline) 
   2      9    11.539    60.317    0.19E-03    0.47E-04    0.16E-06
   2      9    11.539    55.921    0.19E-03    0.48E-04    0.16E-06
   0     10    11.539    51.690    0.80E-04    0.50E-04    0.24E-06
   0     10    11.539    30.015    0.73E-04    0.45E-04    0.22E-06
   1     10    11.539    18.849    0.87E-04    0.16E-03    0.71E-07
   1     10    11.539    14.624    0.73E-04    0.13E-03    0.64E-07
 Optimization of the real space projectors (new method)

 maximal supplied QI-value         = 24.76
 optimisation between [QCUT,QGAM] = [ 11.64, 23.27] = [ 37.91,151.63] Ry 
 Optimized for a Real-space Cutoff    1.14 Angstroem

   l    n(q)    QCUT    max X(q) W(low)/X(q) W(high)/X(q)  e(spline) 
   0      8    11.635    20.381    0.10E-03    0.33E-03    0.24E-06
   0      8    11.635    15.268    0.11E-03    0.35E-03    0.26E-06
   1      7    11.635     5.964    0.24E-03    0.31E-03    0.30E-06
   1      7    11.635     5.382    0.22E-03    0.25E-03    0.26E-06
 Optimization of the real space projectors (new method)

 maximal supplied QI-value         = 34.20
 optimisation between [QCUT,QGAM] = [ 11.63, 23.26] = [ 37.87,151.49] Ry 
 Optimized for a Real-space Cutoff    1.21 Angstroem

   l    n(q)    QCUT    max X(q) W(low)/X(q) W(high)/X(q)  e(spline) 
   0      8    11.629    19.460    0.17E-03    0.34E-03    0.21E-06
   0      8    11.629    12.209    0.16E-03    0.33E-03    0.21E-06
   1      8    11.629     4.655    0.18E-03    0.16E-03    0.26E-06
  PAW_PBE Ni 02Aug2007                  :
 energy of atom  1       EATOM=-1077.6739
 kinetic energy error for atom=    0.0030 (will be added to EATOM!!)
  PAW_PBE O 08Apr2002                   :
 energy of atom  2       EATOM= -432.3788
 kinetic energy error for atom=    0.0208 (will be added to EATOM!!)
  PAW_PBE H 15Jun2001                   :
 energy of atom  3       EATOM=  -12.4884
 kinetic energy error for atom=    0.0014 (will be added to EATOM!!)
 
 
 POSCAR: POSCAR                                  
  positions in direct lattice
  velocities in cartesian coordinates
 exchange correlation table for  LEXCH =        8
   RHO(1)=    0.500       N(1)  =     2000
   RHO(2)=  100.500       N(2)  =     4000

 VTST: version 3.2, (02/03/18)

 CHAIN: initializing optimizer
 
 OPT: Using VASP Dynamics algorithm
 CHAIN: Read ICHAIN            0
 
 POSCAR: POSCAR                                  
  positions in direct lattice
  velocities in cartesian coordinates
 


--------------------------------------------------------------------------------------------------------


 ion  position               nearest neighbor table
   1  0.113  0.226  0.095-  15 2.49  19 2.49   3 2.49   5 2.49  13 2.49  17 2.49  21 2.49  49 2.49
                            61 2.49
   2  0.108  0.228  0.382-  65 1.82  14 2.40  18 2.43  20 2.45  62 2.48  22 2.51  24 2.52   6 2.52
                             4 2.52  50 2.57
   3  0.196  0.142  0.191-   4 2.44   8 2.45  24 2.46   5 2.49  49 2.49   1 2.49   7 2.49  15 2.49
                            19 2.49  23 2.49  51 2.49  63 2.49
   4  0.029  0.059  0.285-  62 2.43  15 2.44   3 2.44  63 2.44   8 2.49  24 2.49  64 2.49  16 2.49
                            20 2.49  52 2.50  50 2.52   2 2.52
   5  0.363  0.226  0.095-   3 2.49  23 2.49   7 2.49   9 2.49   1 2.49  21 2.49  25 2.49  49 2.49
                            53 2.49
   6  0.359  0.224  0.387-  65 1.86  69 1.96  50 2.52   2 2.52  22 2.52  54 2.52  10 2.53  26 2.55
                            24 2.56   8 2.56  28 2.56
   7  0.446  0.142  0.191-  12 2.45   8 2.46  28 2.49   9 2.49  53 2.49   5 2.49  11 2.49   3 2.49
                            23 2.49  51 2.49  27 2.49  55 2.49
   8  0.280  0.060  0.286-  54 2.41   3 2.45   7 2.46  51 2.46  24 2.47  28 2.49   4 2.49  52 2.50
                            12 2.50  56 2.51  50 2.52   6 2.56
   9  0.613  0.226  0.095-   7 2.49  27 2.49  11 2.49  13 2.49   5 2.49  25 2.49  29 2.49  53 2.49
                            57 2.49
  10  0.613  0.225  0.383-  68 1.89  69 1.93  28 2.49  12 2.51  32 2.51  54 2.52  30 2.52  58 2.52
                            14 2.52   6 2.53  26 2.53
  11  0.696  0.142  0.191-  16 2.44  12 2.45  32 2.45  13 2.49  57 2.49   9 2.49  15 2.49   7 2.49
                            27 2.49  55 2.49  31 2.49  59 2.49
  12  0.530  0.060  0.285-  54 2.42  11 2.45   7 2.45  55 2.46  32 2.47  16 2.49  60 2.49  28 2.49
                             8 2.50  56 2.50  10 2.51  58 2.53
  13  0.863  0.226  0.095-  11 2.49  31 2.49  15 2.49   9 2.49   1 2.49  29 2.49  17 2.49  57 2.49
                            61 2.49
  14  0.868  0.228  0.383-  68 1.84   2 2.40  18 2.43  20 2.46  62 2.49  30 2.50  10 2.52  32 2.53
                            16 2.53  58 2.56
  15  0.946  0.142  0.191-   4 2.44  16 2.45  20 2.48   1 2.49  61 2.49  13 2.49   3 2.49  11 2.49
                            31 2.49  59 2.49  19 2.49  63 2.49
  16  0.779  0.059  0.285-  62 2.43  11 2.44  15 2.45  59 2.45  32 2.49  12 2.49  60 2.49  20 2.49
                             4 2.49  64 2.49  58 2.53  14 2.53
  17  0.113  0.476  0.095-  31 2.49  35 2.49  19 2.49  21 2.49  29 2.49  13 2.49  33 2.49   1 2.49
                            37 2.49
  18  0.111  0.473  0.383-  67 1.84   2 2.43  14 2.43  20 2.47  30 2.47  22 2.48  36 2.53  40 2.53
                            34 2.54  38 2.54
  19  0.196  0.392  0.191-  40 2.44  24 2.47  20 2.48  21 2.49   1 2.49  17 2.49  31 2.49  23 2.49
                            15 2.49  35 2.49  39 2.49   3 2.49
  20  0.029  0.309  0.287-   2 2.45  14 2.46  18 2.47  31 2.47  19 2.48  15 2.48  36 2.49  40 2.49
                            16 2.49  32 2.49   4 2.49  24 2.50
  21  0.363  0.476  0.095-  19 2.49  39 2.49  23 2.49  25 2.49  17 2.49   5 2.49  37 2.49   1 2.49
                            41 2.49
  22  0.362  0.477  0.377-  40 2.41  44 2.41  24 2.41  18 2.48  38 2.48   2 2.51  42 2.51   6 2.52
                            26 2.52
  23  0.446  0.392  0.191-  24 2.46  44 2.46  28 2.48  25 2.49   5 2.49  21 2.49  19 2.49  27 2.49
                             7 2.49  39 2.49  43 2.49   3 2.49
  24  0.280  0.308  0.286-  22 2.41   3 2.46  23 2.46  19 2.47   8 2.47  28 2.48   4 2.49  20 2.50
                            44 2.50  40 2.50   2 2.52   6 2.56
  25  0.613  0.476  0.095-  23 2.49  43 2.49  27 2.49  29 2.49  21 2.49   9 2.49  41 2.49   5 2.49
                            45 2.49
  26  0.615  0.479  0.387-  66 1.86  69 1.96  46 2.52  42 2.52  22 2.52  30 2.52  10 2.53   6 2.55
                            44 2.56  48 2.56  28 2.56
  27  0.696  0.392  0.191-  32 2.45  48 2.46  28 2.49  29 2.49   9 2.49  25 2.49  23 2.49  31 2.49
                            11 2.49  43 2.49  47 2.49   7 2.49
  28  0.529  0.310  0.287-  44 2.48  24 2.48  23 2.48  48 2.49   8 2.49  10 2.49  27 2.49   7 2.49
                            32 2.49  12 2.49   6 2.56  26 2.56
  29  0.863  0.476  0.095-  27 2.49  47 2.49  31 2.49  25 2.49  17 2.49  13 2.49  33 2.49  45 2.49
                             9 2.49
  30  0.866  0.477  0.377-  36 2.40  48 2.41  32 2.42  18 2.47  34 2.47  14 2.50  46 2.51  10 2.52
                            26 2.52
  31  0.946  0.392  0.191-  36 2.44  32 2.46  20 2.47  17 2.49  13 2.49  29 2.49  27 2.49  19 2.49
                            15 2.49  35 2.49  11 2.49  47 2.49
  32  0.778  0.308  0.285-  30 2.42  11 2.45  27 2.45  31 2.46  12 2.47  16 2.49  20 2.49  28 2.49
                            48 2.50  36 2.50  10 2.51  14 2.53
  33  0.113  0.726  0.095-  47 2.49  51 2.49  35 2.49  37 2.49  45 2.49  29 2.49  49 2.49  17 2.49
                            53 2.49
  34  0.111  0.727  0.383-  67 1.84  46 2.43  50 2.43  52 2.47  54 2.47  30 2.47  56 2.53  36 2.53
                            18 2.54  38 2.54
  35  0.196  0.642  0.191-  36 2.44  56 2.44  40 2.44  37 2.49  17 2.49  33 2.49  47 2.49  39 2.49
                            31 2.49  51 2.49  55 2.49  19 2.49
  36  0.030  0.559  0.284-  30 2.40  35 2.44  47 2.44  31 2.44  52 2.49  20 2.49  56 2.49  40 2.49
                            32 2.50  48 2.51  34 2.53  18 2.53
  37  0.363  0.726  0.095-  35 2.49  55 2.49  39 2.49  41 2.49  33 2.49  21 2.49  53 2.49  17 2.49
                            57 2.49
  38  0.366  0.727  0.383-  67 1.84  42 2.43  58 2.43  60 2.47  54 2.47  22 2.48  56 2.53  40 2.53
                            34 2.54  18 2.54
  39  0.446  0.642  0.191-  40 2.44  44 2.47  60 2.48  41 2.49  21 2.49  37 2.49  35 2.49  43 2.49
                            23 2.49  55 2.49  59 2.49  19 2.49
  40  0.279  0.559  0.285-  22 2.41  35 2.44  39 2.44  19 2.44  36 2.49  56 2.49  20 2.49  60 2.49
                            44 2.50  24 2.50  18 2.53  38 2.53
  41  0.613  0.726  0.095-  39 2.49  59 2.49  43 2.49  45 2.49  37 2.49  25 2.49  57 2.49  21 2.49
                            61 2.49
  42  0.611  0.730  0.382-  66 1.82  58 2.40  38 2.43  60 2.45  62 2.48  22 2.51  44 2.52  26 2.52
                            64 2.52  46 2.57
  43  0.696  0.642  0.191-  64 2.44  48 2.45  44 2.46  45 2.49  25 2.49  41 2.49  39 2.49  47 2.49
                            27 2.49  59 2.49  63 2.49  23 2.49
  44  0.531  0.559  0.286-  22 2.41  43 2.46  23 2.46  39 2.47  48 2.47  28 2.48  64 2.49  60 2.50
                            24 2.50  40 2.50  42 2.52  26 2.56
  45  0.863  0.726  0.095-  43 2.49  63 2.49  47 2.49  41 2.49  33 2.49  29 2.49  49 2.49  61 2.49
                            25 2.49
  46  0.869  0.730  0.382-  66 1.82  50 2.39  34 2.43  52 2.46  62 2.49  30 2.51  26 2.52  48 2.52
                            64 2.52  42 2.57
  47  0.946  0.642  0.191-  36 2.44  48 2.46  52 2.47  33 2.49  29 2.49  45 2.49  43 2.49  35 2.49
                            31 2.49  51 2.49  27 2.49  63 2.49
  48  0.778  0.559  0.286-  30 2.41  43 2.45  27 2.46  47 2.46  44 2.47  28 2.49  64 2.49  52 2.50
                            32 2.50  36 2.51  46 2.52  26 2.56
  49  0.113  0.976  0.095-  63 2.49   3 2.49  51 2.49  61 2.49  53 2.49   1 2.49   5 2.49  33 2.49
                            45 2.49
  50  0.109  0.970  0.382-  65 1.82  46 2.39  34 2.43  52 2.46  62 2.49  54 2.51   6 2.52   8 2.52
                             4 2.52   2 2.57
  51  0.196  0.892  0.191-  56 2.44   8 2.46  52 2.47  53 2.49  33 2.49  49 2.49  55 2.49  63 2.49
                            35 2.49  47 2.49   3 2.49   7 2.49
  52  0.030  0.809  0.286-  46 2.46  50 2.46  51 2.47  47 2.47  63 2.47  34 2.47  56 2.49  36 2.49
                             4 2.50  64 2.50   8 2.50  48 2.50
  53  0.363  0.976  0.095-  51 2.49   7 2.49  55 2.49  49 2.49  57 2.49   5 2.49   9 2.49  33 2.49
                            37 2.49
  54  0.361  0.973  0.377-  56 2.40   8 2.41  12 2.42  38 2.47  34 2.47  58 2.50  50 2.51  10 2.52
                             6 2.52
  55  0.446  0.892  0.191-  56 2.44  12 2.46  60 2.47  57 2.49  37 2.49  53 2.49  59 2.49  51 2.49
                            11 2.49  39 2.49   7 2.49  35 2.49
  56  0.279  0.809  0.284-  54 2.40  35 2.44  51 2.44  55 2.44  52 2.49  60 2.49  36 2.49  40 2.49
                            12 2.50   8 2.51  34 2.53  38 2.53
  57  0.613  0.976  0.095-  55 2.49  11 2.49  59 2.49  53 2.49  61 2.49   9 2.49  13 2.49  37 2.49
                            41 2.49
  58  0.611  0.971  0.383-  68 1.84  42 2.40  38 2.43  60 2.46  62 2.49  54 2.50  10 2.52  12 2.53
                            16 2.53  14 2.56
  59  0.696  0.892  0.191-  64 2.44  16 2.45  60 2.48  61 2.49  41 2.49  57 2.49  63 2.49  55 2.49
                            15 2.49  43 2.49  11 2.49  39 2.49
  60  0.529  0.809  0.287-  42 2.45  58 2.46  38 2.47  55 2.47  39 2.48  59 2.48  56 2.49  40 2.49
                            16 2.49  12 2.49  64 2.49  44 2.50
  61  0.863  0.976  0.095-  59 2.49  15 2.49  63 2.49  49 2.49  57 2.49  13 2.49   1 2.49  41 2.49
                            45 2.49
  62  0.862  0.976  0.378-  16 2.43   4 2.43  64 2.43  42 2.48   2 2.48  58 2.49  14 2.49  46 2.49
                            50 2.49
  63  0.946  0.892  0.191-  64 2.44   4 2.44  52 2.47  49 2.49  45 2.49  61 2.49  51 2.49  59 2.49
                             3 2.49  47 2.49  15 2.49  43 2.49
  64  0.779  0.809  0.285-  62 2.43  59 2.44  43 2.44  63 2.44  48 2.49  44 2.49   4 2.49  16 2.49
                            60 2.49  52 2.50  46 2.52  42 2.52
  65  0.180  0.134  0.436-   2 1.82  50 1.82   6 1.86
  66  0.704  0.659  0.436-  46 1.82  42 1.82  26 1.86
  67  0.196  0.642  0.435-  38 1.84  18 1.84  34 1.84
  68  0.701  0.138  0.437-  58 1.84  14 1.84  10 1.89
  69  0.533  0.305  0.447-  70 1.52  10 1.93   6 1.96  26 1.96
  70  0.553  0.285  0.517-  71 0.99  69 1.52
  71  0.611  0.229  0.512-  70 0.99
 

IMPORTANT INFORMATION: All symmetrisations will be switched off!
NOSYMM: (Re-)initialisation of all symmetry stuff for point group C_1.

 
 

Automatic generation of k-mesh.
 generate k-points for:    3    3    1
Space group operators:
 irot       det(A)        alpha          n_x          n_y          n_z        tau_x        tau_y        tau_z
    1     1.000000     0.000000     1.000000     0.000000     0.000000     0.000000     0.000000     0.000000
 
 Subroutine IBZKPT returns following result:
 ===========================================
 
 Found      5 irreducible k-points:
 
 Following reciprocal coordinates:
            Coordinates               Weight
  0.000000  0.000000  0.000000      1.000000
  0.333333  0.000000  0.000000      2.000000
  0.000000  0.333333  0.000000      2.000000
  0.333333  0.333333  0.000000      2.000000
 -0.333333  0.333333  0.000000      2.000000
 
 Following cartesian coordinates:
            Coordinates               Weight
  0.000000  0.000000  0.000000      1.000000
  0.033442  0.019308  0.000000      2.000000
  0.000000  0.038616  0.000000      2.000000
  0.033442  0.057924  0.000000      2.000000
 -0.033442  0.019308  0.000000      2.000000
 
 TETIRR: Found     24 inequivalent tetrahedra from       54


--------------------------------------------------------------------------------------------------------




 Dimension of arrays:
   k-points           NKPTS =      5   k-points in BZ     NKDIM =      5   number of bands    NBANDS=    444
   number of dos      NEDOS =    301   number of ions     NIONS =     71
   non local maximal  LDIM  =      6   non local SUM 2l+1 LMDIM =     18
   total plane-waves  NPLWV = ******
   max r-space proj   IRMAX =   7188   max aug-charges    IRDMAX=  18478
   dimension x,y,z NGX =    80 NGY =   80 NGZ =  160
   dimension x,y,z NGXF=   160 NGYF=  160 NGZF=  320
   support grid    NGXF=   160 NGYF=  160 NGZF=  320
   ions per type =              64   6   1
   NGX,Y,Z   is equivalent  to a cutoff of  13.34, 13.34, 12.60 a.u.
   NGXF,Y,Z  is equivalent  to a cutoff of  26.69, 26.69, 25.21 a.u.

 SYSTEM =  SQS-NiFe                                
 POSCAR =  POSCAR                                  

 Startparameter for this run:
   NWRITE =      2    write-flag & timer
   PREC   = accura    normal or accurate (medium, high low for compatibility)
   ISTART =      1    job   : 0-new  1-cont  2-samecut
   ICHARG =      1    charge: 1-file 2-atom 10-const
   ISPIN  =      2    spin polarized calculation?
   LNONCOLLINEAR =      F non collinear calculations
   LSORBIT =      F    spin-orbit coupling
   INIWAV =      1    electr: 0-lowe 1-rand  2-diag
   LASPH  =      F    aspherical Exc in radial PAW
   METAGGA=      F    non-selfconsistent MetaGGA calc.

 Electronic Relaxation 1
   ENCUT  =  520.0 eV  38.22 Ry    6.18 a.u.  18.53 18.53 39.24*2*pi/ulx,y,z
   ENINI  =  520.0     initial cutoff
   ENAUG  =  605.4 eV  augmentation charge cutoff
   NELM   =    200;   NELMIN=  2; NELMDL=  0     # of ELM steps 
   EDIFF  = 0.1E-05   stopping-criterion for ELM
   LREAL  =      T    real-space projection
   NLSPLINE    = F    spline interpolate recip. space projectors
   LCOMPAT=      F    compatible to vasp.4.4
   GGA_COMPAT  = T    GGA compatible to vasp.4.4-vasp.4.6
   LMAXPAW     = -100 max onsite density
   LMAXMIX     =    2 max onsite mixed and CHGCAR
   VOSKOWN=      0    Vosko Wilk Nusair interpolation
   ROPT   =   -0.00025  -0.00025  -0.00025
 Ionic relaxation
   EDIFFG = -.2E-01   stopping-criterion for IOM
   NSW    =      0    number of steps for IOM
   NBLOCK =      1;   KBLOCK =      1    inner block; outer block 
   IBRION =     -1    ionic relax: 0-MD 1-quasi-New 2-CG
   NFREE  =      0    steps in history (QN), initial steepest desc. (CG)
   ISIF   =      2    stress and relaxation
   IWAVPR =     10    prediction:  0-non 1-charg 2-wave 3-comb
   ISYM   =      0    0-nonsym 1-usesym 2-fastsym
   LCORR  =      T    Harris-Foulkes like correction to forces

   POTIM  = 0.5000    time-step for ionic-motion
   TEIN   =    0.0    initial temperature
   TEBEG  =    0.0;   TEEND  =   0.0 temperature during run
   SMASS  =  -3.00    Nose mass-parameter (am)
   estimated Nose-frequenzy (Omega)   =  0.10E-29 period in steps =****** mass=  -0.227E-26a.u.
   SCALEE = 1.0000    scale energy and forces
   NPACO  =    256;   APACO  = 16.0  distance and # of slots for P.C.
   PSTRESS=    0.0 pullay stress

  Mass of Ions in am
   POMASS =  58.69 16.00  1.00
  Ionic Valenz
   ZVAL   =  10.00  6.00  1.00
  Atomic Wigner-Seitz radii
   RWIGS  =  -1.00 -1.00 -1.00
  virtual crystal weights 
   VCA    =   1.00  1.00  1.00
   NELECT =     677.0000    total number of electrons
   NUPDOWN=      -1.0000    fix difference up-down

 DOS related values:
   EMIN   =  10.00;   EMAX   =-10.00  energy-range for DOS
   EFERMI =   0.00
   ISMEAR =    -5;   SIGMA  =   0.20  broadening in eV -4-tet -1-fermi 0-gaus

 Electronic relaxation 2 (details)
   IALGO  =     68    algorithm
   LDIAG  =      T    sub-space diagonalisation (order eigenvalues)
   LSUBROT=      F    optimize rotation matrix (better conditioning)
   TURBO    =      0    0=normal 1=particle mesh
   IRESTART =      0    0=no restart 2=restart with 2 vectors
   NREBOOT  =      0    no. of reboots
   NMIN     =      0    reboot dimension
   EREF     =   0.00    reference energy to select bands
   IMIX   =      4    mixing-type and parameters
     AMIX     =   0.40;   BMIX     =  1.00
     AMIX_MAG =   1.60;   BMIX_MAG =  1.00
     AMIN     =   0.10
     WC   =   100.;   INIMIX=   1;  MIXPRE=   1;  MAXMIX= -45

 Intra band minimization:
   WEIMIN = 0.0000     energy-eigenvalue tresh-hold
   EBREAK =  0.56E-09  absolut break condition
   DEPER  =   0.30     relativ break condition  

   TIME   =   0.40     timestep for ELM

  volume/ion in A,a.u.               =      25.57       172.58
  Fermi-wavevector in a.u.,A,eV,Ry     =   1.178294  2.226653 18.890009  1.388376
  Thomas-Fermi vector in A             =   2.314625
 
 Write flags
   LWAVE        =      T    write WAVECAR
   LDOWNSAMPLE  =      F    k-point downsampling of WAVECAR
   LCHARG       =      T    write CHGCAR
   LVTOT        =      F    write LOCPOT, total local potential
   LVHAR        =      F    write LOCPOT, Hartree potential only
   LELF         =      F    write electronic localiz. function (ELF)
   LORBIT       =     11    0 simple, 1 ext, 2 COOP (PROOUT), +10 PAW based schemes


 Dipole corrections
   LMONO  =      F    monopole corrections only (constant potential shift)
   LDIPOL =      T    correct potential (dipole corrections)
   IDIPOL =      3    1-x, 2-y, 3-z, 4-all directions 
   EPSILON=  1.0000000 bulk dielectric constant

 Exchange correlation treatment:
   GGA     =    --    GGA type
   LEXCH   =     8    internal setting for exchange type
   VOSKOWN=      0    Vosko Wilk Nusair interpolation
   LHFCALC =     F    Hartree Fock is set to
   LHFONE  =     F    Hartree Fock one center treatment
   AEXX    =    0.0000 exact exchange contribution

 Linear response parameters
   LEPSILON=     F    determine dielectric tensor
   LRPA    =     F    only Hartree local field effects (RPA)
   LNABLA  =     F    use nabla operator in PAW spheres
   LVEL    =     F    velocity operator in full k-point grid
   LINTERFAST=   F  fast interpolation
   KINTER  =     0    interpolate to denser k-point grid
   CSHIFT  =0.1000    complex shift for real part using Kramers Kronig
   OMEGAMAX=  -1.0    maximum frequency
   DEG_THRESHOLD= 0.2000000E-02 threshold for treating states as degnerate
   RTIME   =   -0.100 relaxation time in fs
  (WPLASMAI=    0.000 imaginary part of plasma frequency in eV, 0.658/RTIME)
   DFIELD  = 0.0000000 0.0000000 0.0000000 field for delta impulse in time
 
 Orbital magnetization related:
   ORBITALMAG=     F  switch on orbital magnetization
   LCHIMAG   =     F  perturbation theory with respect to B field
   DQ        =  0.001000  dq finite difference perturbation B field
   LLRAUG    =     F  two centre corrections for induced B field



--------------------------------------------------------------------------------------------------------


 Static calculation
 charge density and potential will be updated during run
 spin polarized calculation
 RMM-DIIS sequential band-by-band and
  variant of blocked Davidson during initial phase
 perform sub-space diagonalisation
    before iterative eigenvector-optimisation
 modified Broyden-mixing scheme, WC =      100.0
 initial mixing is a Kerker type mixing with AMIX =  0.4000 and BMIX =      1.0000
 Hartree-type preconditioning will be used
 using additional bands          105
 real space projection scheme for non local part
 use partial core corrections
 calculate Harris-corrections to forces 
   (improved forces if not selfconsistent)
 use gradient corrections 
 use of overlap-Matrix (Vanderbilt PP)
 Fermi weights with tetrahedron method with Bloechl corrections


--------------------------------------------------------------------------------------------------------


  energy-cutoff  :      520.00
  volume of cell :     1815.73
      direct lattice vectors                 reciprocal lattice vectors
     9.967380000  0.000000000  0.000000000     0.100327268  0.057923975  0.000000000
    -4.983690000  8.632004290  0.000000000     0.000000000  0.115847950  0.000000000
     0.000000000  0.000000000 21.103750000     0.000000000  0.000000000  0.047384943

  length of vectors
     9.967380000  9.967380001 21.103750000     0.115847950  0.115847950  0.047384943


 
 old parameters found on file WAVECAR:
  energy-cutoff  :      520.00
  volume of cell :     1815.73
      direct lattice vectors                 reciprocal lattice vectors
     9.967380000  0.000000000  0.000000000     0.100327268  0.057923975  0.000000000
    -4.983690000  8.632004290  0.000000000     0.000000000  0.115847950  0.000000000
     0.000000000  0.000000000 21.103750000     0.000000000  0.000000000  0.047384943

  length of vectors

 
 k-points in units of 2pi/SCALE and weight: read from INCAR                         
   0.00000000  0.00000000  0.00000000       0.111
   0.03344242  0.01930799  0.00000000       0.222
   0.00000000  0.03861598  0.00000000       0.222
   0.03344242  0.05792397  0.00000000       0.222
  -0.03344242  0.01930799  0.00000000       0.222
 
 k-points in reciprocal lattice and weights: read from INCAR                         
   0.00000000  0.00000000  0.00000000       0.111
   0.33333333  0.00000000  0.00000000       0.222
   0.00000000  0.33333333  0.00000000       0.222
   0.33333333  0.33333333  0.00000000       0.222
  -0.33333333  0.33333333  0.00000000       0.222
 
 position of ions in fractional coordinates (direct lattice) 
   0.11283300  0.22566700  0.09477000
   0.10842160  0.22761248  0.38244665
   0.19616700  0.14233300  0.19117800
   0.02948400  0.05907148  0.28470671
   0.36283300  0.22566700  0.09477000
   0.35906341  0.22379677  0.38681529
   0.44616700  0.14233300  0.19117800
   0.27950240  0.06018676  0.28559054
   0.61283300  0.22566700  0.09477000
   0.61326988  0.22524397  0.38280519
   0.69616700  0.14233300  0.19117800
   0.53035063  0.06001697  0.28521467
   0.86283300  0.22566700  0.09477000
   0.86753819  0.22774447  0.38275071
   0.94616700  0.14233300  0.19117800
   0.77929142  0.05921993  0.28488961
   0.11283300  0.47566700  0.09477000
   0.11115360  0.47264968  0.38267509
   0.19616700  0.39233300  0.19117800
   0.02929019  0.30924883  0.28655923
   0.36283300  0.47566700  0.09477000
   0.36153510  0.47698682  0.37700779
   0.44616700  0.39233300  0.19117800
   0.27954839  0.30798004  0.28585301
   0.61283300  0.47566700  0.09477000
   0.61474124  0.47948514  0.38682693
   0.69616700  0.39233300  0.19117800
   0.52894526  0.30957753  0.28724655
   0.86283300  0.47566700  0.09477000
   0.86579408  0.47727267  0.37655488
   0.94616700  0.39233300  0.19117800
   0.77849621  0.30815874  0.28521352
   0.11283300  0.72566700  0.09477000
   0.11137807  0.72714476  0.38257765
   0.19616700  0.64233300  0.19117800
   0.02968961  0.55910547  0.28446702
   0.36283300  0.72566700  0.09477000
   0.36589995  0.72738874  0.38266809
   0.44616700  0.64233300  0.19117800
   0.27945026  0.55906160  0.28456800
   0.61283300  0.72566700  0.09477000
   0.61090613  0.73011721  0.38244219
   0.69616700  0.64233300  0.19117800
   0.53052556  0.55896034  0.28585473
   0.86283300  0.72566700  0.09477000
   0.86886168  0.72992503  0.38231227
   0.94616700  0.64233300  0.19117800
   0.77832766  0.55900846  0.28559189
   0.11283300  0.97566700  0.09477000
   0.10860702  0.96967012  0.38231884
   0.19616700  0.89233300  0.19117800
   0.02973116  0.80878265  0.28631450
   0.36283300  0.97566700  0.09477000
   0.36124613  0.97272864  0.37655881
   0.44616700  0.89233300  0.19117800
   0.27940542  0.80882397  0.28446745
   0.61283300  0.97566700  0.09477000
   0.61078548  0.97099709  0.38275590
   0.69616700  0.89233300  0.19117800
   0.52926356  0.80922816  0.28655775
   0.86283300  0.97566700  0.09477000
   0.86244043  0.97608018  0.37761724
   0.94616700  0.89233300  0.19117800
   0.77943487  0.80902456  0.28470521
   0.17995949  0.13428962  0.43610977
   0.70425964  0.65860621  0.43609936
   0.19621204  0.64236558  0.43548149
   0.70083523  0.13770949  0.43677016
   0.53305639  0.30541475  0.44658477
   0.55290551  0.28509886  0.51653775
   0.61074154  0.22879281  0.51248014
 
 position of ions in cartesian coordinates  (Angst):
  -0.00000498  1.94795851  2.00000239
  -0.05367082  1.96475195  8.07105845
   1.24592748  1.22861907  4.03457272
  -0.00051570  0.50990529  6.00837916
   2.49184002  1.94795851  2.00000239
   2.46358776  1.93181465  8.16325311
   3.73777248  1.22861907  4.03457272
   2.48595452  0.51953236  6.02703146
   4.98368502  1.94795851  2.00000239
   4.99014787  1.94430689  8.07862498
   6.22961748  1.22861907  4.03457272
   4.98710032  0.51806675  6.01909902
   7.47553002  1.94795851  2.00000239
   7.51207495  1.96589120  8.07747522
   8.72146248  1.22861907  4.03457272
   7.47235992  0.51118671  6.01223904
  -1.24592748  4.10595958  2.00000239
  -1.24762925  4.07991404  8.07587946
   0.00000498  3.38662014  4.03457272
  -1.24925391  2.66943724  6.04747438
   1.24591752  4.10595958  2.00000239
   1.22640334  4.11735223  7.95627819
   2.49184998  3.38662014  4.03457272
   1.25148797  2.65848499  6.03257050
   3.73776252  4.10595958  2.00000239
   3.73775423  4.13891780  8.16349874
   4.98369498  3.38662014  4.03457272
   3.72935993  2.67227457  6.06197945
   6.22960752  4.10595958  2.00000239
   6.25111959  4.11981978  7.94671998
   7.47553998  3.38662014  4.03457272
   6.22379991  2.66002752  6.01907474
  -2.49184998  6.26396066  2.00000239
  -2.51371657  6.27671669  8.07382312
  -1.24591752  5.54462121  4.03457272
  -2.49048074  4.82620081  6.00332082
  -0.00000498  6.26396066  2.00000239
   0.02198384  6.27882270  8.07573168
   1.24592748  5.54462121  4.03457272
  -0.00080282  4.82582215  6.00545201
   2.49184002  6.26396066  2.00000239
   2.45045564  6.30237493  8.07096431
   3.73777248  5.54462121  4.03457272
   2.50226485  4.82494803  6.03260680
   4.98368502  6.26396066  2.00000239
   5.02255448  6.30071600  8.06822261
   6.22961748  5.54462121  4.03457272
   4.97196268  4.82536345  6.02705982
  -3.73777248  8.42196173  2.00000239
  -3.75000777  8.37019660  8.06836116
  -2.49184002  7.70262228  4.03457272
  -3.73438026  6.98141531  6.04230955
  -1.24592748  8.42196173  2.00000239
  -1.24710053  8.39659778  7.94680296
   0.00000498  7.70262228  4.03457272
  -1.24598796  6.98177195  6.00332990
   1.24591752  8.42196173  2.00000239
   1.24878251  8.38165102  8.07758477
   2.49184998  7.70262228  4.03457272
   1.24242872  6.98526091  6.04744311
   3.73776252  8.42196173  2.00000239
   3.73179041  8.42552831  7.96913977
   4.98369498  7.70262228  4.03457272
   3.73699593  6.98350345  6.00834748
   1.12446678  1.15918857  9.20355156
   3.73733423  5.68509164  9.20333177
  -1.24563103  5.54490248  9.19029239
   6.29918966  1.18870887  9.21748820
   3.79108316  2.63634140  9.42461333
   4.09017493  2.46097462 10.90088363
   4.94726054  1.97494052 10.81525279
 


--------------------------------------------------------------------------------------------------------


 k-point  1 :   0.0000 0.0000 0.0000  plane waves:   48949
 k-point  2 :   0.3333 0.0000 0.0000  plane waves:   48884
 k-point  3 :   0.0000 0.3333 0.0000  plane waves:   48884
 k-point  4 :   0.3333 0.3333 0.0000  plane waves:   48804
 k-point  5 :  -0.3333 0.3333 0.0000  plane waves:   48884

 maximum and minimum number of plane-waves per node :      2058     2018

 maximum number of plane-waves:     48949
 maximum index in each direction: 
   IXMAX=   18   IYMAX=   18   IZMAX=   39
   IXMIN=  -18   IYMIN=  -18   IZMIN=  -39


 real space projection operators:
  total allocation   :      63677.66 KBytes
  max/ min on nodes  :       3225.35       2346.26


 parallel 3D FFT for wavefunctions:
    minimum data exchange during FFTs selected (reduces bandwidth)
 parallel 3D FFT for charge:
    minimum data exchange during FFTs selected (reduces bandwidth)


 total amount of memory used by VASP MPI-rank0   116835. kBytes
=======================================================================

   base      :      30000. kBytes
   nonlr-proj:      12636. kBytes
   fftplans  :       6402. kBytes
   grid      :      17692. kBytes
   one-center:         93. kBytes
   wavefun   :      50012. kBytes
 
     INWAV:  cpu time   11.7964: real time   12.7026
 Broyden mixing: mesh for mixing (old mesh)
   NGX = 37   NGY = 37   NGZ = 79
  (NGX  =160   NGY  =160   NGZ  =320)
  gives a total of 108151 points

 initial charge density was supplied:
 number of electron     677.0000073 magnetization      43.0164415
 keeping initial charge density in first step


--------------------------------------------------------------------------------------------------------


 Maximum index for non-local projection operator          709
 Maximum index for augmentation-charges         1178 (set IRDMAX)


--------------------------------------------------------------------------------------------------------


 First call to EWALD:  gamma=   0.145
 Maximum number of real-space cells 4x 4x 2
 Maximum number of reciprocal cells 2x 2x 4

    FEWALD:  cpu time    0.0048: real time    0.0046


--------------------------------------- Iteration      1(   1)  ---------------------------------------


    POTLOK:  cpu time    0.4265: real time    0.4533
    SETDIJ:  cpu time    0.0244: real time    0.0244
     EDDAV:  cpu time   47.9191: real time   47.9858
 BZINTS: Fermi energy:  0.537490;677.000000 electrons
         Band energy:***********;  BLOECHL correction: -0.042883
       DOS:  cpu time    0.0580: real time    0.0580
    CHARGE:  cpu time    1.1399: real time    1.1403
    MIXING:  cpu time    0.0069: real time    0.0069
    --------------------------------------------
      LOOP:  cpu time   49.5756: real time   49.6689

 eigenvalue-minimisations  :  9444
 total energy-change (2. order) :-0.3729082E+03  (-0.7814485E-02)
 number of electron     677.0000074 magnetization      42.9854124
 augmentation part      398.6017143 magnetization      40.1823603

 DIPCOR: dipole corrections for dipol
 direction  3 min pos   243,
 dipolmoment           0.000000      0.000000      0.362588 electrons x Angstroem
 Tr[quadrupol]    -11196.092942

 energy correction for charged system         0.000000 eV
 dipol+quadrupol energy correction           -0.006551 eV
 added-field ion interaction          3.219938 eV  (added to PSCEN)


 Broyden mixing:
  rms(total) = 0.16151E+00    rms(broyden)= 0.16139E+00
  rms(prec ) = 0.17361E+00
  weight for this iteration     100.00

 Free energy of the ion-electron system (eV)
  ---------------------------------------------------
  alpha Z        PSCENC =      1272.90549056
  Ewald energy   TEWEN  =    246835.73170100
  -Hartree energ DENC   =   -316395.58675815
  -exchange      EXHF   =         0.00000000
  -V(xc)+E(xc)   XCENC  =      2129.42949226
  PAW double counting   =     75303.98879201   -79703.13952213
  entropy T*S    EENTRO =         0.00000000
  eigenvalues    EBANDS =     -1393.81115947
  atomic energy  EATOM  =     71577.57373177
  Solvation  Ediel_sol  =         0.00000000
  ---------------------------------------------------
  free energy    TOTEN  =      -372.90823215 eV

  energy without entropy =     -372.90823215  energy(sigma->0) =     -372.90823215


--------------------------------------------------------------------------------------------------------




--------------------------------------- Iteration      1(   2)  ---------------------------------------


    POTLOK:  cpu time    0.4374: real time    0.4457
    SETDIJ:  cpu time    0.0241: real time    0.0241
    EDDIAG:  cpu time    6.4918: real time    6.4961
  RMM-DIIS:  cpu time   23.8607: real time   23.8798
    ORTHCH:  cpu time    1.8337: real time    1.8352
 BZINTS: Fermi energy:  0.564409;677.000000 electrons
         Band energy:***********;  BLOECHL correction: -0.036716
       DOS:  cpu time    0.0559: real time    0.0559
    CHARGE:  cpu time    1.1323: real time    1.1326
    MIXING:  cpu time    0.0072: real time    0.0072
    --------------------------------------------
      LOOP:  cpu time   33.8424: real time   33.8765

 eigenvalue-minimisations  :  9394
 total energy-change (2. order) :-0.6966525E+00  (-0.2975334E-01)
 number of electron     677.0000066 magnetization      42.9909793
 augmentation part      398.6939466 magnetization      39.7206137

 DIPCOR: dipole corrections for dipol
 direction  3 min pos   238,
 dipolmoment           0.000000      0.000000      0.256832 electrons x Angstroem
 Tr[quadrupol]    -11195.724366

 energy correction for charged system         0.000000 eV
 dipol+quadrupol energy correction           -0.003287 eV
 added-field ion interaction         -3.433325 eV  (added to PSCEN)


 Broyden mixing:
  rms(total) = 0.19599E+01    rms(broyden)= 0.19599E+01
  rms(prec ) = 0.24793E+01
  weight for this iteration     100.00

 eigenvalues of (default mixing * dielectric matrix)
  average eigenvalue GAMMA=   0.0411
  0.0411

 Free energy of the ion-electron system (eV)
  ---------------------------------------------------
  alpha Z        PSCENC =      1266.25549222
  Ewald energy   TEWEN  =    246835.73170100
  -Hartree energ DENC   =   -316387.47639147
  -exchange      EXHF   =         0.00000000
  -V(xc)+E(xc)   XCENC  =      2129.30010204
  PAW double counting   =     75302.32178403   -79701.51797469
  entropy T*S    EENTRO =         0.00000000
  eigenvalues    EBANDS =     -1395.79332959
  atomic energy  EATOM  =     71577.57373177
  Solvation  Ediel_sol  =         0.00000000
  ---------------------------------------------------
  free energy    TOTEN  =      -373.60488467 eV

  energy without entropy =     -373.60488467  energy(sigma->0) =     -373.60488467


--------------------------------------------------------------------------------------------------------




--------------------------------------- Iteration      1(   3)  ---------------------------------------


    POTLOK:  cpu time    0.4354: real time    0.4434
    SETDIJ:  cpu time    0.0241: real time    0.0241
    EDDIAG:  cpu time    6.4831: real time    6.4868
  RMM-DIIS:  cpu time   23.9673: real time   23.9868
    ORTHCH:  cpu time    1.8254: real time    1.8260
 BZINTS: Fermi energy:  0.549338;677.000000 electrons
         Band energy:***********;  BLOECHL correction: -0.041092
       DOS:  cpu time    0.0597: real time    0.0597
    CHARGE:  cpu time    1.1360: real time    1.1364
    MIXING:  cpu time    0.0073: real time    0.0073
    --------------------------------------------
      LOOP:  cpu time   33.9382: real time   33.9705

 eigenvalue-minimisations  :  9459
 total energy-change (2. order) : 0.7911333E+00  (-0.1097090E-01)
 number of electron     677.0000073 magnetization      42.9951582
 augmentation part      398.6888072 magnetization      40.0545910

 DIPCOR: dipole corrections for dipol
 direction  3 min pos   238,
 dipolmoment           0.000000      0.000000      0.401834 electrons x Angstroem
 Tr[quadrupol]    -11195.842940

 energy correction for charged system         0.000000 eV
 dipol+quadrupol energy correction           -0.008046 eV
 added-field ion interaction         -5.371708 eV  (added to PSCEN)


 Broyden mixing:
  rms(total) = 0.82187E+00    rms(broyden)= 0.82178E+00
  rms(prec ) = 0.98016E+00
  weight for this iteration     100.00

 eigenvalues of (default mixing * dielectric matrix)
  average eigenvalue GAMMA=   0.0898
  0.1449  0.0348

 Free energy of the ion-electron system (eV)
  ---------------------------------------------------
  alpha Z        PSCENC =      1264.31234921
  Ewald energy   TEWEN  =    246835.73170100
  -Hartree energ DENC   =   -316393.72108156
  -exchange      EXHF   =         0.00000000
  -V(xc)+E(xc)   XCENC  =      2129.31427359
  PAW double counting   =     75303.42756471   -79702.55380329
  entropy T*S    EENTRO =         0.00000000
  eigenvalues    EBANDS =     -1386.89848679
  atomic energy  EATOM  =     71577.57373177
  Solvation  Ediel_sol  =         0.00000000
  ---------------------------------------------------
  free energy    TOTEN  =      -372.81375137 eV

  energy without entropy =     -372.81375137  energy(sigma->0) =     -372.81375137


--------------------------------------------------------------------------------------------------------




--------------------------------------- Iteration      1(   4)  ---------------------------------------


    POTLOK:  cpu time    0.4381: real time    0.4467
    SETDIJ:  cpu time    0.0241: real time    0.0241
    EDDIAG:  cpu time    6.5003: real time    6.5051
  RMM-DIIS:  cpu time   23.6710: real time   23.6914
    ORTHCH:  cpu time    1.8299: real time    1.8305
 BZINTS: Fermi energy:  0.551553;677.000000 electrons
         Band energy:***********;  BLOECHL correction: -0.045897
       DOS:  cpu time    0.0600: real time    0.0601
    CHARGE:  cpu time    1.1332: real time    1.1344
    MIXING:  cpu time    0.0073: real time    0.0074
    --------------------------------------------
      LOOP:  cpu time   33.6639: real time   33.6997

 eigenvalue-minimisations  :  9322
 total energy-change (2. order) : 0.1053756E+00  (-0.1105910E-01)
 number of electron     677.0000073 magnetization      43.0014324
 augmentation part      398.6923633 magnetization      40.1245879

 DIPCOR: dipole corrections for dipol
 direction  3 min pos   239,
 dipolmoment           0.000000      0.000000      0.345662 electrons x Angstroem
 Tr[quadrupol]    -11195.955122

 energy correction for charged system         0.000000 eV
 dipol+quadrupol energy correction           -0.005954 eV
 added-field ion interaction         -3.082711 eV  (added to PSCEN)


 Broyden mixing:
  rms(total) = 0.38245E+00    rms(broyden)= 0.38236E+00
  rms(prec ) = 0.47244E+00
  weight for this iteration     100.00

 eigenvalues of (default mixing * dielectric matrix)
  average eigenvalue GAMMA=   0.2152
  0.5278  0.0866  0.0312

 Free energy of the ion-electron system (eV)
  ---------------------------------------------------
  alpha Z        PSCENC =      1266.60343843
  Ewald energy   TEWEN  =    246835.73170100
  -Hartree energ DENC   =   -316395.71839782
  -exchange      EXHF   =         0.00000000
  -V(xc)+E(xc)   XCENC  =      2129.32518034
  PAW double counting   =     75303.90509234   -79703.15659420
  entropy T*S    EENTRO =         0.00000000
  eigenvalues    EBANDS =     -1386.97252763
  atomic energy  EATOM  =     71577.57373177
  Solvation  Ediel_sol  =         0.00000000
  ---------------------------------------------------
  free energy    TOTEN  =      -372.70837577 eV

  energy without entropy =     -372.70837577  energy(sigma->0) =     -372.70837577


--------------------------------------------------------------------------------------------------------




--------------------------------------- Iteration      1(   5)  ---------------------------------------


    POTLOK:  cpu time    0.4376: real time    0.4482
    SETDIJ:  cpu time    0.0240: real time    0.0240
    EDDIAG:  cpu time    6.4993: real time    6.5030
  RMM-DIIS:  cpu time   23.8346: real time   23.8583
    ORTHCH:  cpu time    1.8275: real time    1.8284
 BZINTS: Fermi energy:  0.539328;677.000000 electrons
         Band energy:***********;  BLOECHL correction: -0.039472
       DOS:  cpu time    0.0577: real time    0.0576
    CHARGE:  cpu time    1.1324: real time    1.1329
    MIXING:  cpu time    0.0074: real time    0.0075
    --------------------------------------------
      LOOP:  cpu time   33.8206: real time   33.8600

 eigenvalue-minimisations  :  9444
 total energy-change (2. order) :-0.1263245E-02  (-0.4164848E-02)
 number of electron     677.0000073 magnetization      42.9969603
 augmentation part      398.7065196 magnetization      40.2574778

 DIPCOR: dipole corrections for dipol
 direction  3 min pos   241,
 dipolmoment           0.000000      0.000000      0.372463 electrons x Angstroem
 Tr[quadrupol]    -11195.955211

 energy correction for charged system         0.000000 eV
 dipol+quadrupol energy correction           -0.006913 eV
 added-field ion interaction         -0.007049 eV  (added to PSCEN)


 Broyden mixing:
  rms(total) = 0.38321E+00    rms(broyden)= 0.38317E+00
  rms(prec ) = 0.42980E+00
  weight for this iteration     100.00

 eigenvalues of (default mixing * dielectric matrix)
  average eigenvalue GAMMA=   0.2161
  0.6458  0.0311  0.0993  0.0880

 Free energy of the ion-electron system (eV)
  ---------------------------------------------------
  alpha Z        PSCENC =      1269.67814148
  Ewald energy   TEWEN  =    246835.73170100
  -Hartree energ DENC   =   -316393.40647704
  -exchange      EXHF   =         0.00000000
  -V(xc)+E(xc)   XCENC  =      2129.40291623
  PAW double counting   =     75303.91675561   -79703.32645790
  entropy T*S    EENTRO =         0.00000000
  eigenvalues    EBANDS =     -1392.27995016
  atomic energy  EATOM  =     71577.57373177
  Solvation  Ediel_sol  =         0.00000000
  ---------------------------------------------------
  free energy    TOTEN  =      -372.70963901 eV

  energy without entropy =     -372.70963901  energy(sigma->0) =     -372.70963901


--------------------------------------------------------------------------------------------------------




--------------------------------------- Iteration      1(   6)  ---------------------------------------


    POTLOK:  cpu time    0.4306: real time    0.4476
    SETDIJ:  cpu time    0.0242: real time    0.0242
    EDDIAG:  cpu time    6.5008: real time    6.5054
  RMM-DIIS:  cpu time   23.9181: real time   23.9387
    ORTHCH:  cpu time    1.8150: real time    1.8158
 BZINTS: Fermi energy:  0.540364;677.000000 electrons
         Band energy:***********;  BLOECHL correction: -0.045609
       DOS:  cpu time    0.0603: real time    0.0603
    CHARGE:  cpu time    1.1319: real time    1.1324
    MIXING:  cpu time    0.0076: real time    0.0075
    --------------------------------------------
      LOOP:  cpu time   33.8885: real time   33.9318

 eigenvalue-minimisations  :  9404
 total energy-change (2. order) : 0.3675623E-01  (-0.2523704E-02)
 number of electron     677.0000073 magnetization      42.9985835
 augmentation part      398.6476144 magnetization      40.1677522

 DIPCOR: dipole corrections for dipol
 direction  3 min pos   243,
 dipolmoment           0.000000      0.000000      0.359705 electrons x Angstroem
 Tr[quadrupol]    -11196.105304

 energy correction for charged system         0.000000 eV
 dipol+quadrupol energy correction           -0.006448 eV
 added-field ion interaction          3.194337 eV  (added to PSCEN)


 Broyden mixing:
  rms(total) = 0.11904E+00    rms(broyden)= 0.11898E+00
  rms(prec ) = 0.13897E+00
  weight for this iteration     100.00

 eigenvalues of (default mixing * dielectric matrix)
  average eigenvalue GAMMA=   0.2049
  0.6239  0.1881  0.0310  0.1055  0.0758

 Free energy of the ion-electron system (eV)
  ---------------------------------------------------
  alpha Z        PSCENC =      1272.87999289
  Ewald energy   TEWEN  =    246835.73170100
  -Hartree energ DENC   =   -316396.03119162
  -exchange      EXHF   =         0.00000000
  -V(xc)+E(xc)   XCENC  =      2129.42204289
  PAW double counting   =     75304.01420503   -79703.64406815
  entropy T*S    EENTRO =         0.00000000
  eigenvalues    EBANDS =     -1392.61929660
  atomic energy  EATOM  =     71577.57373177
  Solvation  Ediel_sol  =         0.00000000
  ---------------------------------------------------
  free energy    TOTEN  =      -372.67288278 eV

  energy without entropy =     -372.67288278  energy(sigma->0) =     -372.67288278


--------------------------------------------------------------------------------------------------------




--------------------------------------- Iteration      1(   7)  ---------------------------------------


    POTLOK:  cpu time    0.4329: real time    0.4474
    SETDIJ:  cpu time    0.0241: real time    0.0241
    EDDIAG:  cpu time    6.4143: real time    6.4186
  RMM-DIIS:  cpu time   23.6774: real time   23.6991
    ORTHCH:  cpu time    1.8077: real time    1.8092
 BZINTS: Fermi energy:  0.544546;677.000000 electrons
         Band energy:***********;  BLOECHL correction: -0.040239
       DOS:  cpu time    0.0559: real time    0.0560
    CHARGE:  cpu time    1.1321: real time    1.1325
    MIXING:  cpu time    0.0078: real time    0.0078
    --------------------------------------------
      LOOP:  cpu time   33.5523: real time   33.5948

 eigenvalue-minimisations  :  9313
 total energy-change (2. order) : 0.6832365E-02  (-0.4987733E-03)
 number of electron     677.0000073 magnetization      43.0037469
 augmentation part      398.6568699 magnetization      40.1823312

 DIPCOR: dipole corrections for dipol
 direction  3 min pos   241,
 dipolmoment           0.000000      0.000000      0.362295 electrons x Angstroem
 Tr[quadrupol]    -11196.009437

 energy correction for charged system         0.000000 eV
 dipol+quadrupol energy correction           -0.006541 eV
 added-field ion interaction         -0.006857 eV  (added to PSCEN)


 Broyden mixing:
  rms(total) = 0.10165E+00    rms(broyden)= 0.10164E+00
  rms(prec ) = 0.11234E+00
  weight for this iteration     100.00

 eigenvalues of (default mixing * dielectric matrix)
  average eigenvalue GAMMA=   0.2642
  0.6384  0.6384  0.0310  0.1140  0.0818  0.0818

 Free energy of the ion-electron system (eV)
  ---------------------------------------------------
  alpha Z        PSCENC =      1269.67870621
  Ewald energy   TEWEN  =    246835.73170100
  -Hartree energ DENC   =   -316395.63055517
  -exchange      EXHF   =         0.00000000
  -V(xc)+E(xc)   XCENC  =      2129.42755209
  PAW double counting   =     75303.77107211   -79703.35240461
  entropy T*S    EENTRO =         0.00000000
  eigenvalues    EBANDS =     -1389.86585383
  atomic energy  EATOM  =     71577.57373177
  Solvation  Ediel_sol  =         0.00000000
  ---------------------------------------------------
  free energy    TOTEN  =      -372.66605042 eV

  energy without entropy =     -372.66605042  energy(sigma->0) =     -372.66605042


--------------------------------------------------------------------------------------------------------




--------------------------------------- Iteration      1(   8)  ---------------------------------------


    POTLOK:  cpu time    0.4345: real time    0.4480
    SETDIJ:  cpu time    0.0241: real time    0.0241
    EDDIAG:  cpu time    6.4089: real time    6.4126
  RMM-DIIS:  cpu time   23.7949: real time   23.8154
    ORTHCH:  cpu time    1.8125: real time    1.8133
 BZINTS: Fermi energy:  0.549541;677.000000 electrons
         Band energy:***********;  BLOECHL correction: -0.040365
       DOS:  cpu time    0.0571: real time    0.0571
    CHARGE:  cpu time    1.1305: real time    1.1309
    MIXING:  cpu time    0.0080: real time    0.0080
    --------------------------------------------
      LOOP:  cpu time   33.6705: real time   33.7094

 eigenvalue-minimisations  :  9379
 total energy-change (2. order) : 0.6791957E-03  (-0.3382766E-03)
 number of electron     677.0000073 magnetization      43.0074227
 augmentation part      398.6725276 magnetization      40.2015998

 DIPCOR: dipole corrections for dipol
 direction  3 min pos   238,
 dipolmoment           0.000000      0.000000      0.365477 electrons x Angstroem
 Tr[quadrupol]    -11195.858847

 energy correction for charged system         0.000000 eV
 dipol+quadrupol energy correction           -0.006656 eV
 added-field ion interaction         -4.885686 eV  (added to PSCEN)


 Broyden mixing:
  rms(total) = 0.97525E-01    rms(broyden)= 0.97519E-01
  rms(prec ) = 0.10682E+00
  weight for this iteration     100.00

 eigenvalues of (default mixing * dielectric matrix)
  average eigenvalue GAMMA=   0.2837
  0.7626  0.7626  0.1605  0.0310  0.0960  0.0960  0.0772

 Free energy of the ion-electron system (eV)
  ---------------------------------------------------
  alpha Z        PSCENC =      1264.79976136
  Ewald energy   TEWEN  =    246835.73170100
  -Hartree energ DENC   =   -316395.09171184
  -exchange      EXHF   =         0.00000000
  -V(xc)+E(xc)   XCENC  =      2129.43696560
  PAW double counting   =     75303.31696610   -79702.80112394
  entropy T*S    EENTRO =         0.00000000
  eigenvalues    EBANDS =     -1385.63166129
  atomic energy  EATOM  =     71577.57373177
  Solvation  Ediel_sol  =         0.00000000
  ---------------------------------------------------
  free energy    TOTEN  =      -372.66537122 eV

  energy without entropy =     -372.66537122  energy(sigma->0) =     -372.66537122


--------------------------------------------------------------------------------------------------------




--------------------------------------- Iteration      1(   9)  ---------------------------------------


    POTLOK:  cpu time    0.4473: real time    0.4480
    SETDIJ:  cpu time    0.0241: real time    0.0241
    EDDIAG:  cpu time    6.4256: real time    6.4297
  RMM-DIIS:  cpu time   23.8658: real time   23.8844
    ORTHCH:  cpu time    1.8150: real time    1.8158
 BZINTS: Fermi energy:  0.554479;677.000000 electrons
         Band energy:***********;  BLOECHL correction: -0.040712
       DOS:  cpu time    0.0588: real time    0.0588
    CHARGE:  cpu time    1.1331: real time    1.1337
    MIXING:  cpu time    0.0082: real time    0.0082
    --------------------------------------------
      LOOP:  cpu time   33.7780: real time   33.8027

 eigenvalue-minimisations  :  9410
 total energy-change (2. order) : 0.1802974E-02  (-0.2952427E-03)
 number of electron     677.0000074 magnetization      43.0127117
 augmentation part      398.6730113 magnetization      40.2068468

 DIPCOR: dipole corrections for dipol
 direction  3 min pos   236,
 dipolmoment           0.000000      0.000000      0.365124 electrons x Angstroem
 Tr[quadrupol]    -11195.758114

 energy correction for charged system         0.000000 eV
 dipol+quadrupol energy correction           -0.006643 eV
 added-field ion interaction         -8.130330 eV  (added to PSCEN)


 Broyden mixing:
  rms(total) = 0.63344E-01    rms(broyden)= 0.63337E-01
  rms(prec ) = 0.69856E-01
  weight for this iteration     100.00

 eigenvalues of (default mixing * dielectric matrix)
  average eigenvalue GAMMA=   0.3233
  0.8950  0.8950  0.3881  0.0310  0.1136  0.1049  0.0792  0.0792

 Free energy of the ion-electron system (eV)
  ---------------------------------------------------
  alpha Z        PSCENC =      1261.55513044
  Ewald energy   TEWEN  =    246835.73170100
  -Hartree energ DENC   =   -316395.12100336
  -exchange      EXHF   =         0.00000000
  -V(xc)+E(xc)   XCENC  =      2129.44251717
  PAW double counting   =     75303.21735600   -79702.67482896
  entropy T*S    EENTRO =         0.00000000
  eigenvalues    EBANDS =     -1382.38817233
  atomic energy  EATOM  =     71577.57373177
  Solvation  Ediel_sol  =         0.00000000
  ---------------------------------------------------
  free energy    TOTEN  =      -372.66356825 eV

  energy without entropy =     -372.66356825  energy(sigma->0) =     -372.66356825


--------------------------------------------------------------------------------------------------------




--------------------------------------- Iteration      1(  10)  ---------------------------------------


    POTLOK:  cpu time    0.4470: real time    0.4479
    SETDIJ:  cpu time    0.0242: real time    0.0242
    EDDIAG:  cpu time    6.4172: real time    6.4215
  RMM-DIIS:  cpu time   23.8299: real time   23.8502
    ORTHCH:  cpu time    1.8096: real time    1.8113
 BZINTS: Fermi energy:  0.556936;677.000000 electrons
         Band energy:***********;  BLOECHL correction: -0.040788
       DOS:  cpu time    0.0589: real time    0.0589
    CHARGE:  cpu time    1.1343: real time    1.1346
    MIXING:  cpu time    0.0083: real time    0.0083
    --------------------------------------------
      LOOP:  cpu time   33.7295: real time   33.7570

 eigenvalue-minimisations  :  9383
 total energy-change (2. order) :-0.1195617E-02  (-0.2028915E-03)
 number of electron     677.0000073 magnetization      43.0239814
 augmentation part      398.6676411 magnetization      40.2169451

 DIPCOR: dipole corrections for dipol
 direction  3 min pos   235,
 dipolmoment           0.000000      0.000000      0.365440 electrons x Angstroem
 Tr[quadrupol]    -11195.701489

 energy correction for charged system         0.000000 eV
 dipol+quadrupol energy correction           -0.006655 eV
 added-field ion interaction         -9.763464 eV  (added to PSCEN)


 Broyden mixing:
  rms(total) = 0.77557E-01    rms(broyden)= 0.77553E-01
  rms(prec ) = 0.85499E-01
  weight for this iteration     100.00

 eigenvalues of (default mixing * dielectric matrix)
  average eigenvalue GAMMA=   0.3893
  1.1988  1.1988  0.5808  0.0310  0.1370  0.1076  0.0773  0.0876  0.0845

 Free energy of the ion-electron system (eV)
  ---------------------------------------------------
  alpha Z        PSCENC =      1259.92198482
  Ewald energy   TEWEN  =    246835.73170100
  -Hartree energ DENC   =   -316394.90727847
  -exchange      EXHF   =         0.00000000
  -V(xc)+E(xc)   XCENC  =      2129.45359758
  PAW double counting   =     75303.38007093   -79702.87073389
  entropy T*S    EENTRO =         0.00000000
  eigenvalues    EBANDS =     -1380.94783761
  atomic energy  EATOM  =     71577.57373177
  Solvation  Ediel_sol  =         0.00000000
  ---------------------------------------------------
  free energy    TOTEN  =      -372.66476387 eV

  energy without entropy =     -372.66476387  energy(sigma->0) =     -372.66476387


--------------------------------------------------------------------------------------------------------




--------------------------------------- Iteration      1(  11)  ---------------------------------------


    POTLOK:  cpu time    0.4319: real time    0.4483
    SETDIJ:  cpu time    0.0241: real time    0.0241
    EDDIAG:  cpu time    6.3930: real time    6.3972
  RMM-DIIS:  cpu time   23.5002: real time   23.5231
    ORTHCH:  cpu time    1.8121: real time    1.8129
 BZINTS: Fermi energy:  0.552959;677.000000 electrons
         Band energy:***********;  BLOECHL correction: -0.041642
       DOS:  cpu time    0.0588: real time    0.0588
    CHARGE:  cpu time    1.1326: real time    1.1330
    MIXING:  cpu time    0.0086: real time    0.0086
    --------------------------------------------
      LOOP:  cpu time   33.3613: real time   33.4060

 eigenvalue-minimisations  :  9223
 total energy-change (2. order) :-0.8231299E-03  (-0.1650531E-03)
 number of electron     677.0000073 magnetization      43.0285425
 augmentation part      398.6549034 magnetization      40.2205158

 DIPCOR: dipole corrections for dipol
 direction  3 min pos   237,
 dipolmoment           0.000000      0.000000      0.362810 electrons x Angstroem
 Tr[quadrupol]    -11195.809008

 energy correction for charged system         0.000000 eV
 dipol+quadrupol energy correction           -0.006559 eV
 added-field ion interaction         -6.464417 eV  (added to PSCEN)


 Broyden mixing:
  rms(total) = 0.47237E-01    rms(broyden)= 0.47230E-01
  rms(prec ) = 0.51335E-01
  weight for this iteration     100.00

 eigenvalues of (default mixing * dielectric matrix)
  average eigenvalue GAMMA=   0.3780
  1.2627  1.2627  0.5859  0.1660  0.0310  0.1213  0.1010  0.0925  0.0768  0.0799

 Free energy of the ion-electron system (eV)
  ---------------------------------------------------
  alpha Z        PSCENC =      1263.22112725
  Ewald energy   TEWEN  =    246835.73170100
  -Hartree energ DENC   =   -316395.29224714
  -exchange      EXHF   =         0.00000000
  -V(xc)+E(xc)   XCENC  =      2129.46907703
  PAW double counting   =     75303.80644241   -79703.38219093
  entropy T*S    EENTRO =         0.00000000
  eigenvalues    EBANDS =     -1383.79322839
  atomic energy  EATOM  =     71577.57373177
  Solvation  Ediel_sol  =         0.00000000
  ---------------------------------------------------
  free energy    TOTEN  =      -372.66558700 eV

  energy without entropy =     -372.66558700  energy(sigma->0) =     -372.66558700


--------------------------------------------------------------------------------------------------------




--------------------------------------- Iteration      1(  12)  ---------------------------------------


    POTLOK:  cpu time    0.4279: real time    0.5536
    SETDIJ:  cpu time    0.0278: real time    0.0342
    EDDIAG:  cpu time    6.4041: real time    6.4085
  RMM-DIIS:  cpu time   24.0415: real time   24.0593
    ORTHCH:  cpu time    1.8564: real time    1.8571
 BZINTS: Fermi energy:  0.555626;677.000000 electrons
         Band energy:***********;  BLOECHL correction: -0.041896
       DOS:  cpu time    0.0606: real time    0.0606
    CHARGE:  cpu time    1.1307: real time    1.1317
    MIXING:  cpu time    0.0087: real time    0.0087
    --------------------------------------------
      LOOP:  cpu time   33.9577: real time   34.1137

 eigenvalue-minimisations  :  9437
 total energy-change (2. order) :-0.5649139E-03  (-0.7955601E-04)
 number of electron     677.0000073 magnetization      43.0397237
 augmentation part      398.6537717 magnetization      40.2244861

 DIPCOR: dipole corrections for dipol
 direction  3 min pos   236,
 dipolmoment           0.000000      0.000000      0.362857 electrons x Angstroem
 Tr[quadrupol]    -11195.757544

 energy correction for charged system         0.000000 eV
 dipol+quadrupol energy correction           -0.006561 eV
 added-field ion interaction         -8.079859 eV  (added to PSCEN)


 Broyden mixing:
  rms(total) = 0.35230E-01    rms(broyden)= 0.35222E-01
  rms(prec ) = 0.38509E-01
  weight for this iteration     100.00

 eigenvalues of (default mixing * dielectric matrix)
  average eigenvalue GAMMA=   0.3961
  1.3679  1.3679  0.5061  0.5061  0.0310  0.1361  0.1064  0.0949  0.0838  0.0768
  0.0802

 Free energy of the ion-electron system (eV)
  ---------------------------------------------------
  alpha Z        PSCENC =      1261.60568428
  Ewald energy   TEWEN  =    246835.73170100
  -Hartree energ DENC   =   -316395.20583954
  -exchange      EXHF   =         0.00000000
  -V(xc)+E(xc)   XCENC  =      2129.47184643
  PAW double counting   =     75303.83557272   -79703.40809764
  entropy T*S    EENTRO =         0.00000000
  eigenvalues    EBANDS =     -1382.27075094
  atomic energy  EATOM  =     71577.57373177
  Solvation  Ediel_sol  =         0.00000000
  ---------------------------------------------------
  free energy    TOTEN  =      -372.66615191 eV

  energy without entropy =     -372.66615191  energy(sigma->0) =     -372.66615191


--------------------------------------------------------------------------------------------------------




--------------------------------------- Iteration      1(  13)  ---------------------------------------


    POTLOK:  cpu time    0.4387: real time    0.4456
    SETDIJ:  cpu time    0.0240: real time    0.0240
    EDDIAG:  cpu time    6.4175: real time    6.4213
  RMM-DIIS:  cpu time   23.6121: real time   23.6317
    ORTHCH:  cpu time    1.8564: real time    1.8573
 BZINTS: Fermi energy:  0.547493;677.000000 electrons
         Band energy:***********;  BLOECHL correction: -0.042087
       DOS:  cpu time    0.0569: real time    0.0569
    CHARGE:  cpu time    1.1330: real time    1.1334
    MIXING:  cpu time    0.0091: real time    0.0091
    --------------------------------------------
      LOOP:  cpu time   33.5476: real time   33.5793

 eigenvalue-minimisations  :  9236
 total energy-change (2. order) :-0.1065184E-02  (-0.6450256E-04)
 number of electron     677.0000073 magnetization      43.0491111
 augmentation part      398.6611792 magnetization      40.2392662

 DIPCOR: dipole corrections for dipol
 direction  3 min pos   239,
 dipolmoment           0.000000      0.000000      0.364462 electrons x Angstroem
 Tr[quadrupol]    -11195.898547

 energy correction for charged system         0.000000 eV
 dipol+quadrupol energy correction           -0.006619 eV
 added-field ion interaction         -3.250374 eV  (added to PSCEN)


 Broyden mixing:
  rms(total) = 0.40135E-01    rms(broyden)= 0.40131E-01
  rms(prec ) = 0.43500E-01
  weight for this iteration     100.00

 eigenvalues of (default mixing * dielectric matrix)
  average eigenvalue GAMMA=   0.4089
  1.4630  1.4630  0.6197  0.6197  0.0310  0.1413  0.1315  0.1061  0.0937  0.0834
  0.0779  0.0763

 Free energy of the ion-electron system (eV)
  ---------------------------------------------------
  alpha Z        PSCENC =      1266.43511026
  Ewald energy   TEWEN  =    246835.73170100
  -Hartree energ DENC   =   -316394.81617705
  -exchange      EXHF   =         0.00000000
  -V(xc)+E(xc)   XCENC  =      2129.47805773
  PAW double counting   =     75303.78062775   -79703.30931075
  entropy T*S    EENTRO =         0.00000000
  eigenvalues    EBANDS =     -1387.54095781
  atomic energy  EATOM  =     71577.57373177
  Solvation  Ediel_sol  =         0.00000000
  ---------------------------------------------------
  free energy    TOTEN  =      -372.66721709 eV

  energy without entropy =     -372.66721709  energy(sigma->0) =     -372.66721709


--------------------------------------------------------------------------------------------------------




--------------------------------------- Iteration      1(  14)  ---------------------------------------


    POTLOK:  cpu time    0.4413: real time    0.4492
    SETDIJ:  cpu time    0.0240: real time    0.0240
    EDDIAG:  cpu time    6.4168: real time    6.4211
  RMM-DIIS:  cpu time   23.8607: real time   23.8790
    ORTHCH:  cpu time    1.8630: real time    1.8638
 BZINTS: Fermi energy:  0.542607;677.000000 electrons
         Band energy:***********;  BLOECHL correction: -0.042239
       DOS:  cpu time    0.0592: real time    0.0592
    CHARGE:  cpu time    1.1304: real time    1.1308
    MIXING:  cpu time    0.0094: real time    0.0094
    --------------------------------------------
      LOOP:  cpu time   33.8047: real time   33.8365

 eigenvalue-minimisations  :  9322
 total energy-change (2. order) :-0.6149774E-03  (-0.4970358E-04)
 number of electron     677.0000073 magnetization      43.0561695
 augmentation part      398.6645697 magnetization      40.2469133

 DIPCOR: dipole corrections for dipol
 direction  3 min pos   241,
 dipolmoment           0.000000      0.000000      0.364376 electrons x Angstroem
 Tr[quadrupol]    -11195.994692

 energy correction for charged system         0.000000 eV
 dipol+quadrupol energy correction           -0.006616 eV
 added-field ion interaction         -0.006896 eV  (added to PSCEN)


 Broyden mixing:
  rms(total) = 0.21960E-01    rms(broyden)= 0.21955E-01
  rms(prec ) = 0.23989E-01
  weight for this iteration     100.00

 eigenvalues of (default mixing * dielectric matrix)
  average eigenvalue GAMMA=   0.4190
  1.5156  1.5156  0.6841  0.6841  0.3317  0.0310  0.1427  0.1139  0.1042  0.0898
  0.0828  0.0775  0.0747

 Free energy of the ion-electron system (eV)
  ---------------------------------------------------
  alpha Z        PSCENC =      1269.67859145
  Ewald energy   TEWEN  =    246835.73170100
  -Hartree energ DENC   =   -316394.76278931
  -exchange      EXHF   =         0.00000000
  -V(xc)+E(xc)   XCENC  =      2129.48077388
  PAW double counting   =     75303.80153102   -79703.30587469
  entropy T*S    EENTRO =         0.00000000
  eigenvalues    EBANDS =     -1390.86549721
  atomic energy  EATOM  =     71577.57373177
  Solvation  Ediel_sol  =         0.00000000
  ---------------------------------------------------
  free energy    TOTEN  =      -372.66783207 eV

  energy without entropy =     -372.66783207  energy(sigma->0) =     -372.66783207


--------------------------------------------------------------------------------------------------------




--------------------------------------- Iteration      1(  15)  ---------------------------------------


    POTLOK:  cpu time    0.4464: real time    0.4470
    SETDIJ:  cpu time    0.0240: real time    0.0240
    EDDIAG:  cpu time    6.3979: real time    6.4019
  RMM-DIIS:  cpu time   23.9842: real time   24.0030
    ORTHCH:  cpu time    1.8463: real time    1.8478
 BZINTS: Fermi energy:  0.540312;677.000000 electrons
         Band energy:***********;  BLOECHL correction: -0.042337
       DOS:  cpu time    0.0577: real time    0.0577
[...]
   -.108E+02 -.604E+01 -.778E+03   0.108E+02 0.603E+01 0.778E+03   0.268E-01 0.164E-01 0.490E+00   0.163E-02 -.455E-02 0.704E-03
   -.640E+00 0.298E+00 0.321E+04   0.627E+00 -.278E+00 -.321E+04   0.171E-02 -.219E-01 -.141E+01   0.120E-01 -.293E-02 -.288E-02
   -.919E+02 -.450E+02 -.285E+04   0.935E+02 0.459E+02 0.285E+04   -.165E+01 -.961E+00 0.414E+00   -.606E-02 0.735E-02 0.191E-02
   -.319E+01 -.157E+01 0.123E+04   0.318E+01 0.165E+01 -.123E+04   0.366E-01 -.651E-01 -.159E+00   -.681E-02 0.319E-02 -.165E-01
   0.539E+01 -.308E+01 -.782E+03   -.535E+01 0.306E+01 0.782E+03   -.376E-01 0.222E-01 0.493E+00   -.449E-02 0.180E-02 -.107E-01
   0.202E+00 0.478E+00 0.321E+04   -.243E+00 -.476E+00 -.321E+04   0.353E-01 0.896E-02 -.140E+01   -.206E-01 0.871E-02 -.205E-02
   0.114E+03 -.660E+02 -.282E+04   -.116E+03 0.669E+02 0.282E+04   0.173E+01 -.894E+00 0.274E+00   -.402E-03 0.391E-02 0.307E-02
   0.179E+01 0.167E+01 0.123E+04   -.177E+01 -.176E+01 -.123E+04   -.145E-01 0.538E-01 -.248E+00   -.113E-01 0.269E-02 -.332E-02
   0.336E+01 -.735E+01 -.791E+03   -.324E+01 0.720E+01 0.791E+03   -.140E+00 0.152E+00 0.241E+00   -.117E-02 0.124E-02 -.538E-02
   0.188E+00 0.782E-01 0.321E+04   -.113E+00 -.685E-01 -.321E+04   -.442E-01 0.617E-02 -.141E+01   -.101E-01 -.454E-03 -.572E-02
   -.111E+03 -.715E+02 -.282E+04   0.113E+03 0.723E+02 0.282E+04   -.173E+01 -.844E+00 0.292E+00   0.444E-02 -.407E-02 0.474E-02
   0.286E+01 -.313E+01 0.123E+04   -.288E+01 0.322E+01 -.123E+04   -.108E-01 -.624E-01 -.181E+00   0.662E-02 -.998E-02 0.243E-02
   0.237E+01 -.983E+01 -.784E+03   -.248E+01 0.971E+01 0.784E+03   0.135E+00 0.129E+00 0.289E+00   0.412E-02 -.617E-02 0.419E-02
   0.279E-01 -.204E+00 0.321E+04   0.112E-02 0.132E+00 -.321E+04   -.278E-01 0.344E-01 -.141E+01   -.473E-02 0.112E-01 -.543E-02
   0.634E+01 0.132E+03 -.282E+04   -.622E+01 -.134E+03 0.282E+04   -.132E+00 0.192E+01 0.292E+00   0.494E-02 -.200E-02 0.491E-02
   0.414E+01 -.904E+00 0.123E+04   -.423E+01 0.881E+00 -.123E+04   0.487E-01 0.410E-01 -.181E+00   0.109E-01 -.600E-04 0.192E-02
   -.742E+00 0.433E+00 -.804E+03   0.735E+00 -.429E+00 0.805E+03   -.248E-02 0.177E-02 -.119E+01   0.552E-02 -.346E-02 0.524E-02
   0.210E+00 -.164E+00 0.321E+04   -.246E+00 0.182E+00 -.321E+04   0.110E-01 -.290E-02 -.124E+01   0.232E-01 -.152E-02 -.369E-02
   0.742E+01 0.573E+02 -.280E+04   -.746E+01 -.577E+02 0.279E+04   0.341E-01 0.468E+00 0.320E+01   0.472E-02 0.829E-03 0.130E-02
   -.420E+01 0.191E+01 0.123E+04   0.424E+01 -.199E+01 -.123E+04   -.230E-01 0.711E-01 -.197E+00   0.138E-01 0.322E-02 -.131E-01
   -.150E+00 0.124E+02 -.778E+03   0.149E+00 -.124E+02 0.778E+03   -.389E-03 -.311E-01 0.489E+00   0.400E-02 0.283E-05 0.357E-03
   -.112E+00 0.509E+00 0.322E+04   0.799E-01 -.550E+00 -.321E+04   0.328E-01 0.496E-02 -.141E+01   0.673E-02 0.532E-02 0.136E-02
   -.142E+02 0.143E+03 -.282E+04   0.141E+02 -.145E+03 0.282E+04   0.772E-01 0.187E+01 0.234E+00   -.551E-02 0.691E-02 0.255E-02
   0.372E+01 0.368E+01 0.123E+04   -.380E+01 -.378E+01 -.123E+04   0.401E-01 0.693E-01 -.178E+00   -.131E-01 0.108E-01 -.188E-01
   0.134E+00 0.593E+01 -.809E+03   -.121E+00 -.596E+01 0.810E+03   -.979E-02 0.228E-01 -.118E+01   -.523E-02 0.455E-02 -.773E-02
   -.137E+00 0.765E-01 0.321E+04   0.164E+00 -.943E-01 -.321E+04   0.266E-02 -.193E-02 -.133E+01   -.252E-01 0.165E-01 -.232E-02
   -.252E+01 0.142E+01 -.285E+04   0.245E+01 -.138E+01 0.285E+04   0.806E-01 -.478E-01 0.340E+01   -.401E-02 0.261E-02 0.524E-02
   -.372E+01 0.214E+01 0.123E+04   0.384E+01 -.222E+01 -.123E+04   -.688E-01 0.403E-01 -.179E+00   -.115E-01 0.804E-02 -.254E-02
   0.724E+00 0.337E+01 -.781E+03   -.724E+00 -.329E+01 0.781E+03   0.611E-02 -.862E-01 0.452E+00   -.433E-02 -.652E-03 -.337E-02
   0.648E+02 0.329E+02 -.228E+04   -.654E+02 -.333E+02 0.231E+04   0.557E+00 0.382E+00 -.291E+02   0.254E-02 -.145E-02 0.208E-02
   0.384E+01 -.725E+02 -.228E+04   -.380E+01 0.732E+02 0.231E+04   -.484E-01 -.682E+00 -.291E+02   0.288E-02 -.173E-02 0.186E-02
   -.210E+01 0.123E+01 -.229E+04   0.210E+01 -.123E+01 0.232E+04   -.484E-02 0.225E-02 -.284E+02   -.263E-02 0.106E-02 0.136E-02
   -.766E+02 0.442E+02 -.226E+04   0.770E+02 -.444E+02 0.228E+04   -.308E+00 0.185E+00 -.267E+02   0.211E-03 0.667E-03 -.341E-02
   0.478E+02 -.279E+02 -.209E+04   -.553E+02 0.323E+02 0.208E+04   0.751E+01 -.438E+01 0.698E+01   0.183E-02 -.710E-03 -.166E-02
   0.110E+02 -.562E+01 -.208E+04   -.399E+02 0.219E+02 0.211E+04   0.289E+02 -.163E+02 -.301E+02   0.124E-02 -.593E-03 0.202E-02
   -.757E+02 0.429E+02 -.335E+03   0.827E+02 -.468E+02 0.334E+03   -.699E+01 0.396E+01 0.555E+00   0.428E-03 -.215E-03 0.286E-04
 -----------------------------------------------------------------------------------------------
   -.301E+02 0.171E+02 0.142E+03   -.441E-12 -.176E-11 -.250E-11   0.301E+02 -.171E+02 -.141E+03   0.518E-02 -.241E-02 -.199E+00
 
 
 POSITION                                       TOTAL-FORCE (eV/Angst)
 -----------------------------------------------------------------------------------
     -0.00000      1.94796      2.00000        -0.031031      0.012531      0.280224
     -0.05367      1.96475      8.07106         0.027464     -0.014009     -0.017544
      1.24593      1.22862      4.03457         0.019428      0.023615     -0.215215
     -0.00052      0.50991      6.00838         0.002322      0.000266     -0.028584
      2.49184      1.94796      2.00000         0.024410      0.013837      0.284000
      2.46359      1.93181      8.16325        -0.014373     -0.009783     -0.001496
      3.73777      1.22862      4.03457        -0.017556      0.041787     -0.164765
      2.48595      0.51953      6.02703         0.008106     -0.019528     -0.024278
      4.98369      1.94796      2.00000        -0.023403      0.013036      0.268580
      4.99015      1.94431      8.07862        -0.000637      0.000640     -0.004350
      6.22962      1.22862      4.03457        -0.001049      0.000695     -0.239639
      4.98710      0.51807      6.01910        -0.002015     -0.018037     -0.018377
      7.47553      1.94796      2.00000         0.029380      0.008312      0.273449
      7.51207      1.96589      8.07748        -0.010504     -0.013104     -0.011588
      8.72146      1.22862      4.03457        -0.010715      0.056381     -0.238570
      7.47236      0.51119      6.01224        -0.000191      0.000065     -0.031556
     -1.24593      4.10596      2.00000         0.003862      0.000648      0.267037
     -1.24763      4.07991      8.07588        -0.003848      0.009121      0.011827
      0.00000      3.38662      4.03457        -0.003392     -0.029906     -0.222798
     -1.24925      2.66944      6.04747        -0.001985     -0.000211     -0.032449
      1.24592      4.10596      2.00000         0.013887     -0.008465      0.175539
      1.22640      4.11735      7.95628         0.011996     -0.006832      0.031976
      2.49185      3.38662      4.03457        -0.000517      0.000584     -0.168142
      1.25149      2.65848      6.03257        -0.009290      0.017307     -0.015027
      3.73776      4.10596      2.00000        -0.000130     -0.028818      0.284087
      3.73775      4.13892      8.16350         0.001449      0.017450     -0.002221
      4.98369      3.38662      4.03457        -0.044789     -0.005327     -0.164891
      3.72936      2.67227      6.06198        -0.001791      0.001021     -0.016646
      6.22961      4.10596      2.00000        -0.013368     -0.006373      0.193216
      6.25112      4.11982      7.94672        -0.011528     -0.005125      0.037185
      7.47554      3.38662      4.03457         0.018973     -0.024311     -0.271296
      6.22380      2.66003      6.01907         0.014698      0.010915     -0.018378
     -2.49185      6.26396      2.00000        -0.000318     -0.000309      0.261452
     -2.51372      6.27672      8.07382        -0.001617      0.001174      0.007260
     -1.24592      5.54462      4.03457         0.012532     -0.007061     -0.288937
     -2.49048      4.82620      6.00332         0.005962      0.000562     -0.020810
     -0.00000      6.26396      2.00000         0.001062     -0.004346      0.266965
      0.02198      6.27882      8.07573        -0.009255     -0.000594      0.011427
      1.24593      5.54462      4.03457         0.024433      0.018164     -0.222673
     -0.00080      4.82582      6.00545        -0.006359      0.003785     -0.011164
      2.49184      6.26396      2.00000        -0.026809      0.019923      0.280263
      2.45046      6.30237      8.07096         0.026645     -0.016766     -0.017857
      3.73777      5.54462      4.03457        -0.010643     -0.028518     -0.215182
      2.50226      4.82495      6.03261        -0.019486     -0.000638     -0.015201
      4.98369      6.26396      2.00000         0.020847      0.015507      0.275758
      5.02255      6.30072      8.06822        -0.007175     -0.004639     -0.010029
      6.22962      5.54462      4.03457        -0.029987      0.018010     -0.243651
      4.97196      4.82536      6.02706         0.021157      0.002744     -0.024274
     -3.73777      8.42196      2.00000        -0.003527     -0.026411      0.275779
     -3.75001      8.37020      8.06836         0.000643      0.008862     -0.009361
     -2.49184      7.70262      4.03457        -0.030472      0.017238     -0.243798
     -3.73438      6.98142      6.04231        -0.004621      0.002940     -0.026510
     -1.24593      8.42196      2.00000        -0.001550      0.014057      0.193386
     -1.24710      8.39660      7.94680        -0.001348      0.012939      0.037230
      0.00000      7.70262      4.03457         0.030617     -0.003895     -0.271337
     -1.24599      6.98177      6.00333         0.002643     -0.005134     -0.020983
      1.24592      8.42196      2.00000         0.007076     -0.030288      0.273514
      1.24878      8.38165      8.07758         0.006190      0.015140     -0.012269
      2.49185      7.70262      4.03457        -0.053981     -0.018602     -0.238636
      1.24243      6.98526      6.04744        -0.000609      0.002085     -0.032927
      3.73776      8.42196      2.00000         0.004658     -0.003264      0.166663
      3.73179      8.42553      7.96914         0.004639     -0.002665      0.046403
      4.98369      7.70262      4.03457         0.047528     -0.027280     -0.242334
      3.73700      6.98350      6.00835         0.001125     -0.002028     -0.028829
      1.12447      1.15919      9.20355        -0.024690     -0.003427     -0.014267
      3.73733      5.68509      9.20333        -0.008090      0.022702     -0.014179
     -1.24563      5.54490      9.19029         0.000271      0.001422     -0.041217
      6.29919      1.18871      9.21749         0.027730     -0.016123     -0.012437
      3.79108      2.63634      9.42461         0.011252     -0.006612      0.023335
      4.09017      2.46097     10.90088         0.019430     -0.009096     -0.035862
      4.94726      1.97494     10.81525        -0.009768      0.002060     -0.004022
 -----------------------------------------------------------------------------------
    total drift:                               -0.002023      0.000907      0.033887


--------------------------------------------------------------------------------------------------------



  FREE ENERGIE OF THE ION-ELECTRON SYSTEM (eV)
  ---------------------------------------------------
  free  energy   TOTEN  =      -390.89316257 eV

  energy  without entropy=     -390.89316257  energy(sigma->0) =     -390.89316257
 


--------------------------------------------------------------------------------------------------------


    POTLOK:  cpu time    0.4557: real time    0.4561


--------------------------------------------------------------------------------------------------------


 stress matrix after NEB project (eV)
    -31.78323     -0.00674      0.19723
     -0.00674    -31.81546     -0.12555
      0.19723     -0.12555     -9.62281
  FORCES: max atom, RMS     0.046710    0.020566
  FORCE total and by dimension    0.173293    0.046403
  Stress total and by dimension   45.990267   31.815457
 writing wavefunctions
     LOOP+:  cpu time 1171.8239: real time 1233.5990
    4ORBIT:  cpu time    0.0000: real time    0.0000
 


 total charge     
 
# of ion       s       p       d       tot
------------------------------------------
    1        0.485   0.377   8.306   9.167
    2        0.503   0.522   8.323   9.348
    3        0.498   0.502   8.314   9.314
    4        0.498   0.504   8.318   9.320
    5        0.486   0.377   8.305   9.167
    6        0.450   0.527   8.333   9.310
    7        0.495   0.500   8.308   9.303
    8        0.497   0.502   8.315   9.314
    9        0.486   0.377   8.304   9.167
   10        0.462   0.561   8.330   9.353
   11        0.500   0.502   8.315   9.317
   12        0.500   0.507   8.316   9.324
   13        0.485   0.377   8.306   9.167
   14        0.498   0.514   8.319   9.331
   15        0.497   0.502   8.310   9.309
   16        0.497   0.504   8.318   9.320
   17        0.486   0.377   8.305   9.167
   18        0.496   0.509   8.322   9.327
   19        0.496   0.500   8.311   9.307
   20        0.503   0.506   8.329   9.339
   21        0.489   0.376   8.298   9.163
   22        0.476   0.375   8.360   9.211
   23        0.495   0.498   8.309   9.302
   24        0.497   0.502   8.315   9.314
   25        0.486   0.377   8.305   9.167
   26        0.450   0.527   8.333   9.310
   27        0.495   0.500   8.308   9.303
   28        0.494   0.491   8.317   9.302
   29        0.489   0.377   8.297   9.163
   30        0.477   0.377   8.362   9.216
   31        0.497   0.501   8.312   9.310
   32        0.501   0.507   8.316   9.324
   33        0.486   0.377   8.303   9.167
   34        0.496   0.509   8.322   9.328
   35        0.500   0.507   8.312   9.320
   36        0.499   0.507   8.319   9.325
   37        0.486   0.377   8.305   9.167
   38        0.496   0.509   8.322   9.327
   39        0.496   0.500   8.311   9.307
   40        0.498   0.504   8.319   9.322
   41        0.485   0.377   8.306   9.167
   42        0.503   0.522   8.323   9.348
   43        0.498   0.502   8.314   9.314
   44        0.497   0.502   8.315   9.314
   45        0.485   0.377   8.306   9.168
   46        0.503   0.523   8.324   9.349
   47        0.497   0.501   8.311   9.309
   48        0.497   0.502   8.315   9.314
   49        0.485   0.377   8.306   9.168
   50        0.503   0.522   8.324   9.349
   51        0.497   0.501   8.311   9.309
   52        0.504   0.508   8.329   9.341
   53        0.489   0.377   8.297   9.163
   54        0.477   0.377   8.362   9.215
   55        0.497   0.501   8.312   9.310
   56        0.499   0.507   8.319   9.325
   57        0.485   0.377   8.306   9.167
   58        0.498   0.514   8.319   9.331
   59        0.497   0.502   8.310   9.309
   60        0.503   0.506   8.329   9.339
   61        0.489   0.375   8.300   9.164
   62        0.471   0.377   8.357   9.205
   63        0.497   0.503   8.310   9.311
   64        0.498   0.504   8.318   9.320
   65        1.584   3.337   0.000   4.921
   66        1.584   3.337   0.000   4.921
   67        1.583   3.335   0.000   4.918
   68        1.579   3.346   0.000   4.925
   69        1.582   3.304   0.000   4.886
   70        1.596   3.345   0.000   4.941
   71        0.604   0.113   0.000   0.716
--------------------------------------------------
tot         41.585  49.995 532.273 623.853
 


 magnetization (x)
 
# of ion       s       p       d       tot
------------------------------------------
    1       -0.009  -0.026   0.706   0.671
    2       -0.003  -0.013   0.560   0.545
    3       -0.006  -0.025   0.772   0.741
    4       -0.006  -0.024   0.745   0.714
    5       -0.008  -0.026   0.705   0.671
    6       -0.003  -0.010   0.608   0.595
    7       -0.006  -0.025   0.756   0.725
    8       -0.006  -0.024   0.734   0.704
    9       -0.008  -0.026   0.712   0.678
   10       -0.005  -0.010   0.651   0.636
   11       -0.006  -0.027   0.769   0.737
   12       -0.006  -0.025   0.727   0.696
   13       -0.009  -0.025   0.706   0.672
   14       -0.004  -0.013   0.595   0.578
   15       -0.006  -0.026   0.743   0.711
   16       -0.007  -0.025   0.740   0.709
   17       -0.007  -0.025   0.712   0.679
   18       -0.003  -0.014   0.604   0.587
   19       -0.006  -0.025   0.733   0.702
   20       -0.006  -0.021   0.590   0.562
   21       -0.001  -0.026   0.748   0.721
   22       -0.011  -0.015   0.780   0.754
   23       -0.005  -0.025   0.748   0.717
   24       -0.006  -0.024   0.729   0.699
   25       -0.008  -0.026   0.705   0.671
   26       -0.003  -0.010   0.607   0.595
   27       -0.006  -0.025   0.756   0.725
   28       -0.006  -0.022   0.678   0.650
   29       -0.002  -0.025   0.759   0.732
   30       -0.011  -0.016   0.787   0.760
   31       -0.005  -0.025   0.734   0.704
   32       -0.006  -0.025   0.726   0.696
   33       -0.007  -0.025   0.723   0.691
   34       -0.003  -0.013   0.597   0.581
   35       -0.006  -0.025   0.777   0.747
   36       -0.006  -0.024   0.740   0.709
   37       -0.007  -0.025   0.712   0.679
   38       -0.003  -0.014   0.604   0.587
   39       -0.006  -0.025   0.733   0.702
   40       -0.006  -0.024   0.738   0.707
   41       -0.009  -0.026   0.706   0.671
   42       -0.003  -0.013   0.560   0.545
   43       -0.006  -0.025   0.772   0.741
   44       -0.006  -0.024   0.729   0.699
   45       -0.009  -0.026   0.706   0.672
   46       -0.003  -0.013   0.576   0.561
   47       -0.005  -0.025   0.742   0.712
   48       -0.006  -0.024   0.734   0.704
   49       -0.009  -0.026   0.706   0.672
   50       -0.003  -0.013   0.576   0.561
   51       -0.005  -0.025   0.742   0.712
   52       -0.006  -0.021   0.599   0.572
   53       -0.002  -0.025   0.759   0.732
   54       -0.011  -0.016   0.787   0.760
   55       -0.005  -0.025   0.734   0.704
   56       -0.006  -0.024   0.740   0.709
   57       -0.009  -0.025   0.706   0.672
   58       -0.004  -0.013   0.595   0.578
   59       -0.006  -0.026   0.743   0.711
   60       -0.006  -0.021   0.590   0.563
   61       -0.001  -0.026   0.735   0.708
   62       -0.011  -0.016   0.789   0.762
   63       -0.006  -0.025   0.741   0.710
   64       -0.006  -0.024   0.745   0.714
   65        0.002   0.117   0.000   0.119
   66        0.002   0.117   0.000   0.119
   67        0.002   0.122   0.000   0.124
   68        0.002   0.125   0.000   0.127
   69        0.012   0.158   0.000   0.170
   70        0.001   0.036   0.000   0.037
   71        0.001   0.001   0.000   0.002
--------------------------------------------------
tot         -0.350  -0.724  45.061  43.987
 
 BZINTS: Fermi energy:  0.540079;677.000000 electrons
         Band energy:***********;  BLOECHL correction: -0.042865

 total amount of memory used by VASP MPI-rank0   116835. kBytes
=======================================================================

   base      :      30000. kBytes
   nonlr-proj:      12636. kBytes
   fftplans  :       6402. kBytes
   grid      :      17692. kBytes
   one-center:         93. kBytes
   wavefun   :      50012. kBytes
 
  
  
 General timing and accounting informations for this job:
 ========================================================
  
                  Total CPU time used (sec):     1341.166
                            User time (sec):     1171.634
                          System time (sec):      169.532
                         Elapsed time (sec):     1410.930
  
                   Maximum memory used (kb):      352596.
                   Average memory used (kb):           0.
  
                          Minor page faults:     20340436
                          Major page faults:            0
                 Voluntary context switches:         5233
