  68  68   1   0
  0.2670197E+02  0.9967380E-09  0.9967380E-09  0.2110375E-08  0.1500000E-16
  1.000000000000000E-004
  CAR 
 SQS-NiFe                                
      7.37551074    -20.75621147  301      0.44763692      1.00000000
    -20.756  0.0000E+00  0.0000E+00
    -20.662  0.0000E+00  0.0000E+00
    -20.569  0.0000E+00  0.0000E+00
    -20.475  0.0000E+00  0.0000E+00
    -20.381  0.0000E+00  0.0000E+00
    -20.287  0.0000E+00  0.0000E+00
    -20.194  0.0000E+00  0.0000E+00
    -20.100  0.0000E+00  0.0000E+00
    -20.006  0.0000E+00  0.0000E+00
    -19.912  0.4164E-17  0.3905E-18
    -19.818  0.7412E-15  0.6989E-16
    -19.725  0.9532E-13  0.9008E-14
    -19.631  0.7988E-11  0.7580E-12
    -19.537  0.4376E-09  0.4179E-10
    -19.443  0.1573E-07  0.1517E-08
    -19.350  0.3730E-06  0.3650E-07
    -19.256  0.5872E-05  0.5871E-06
    -19.162  0.6179E-04  0.6382E-05
    -19.068  0.4381E-03  0.4746E-04
    -18.975  0.2107E-02  0.2450E-03
    -18.881  0.6901E-02  0.8921E-03
    -18.787  0.1542E-01  0.2338E-02
    -18.693  0.2345E-01  0.4537E-02
    -18.599  0.2416E-01  0.6803E-02
    -18.506  0.1675E-01  0.8374E-02
    -18.412  0.7766E-02  0.9102E-02
    -18.318  0.2393E-02  0.9326E-02
    -18.224  0.4877E-03  0.9372E-02
    -18.131  0.6546E-04  0.9378E-02
    -18.037  0.5765E-05  0.9379E-02
    -17.943  0.3323E-06  0.9379E-02
    -17.849  0.1251E-07  0.9379E-02
    -17.755  0.3068E-09  0.9379E-02
    -17.662  0.4898E-11  0.9379E-02
    -17.568  0.5083E-13  0.9379E-02
    -17.474  0.3414E-15  0.9379E-02
    -17.380  0.0000E+00  0.9379E-02
    -17.287  0.0000E+00  0.9379E-02
    -17.193  0.0000E+00  0.9379E-02
    -17.099  0.0000E+00  0.9379E-02
    -17.005  0.0000E+00  0.9379E-02
    -16.912  0.0000E+00  0.9379E-02
    -16.818  0.0000E+00  0.9379E-02
    -16.724  0.0000E+00  0.9379E-02
    -16.630  0.0000E+00  0.9379E-02
    -16.536  0.0000E+00  0.9379E-02
    -16.443  0.0000E+00  0.9379E-02
    -16.349  0.0000E+00  0.9379E-02
    -16.255  0.0000E+00  0.9379E-02
    -16.161  0.0000E+00  0.9379E-02
    -16.068  0.0000E+00  0.9379E-02
    -15.974  0.0000E+00  0.9379E-02
    -15.880  0.0000E+00  0.9379E-02
    -15.786  0.0000E+00  0.9379E-02
    -15.693  0.0000E+00  0.9379E-02
    -15.599  0.0000E+00  0.9379E-02
    -15.505  0.0000E+00  0.9379E-02
    -15.411  0.0000E+00  0.9379E-02
    -15.317  0.0000E+00  0.9379E-02
    -15.224  0.0000E+00  0.9379E-02
    -15.130  0.0000E+00  0.9379E-02
    -15.036  0.0000E+00  0.9379E-02
    -14.942  0.0000E+00  0.9379E-02
    -14.849  0.0000E+00  0.9379E-02
    -14.755  0.0000E+00  0.9379E-02
    -14.661  0.0000E+00  0.9379E-02
    -14.567  0.0000E+00  0.9379E-02
    -14.473  0.0000E+00  0.9379E-02
    -14.380  0.0000E+00  0.9379E-02
    -14.286  0.0000E+00  0.9379E-02
    -14.192  0.0000E+00  0.9379E-02
    -14.098  0.0000E+00  0.9379E-02
    -14.005  0.0000E+00  0.9379E-02
    -13.911  0.0000E+00  0.9379E-02
    -13.817  0.0000E+00  0.9379E-02
    -13.723  0.0000E+00  0.9379E-02
    -13.630  0.0000E+00  0.9379E-02
    -13.536  0.0000E+00  0.9379E-02
    -13.442  0.0000E+00  0.9379E-02
    -13.348  0.0000E+00  0.9379E-02
    -13.254  0.0000E+00  0.9379E-02
    -13.161  0.0000E+00  0.9379E-02
    -13.067  0.0000E+00  0.9379E-02
    -12.973  0.0000E+00  0.9379E-02
    -12.879  0.0000E+00  0.9379E-02
    -12.786  0.0000E+00  0.9379E-02
    -12.692  0.0000E+00  0.9379E-02
    -12.598  0.0000E+00  0.9379E-02
    -12.504  0.0000E+00  0.9379E-02
    -12.410  0.0000E+00  0.9379E-02
    -12.317  0.0000E+00  0.9379E-02
    -12.223  0.0000E+00  0.9379E-02
    -12.129  0.0000E+00  0.9379E-02
    -12.035  0.0000E+00  0.9379E-02
    -11.942  0.0000E+00  0.9379E-02
    -11.848  0.0000E+00  0.9379E-02
    -11.754  0.0000E+00  0.9379E-02
    -11.660  0.0000E+00  0.9379E-02
    -11.567  0.0000E+00  0.9379E-02
    -11.473  0.0000E+00  0.9379E-02
    -11.379  0.0000E+00  0.9379E-02
    -11.285  0.0000E+00  0.9379E-02
    -11.191  0.0000E+00  0.9379E-02
    -11.098  0.0000E+00  0.9379E-02
    -11.004  0.0000E+00  0.9379E-02
    -10.910  0.0000E+00  0.9379E-02
    -10.816  0.0000E+00  0.9379E-02
    -10.723  0.0000E+00  0.9379E-02
    -10.629  0.0000E+00  0.9379E-02
    -10.535  0.0000E+00  0.9379E-02
    -10.441  0.0000E+00  0.9379E-02
    -10.347  0.0000E+00  0.9379E-02
    -10.254  0.0000E+00  0.9379E-02
    -10.160  0.0000E+00  0.9379E-02
    -10.066  0.0000E+00  0.9379E-02
     -9.972  0.0000E+00  0.9379E-02
     -9.879  0.0000E+00  0.9379E-02
     -9.785  0.0000E+00  0.9379E-02
     -9.691  0.0000E+00  0.9379E-02
     -9.597  0.0000E+00  0.9379E-02
     -9.504  0.0000E+00  0.9379E-02
     -9.410  0.0000E+00  0.9379E-02
     -9.316  0.0000E+00  0.9379E-02
     -9.222  0.1388E-17  0.9379E-02
     -9.128  0.1943E-15  0.9379E-02
     -9.035  0.2770E-13  0.9379E-02
     -8.941  0.2558E-11  0.9379E-02
     -8.847  0.1534E-09  0.9379E-02
     -8.753  0.5976E-08  0.9379E-02
     -8.660  0.1514E-06  0.9379E-02
     -8.566  0.2497E-05  0.9379E-02
     -8.472  0.2684E-04  0.9381E-02
     -8.378  0.1883E-03  0.9399E-02
     -8.284  0.8625E-03  0.9480E-02
     -8.191  0.2583E-02  0.9722E-02
     -8.097  0.5059E-02  0.1020E-01
     -8.003  0.6485E-02  0.1080E-01
     -7.909  0.5441E-02  0.1131E-01
     -7.816  0.2988E-02  0.1160E-01
     -7.722  0.1073E-02  0.1170E-01
     -7.628  0.2521E-03  0.1172E-01
     -7.534  0.3867E-04  0.1172E-01
     -7.441  0.3872E-05  0.1172E-01
     -7.347  0.2566E-06  0.1172E-01
     -7.253  0.1149E-06  0.1172E-01
     -7.159  0.1812E-05  0.1172E-01
     -7.065  0.2052E-04  0.1173E-01
     -6.972  0.1517E-03  0.1174E-01
     -6.878  0.7324E-03  0.1181E-01
     -6.784  0.2314E-02  0.1203E-01
     -6.690  0.4820E-02  0.1248E-01
     -6.597  0.6854E-02  0.1312E-01
     -6.503  0.7841E-02  0.1386E-01
     -6.409  0.1072E-01  0.1486E-01
     -6.315  0.1881E-01  0.1662E-01
     -6.221  0.2941E-01  0.1938E-01
     -6.128  0.3461E-01  0.2263E-01
     -6.034  0.2968E-01  0.2541E-01
     -5.940  0.1831E-01  0.2713E-01
     -5.846  0.8184E-02  0.2790E-01
     -5.753  0.3862E-02  0.2826E-01
     -5.659  0.5841E-02  0.2881E-01
     -5.565  0.1265E-01  0.2999E-01
     -5.471  0.2024E-01  0.3189E-01
     -5.378  0.2495E-01  0.3423E-01
     -5.284  0.3018E-01  0.3706E-01
     -5.190  0.4112E-01  0.4092E-01
     -5.096  0.5225E-01  0.4582E-01
     -5.002  0.5123E-01  0.5062E-01
     -4.909  0.3628E-01  0.5402E-01
     -4.815  0.1996E-01  0.5589E-01
     -4.721  0.1477E-01  0.5728E-01
     -4.627  0.2242E-01  0.5938E-01
     -4.534  0.3455E-01  0.6262E-01
     -4.440  0.3996E-01  0.6637E-01
     -4.346  0.3412E-01  0.6957E-01
     -4.252  0.2231E-01  0.7166E-01
     -4.158  0.1335E-01  0.7291E-01
     -4.065  0.1185E-01  0.7402E-01
     -3.971  0.1748E-01  0.7566E-01
     -3.877  0.2872E-01  0.7835E-01
     -3.783  0.4269E-01  0.8236E-01
     -3.690  0.5567E-01  0.8758E-01
     -3.596  0.6668E-01  0.9383E-01
     -3.502  0.7513E-01  0.1009E+00
     -3.408  0.8106E-01  0.1085E+00
     -3.315  0.9188E-01  0.1171E+00
     -3.221  0.1132E+00  0.1277E+00
     -3.127  0.1346E+00  0.1403E+00
     -3.033  0.1402E+00  0.1535E+00
     -2.939  0.1249E+00  0.1652E+00
     -2.846  0.1007E+00  0.1746E+00
     -2.752  0.9181E-01  0.1832E+00
     -2.658  0.1086E+00  0.1934E+00
     -2.564  0.1296E+00  0.2056E+00
     -2.471  0.1302E+00  0.2178E+00
     -2.377  0.1181E+00  0.2289E+00
     -2.283  0.1192E+00  0.2400E+00
     -2.189  0.1379E+00  0.2530E+00
     -2.096  0.1540E+00  0.2674E+00
     -2.002  0.1561E+00  0.2821E+00
     -1.908  0.1548E+00  0.2966E+00
     -1.814  0.1578E+00  0.3114E+00
     -1.720  0.1609E+00  0.3265E+00
     -1.627  0.1656E+00  0.3420E+00
     -1.533  0.1818E+00  0.3590E+00
     -1.439  0.2116E+00  0.3789E+00
     -1.345  0.2415E+00  0.4015E+00
     -1.252  0.2566E+00  0.4256E+00
     -1.158  0.2520E+00  0.4492E+00
     -1.064  0.2263E+00  0.4704E+00
     -0.970  0.1877E+00  0.4880E+00
     -0.876  0.1614E+00  0.5032E+00
     -0.783  0.1649E+00  0.5186E+00
     -0.689  0.1903E+00  0.5365E+00
     -0.595  0.2155E+00  0.5567E+00
     -0.501  0.2269E+00  0.5780E+00
     -0.408  0.2314E+00  0.5997E+00
     -0.314  0.2377E+00  0.6220E+00
     -0.220  0.2364E+00  0.6441E+00
     -0.126  0.2164E+00  0.6644E+00
     -0.033  0.1855E+00  0.6818E+00
      0.061  0.1640E+00  0.6972E+00
      0.155  0.1667E+00  0.7128E+00
      0.249  0.1942E+00  0.7310E+00
      0.343  0.2308E+00  0.7527E+00
      0.436  0.2460E+00  0.7757E+00
      0.530  0.2182E+00  0.7962E+00
      0.624  0.1574E+00  0.8110E+00
      0.718  0.9219E-01  0.8196E+00
      0.811  0.4483E-01  0.8238E+00
      0.905  0.2253E-01  0.8259E+00
      0.999  0.1911E-01  0.8277E+00
      1.093  0.2135E-01  0.8297E+00
      1.187  0.2113E-01  0.8317E+00
      1.280  0.2185E-01  0.8337E+00
      1.374  0.2880E-01  0.8365E+00
      1.468  0.3753E-01  0.8400E+00
      1.562  0.3856E-01  0.8436E+00
      1.655  0.3163E-01  0.8466E+00
      1.749  0.2675E-01  0.8491E+00
      1.843  0.3056E-01  0.8519E+00
      1.937  0.3752E-01  0.8554E+00
      2.030  0.3659E-01  0.8589E+00
      2.124  0.2543E-01  0.8613E+00
      2.218  0.1285E-01  0.8625E+00
      2.312  0.8012E-02  0.8632E+00
      2.406  0.1502E-01  0.8646E+00
      2.499  0.3258E-01  0.8677E+00
      2.593  0.4986E-01  0.8724E+00
      2.687  0.5224E-01  0.8773E+00
      2.781  0.3930E-01  0.8809E+00
      2.874  0.2580E-01  0.8834E+00
      2.968  0.2500E-01  0.8857E+00
      3.062  0.3925E-01  0.8894E+00
      3.156  0.5848E-01  0.8949E+00
      3.250  0.6529E-01  0.9010E+00
      3.343  0.5157E-01  0.9058E+00
      3.437  0.2814E-01  0.9085E+00
      3.531  0.1043E-01  0.9094E+00
      3.625  0.2598E-02  0.9097E+00
      3.718  0.4496E-03  0.9097E+00
      3.812  0.2286E-03  0.9097E+00
      3.906  0.1125E-02  0.9099E+00
      4.000  0.4635E-02  0.9103E+00
      4.093  0.1299E-01  0.9115E+00
      4.187  0.2515E-01  0.9139E+00
      4.281  0.3425E-01  0.9171E+00
      4.375  0.3326E-01  0.9202E+00
      4.469  0.2345E-01  0.9224E+00
      4.562  0.1394E-01  0.9237E+00
      4.656  0.1285E-01  0.9249E+00
      4.750  0.1981E-01  0.9268E+00
      4.844  0.2583E-01  0.9292E+00
      4.937  0.2283E-01  0.9313E+00
      5.031  0.1341E-01  0.9326E+00
      5.125  0.5806E-02  0.9331E+00
      5.219  0.3643E-02  0.9335E+00
      5.313  0.5059E-02  0.9339E+00
      5.406  0.6476E-02  0.9346E+00
      5.500  0.5618E-02  0.9351E+00
      5.594  0.3198E-02  0.9354E+00
      5.688  0.1192E-02  0.9355E+00
      5.781  0.2903E-03  0.9355E+00
      5.875  0.4619E-04  0.9355E+00
      5.969  0.4797E-05  0.9355E+00
      6.063  0.3248E-06  0.9355E+00
      6.156  0.1432E-07  0.9355E+00
      6.250  0.4108E-09  0.9355E+00
      6.344  0.7657E-11  0.9355E+00
      6.438  0.9266E-13  0.9355E+00
      6.532  0.7273E-15  0.9355E+00
      6.625  0.5552E-17  0.9355E+00
      6.719  0.0000E+00  0.9355E+00
      6.813  0.0000E+00  0.9355E+00
      6.907  0.0000E+00  0.9355E+00
      7.000  0.0000E+00  0.9355E+00
      7.094  0.0000E+00  0.9355E+00
      7.188  0.0000E+00  0.9355E+00
      7.282  0.0000E+00  0.9355E+00
      7.376  0.0000E+00  0.9355E+00
      7.37551074    -20.75621147  301      0.44763692      1.00000000
    -20.756  0.0000E+00  0.0000E+00  0.0000E+00
    -20.662  0.0000E+00  0.0000E+00  0.0000E+00
    -20.569  0.0000E+00  0.0000E+00  0.0000E+00
    -20.475  0.0000E+00  0.0000E+00  0.0000E+00
    -20.381  0.0000E+00  0.0000E+00  0.0000E+00
    -20.287  0.0000E+00  0.0000E+00  0.0000E+00
    -20.194  0.0000E+00  0.0000E+00  0.0000E+00
    -20.100  0.0000E+00  0.0000E+00  0.0000E+00
    -20.006  0.0000E+00  0.0000E+00  0.0000E+00
    -19.912  0.8903E-25  0.4306E-25  0.9095E-26
    -19.818  0.1583E-22  0.7654E-23  0.1629E-23
    -19.725  0.2033E-20  0.9830E-21  0.2101E-21
    -19.631  0.1702E-18  0.8227E-19  0.1769E-19
    -19.537  0.9306E-17  0.4498E-17  0.9758E-18
    -19.443  0.3338E-15  0.1613E-15  0.3543E-16
    -19.350  0.7890E-14  0.3810E-14  0.8521E-15
    -19.256  0.1236E-12  0.5968E-13  0.1367E-13
    -19.162  0.1294E-11  0.6240E-12  0.1474E-12
    -19.068  0.9111E-11  0.4389E-11  0.1077E-11
    -18.975  0.4347E-10  0.2092E-10  0.5355E-11
    -18.881  0.1412E-09  0.6787E-10  0.1817E-10
    -18.787  0.3129E-09  0.1502E-09  0.4200E-10
    -18.693  0.4722E-09  0.2265E-09  0.6586E-10
    -18.599  0.4832E-09  0.2316E-09  0.6962E-10
    -18.506  0.3332E-09  0.1596E-09  0.4929E-10
    -18.412  0.1538E-09  0.7366E-10  0.2323E-10
    -18.318  0.4721E-10  0.2262E-10  0.7254E-11
    -18.224  0.9590E-11  0.4595E-11  0.1493E-11
    -18.131  0.1283E-11  0.6150E-12  0.2020E-12
    -18.037  0.1127E-12  0.5404E-13  0.1791E-13
    -17.943  0.6482E-14  0.3108E-14  0.1038E-14
    -17.849  0.2433E-15  0.1167E-15  0.3927E-16
    -17.755  0.5954E-17  0.2858E-17  0.9675E-18
    -17.662  0.9479E-19  0.4552E-19  0.1551E-19
    -17.568  0.9809E-21  0.4713E-21  0.1615E-21
    -17.474  0.6546E-23  0.3148E-23  0.1090E-23
    -17.380  0.0000E+00  0.0000E+00  0.0000E+00
    -17.287  0.0000E+00  0.0000E+00  0.0000E+00
    -17.193  0.0000E+00  0.0000E+00  0.0000E+00
    -17.099  0.0000E+00  0.0000E+00  0.0000E+00
    -17.005  0.0000E+00  0.0000E+00  0.0000E+00
    -16.912  0.0000E+00  0.0000E+00  0.0000E+00
    -16.818  0.0000E+00  0.0000E+00  0.0000E+00
    -16.724  0.0000E+00  0.0000E+00  0.0000E+00
    -16.630  0.0000E+00  0.0000E+00  0.0000E+00
    -16.536  0.0000E+00  0.0000E+00  0.0000E+00
    -16.443  0.0000E+00  0.0000E+00  0.0000E+00
    -16.349  0.0000E+00  0.0000E+00  0.0000E+00
    -16.255  0.0000E+00  0.0000E+00  0.0000E+00
    -16.161  0.0000E+00  0.0000E+00  0.0000E+00
    -16.068  0.0000E+00  0.0000E+00  0.0000E+00
    -15.974  0.0000E+00  0.0000E+00  0.0000E+00
    -15.880  0.0000E+00  0.0000E+00  0.0000E+00
    -15.786  0.0000E+00  0.0000E+00  0.0000E+00
    -15.693  0.0000E+00  0.0000E+00  0.0000E+00
    -15.599  0.0000E+00  0.0000E+00  0.0000E+00
    -15.505  0.0000E+00  0.0000E+00  0.0000E+00
    -15.411  0.0000E+00  0.0000E+00  0.0000E+00
    -15.317  0.0000E+00  0.0000E+00  0.0000E+00
    -15.224  0.0000E+00  0.0000E+00  0.0000E+00
    -15.130  0.0000E+00  0.0000E+00  0.0000E+00
    -15.036  0.0000E+00  0.0000E+00  0.0000E+00
    -14.942  0.0000E+00  0.0000E+00  0.0000E+00
    -14.849  0.0000E+00  0.0000E+00  0.0000E+00
    -14.755  0.0000E+00  0.0000E+00  0.0000E+00
    -14.661  0.0000E+00  0.0000E+00  0.0000E+00
    -14.567  0.0000E+00  0.0000E+00  0.0000E+00
    -14.473  0.0000E+00  0.0000E+00  0.0000E+00
    -14.380  0.0000E+00  0.0000E+00  0.0000E+00
    -14.286  0.0000E+00  0.0000E+00  0.0000E+00
    -14.192  0.0000E+00  0.0000E+00  0.0000E+00
    -14.098  0.0000E+00  0.0000E+00  0.0000E+00
    -14.005  0.0000E+00  0.0000E+00  0.0000E+00
    -13.911  0.0000E+00  0.0000E+00  0.0000E+00
    -13.817  0.0000E+00  0.0000E+00  0.0000E+00
    -13.723  0.0000E+00  0.0000E+00  0.0000E+00
    -13.630  0.0000E+00  0.0000E+00  0.0000E+00
    -13.536  0.0000E+00  0.0000E+00  0.0000E+00
    -13.442  0.0000E+00  0.0000E+00  0.0000E+00
    -13.348  0.0000E+00  0.0000E+00  0.0000E+00
    -13.254  0.0000E+00  0.0000E+00  0.0000E+00
    -13.161  0.0000E+00  0.0000E+00  0.0000E+00
    -13.067  0.0000E+00  0.0000E+00  0.0000E+00
    -12.973  0.0000E+00  0.0000E+00  0.0000E+00
    -12.879  0.0000E+00  0.0000E+00  0.0000E+00
    -12.786  0.0000E+00  0.0000E+00  0.0000E+00
    -12.692  0.0000E+00  0.0000E+00  0.0000E+00
    -12.598  0.0000E+00  0.0000E+00  0.0000E+00
    -12.504  0.0000E+00  0.0000E+00  0.0000E+00
    -12.410  0.0000E+00  0.0000E+00  0.0000E+00
    -12.317  0.0000E+00  0.0000E+00  0.0000E+00
    -12.223  0.0000E+00  0.0000E+00  0.0000E+00
    -12.129  0.0000E+00  0.0000E+00  0.0000E+00
    -12.035  0.0000E+00  0.0000E+00  0.0000E+00
    -11.942  0.0000E+00  0.0000E+00  0.0000E+00
    -11.848  0.0000E+00  0.0000E+00  0.0000E+00
    -11.754  0.0000E+00  0.0000E+00  0.0000E+00
    -11.660  0.0000E+00  0.0000E+00  0.0000E+00
    -11.567  0.0000E+00  0.0000E+00  0.0000E+00
    -11.473  0.0000E+00  0.0000E+00  0.0000E+00
    -11.379  0.0000E+00  0.0000E+00  0.0000E+00
    -11.285  0.0000E+00  0.0000E+00  0.0000E+00
    -11.191  0.0000E+00  0.0000E+00  0.0000E+00
    -11.098  0.0000E+00  0.0000E+00  0.0000E+00
    -11.004  0.0000E+00  0.0000E+00  0.0000E+00
    -10.910  0.0000E+00  0.0000E+00  0.0000E+00
    -10.816  0.0000E+00  0.0000E+00  0.0000E+00
    -10.723  0.0000E+00  0.0000E+00  0.0000E+00
    -10.629  0.0000E+00  0.0000E+00  0.0000E+00
    -10.535  0.0000E+00  0.0000E+00  0.0000E+00
    -10.441  0.0000E+00  0.0000E+00  0.0000E+00
    -10.347  0.0000E+00  0.0000E+00  0.0000E+00
    -10.254  0.0000E+00  0.0000E+00  0.0000E+00
    -10.160  0.0000E+00  0.0000E+00  0.0000E+00
    -10.066  0.0000E+00  0.0000E+00  0.0000E+00
     -9.972  0.0000E+00  0.0000E+00  0.0000E+00
     -9.879  0.0000E+00  0.0000E+00  0.0000E+00
     -9.785  0.0000E+00  0.0000E+00  0.0000E+00
     -9.691  0.0000E+00  0.0000E+00  0.0000E+00
     -9.597  0.0000E+00  0.0000E+00  0.0000E+00
     -9.504  0.0000E+00  0.0000E+00  0.0000E+00
     -9.410  0.0000E+00  0.0000E+00  0.0000E+00
     -9.316  0.0000E+00  0.0000E+00  0.0000E+00
     -9.222  0.5348E-17  0.6891E-18  0.1015E-20
     -9.128  0.7488E-15  0.9647E-16  0.1420E-18
     -9.035  0.1067E-12  0.1375E-13  0.2024E-16
     -8.941  0.9858E-11  0.1270E-11  0.1870E-14
     -8.847  0.5911E-09  0.7616E-10  0.1121E-12
     -8.753  0.2303E-07  0.2967E-08  0.4368E-11
     -8.660  0.5834E-06  0.7516E-07  0.1107E-09
     -8.566  0.9622E-05  0.1240E-05  0.1825E-08
     -8.472  0.1034E-03  0.1333E-04  0.1962E-07
     -8.378  0.7255E-03  0.9348E-04  0.1376E-06
     -8.284  0.3323E-02  0.4282E-03  0.6304E-06
     -8.191  0.9952E-02  0.1282E-02  0.1888E-05
     -8.097  0.1949E-01  0.2512E-02  0.3698E-05
     -8.003  0.2499E-01  0.3220E-02  0.4740E-05
     -7.909  0.2097E-01  0.2701E-02  0.3977E-05
     -7.816  0.1151E-01  0.1483E-02  0.2184E-05
     -7.722  0.4136E-02  0.5329E-03  0.7845E-06
     -7.628  0.9714E-03  0.1252E-03  0.1843E-06
     -7.534  0.1490E-03  0.1920E-04  0.2827E-07
     -7.441  0.1492E-04  0.1922E-05  0.2860E-08
     -7.347  0.1015E-05  0.1274E-06  0.1430E-08
     -7.253  0.1145E-05  0.5708E-07  0.3326E-07
     -7.159  0.1918E-04  0.8998E-06  0.5782E-06
     -7.065  0.2173E-03  0.1019E-04  0.6550E-05
     -6.972  0.1606E-02  0.7533E-04  0.4841E-04
     -6.878  0.7752E-02  0.3637E-03  0.2337E-03
     -6.784  0.2446E-01  0.1149E-02  0.7382E-03
     -6.690  0.5054E-01  0.2397E-02  0.1534E-02
     -6.597  0.6875E-01  0.3433E-02  0.2160E-02
     -6.503  0.6346E-01  0.4072E-02  0.2380E-02
     -6.409  0.4642E-01  0.6121E-02  0.3105E-02
     -6.315  0.4219E-01  0.1191E-01  0.5646E-02
     -6.221  0.5534E-01  0.2050E-01  0.9708E-02
     -6.128  0.6830E-01  0.2655E-01  0.1273E-01
     -6.034  0.6352E-01  0.2483E-01  0.1204E-01
     -5.940  0.4197E-01  0.1638E-01  0.8005E-02
     -5.846  0.2017E-01  0.7756E-02  0.3799E-02
     -5.753  0.1232E-01  0.4244E-02  0.2063E-02
     -5.659  0.2396E-01  0.7474E-02  0.3641E-02
     -5.565  0.5260E-01  0.1624E-01  0.8131E-02
     -5.471  0.8179E-01  0.2465E-01  0.1317E-01
     -5.378  0.9334E-01  0.2572E-01  0.1606E-01
     -5.284  0.9401E-01  0.2179E-01  0.1761E-01
     -5.190  0.1017E+00  0.2191E-01  0.1993E-01
     -5.096  0.1096E+00  0.2661E-01  0.2116E-01
     -5.002  0.9645E-01  0.2676E-01  0.1793E-01
     -4.909  0.6340E-01  0.1903E-01  0.1168E-01
     -4.815  0.3838E-01  0.1154E-01  0.8714E-02
     -4.721  0.4815E-01  0.1333E-01  0.1531E-01
     -4.627  0.9890E-01  0.2594E-01  0.3250E-01
     -4.534  0.1691E+00  0.4170E-01  0.5167E-01
     -4.440  0.2156E+00  0.4867E-01  0.5921E-01
     -4.346  0.2035E+00  0.4153E-01  0.5035E-01
     -4.252  0.1400E+00  0.2613E-01  0.3431E-01
     -4.158  0.7053E-01  0.1251E-01  0.2486E-01
     -4.065  0.3046E-01  0.5881E-02  0.2855E-01
     -3.971  0.1849E-01  0.5452E-02  0.4543E-01
     -3.877  0.1917E-01  0.9687E-02  0.7677E-01
     -3.783  0.2503E-01  0.1882E-01  0.1197E+00
     -3.690  0.3970E-01  0.3340E-01  0.1618E+00
     -3.596  0.7117E-01  0.5167E-01  0.1960E+00
     -3.502  0.1190E+00  0.6726E-01  0.2370E+00
     -3.408  0.1723E+00  0.7509E-01  0.3299E+00
     -3.315  0.2183E+00  0.8077E-01  0.5347E+00
     -3.221  0.2434E+00  0.9237E-01  0.8307E+00
     -3.127  0.2367E+00  0.1051E+00  0.1042E+01
     -3.033  0.1982E+00  0.1062E+00  0.9957E+00
     -2.939  0.1392E+00  0.8974E-01  0.7495E+00
     -2.846  0.7995E-01  0.6376E-01  0.5299E+00
     -2.752  0.4094E-01  0.4561E-01  0.4946E+00
     -2.658  0.2695E-01  0.4314E-01  0.6233E+00
     -2.564  0.2546E-01  0.4646E-01  0.7683E+00
     -2.471  0.2289E-01  0.4545E-01  0.8239E+00
     -2.377  0.1764E-01  0.4614E-01  0.8824E+00
     -2.283  0.1563E-01  0.5879E-01  0.1116E+01
     -2.189  0.1824E-01  0.7631E-01  0.1469E+01
     -2.096  0.2040E-01  0.8120E-01  0.1689E+01
     -2.002  0.1945E-01  0.7253E-01  0.1709E+01
     -1.908  0.1882E-01  0.6412E-01  0.1685E+01
     -1.814  0.2070E-01  0.5964E-01  0.1643E+01
     -1.720  0.2334E-01  0.5523E-01  0.1531E+01
     -1.627  0.2994E-01  0.6216E-01  0.1542E+01
     -1.533  0.5166E-01  0.1033E+00  0.1994E+01
     -1.439  0.9181E-01  0.1790E+00  0.2903E+01
     -1.345  0.1285E+00  0.2418E+00  0.3864E+01
     -1.252  0.1321E+00  0.2370E+00  0.4453E+01
     -1.158  0.1025E+00  0.1728E+00  0.4546E+01
     -1.064  0.6556E-01  0.1032E+00  0.4054E+01
     -0.970  0.3921E-01  0.5806E-01  0.3024E+01
     -0.876  0.2433E-01  0.3448E-01  0.1987E+01
     -0.783  0.1609E-01  0.2363E-01  0.1485E+01
     -0.689  0.1099E-01  0.2006E-01  0.1538E+01
     -0.595  0.8293E-02  0.1976E-01  0.1888E+01
     -0.501  0.8378E-02  0.1939E-01  0.2422E+01
     -0.408  0.1149E-01  0.1837E-01  0.3160E+01
     -0.314  0.1749E-01  0.1874E-01  0.3873E+01
     -0.220  0.2453E-01  0.2202E-01  0.4068E+01
     -0.126  0.2851E-01  0.2871E-01  0.3606E+01
     -0.033  0.2616E-01  0.3985E-01  0.2938E+01
      0.061  0.1995E-01  0.5576E-01  0.2546E+01
      0.155  0.1589E-01  0.7245E-01  0.2533E+01
      0.249  0.1603E-01  0.8226E-01  0.2797E+01
      0.343  0.1767E-01  0.8027E-01  0.3158E+01
      0.436  0.1888E-01  0.6881E-01  0.3291E+01
      0.530  0.2029E-01  0.5365E-01  0.2905E+01
      0.624  0.2150E-01  0.3848E-01  0.2053E+01
      0.718  0.2020E-01  0.2515E-01  0.1119E+01
      0.811  0.1812E-01  0.1605E-01  0.4697E+00
      0.905  0.2254E-01  0.1447E-01  0.1860E+00
      0.999  0.3481E-01  0.2036E-01  0.1307E+00
      1.093  0.4294E-01  0.2853E-01  0.1378E+00
      1.187  0.3640E-01  0.3806E-01  0.1239E+00
      1.280  0.2204E-01  0.5713E-01  0.1040E+00
      1.374  0.1303E-01  0.8761E-01  0.1178E+00
      1.468  0.1155E-01  0.1136E+00  0.1509E+00
      1.562  0.1157E-01  0.1185E+00  0.1553E+00
      1.655  0.1108E-01  0.1049E+00  0.1302E+00
      1.749  0.1531E-01  0.8607E-01  0.1328E+00
      1.843  0.2780E-01  0.7274E-01  0.1950E+00
      1.937  0.4147E-01  0.6798E-01  0.2656E+00
      2.030  0.4351E-01  0.6173E-01  0.2634E+00
      2.124  0.3149E-01  0.4457E-01  0.1817E+00
      2.218  0.1734E-01  0.2540E-01  0.9289E-01
      2.312  0.1533E-01  0.2447E-01  0.6789E-01
      2.406  0.3380E-01  0.6229E-01  0.1387E+00
      2.499  0.6803E-01  0.1457E+00  0.2844E+00
      2.593  0.9254E-01  0.2365E+00  0.3986E+00
      2.687  0.8302E-01  0.2675E+00  0.3699E+00
      2.781  0.4969E-01  0.2228E+00  0.2324E+00
      2.874  0.2294E-01  0.1591E+00  0.1222E+00
      2.968  0.1853E-01  0.1457E+00  0.1182E+00
      3.062  0.3410E-01  0.2163E+00  0.1985E+00
      3.156  0.5727E-01  0.3307E+00  0.2818E+00
      3.250  0.6863E-01  0.3809E+00  0.2875E+00
      3.343  0.5679E-01  0.3049E+00  0.2071E+00
      3.437  0.3198E-01  0.1658E+00  0.1043E+00
      3.531  0.1213E-01  0.6071E-01  0.3624E-01
      3.625  0.3075E-02  0.1487E-01  0.8587E-02
      3.718  0.5747E-03  0.2500E-02  0.1468E-02
      3.812  0.5928E-03  0.9875E-03  0.1063E-02
      3.906  0.3215E-02  0.4546E-02  0.5640E-02
      4.000  0.1263E-01  0.1898E-01  0.2297E-01
      4.093  0.3270E-01  0.5435E-01  0.6306E-01
      4.187  0.5606E-01  0.1083E+00  0.1184E+00
      4.281  0.6419E-01  0.1524E+00  0.1549E+00
      4.375  0.4971E-01  0.1525E+00  0.1437E+00
      4.469  0.2649E-01  0.1087E+00  0.9611E-01
      4.562  0.9921E-02  0.5850E-01  0.5041E-01
      4.656  0.2720E-02  0.3565E-01  0.3339E-01
      4.750  0.6906E-03  0.4070E-01  0.4194E-01
      4.844  0.3268E-03  0.4964E-01  0.5228E-01
      4.937  0.2406E-03  0.4303E-01  0.4545E-01
      5.031  0.1825E-03  0.2540E-01  0.2649E-01
      5.125  0.2960E-03  0.1339E-01  0.1222E-01
      5.219  0.7801E-03  0.1536E-01  0.1012E-01
      5.313  0.1562E-02  0.2700E-01  0.1609E-01
      5.406  0.2075E-02  0.3546E-01  0.2093E-01
      5.500  0.1805E-02  0.3082E-01  0.1818E-01
      5.594  0.1028E-02  0.1755E-01  0.1035E-01
      5.688  0.3830E-03  0.6540E-02  0.3856E-02
      5.781  0.9329E-04  0.1593E-02  0.9394E-03
      5.875  0.1485E-04  0.2535E-03  0.1495E-03
      5.969  0.1542E-05  0.2633E-04  0.1552E-04
      6.063  0.1044E-06  0.1782E-05  0.1051E-05
      6.156  0.4602E-08  0.7859E-07  0.4635E-07
      6.250  0.1320E-09  0.2254E-08  0.1329E-08
      6.344  0.2461E-11  0.4202E-10  0.2478E-10
      6.438  0.2978E-13  0.5085E-12  0.2999E-12
      6.532  0.2337E-15  0.3991E-14  0.2354E-14
      6.625  0.1784E-17  0.3047E-16  0.1797E-16
      6.719  0.0000E+00  0.0000E+00  0.0000E+00
      6.813  0.0000E+00  0.0000E+00  0.0000E+00
      6.907  0.0000E+00  0.0000E+00  0.0000E+00
      7.000  0.0000E+00  0.0000E+00  0.0000E+00
      7.094  0.0000E+00  0.0000E+00  0.0000E+00
      7.188  0.0000E+00  0.0000E+00  0.0000E+00
      7.282  0.0000E+00  0.0000E+00  0.0000E+00
      7.376  0.0000E+00  0.0000E+00  0.0000E+00
      7.37551074    -20.75621147  301      0.44763692      1.00000000
    -20.756  0.0000E+00  0.0000E+00  0.0000E+00
    -20.662  0.0000E+00  0.0000E+00  0.0000E+00
    -20.569  0.0000E+00  0.0000E+00  0.0000E+00
    -20.475  0.0000E+00  0.0000E+00  0.0000E+00
    -20.381  0.0000E+00  0.0000E+00  0.0000E+00
    -20.287  0.0000E+00  0.0000E+00  0.0000E+00
    -20.194  0.0000E+00  0.0000E+00  0.0000E+00
    -20.100  0.0000E+00  0.0000E+00  0.0000E+00
    -20.006  0.0000E+00  0.0000E+00  0.0000E+00
    -19.912  0.2063E-18  0.7137E-19  0.1522E-18
    -19.818  0.8249E-16  0.7033E-16  0.7631E-16
    -19.725  0.1382E-13  0.1314E-13  0.1328E-13
    -19.631  0.1548E-11  0.1595E-11  0.1534E-11
    -19.537  0.1164E-09  0.1275E-09  0.1181E-09
    -19.443  0.5839E-08  0.6686E-08  0.6032E-08
    -19.350  0.1942E-06  0.2295E-06  0.2033E-06
    -19.256  0.4266E-05  0.5152E-05  0.4506E-05
    -19.162  0.6165E-04  0.7558E-04  0.6553E-04
    -19.068  0.5850E-03  0.7247E-03  0.6247E-03
    -18.975  0.3642E-02  0.4544E-02  0.3901E-02
    -18.881  0.1486E-01  0.1864E-01  0.1595E-01
    -18.787  0.3976E-01  0.5004E-01  0.4275E-01
    -18.693  0.6971E-01  0.8798E-01  0.7504E-01
    -18.599  0.8010E-01  0.1013E+00  0.8631E-01
    -18.506  0.6032E-01  0.7642E-01  0.6504E-01
    -18.412  0.2975E-01  0.3775E-01  0.3210E-01
    -18.318  0.9605E-02  0.1220E-01  0.1037E-01
    -18.224  0.2028E-02  0.2580E-02  0.2191E-02
    -18.131  0.2799E-03  0.3563E-03  0.3025E-03
    -18.037  0.2521E-04  0.3212E-04  0.2726E-04
    -17.943  0.1481E-05  0.1888E-05  0.1601E-05
    -17.849  0.5663E-07  0.7229E-07  0.6127E-07
    -17.755  0.1409E-08  0.1800E-08  0.1525E-08
    -17.662  0.2279E-10  0.2914E-10  0.2468E-10
    -17.568  0.2394E-12  0.3063E-12  0.2593E-12
    -17.474  0.1635E-14  0.2093E-14  0.1771E-14
    -17.380  0.0000E+00  0.0000E+00  0.0000E+00
    -17.287  0.0000E+00  0.0000E+00  0.0000E+00
    -17.193  0.0000E+00  0.0000E+00  0.0000E+00
    -17.099  0.0000E+00  0.0000E+00  0.0000E+00
    -17.005  0.0000E+00  0.0000E+00  0.0000E+00
    -16.912  0.0000E+00  0.0000E+00  0.0000E+00
    -16.818  0.0000E+00  0.0000E+00  0.0000E+00
    -16.724  0.0000E+00  0.0000E+00  0.0000E+00
    -16.630  0.0000E+00  0.0000E+00  0.0000E+00
    -16.536  0.0000E+00  0.0000E+00  0.0000E+00
    -16.443  0.0000E+00  0.0000E+00  0.0000E+00
    -16.349  0.0000E+00  0.0000E+00  0.0000E+00
    -16.255  0.0000E+00  0.0000E+00  0.0000E+00
    -16.161  0.0000E+00  0.0000E+00  0.0000E+00
    -16.068  0.0000E+00  0.0000E+00  0.0000E+00
    -15.974  0.0000E+00  0.0000E+00  0.0000E+00
    -15.880  0.0000E+00  0.0000E+00  0.0000E+00
    -15.786  0.0000E+00  0.0000E+00  0.0000E+00
    -15.693  0.0000E+00  0.0000E+00  0.0000E+00
    -15.599  0.0000E+00  0.0000E+00  0.0000E+00
    -15.505  0.0000E+00  0.0000E+00  0.0000E+00
    -15.411  0.0000E+00  0.0000E+00  0.0000E+00
    -15.317  0.0000E+00  0.0000E+00  0.0000E+00
    -15.224  0.0000E+00  0.0000E+00  0.0000E+00
    -15.130  0.0000E+00  0.0000E+00  0.0000E+00
    -15.036  0.0000E+00  0.0000E+00  0.0000E+00
    -14.942  0.0000E+00  0.0000E+00  0.0000E+00
    -14.849  0.0000E+00  0.0000E+00  0.0000E+00
    -14.755  0.0000E+00  0.0000E+00  0.0000E+00
    -14.661  0.0000E+00  0.0000E+00  0.0000E+00
    -14.567  0.0000E+00  0.0000E+00  0.0000E+00
    -14.473  0.0000E+00  0.0000E+00  0.0000E+00
    -14.380  0.0000E+00  0.0000E+00  0.0000E+00
    -14.286  0.0000E+00  0.0000E+00  0.0000E+00
    -14.192  0.0000E+00  0.0000E+00  0.0000E+00
    -14.098  0.0000E+00  0.0000E+00  0.0000E+00
    -14.005  0.0000E+00  0.0000E+00  0.0000E+00
    -13.911  0.0000E+00  0.0000E+00  0.0000E+00
    -13.817  0.0000E+00  0.0000E+00  0.0000E+00
    -13.723  0.0000E+00  0.0000E+00  0.0000E+00
    -13.630  0.0000E+00  0.0000E+00  0.0000E+00
    -13.536  0.0000E+00  0.0000E+00  0.0000E+00
    -13.442  0.0000E+00  0.0000E+00  0.0000E+00
    -13.348  0.0000E+00  0.0000E+00  0.0000E+00
    -13.254  0.0000E+00  0.0000E+00  0.0000E+00
    -13.161  0.0000E+00  0.0000E+00  0.0000E+00
    -13.067  0.0000E+00  0.0000E+00  0.0000E+00
    -12.973  0.0000E+00  0.0000E+00  0.0000E+00
    -12.879  0.0000E+00  0.0000E+00  0.0000E+00
    -12.786  0.0000E+00  0.0000E+00  0.0000E+00
    -12.692  0.0000E+00  0.0000E+00  0.0000E+00
    -12.598  0.0000E+00  0.0000E+00  0.0000E+00
    -12.504  0.0000E+00  0.0000E+00  0.0000E+00
    -12.410  0.0000E+00  0.0000E+00  0.0000E+00