       N       E                     dE             d eps       ncg     rms          rms(c)
DAV:   1     0.598056081679E+04    0.59806E+04   -0.34574E+05   798   0.214E+03
DAV:   2     0.356249447349E+03   -0.56243E+04   -0.54322E+04   798   0.465E+02
DAV:   3    -0.279575705680E+03   -0.63583E+03   -0.57506E+03   798   0.185E+02
DAV:   4    -0.355968468255E+03   -0.76393E+02   -0.68108E+02  1110   0.528E+01
DAV:   5    -0.360983275078E+03   -0.50148E+01   -0.48616E+01   858   0.111E+01    0.107E+01
RMM:   6    -0.412634433998E+03   -0.51651E+02   -0.32623E+01   804   0.138E+01    0.956E+01
RMM:   7    -0.371442508080E+03    0.41192E+02   -0.24215E+01   801   0.131E+01    0.467E+01
RMM:   8    -0.361388731764E+03    0.10054E+02   -0.64074E+00   810   0.658E+00    0.192E+01
RMM:   9    -0.360233484655E+03    0.11552E+01   -0.88207E-01   815   0.215E+00    0.858E+00
RMM:  10    -0.360560716133E+03   -0.32723E+00   -0.10001E+00   805   0.241E+00    0.125E+01
RMM:  11    -0.360058459861E+03    0.50226E+00   -0.47550E-01   807   0.180E+00    0.476E+00
RMM:  12    -0.360076909255E+03   -0.18449E-01   -0.21962E-01   804   0.118E+00    0.589E+00
RMM:  13    -0.359994505558E+03    0.82404E-01   -0.17210E-01   803   0.110E+00    0.347E+00
RMM:  14    -0.360047999315E+03   -0.53494E-01   -0.13640E-01   802   0.939E-01    0.499E+00
RMM:  15    -0.359991137213E+03    0.56862E-01   -0.78679E-02   803   0.760E-01    0.337E+00
RMM:  16    -0.359966778837E+03    0.24358E-01   -0.31108E-02   806   0.472E-01    0.215E+00
RMM:  17    -0.359977381747E+03   -0.10603E-01   -0.30364E-02   803   0.437E-01    0.266E+00
RMM:  18    -0.359953172904E+03    0.24209E-01   -0.16198E-02   805   0.350E-01    0.935E-01
RMM:  19    -0.359952249686E+03    0.92322E-03   -0.24192E-03   802   0.123E-01    0.919E-01
RMM:  20    -0.359950558915E+03    0.16908E-02   -0.16942E-03   803   0.107E-01    0.566E-01
RMM:  21    -0.359949750756E+03    0.80816E-03   -0.97738E-04   805   0.844E-02    0.345E-01
RMM:  22    -0.359949927210E+03   -0.17645E-03   -0.76181E-04   803   0.703E-02    0.370E-01
RMM:  23    -0.359949506509E+03    0.42070E-03   -0.42995E-04   803   0.583E-02    0.197E-01
RMM:  24    -0.359949421987E+03    0.84522E-04   -0.12538E-04   799   0.294E-02    0.127E-01
RMM:  25    -0.359949490730E+03   -0.68743E-04   -0.10419E-04   798   0.261E-02    0.165E-01
RMM:  26    -0.359949462081E+03    0.28649E-04   -0.78629E-05   803   0.243E-02    0.107E-01
RMM:  27    -0.359949451274E+03    0.10807E-04   -0.24267E-05   791   0.133E-02    0.814E-02
RMM:  28    -0.359949461902E+03   -0.10628E-04   -0.12260E-05   785   0.895E-03    0.750E-02
RMM:  29    -0.359949474941E+03   -0.13038E-04   -0.12251E-05   789   0.903E-03    0.368E-02
RMM:  30    -0.359949482801E+03   -0.78599E-05   -0.52425E-06   662   0.604E-03    0.181E-02
RMM:  31    -0.359949508408E+03   -0.25608E-04   -0.47194E-06   618   0.541E-03    0.302E-02
RMM:  32    -0.359949531466E+03   -0.23057E-04   -0.37928E-06   537   0.543E-03    0.145E-02
RMM:  33    -0.359949543176E+03   -0.11710E-04   -0.13773E-06   430   0.304E-03    0.153E-02
RMM:  34    -0.359949567662E+03   -0.24486E-04   -0.15040E-06   437   0.294E-03    0.134E-02
RMM:  35    -0.359949575093E+03   -0.74308E-05   -0.57539E-07   423   0.202E-03    0.600E-03
RMM:  36    -0.359949604246E+03   -0.29154E-04   -0.17143E-06   439   0.248E-03    0.147E-02
RMM:  37    -0.359949644612E+03   -0.40366E-04   -0.34893E-06   479   0.291E-03    0.879E-03
RMM:  38    -0.359949651832E+03   -0.72194E-05   -0.56388E-07   426   0.159E-03    0.736E-03
RMM:  39    -0.359949673091E+03   -0.21259E-04   -0.14649E-06   439   0.188E-03    0.122E-02
RMM:  40    -0.359949699886E+03   -0.26795E-04   -0.33657E-06   465   0.221E-03    0.559E-03
RMM:  41    -0.359949702963E+03   -0.30770E-05   -0.35999E-07   420   0.108E-03    0.314E-03
RMM:  42    -0.359949706900E+03   -0.39376E-05   -0.22168E-07   410   0.782E-04    0.355E-03
RMM:  43    -0.359949711165E+03   -0.42648E-05   -0.23601E-07   408   0.769E-04    0.156E-03
RMM:  44    -0.359949712301E+03   -0.11361E-05   -0.43062E-08   209   0.428E-04    0.124E-03
RMM:  45    -0.359949714980E+03   -0.26785E-05   -0.92791E-08   169   0.401E-04    0.140E-03
RMM:  46    -0.359949716117E+03   -0.11376E-05   -0.34445E-08   133   0.351E-04    0.532E-04
RMM:  47    -0.359949718184E+03   -0.20670E-05   -0.10666E-07   163   0.395E-04    0.101E-03
RMM:  48    -0.359949719052E+03   -0.86783E-06   -0.43655E-08    96   0.347E-04
   1 F= -.37794098E+03 E0= -.37592824E+03  d E =-.402548E+01
       N       E                     dE             d eps       ncg     rms          rms(c)
DAV:   1    -0.359945591416E+03    0.41268E-02   -0.12144E+00   804   0.130E+00    0.250E-01
RMM:   2    -0.359956171937E+03   -0.10581E-01   -0.43349E-02   803   0.371E-01    0.130E+00
RMM:   3    -0.359949375530E+03    0.67964E-02   -0.52131E-03   804   0.187E-01    0.394E-01
RMM:   4    -0.359949355106E+03    0.20424E-04   -0.11617E-03   802   0.854E-02    0.436E-01
RMM:   5    -0.359950249686E+03   -0.89458E-03   -0.69317E-04   803   0.709E-02    0.708E-01
RMM:   6    -0.359949515801E+03    0.73388E-03   -0.40172E-04   802   0.550E-02    0.514E-01
RMM:   7    -0.359949053522E+03    0.46228E-03   -0.38992E-04   804   0.521E-02    0.308E-01
RMM:   8    -0.359950260941E+03   -0.12074E-02   -0.13443E-03   802   0.932E-02    0.612E-01
RMM:   9    -0.359949072592E+03    0.11883E-02   -0.10461E-03   803   0.897E-02    0.291E-01
RMM:  10    -0.359948783556E+03    0.28904E-03   -0.26281E-04   801   0.436E-02    0.117E-01
RMM:  11    -0.359948779123E+03    0.44333E-05   -0.84217E-05   801   0.230E-02    0.105E-01
RMM:  12    -0.359948768784E+03    0.10338E-04   -0.48626E-05   800   0.186E-02    0.910E-02
RMM:  13    -0.359948738556E+03    0.30228E-04   -0.24841E-05   793   0.140E-02    0.275E-02
RMM:  14    -0.359948739858E+03   -0.13017E-05   -0.89419E-06   774   0.765E-03    0.337E-02
RMM:  15    -0.359948736026E+03    0.38324E-05   -0.44068E-06   612   0.587E-03    0.185E-02
RMM:  16    -0.359948735768E+03    0.25798E-06   -0.13840E-06   423   0.339E-03
   2 F= -.37793999E+03 E0= -.37592717E+03  d E =-.402564E+01
       N       E                     dE             d eps       ncg     rms          rms(c)
DAV:   1    -0.359935743934E+03    0.12992E-01   -0.48493E+00   798   0.261E+00    0.508E-01
RMM:   2    -0.359978804109E+03   -0.43060E-01   -0.17688E-01   803   0.752E-01    0.263E+00
RMM:   3    -0.359951548482E+03    0.27256E-01   -0.21446E-02   803   0.383E-01    0.824E-01
RMM:   4    -0.359951925084E+03   -0.37660E-03   -0.48710E-03   804   0.174E-01    0.102E+00
RMM:   5    -0.359956864617E+03   -0.49395E-02   -0.23911E-03   801   0.128E-01    0.168E+00
RMM:   6    -0.359951341743E+03    0.55229E-02   -0.22535E-03   802   0.129E-01    0.892E-01
RMM:   7    -0.359949941842E+03    0.13999E-02   -0.18963E-03   804   0.117E-01    0.594E-01
RMM:   8    -0.359954174300E+03   -0.42325E-02   -0.49231E-03   802   0.179E-01    0.116E+00
RMM:   9    -0.359950366154E+03    0.38081E-02   -0.41383E-03   804   0.177E-01    0.644E-01
RMM:  10    -0.359949019268E+03    0.13469E-02   -0.13438E-03   801   0.994E-02    0.292E-01
RMM:  11    -0.359949009247E+03    0.10021E-04   -0.47899E-04   803   0.557E-02    0.273E-01
RMM:  12    -0.359948846204E+03    0.16304E-03   -0.27072E-04   802   0.439E-02    0.184E-01
RMM:  13    -0.359948730575E+03    0.11563E-03   -0.12185E-04   800   0.305E-02    0.713E-02
RMM:  14    -0.359948741565E+03   -0.10990E-04   -0.55130E-05   802   0.190E-02    0.923E-02
RMM:  15    -0.359948710922E+03    0.30644E-04   -0.27484E-05   801   0.147E-02    0.411E-02
RMM:  16    -0.359948709849E+03    0.10724E-05   -0.70770E-06   752   0.703E-03    0.360E-02
RMM:  17    -0.359948714454E+03   -0.46046E-05   -0.11553E-05   795   0.868E-03    0.467E-02
RMM:  18    -0.359948706705E+03    0.77489E-05   -0.79157E-06   762   0.783E-03    0.199E-02
RMM:  19    -0.359948706030E+03    0.67522E-06   -0.17213E-06   418   0.364E-03
   3 F= -.37793997E+03 E0= -.37592718E+03  d E =-.402558E+01
       N       E                     dE             d eps       ncg     rms          rms(c)
DAV:   1    -0.359942144142E+03    0.65626E-02   -0.24259E+00   798   0.182E+00    0.354E-01
RMM:   2    -0.359963111165E+03   -0.20967E-01   -0.89552E-02   803   0.526E-01    0.179E+00
RMM:   3    -0.359950017756E+03    0.13093E-01   -0.10526E-02   804   0.266E-01    0.559E-01
RMM:   4    -0.359950226979E+03   -0.20922E-03   -0.23955E-03   804   0.123E-01    0.692E-01
RMM:   5    -0.359952784282E+03   -0.25573E-02   -0.11903E-03   802   0.911E-02    0.119E+00
RMM:   6    -0.359949956452E+03    0.28278E-02   -0.10027E-03   803   0.862E-02    0.620E-01
RMM:   7    -0.359949321893E+03    0.63456E-03   -0.87568E-04   803   0.791E-02    0.419E-01
RMM:   8    -0.359951666903E+03   -0.23450E-02   -0.26147E-03   801   0.130E-01    0.851E-01
RMM:   9    -0.359949307053E+03    0.23598E-02   -0.20588E-03   802   0.126E-01    0.384E-01
RMM:  10    -0.359948807758E+03    0.49929E-03   -0.51523E-04   800   0.609E-02    0.168E-01
RMM:  11    -0.359948828521E+03   -0.20762E-04   -0.18989E-04   803   0.347E-02    0.174E-01
RMM:  12    -0.359948784492E+03    0.44029E-04   -0.11161E-04   801   0.286E-02    0.137E-01
RMM:  13    -0.359948715801E+03    0.68691E-04   -0.53046E-05   796   0.204E-02    0.394E-02
RMM:  14    -0.359948717934E+03   -0.21336E-05   -0.17811E-05   797   0.107E-02    0.460E-02
RMM:  15    -0.359948710940E+03    0.69941E-05   -0.86597E-06   777   0.798E-03    0.256E-02
RMM:  16    -0.359948711632E+03   -0.69191E-06   -0.34624E-06   530   0.513E-03
   4 F= -.37793997E+03 E0= -.37592730E+03  d E =-.402535E+01
       N       E                     dE             d eps       ncg     rms          rms(c)
DAV:   1    -0.359935014825E+03    0.13696E-01   -0.48427E+00   798   0.255E+00    0.508E-01
RMM:   2    -0.359978663844E+03   -0.43649E-01   -0.18878E-01   803   0.749E-01    0.255E+00
RMM:   3    -0.359951905749E+03    0.26758E-01   -0.21773E-02   805   0.385E-01    0.881E-01
RMM:   4    -0.359952406913E+03   -0.50116E-03   -0.45122E-03   802   0.169E-01    0.111E+00
RMM:   5    -0.359955770299E+03   -0.33634E-02   -0.22537E-03   804   0.122E-01    0.154E+00
RMM:   6    -0.359951412950E+03    0.43573E-02   -0.24382E-03   804   0.135E-01    0.890E-01
RMM:   7    -0.359949902051E+03    0.15109E-02   -0.18641E-03   804   0.117E-01    0.568E-01
RMM:   8    -0.359954627292E+03   -0.47252E-02   -0.53253E-03   801   0.185E-01    0.120E+00
RMM:   9    -0.359950252009E+03    0.43753E-02   -0.42240E-03   804   0.179E-01    0.620E-01
RMM:  10    -0.359948970186E+03    0.12818E-02   -0.11433E-03   799   0.910E-02    0.252E-01
RMM:  11    -0.359948953107E+03    0.17079E-04   -0.40925E-04   803   0.510E-02    0.224E-01
RMM:  12    -0.359948887655E+03    0.65451E-04   -0.22107E-04   803   0.398E-02    0.187E-01
RMM:  13    -0.359948762065E+03    0.12559E-03   -0.10812E-04   799   0.290E-02    0.626E-02
RMM:  14    -0.359948771214E+03   -0.91494E-05   -0.41494E-05   800   0.164E-02    0.830E-02
RMM:  15    -0.359948752361E+03    0.18853E-04   -0.22424E-05   800   0.130E-02    0.526E-02
RMM:  16    -0.359948747744E+03    0.46170E-05   -0.97164E-06   772   0.828E-03    0.359E-02
RMM:  17    -0.359948752070E+03   -0.43263E-05   -0.13688E-05   796   0.940E-03    0.467E-02
RMM:  18    -0.359948743718E+03    0.83519E-05   -0.77507E-06   762   0.778E-03    0.178E-02
RMM:  19    -0.359948743132E+03    0.58640E-06   -0.12164E-06   410   0.302E-03
   5 F= -.37794000E+03 E0= -.37592725E+03  d E =-.402550E+01
       N       E                     dE             d eps       ncg     rms          rms(c)
DAV:   1    -0.359936303682E+03    0.12440E-01   -0.24052E+00   798   0.185E+00    0.380E-01
RMM:   2    -0.359958691172E+03   -0.22387E-01   -0.99375E-02   806   0.486E-01    0.198E+00
RMM:   3    -0.359948375471E+03    0.10316E-01   -0.77110E-03   801   0.221E-01    0.121E+00
RMM:   4    -0.359946526361E+03    0.18491E-02   -0.26278E-03   803   0.128E-01    0.971E-01
RMM:   5    -0.359947987896E+03   -0.14615E-02   -0.33039E-03   800   0.149E-01    0.110E+00
RMM:   6    -0.359945197325E+03    0.27906E-02   -0.23751E-03   804   0.137E-01    0.625E-01
RMM:   7    -0.359944496373E+03    0.70095E-03   -0.11308E-03   802   0.902E-02    0.431E-01
RMM:   8    -0.359947606981E+03   -0.31106E-02   -0.30211E-03   803   0.139E-01    0.990E-01
RMM:   9    -0.359944596036E+03    0.30109E-02   -0.22080E-03   805   0.131E-01    0.452E-01
RMM:  10    -0.359943965645E+03    0.63039E-03   -0.61028E-04   800   0.650E-02    0.190E-01
RMM:  11    -0.359944008991E+03   -0.43346E-04   -0.31469E-04   804   0.452E-02    0.207E-01
RMM:  12    -0.359943864462E+03    0.14453E-03   -0.15357E-04   803   0.341E-02    0.101E-01
RMM:  13    -0.359943840705E+03    0.23757E-04   -0.49112E-05   796   0.187E-02    0.635E-02
RMM:  14    -0.359943847983E+03   -0.72774E-05   -0.25541E-05   799   0.131E-02    0.788E-02
RMM:  15    -0.359943828770E+03    0.19212E-04   -0.13733E-05   795   0.104E-02    0.290E-02
RMM:  16    -0.359943827880E+03    0.89043E-06   -0.47150E-06   619   0.563E-03
   6 F= -.37793475E+03 E0= -.37591988E+03  d E =-.402973E+01
       N       E                     dE             d eps       ncg     rms          rms(c)
DAV:   1    -0.359934181085E+03    0.96477E-02   -0.48002E+00   798   0.240E+00    0.547E-01
RMM:   2    -0.359977311040E+03   -0.43130E-01   -0.23286E-01   833   0.629E-01    0.253E+00
RMM:   3    -0.359959552813E+03    0.17758E-01   -0.11525E-02   802   0.250E-01    0.152E+00
RMM:   4    -0.359958156814E+03    0.13960E-02   -0.55690E-03   802   0.189E-01    0.141E+00
RMM:   5    -0.359962858745E+03   -0.47019E-02   -0.77760E-03   802   0.230E-01    0.176E+00
RMM:   6    -0.359955977329E+03    0.68814E-02   -0.67261E-03   802   0.227E-01    0.100E+00
RMM:   7    -0.359955244018E+03    0.73331E-03   -0.38794E-03   801   0.163E-01    0.853E-01
RMM:   8    -0.359959060928E+03   -0.38169E-02   -0.60912E-03   801   0.196E-01    0.132E+00
RMM:   9    -0.359953452451E+03    0.56085E-02   -0.41830E-03   801   0.177E-01    0.561E-01
RMM:  10    -0.359952734300E+03    0.71815E-03   -0.12340E-03   802   0.901E-02    0.327E-01
RMM:  11    -0.359952472294E+03    0.26201E-03   -0.62141E-04   801   0.608E-02    0.203E-01
RMM:  12    -0.359952315827E+03    0.15647E-03   -0.24512E-04   801   0.431E-02    0.951E-02
RMM:  13    -0.359952359180E+03   -0.43354E-04   -0.10070E-04   799   0.256E-02    0.145E-01
RMM:  14    -0.359952317779E+03    0.41401E-04   -0.61038E-05   802   0.215E-02    0.105E-01
RMM:  15    -0.359952281732E+03    0.36047E-04   -0.29877E-05   795   0.149E-02    0.358E-02
RMM:  16    -0.359952290704E+03   -0.89715E-05   -0.16019E-05   789   0.998E-03    0.579E-02
RMM:  17    -0.359952285292E+03    0.54114E-05   -0.14306E-05   781   0.957E-03    0.316E-02
RMM:  18    -0.359952283801E+03    0.14912E-05   -0.72819E-06   693   0.713E-03    0.199E-02
RMM:  19    -0.359952286842E+03   -0.30410E-05   -0.28874E-06   476   0.480E-03    0.292E-02
RMM:  20    -0.359952285001E+03    0.18410E-05   -0.14295E-06   425   0.382E-03    0.696E-03
RMM:  21    -0.359952285678E+03   -0.67662E-06   -0.43188E-07   406   0.183E-03
   7 F= -.37794388E+03 E0= -.37593319E+03  d E =-.402137E+01
       N       E                     dE             d eps       ncg     rms          rms(c)
DAV:   1    -0.359938636261E+03    0.13649E-01   -0.23848E+00   798   0.188E+00    0.390E-01
RMM:   2    -0.359961019079E+03   -0.22383E-01   -0.12824E-01   820   0.555E-01    0.170E+00
RMM:   3    -0.359955086786E+03    0.59323E-02   -0.97282E-03   803   0.241E-01    0.147E+00
RMM:   4    -0.359951494380E+03    0.35924E-02   -0.36163E-03   807   0.149E-01    0.959E-01
RMM:   5    -0.359953152786E+03   -0.16584E-02   -0.34336E-03   804   0.152E-01    0.115E+00
RMM:   6    -0.359949743366E+03    0.34094E-02   -0.24215E-03   804   0.139E-01    0.530E-01
RMM:   7    -0.359949632516E+03    0.11085E-03   -0.11989E-03   804   0.909E-02    0.500E-01
RMM:   8    -0.359952475108E+03   -0.28426E-02   -0.31168E-03   803   0.142E-01    0.990E-01
RMM:   9    -0.359949403512E+03    0.30716E-02   -0.23842E-03   805   0.134E-01    0.434E-01
RMM:  10    -0.359948863556E+03    0.53996E-03   -0.67189E-04   802   0.679E-02    0.209E-01
RMM:  11    -0.359948922555E+03   -0.58999E-04   -0.35763E-04   804   0.483E-02    0.225E-01
RMM:  12    -0.359948745422E+03    0.17713E-03   -0.18135E-04   804   0.372E-02    0.963E-02
RMM:  13    -0.359948725099E+03    0.20323E-04   -0.56591E-05   797   0.202E-02    0.678E-02
RMM:  14    -0.359948727205E+03   -0.21058E-05   -0.25822E-05   801   0.132E-02    0.779E-02
RMM:  15    -0.359948707629E+03    0.19576E-04   -0.12820E-05   791   0.101E-02    0.293E-02
RMM:  16    -0.359948708193E+03   -0.56402E-06   -0.60594E-06   691   0.637E-03
   8 F= -.37793997E+03 E0= -.37592722E+03  d E =-.402549E+01
       N       E                     dE             d eps       ncg     rms          rms(c)
DAV:   1    -0.359935452405E+03    0.13255E-01   -0.48456E+00   798   0.261E+00    0.506E-01
RMM:   2    -0.359978565439E+03   -0.43113E-01   -0.18000E-01   803   0.757E-01    0.263E+00
RMM:   3    -0.359951893340E+03    0.26672E-01   -0.21431E-02   801   0.383E-01    0.893E-01
RMM:   4    -0.359952279395E+03   -0.38605E-03   -0.46654E-03   804   0.171E-01    0.109E+00
RMM:   5    -0.359955654850E+03   -0.33755E-02   -0.22477E-03   805   0.122E-01    0.154E+00
RMM:   6    -0.359951295772E+03    0.43591E-02   -0.24525E-03   804   0.135E-01    0.878E-01
RMM:   7    -0.359949841276E+03    0.14545E-02   -0.18267E-03   804   0.116E-01    0.563E-01
RMM:   8    -0.359954200557E+03   -0.43593E-02   -0.50530E-03   801   0.182E-01    0.115E+00
RMM:   9    -0.359950427803E+03    0.37728E-02   -0.42048E-03   807   0.179E-01    0.660E-01
RMM:  10    -0.359949035838E+03    0.13920E-02   -0.13389E-03   799   0.990E-02    0.295E-01
RMM:  11    -0.359949010514E+03    0.25324E-04   -0.49046E-04   803   0.566E-02    0.266E-01
RMM:  12    -0.359948849822E+03    0.16069E-03   -0.27001E-04   803   0.440E-02    0.180E-01
RMM:  13    -0.359948740528E+03    0.10929E-03   -0.11955E-04   798   0.302E-02    0.720E-02
RMM:  14    -0.359948753389E+03   -0.12861E-04   -0.53783E-05   802   0.189E-02    0.970E-02
RMM:  15    -0.359948722605E+03    0.30784E-04   -0.26846E-05   799   0.146E-02    0.478E-02
RMM:  16    -0.359948718804E+03    0.38015E-05   -0.81338E-06   764   0.751E-03    0.321E-02
RMM:  17    -0.359948724796E+03   -0.59920E-05   -0.12321E-05   794   0.894E-03    0.475E-02
RMM:  18    -0.359948717148E+03    0.76482E-05   -0.79661E-06   763   0.785E-03    0.222E-02
RMM:  19    -0.359948716094E+03    0.10537E-05   -0.17689E-06   419   0.370E-03    0.125E-02
RMM:  20    -0.359948716686E+03   -0.59197E-06   -0.12532E-06   410   0.314E-03
   9 F= -.37793998E+03 E0= -.37592728E+03  d E =-.402539E+01
       N       E                     dE             d eps       ncg     rms          rms(c)
DAV:   1    -0.359942218802E+03    0.64973E-02   -0.24264E+00   798   0.183E+00    0.357E-01
RMM:   2    -0.359963309608E+03   -0.21091E-01   -0.88676E-02   803   0.521E-01    0.181E+00
RMM:   3    -0.359950108169E+03    0.13201E-01   -0.10471E-02   803   0.267E-01    0.574E-01
RMM:   4    -0.359950107210E+03    0.95944E-06   -0.24952E-03   801   0.125E-01    0.645E-01
RMM:   5    -0.359952291294E+03   -0.21841E-02   -0.14232E-03   805   0.101E-01    0.109E+00
RMM:   6    -0.359950278271E+03    0.20130E-02   -0.85939E-04   801   0.801E-02    0.710E-01
RMM:   7    -0.359949344333E+03    0.93394E-03   -0.83351E-04   803   0.765E-02    0.420E-01
RMM:   8    -0.359951668831E+03   -0.23245E-02   -0.26028E-03   801   0.130E-01    0.848E-01
RMM:   9    -0.359949447596E+03    0.22212E-02   -0.20472E-03   804   0.125E-01    0.424E-01
RMM:  10    -0.359948837136E+03    0.61046E-03   -0.54690E-04   802   0.631E-02    0.169E-01
RMM:  11    -0.359948829520E+03    0.76160E-05   -0.17893E-04   801   0.337E-02    0.151E-01
RMM:  12    -0.359948818741E+03    0.10779E-04   -0.10252E-04   802   0.271E-02    0.142E-01
RMM:  13    -0.359948743132E+03    0.75609E-04   -0.53475E-05   795   0.206E-02    0.369E-02
RMM:  14    -0.359948744546E+03   -0.14141E-05   -0.14646E-05   796   0.970E-03    0.423E-02
RMM:  15    -0.359948741884E+03    0.26620E-05   -0.78985E-06   758   0.746E-03    0.384E-02
RMM:  16    -0.359948738320E+03    0.35639E-05   -0.39720E-06   575   0.561E-03    0.206E-02
RMM:  17    -0.359948740536E+03   -0.22156E-05   -0.52555E-06   668   0.597E-03    0.295E-02
RMM:  18    -0.359948737428E+03    0.31073E-05   -0.29904E-06   492   0.520E-03    0.123E-02
RMM:  19    -0.359948737171E+03    0.25729E-06   -0.62470E-07   408   0.222E-03
  10 F= -.37794000E+03 E0= -.37592725E+03  d E =-.402548E+01
       N       E                     dE             d eps       ncg     rms          rms(c)
DAV:   1    -0.359935077255E+03    0.13660E-01   -0.48452E+00   798   0.257E+00    0.508E-01
RMM:   2    -0.359977576926E+03   -0.42500E-01   -0.18545E-01   804   0.736E-01    0.250E+00
RMM:   3    -0.359951544462E+03    0.26032E-01   -0.21176E-02   805   0.375E-01    0.824E-01
RMM:   4    -0.359951720134E+03   -0.17567E-03   -0.49045E-03   805   0.176E-01    0.971E-01
RMM:   5    -0.359957136160E+03   -0.54160E-02   -0.26133E-03   802   0.136E-01    0.170E+00
RMM:   6    -0.359951558069E+03    0.55781E-02   -0.19835E-03   805   0.121E-01    0.941E-01
RMM:   7    -0.359949948967E+03    0.16091E-02   -0.18256E-03   802   0.114E-01    0.595E-01
RMM:   8    -0.359954686227E+03   -0.47373E-02   -0.53385E-03   802   0.185E-01    0.121E+00
RMM:   9    -0.359950078058E+03    0.46082E-02   -0.42124E-03   803   0.179E-01    0.585E-01
RMM:  10    -0.359948914091E+03    0.11640E-02   -0.11214E-03   800   0.900E-02    0.247E-01
RMM:  11    -0.359948922299E+03   -0.82084E-05   -0.39071E-04   804   0.497E-02    0.235E-01
RMM:  12    -0.359948860173E+03    0.62126E-04   -0.22155E-04   803   0.401E-02    0.199E-01
RMM:  13    -0.359948714428E+03    0.14575E-03   -0.10902E-04   796   0.293E-02    0.570E-02
RMM:  14    -0.359948719051E+03   -0.46228E-05   -0.35395E-05   799   0.151E-02    0.689E-02
RMM:  15    -0.359948708552E+03    0.10498E-04   -0.19346E-05   799   0.118E-02    0.535E-02
RMM:  16    -0.359948703678E+03    0.48743E-05   -0.93852E-06   781   0.827E-03    0.373E-02
RMM:  17    -0.359948707187E+03   -0.35091E-05   -0.12747E-05   794   0.909E-03    0.454E-02
RMM:  18    -0.359948699542E+03    0.76449E-05   -0.71298E-06   740   0.744E-03    0.181E-02
RMM:  19    -0.359948698867E+03    0.67498E-06   -0.12222E-06   409   0.304E-03
  11 F= -.37793996E+03 E0= -.37592720E+03  d E =-.402552E+01
       N       E                     dE             d eps       ncg     rms          rms(c)
DAV:   1    -0.359936650005E+03    0.12050E-01   -0.24055E+00   798   0.183E+00    0.382E-01
RMM:   2    -0.359958997878E+03   -0.22348E-01   -0.98972E-02   806   0.486E-01    0.198E+00
RMM:   3    -0.359948668943E+03    0.10329E-01   -0.77097E-03   801   0.221E-01    0.121E+00
RMM:   4    -0.359946867821E+03    0.18011E-02   -0.26274E-03   803   0.128E-01    0.978E-01
RMM:   5    -0.359948375095E+03   -0.15073E-02   -0.33481E-03   800   0.150E-01    0.111E+00
RMM:   6    -0.359945543709E+03    0.28314E-02   -0.24166E-03   803   0.138E-01    0.634E-01
RMM:   7    -0.359944806319E+03    0.73739E-03   -0.11505E-03   803   0.910E-02    0.431E-01
RMM:   8    -0.359947906598E+03   -0.31003E-02   -0.30454E-03   803   0.140E-01    0.987E-01
RMM:   9    -0.359944878959E+03    0.30276E-02   -0.22222E-03   805   0.131E-01    0.444E-01
RMM:  10    -0.359944272262E+03    0.60670E-03   -0.59539E-04   800   0.641E-02    0.190E-01
RMM:  11    -0.359944312695E+03   -0.40432E-04   -0.30884E-04   804   0.448E-02    0.206E-01
RMM:  12    -0.359944171079E+03    0.14162E-03   -0.15058E-04   803   0.337E-02    0.100E-01
RMM:  13    -0.359944147214E+03    0.23864E-04   -0.48355E-05   796   0.186E-02    0.625E-02
RMM:  14    -0.359944154582E+03   -0.73681E-05   -0.25138E-05   799   0.130E-02    0.779E-02
RMM:  15    -0.359944135798E+03    0.18784E-04   -0.13546E-05   794   0.103E-02    0.291E-02
RMM:  16    -0.359944134949E+03    0.84947E-06   -0.47077E-06   622   0.563E-03
  12 F= -.37793505E+03 E0= -.37592019E+03  d E =-.402973E+01
       N       E                     dE             d eps       ncg     rms          rms(c)
DAV:   1    -0.359933373724E+03    0.10762E-01   -0.47957E+00   798   0.240E+00    0.551E-01
RMM:   2    -0.359976997942E+03   -0.43624E-01   -0.24162E-01   831   0.628E-01    0.250E+00
RMM:   3    -0.359959357220E+03    0.17641E-01   -0.12093E-02   804   0.252E-01    0.154E+00
RMM:   4    -0.359958143131E+03    0.12141E-02   -0.57072E-03   801   0.191E-01    0.145E+00
RMM:   5    -0.359962603491E+03   -0.44604E-02   -0.78663E-03   802   0.231E-01    0.177E+00
RMM:   6    -0.359955640873E+03    0.69626E-02   -0.67888E-03   804   0.228E-01    0.100E+00
RMM:   7    -0.359954997579E+03    0.64329E-03   -0.38962E-03   800   0.163E-01    0.862E-01
RMM:   8    -0.359958686870E+03   -0.36893E-02   -0.61010E-03   800   0.196E-01    0.132E+00
RMM:   9    -0.359953116529E+03    0.55703E-02   -0.41822E-03   801   0.177E-01    0.557E-01
RMM:  10    -0.359952437331E+03    0.67920E-03   -0.12414E-03   801   0.903E-02    0.336E-01
RMM:  11    -0.359952155237E+03    0.28209E-03   -0.63286E-04   802   0.614E-02    0.203E-01
RMM:  12    -0.359951999029E+03    0.15621E-03   -0.24915E-04   801   0.434E-02    0.965E-02
RMM:  13    -0.359952044470E+03   -0.45441E-04   -0.10375E-04   802   0.259E-02    0.148E-01
RMM:  14    -0.359951998661E+03    0.45808E-04   -0.62340E-05   802   0.218E-02    0.103E-01
RMM:  15    -0.359951963556E+03    0.35105E-04   -0.29490E-05   795   0.148E-02    0.358E-02
RMM:  16    -0.359951973005E+03   -0.94491E-05   -0.16305E-05   789   0.101E-02    0.588E-02
RMM:  17    -0.359951967098E+03    0.59076E-05   -0.14555E-05   783   0.967E-03    0.310E-02
RMM:  18    -0.359951965723E+03    0.13747E-05   -0.74365E-06   695   0.716E-03    0.196E-02
RMM:  19    -0.359951968156E+03   -0.24326E-05   -0.28230E-06   480   0.472E-03    0.248E-02
RMM:  20    -0.359951966918E+03    0.12380E-05   -0.11553E-06   411   0.345E-03    0.717E-03
RMM:  21    -0.359951967634E+03   -0.71625E-06   -0.40692E-07   406   0.176E-03
  13 F= -.37794356E+03 E0= -.37593287E+03  d E =-.402138E+01
       N       E                     dE             d eps       ncg     rms          rms(c)
DAV:   1    -0.359938394079E+03    0.13573E-01   -0.23824E+00   798   0.189E+00    0.391E-01
RMM:   2    -0.359962796122E+03   -0.24402E-01   -0.13477E-01   824   0.566E-01    0.183E+00
RMM:   3    -0.359954470011E+03    0.83261E-02   -0.95998E-03   808   0.242E-01    0.138E+00
RMM:   4    -0.359951985174E+03    0.24848E-02   -0.32834E-03   806   0.144E-01    0.104E+00
RMM:   5    -0.359952666541E+03   -0.68137E-03   -0.34058E-03   806   0.153E-01    0.106E+00
RMM:   6    -0.359949998598E+03    0.26679E-02   -0.23429E-03   803   0.136E-01    0.602E-01
RMM:   7    -0.359949521922E+03    0.47668E-03   -0.10784E-03   804   0.877E-02    0.469E-01
RMM:   8    -0.359952580618E+03   -0.30587E-02   -0.30980E-03   803   0.141E-01    0.100E+00
RMM:   9    -0.359949512229E+03    0.30684E-02   -0.23650E-03   807   0.135E-01    0.465E-01
RMM:  10    -0.359948890923E+03    0.62131E-03   -0.68935E-04   804   0.691E-02    0.216E-01
RMM:  11    -0.359948960464E+03   -0.69541E-04   -0.38274E-04   805   0.497E-02    0.238E-01
RMM:  12    -0.359948765417E+03    0.19505E-03   -0.20427E-04   803   0.394E-02    0.108E-01
RMM:  13    -0.359948740473E+03    0.24944E-04   -0.64750E-05   796   0.215E-02    0.740E-02
RMM:  14    -0.359948745313E+03   -0.48402E-05   -0.32814E-05   801   0.150E-02    0.874E-02
RMM:  15    -0.359948719988E+03    0.25326E-04   -0.16212E-05   797   0.114E-02    0.321E-02
RMM:  16    -0.359948718978E+03    0.10100E-05   -0.59197E-06   685   0.630E-03    0.227E-02
RMM:  17    -0.359948723280E+03   -0.43021E-05   -0.75859E-06   743   0.678E-03    0.335E-02
RMM:  18    -0.359948719705E+03    0.35746E-05   -0.38395E-06   575   0.572E-03    0.118E-02
RMM:  19    -0.359948720035E+03   -0.32959E-06   -0.90661E-07   409   0.261E-03
  14 F= -.37793998E+03 E0= -.37592723E+03  d E =-.402550E+01
       N       E                     dE             d eps       ncg     rms          rms(c)
DAV:   1    -0.359937599682E+03    0.11120E-01   -0.48707E+00   807   0.261E+00    0.506E-01
RMM:   2    -0.359978532234E+03   -0.40933E-01   -0.15480E-01   799   0.736E-01    0.264E+00
RMM:   3    -0.359951409546E+03    0.27123E-01   -0.21789E-02   799   0.385E-01    0.809E-01
RMM:   4    -0.359951345523E+03    0.64023E-04   -0.51162E-03   808   0.176E-01    0.914E-01
RMM:   5    -0.359958009034E+03   -0.66635E-02   -0.28891E-03   806   0.141E-01    0.179E+00
RMM:   6    -0.359952290377E+03    0.57187E-02   -0.22820E-03   804   0.129E-01    0.105E+00
RMM:   7    -0.359949971830E+03    0.23185E-02   -0.22076E-03   801   0.126E-01    0.594E-01
RMM:   8    -0.359953996176E+03   -0.40243E-02   -0.49534E-03   802   0.180E-01    0.113E+00
RMM:   9    -0.359950443603E+03    0.35526E-02   -0.39657E-03   805   0.174E-01    0.658E-01
RMM:  10    -0.359949014539E+03    0.14291E-02   -0.13319E-03   800   0.992E-02    0.286E-01
RMM:  11    -0.359948969946E+03    0.44593E-04   -0.44693E-04   804   0.538E-02    0.253E-01
RMM:  12    -0.359948820594E+03    0.14935E-03   -0.24252E-04   803   0.411E-02    0.164E-01
RMM:  13    -0.359948735946E+03    0.84648E-04   -0.10782E-04   800   0.286E-02    0.745E-02
RMM:  14    -0.359948753235E+03   -0.17289E-04   -0.57653E-05   798   0.196E-02    0.101E-01
RMM:  15    -0.359948718170E+03    0.35065E-04   -0.29984E-05   800   0.155E-02    0.472E-02
RMM:  16    -0.359948714234E+03    0.39361E-05   -0.73992E-06   756   0.719E-03    0.304E-02
RMM:  17    -0.359948719655E+03   -0.54212E-05   -0.10702E-05   793   0.833E-03    0.451E-02
RMM:  18    -0.359948713065E+03    0.65906E-05   -0.73938E-06   752   0.756E-03    0.220E-02
RMM:  19    -0.359948712257E+03    0.80738E-06   -0.19572E-06   434   0.391E-03
  15 F= -.37793997E+03 E0= -.37592718E+03  d E =-.402558E+01
       N       E                     dE             d eps       ncg     rms          rms(c)
DAV:   1    -0.359942145060E+03    0.65680E-02   -0.24249E+00   798   0.183E+00    0.355E-01
RMM:   2    -0.359963284267E+03   -0.21139E-01   -0.90072E-02   803   0.528E-01    0.179E+00
RMM:   3    -0.359950065577E+03    0.13219E-01   -0.10610E-02   803   0.268E-01    0.562E-01
RMM:   4    -0.359950191106E+03   -0.12553E-03   -0.24308E-03   804   0.124E-01    0.670E-01
RMM:   5    -0.359952719184E+03   -0.25281E-02   -0.12561E-03   801   0.945E-02    0.117E+00
RMM:   6    -0.359950061805E+03    0.26574E-02   -0.92583E-04   803   0.828E-02    0.644E-01
RMM:   7    -0.359949352795E+03    0.70901E-03   -0.85710E-04   803   0.781E-02    0.419E-01
RMM:   8    -0.359951696691E+03   -0.23439E-02   -0.26224E-03   801   0.130E-01    0.849E-01
RMM:   9    -0.359949331607E+03    0.23651E-02   -0.20648E-03   802   0.126E-01    0.379E-01
RMM:  10    -0.359948841693E+03    0.48991E-03   -0.51777E-04   802   0.611E-02    0.167E-01
RMM:  11    -0.359948863786E+03   -0.22093E-04   -0.18626E-04   802   0.344E-02    0.175E-01
RMM:  12    -0.359948818053E+03    0.45733E-04   -0.11070E-04   803   0.285E-02    0.136E-01
RMM:  13    -0.359948750535E+03    0.67518E-04   -0.52886E-05   795   0.203E-02    0.398E-02
RMM:  14    -0.359948752795E+03   -0.22600E-05   -0.18351E-05   798   0.109E-02    0.470E-02
RMM:  15    -0.359948745217E+03    0.75781E-05   -0.89826E-06   774   0.817E-03    0.248E-02
RMM:  16    -0.359948746383E+03   -0.11653E-05   -0.35212E-06   536   0.517E-03    0.320E-02
RMM:  17    -0.359948747069E+03   -0.68653E-06   -0.57098E-06   723   0.635E-03
  16 F= -.37794001E+03 E0= -.37592724E+03  d E =-.402553E+01
       N       E                     dE             d eps       ncg     rms          rms(c)
DAV:   1    -0.359935202022E+03    0.13544E-01   -0.48446E+00   798   0.256E+00    0.507E-01
RMM:   2    -0.359977904868E+03   -0.42703E-01   -0.18463E-01   805   0.737E-01    0.252E+00
RMM:   3    -0.359951649125E+03    0.26256E-01   -0.21070E-02   802   0.378E-01    0.842E-01
RMM:   4    -0.359951850304E+03   -0.20118E-03   -0.48196E-03   803   0.174E-01    0.101E+00
RMM:   5    -0.359956937935E+03   -0.50876E-02   -0.23755E-03   802   0.127E-01    0.169E+00
RMM:   6    -0.359951383443E+03    0.55545E-02   -0.21910E-03   803   0.127E-01    0.901E-01
RMM:   7    -0.359949927134E+03    0.14563E-02   -0.18399E-03   804   0.115E-01    0.588E-01
RMM:   8    -0.359954612558E+03   -0.46854E-02   -0.52650E-03   803   0.184E-01    0.120E+00
RMM:   9    -0.359950164566E+03    0.44480E-02   -0.41933E-03   802   0.178E-01    0.607E-01
RMM:  10    -0.359948931989E+03    0.12326E-02   -0.11542E-03   801   0.913E-02    0.253E-01
RMM:  11    -0.359948934987E+03   -0.29983E-05   -0.41301E-04   805   0.512E-02    0.238E-01
RMM:  12    -0.359948850395E+03    0.84592E-04   -0.23094E-04   803   0.409E-02    0.188E-01
RMM:  13    -0.359948723513E+03    0.12688E-03   -0.11206E-04   798   0.295E-02    0.637E-02
RMM:  14    -0.359948731449E+03   -0.79362E-05   -0.43530E-05   800   0.169E-02    0.817E-02
RMM:  15    -0.359948712414E+03    0.19036E-04   -0.22869E-05   802   0.131E-02    0.512E-02
RMM:  16    -0.359948708730E+03    0.36837E-05   -0.94125E-06   777   0.815E-03    0.376E-02
RMM:  17    -0.359948713005E+03   -0.42745E-05   -0.13699E-05   796   0.941E-03    0.479E-02
RMM:  18    -0.359948704452E+03    0.85526E-05   -0.77542E-06   760   0.777E-03    0.186E-02
RMM:  19    -0.359948703754E+03    0.69845E-06   -0.12625E-06   409   0.307E-03
  17 F= -.37793996E+03 E0= -.37592720E+03  d E =-.402553E+01
       N       E                     dE             d eps       ncg     rms          rms(c)
DAV:   1    -0.359936303740E+03    0.12401E-01   -0.24043E+00   798   0.185E+00    0.380E-01
RMM:   2    -0.359959045429E+03   -0.22742E-01   -0.10115E-01   807   0.487E-01    0.200E+00
RMM:   3    -0.359948475498E+03    0.10570E-01   -0.78045E-03   803   0.222E-01    0.122E+00
RMM:   4    -0.359946554187E+03    0.19213E-02   -0.25937E-03   802   0.127E-01    0.965E-01
RMM:   5    -0.359948027752E+03   -0.14736E-02   -0.32751E-03   800   0.148E-01    0.110E+00
RMM:   6    -0.359945265635E+03    0.27621E-02   -0.23521E-03   804   0.136E-01    0.627E-01
RMM:   7    -0.359944555007E+03    0.71063E-03   -0.11195E-03   802   0.898E-02    0.431E-01
RMM:   8    -0.359947696816E+03   -0.31418E-02   -0.30490E-03   803   0.140E-01    0.993E-01
RMM:   9    -0.359944654508E+03    0.30423E-02   -0.22245E-03   804   0.131E-01    0.451E-01
RMM:  10    -0.359944020704E+03    0.63380E-03   -0.60391E-04   800   0.647E-02    0.187E-01
RMM:  11    -0.359944065952E+03   -0.45248E-04   -0.31007E-04   803   0.448E-02    0.206E-01
RMM:  12    -0.359943925749E+03    0.14020E-03   -0.15188E-04   802   0.339E-02    0.102E-01
RMM:  13    -0.359943899787E+03    0.25962E-04   -0.49046E-05   796   0.187E-02    0.618E-02
RMM:  14    -0.359943907510E+03   -0.77231E-05   -0.25152E-05   799   0.130E-02    0.782E-02
RMM:  15    -0.359943888669E+03    0.18841E-04   -0.13589E-05   793   0.104E-02    0.292E-02
RMM:  16    -0.359943887703E+03    0.96615E-06   -0.46817E-06   619   0.562E-03
  18 F= -.37793481E+03 E0= -.37591994E+03  d E =-.402973E+01
       N       E                     dE             d eps       ncg     rms          rms(c)
DAV:   1    -0.359933650735E+03    0.10238E-01   -0.47956E+00   798   0.240E+00    0.551E-01
RMM:   2    -0.359977226313E+03   -0.43576E-01   -0.23830E-01   841   0.629E-01    0.252E+00
RMM:   3    -0.359959621095E+03    0.17605E-01   -0.11964E-02   804   0.253E-01    0.154E+00
RMM:   4    -0.359958381245E+03    0.12398E-02   -0.57329E-03   801   0.191E-01    0.144E+00
RMM:   5    -0.359962931721E+03   -0.45505E-02   -0.78894E-03   802   0.232E-01    0.177E+00
RMM:   6    -0.359955896965E+03    0.70348E-02   -0.68010E-03   802   0.228E-01    0.999E-01
RMM:   7    -0.359955216253E+03    0.68071E-03   -0.38716E-03   801   0.162E-01    0.857E-01
RMM:   8    -0.359959051325E+03   -0.38351E-02   -0.61095E-03   800   0.196E-01    0.133E+00
RMM:   9    -0.359953384940E+03    0.56664E-02   -0.41862E-03   800   0.177E-01    0.560E-01
RMM:  10    -0.359952657209E+03    0.72773E-03   -0.12283E-03   801   0.899E-02    0.322E-01
RMM:  11    -0.359952410738E+03    0.24647E-03   -0.61578E-04   802   0.606E-02    0.203E-01
RMM:  12    -0.359952255154E+03    0.15558E-03   -0.24688E-04   801   0.432E-02    0.964E-02
RMM:  13    -0.359952299077E+03   -0.43923E-04   -0.10178E-04   801   0.257E-02    0.147E-01
RMM:  14    -0.359952254867E+03    0.44210E-04   -0.61457E-05   801   0.216E-02    0.104E-01
RMM:  15    -0.359952219580E+03    0.35287E-04   -0.29677E-05   795   0.148E-02    0.357E-02
RMM:  16    -0.359952229247E+03   -0.96678E-05   -0.16432E-05   790   0.101E-02    0.593E-02
RMM:  17    -0.359952223422E+03    0.58253E-05   -0.14650E-05   785   0.972E-03    0.328E-02
RMM:  18    -0.359952221804E+03    0.16182E-05   -0.70831E-06   694   0.709E-03    0.217E-02
RMM:  19    -0.359952225058E+03   -0.32546E-05   -0.30438E-06   482   0.490E-03    0.324E-02
RMM:  20    -0.359952222828E+03    0.22301E-05   -0.18592E-06   433   0.429E-03    0.667E-03
RMM:  21    -0.359952223529E+03   -0.70047E-06   -0.48242E-07   407   0.196E-03
  19 F= -.37794381E+03 E0= -.37593312E+03  d E =-.402138E+01
       N       E                     dE             d eps       ncg     rms          rms(c)
DAV:   1    -0.359938598331E+03    0.13624E-01   -0.23848E+00   798   0.189E+00    0.390E-01
RMM:   2    -0.359961135701E+03   -0.22537E-01   -0.12996E-01   824   0.556E-01    0.170E+00
RMM:   3    -0.359955132317E+03    0.60034E-02   -0.91424E-03   804   0.237E-01    0.148E+00
RMM:   4    -0.359951506902E+03    0.36254E-02   -0.34855E-03   807   0.148E-01    0.965E-01
RMM:   5    -0.359953115386E+03   -0.16085E-02   -0.34212E-03   805   0.152E-01    0.115E+00
RMM:   6    -0.359949710400E+03    0.34050E-02   -0.24122E-03   803   0.139E-01    0.528E-01
RMM:   7    -0.359949601985E+03    0.10842E-03   -0.11876E-03   806   0.906E-02    0.499E-01
RMM:   8    -0.359952442523E+03   -0.28405E-02   -0.31113E-03   803   0.141E-01    0.989E-01
RMM:   9    -0.359949376363E+03    0.30662E-02   -0.23799E-03   803   0.134E-01    0.433E-01
RMM:  10    -0.359948842598E+03    0.53377E-03   -0.67708E-04   805   0.681E-02    0.211E-01
RMM:  11    -0.359948901382E+03   -0.58784E-04   -0.36127E-04   805   0.485E-02    0.226E-01
RMM:  12    -0.359948720955E+03    0.18043E-03   -0.18439E-04   804   0.375E-02    0.961E-02
RMM:  13    -0.359948701115E+03    0.19840E-04   -0.57232E-05   797   0.203E-02    0.683E-02
RMM:  14    -0.359948702872E+03   -0.17568E-05   -0.26249E-05   800   0.133E-02    0.777E-02
RMM:  15    -0.359948683266E+03    0.19606E-04   -0.12778E-05   793   0.101E-02    0.288E-02
RMM:  16    -0.359948683669E+03   -0.40302E-06   -0.56815E-06   680   0.618E-03
  20 F= -.37793994E+03 E0= -.37592720E+03  d E =-.402548E+01
       N       E                     dE             d eps       ncg     rms          rms(c)
DAV:   1    -0.359937501378E+03    0.11182E-01   -0.48664E+00   807   0.261E+00    0.505E-01
RMM:   2    -0.359978875808E+03   -0.41374E-01   -0.15658E-01   799   0.743E-01    0.266E+00
RMM:   3    -0.359951705882E+03    0.27170E-01   -0.21985E-02   799   0.386E-01    0.863E-01
RMM:   4    -0.359951904540E+03   -0.19866E-03   -0.47397E-03   810   0.169E-01    0.104E+00
RMM:   5    -0.359956149872E+03   -0.42453E-02   -0.23649E-03   805   0.124E-01    0.159E+00
RMM:   6    -0.359952011254E+03    0.41386E-02   -0.27507E-03   803   0.142E-01    0.985E-01
RMM:   7    -0.359949924963E+03    0.20863E-02   -0.21980E-03   804   0.128E-01    0.571E-01
RMM:   8    -0.359953974512E+03   -0.40495E-02   -0.50509E-03   802   0.182E-01    0.112E+00
RMM:   9    -0.359950478457E+03    0.34961E-02   -0.40285E-03   806   0.175E-01    0.664E-01
RMM:  10    -0.359949035473E+03    0.14430E-02   -0.12985E-03   800   0.979E-02    0.284E-01
RMM:  11    -0.359948973954E+03    0.61520E-04   -0.43302E-04   805   0.530E-02    0.240E-01
RMM:  12    -0.359948845482E+03    0.12847E-03   -0.23152E-04   803   0.401E-02    0.164E-01
RMM:  13    -0.359948759722E+03    0.85760E-04   -0.10424E-04   799   0.281E-02    0.718E-02
RMM:  14    -0.359948778523E+03   -0.18801E-04   -0.54151E-05   799   0.190E-02    0.102E-01
RMM:  15    -0.359948744255E+03    0.34268E-04   -0.28533E-05   801   0.151E-02    0.495E-02
RMM:  16    -0.359948739399E+03    0.48559E-05   -0.79015E-06   759   0.742E-03    0.297E-02
RMM:  17    -0.359948745148E+03   -0.57488E-05   -0.11144E-05   795   0.850E-03    0.454E-02
RMM:  18    -0.359948738552E+03    0.65957E-05   -0.75231E-06   757   0.763E-03    0.230E-02
RMM:  19    -0.359948737464E+03    0.10881E-05   -0.19439E-06   430   0.389E-03    0.136E-02
RMM:  20    -0.359948737991E+03   -0.52738E-06   -0.13554E-06   413   0.329E-03
  21 F= -.37794000E+03 E0= -.37592731E+03  d E =-.402538E+01
       N       E                     dE             d eps       ncg     rms          rms(c)
DAV:   1    -0.359943087893E+03    0.56496E-02   -0.24348E+00   807   0.183E+00    0.358E-01
RMM:   2    -0.359963473492E+03   -0.20386E-01   -0.78343E-02   799   0.513E-01    0.183E+00
RMM:   3    -0.359949993573E+03    0.13480E-01   -0.10781E-02   799   0.271E-01    0.560E-01
RMM:   4    -0.359950011476E+03   -0.17903E-04   -0.26269E-03   807   0.126E-01    0.636E-01
RMM:   5    -0.359953073559E+03   -0.30621E-02   -0.16441E-03   807   0.108E-01    0.121E+00
RMM:   6    -0.359950697549E+03    0.23760E-02   -0.10547E-03   802   0.885E-02    0.806E-01
RMM:   7    -0.359949326948E+03    0.13706E-02   -0.10238E-03   805   0.853E-02    0.422E-01
RMM:   8    -0.359951497117E+03   -0.21702E-02   -0.25888E-03   800   0.129E-01    0.828E-01
RMM:   9    -0.359949420753E+03    0.20764E-02   -0.19365E-03   803   0.122E-01    0.427E-01
RMM:  10    -0.359948786701E+03    0.63405E-03   -0.51727E-04   801   0.616E-02    0.160E-01
RMM:  11    -0.359948756900E+03    0.29802E-04   -0.14292E-04   801   0.299E-02    0.123E-01
RMM:  12    -0.359948777929E+03   -0.21029E-04   -0.89004E-05   801   0.249E-02    0.140E-01
RMM:  13    -0.359948705153E+03    0.72776E-04   -0.51721E-05   796   0.203E-02    0.377E-02
RMM:  14    -0.359948706229E+03   -0.10756E-05   -0.14726E-05   793   0.979E-03    0.419E-02
RMM:  15    -0.359948703741E+03    0.24872E-05   -0.78597E-06   756   0.752E-03    0.381E-02
RMM:  16    -0.359948700118E+03    0.36239E-05   -0.37243E-06   561   0.546E-03    0.193E-02
RMM:  17    -0.359948702507E+03   -0.23891E-05   -0.50202E-06   652   0.587E-03    0.293E-02
RMM:  18    -0.359948699494E+03    0.30125E-05   -0.29334E-06   486   0.518E-03    0.126E-02
RMM:  19    -0.359948699191E+03    0.30291E-06   -0.61444E-07   408   0.222E-03
  22 F= -.37793996E+03 E0= -.37592721E+03  d E =-.402549E+01
       N       E                     dE             d eps       ncg     rms          rms(c)
DAV:   1    -0.359935283443E+03    0.13416E-01   -0.48466E+00   798   0.257E+00    0.508E-01
RMM:   2    -0.359977730251E+03   -0.42447E-01   -0.18445E-01   805   0.742E-01    0.250E+00
RMM:   3    -0.359951564538E+03    0.26166E-01   -0.20914E-02   803   0.375E-01    0.821E-01
RMM:   4    -0.359951724308E+03   -0.15977E-03   -0.49728E-03   805   0.176E-01    0.964E-01
RMM:   5    -0.359957086283E+03   -0.53620E-02   -0.26264E-03   801   0.136E-01    0.169E+00
RMM:   6    -0.359951605491E+03    0.54808E-02   -0.19490E-03   804   0.120E-01    0.944E-01
RMM:   7    -0.359949998019E+03    0.16075E-02   -0.18116E-03   803   0.114E-01    0.598E-01
RMM:   8    -0.359954723288E+03   -0.47253E-02   -0.53320E-03   802   0.185E-01    0.121E+00
RMM:   9    -0.359950120855E+03    0.46024E-02   -0.42088E-03   802   0.179E-01    0.585E-01
RMM:  10    -0.359948951849E+03    0.11690E-02   -0.11161E-03   800   0.898E-02    0.245E-01
RMM:  11    -0.359948952042E+03   -0.19307E-06   -0.37999E-04   803   0.490E-02    0.229E-01
RMM:  12    -0.359948898188E+03    0.53854E-04   -0.21773E-04   802   0.397E-02    0.197E-01
RMM:  13    -0.359948755332E+03    0.14286E-03   -0.10896E-04   798   0.292E-02    0.578E-02
RMM:  14    -0.359948760382E+03   -0.50503E-05   -0.36514E-05   799   0.153E-02    0.705E-02
RMM:  15    -0.359948748721E+03    0.11661E-04   -0.20033E-05   800   0.121E-02    0.528E-02
RMM:  16    -0.359948744302E+03    0.44192E-05   -0.93983E-06   780   0.825E-03    0.379E-02
RMM:  17    -0.359948747821E+03   -0.35188E-05   -0.12959E-05   794   0.918E-03    0.459E-02
RMM:  18    -0.359948739967E+03    0.78539E-05   -0.72105E-06   744   0.750E-03    0.179E-02
RMM:  19    -0.359948739291E+03    0.67554E-06   -0.11805E-06   409   0.298E-03
  23 F= -.37794000E+03 E0= -.37592724E+03  d E =-.402553E+01
       N       E                     dE             d eps       ncg     rms          rms(c)
DAV:   1    -0.359936571586E+03    0.12168E-01   -0.24054E+00   798   0.183E+00    0.380E-01
RMM:   2    -0.359958970708E+03   -0.22399E-01   -0.99117E-02   806   0.486E-01    0.198E+00
RMM:   3    -0.359948602240E+03    0.10368E-01   -0.76990E-03   802   0.221E-01    0.121E+00
RMM:   4    -0.359946754027E+03    0.18482E-02   -0.25936E-03   803   0.127E-01    0.969E-01
RMM:   5    -0.359948251655E+03   -0.14976E-02   -0.33006E-03   800   0.149E-01    0.110E+00
RMM:   6    -0.359945463494E+03    0.27882E-02   -0.23795E-03   804   0.137E-01    0.631E-01
RMM:   7    -0.359944741376E+03    0.72212E-03   -0.11385E-03   802   0.906E-02    0.432E-01
RMM:   8    -0.359947864185E+03   -0.31228E-02   -0.30575E-03   802   0.140E-01    0.990E-01
RMM:   9    -0.359944816241E+03    0.30479E-02   -0.22258E-03   806   0.131E-01    0.445E-01
RMM:  10    -0.359944200311E+03    0.61593E-03   -0.58881E-04   801   0.638E-02    0.186E-01
RMM:  11    -0.359944243428E+03   -0.43117E-04   -0.30214E-04   804   0.442E-02    0.203E-01
RMM:  12    -0.359944107200E+03    0.13623E-03   -0.14765E-04   803   0.334E-02    0.102E-01
RMM:  13    -0.359944081238E+03    0.25962E-04   -0.47931E-05   795   0.185E-02    0.608E-02
RMM:  14    -0.359944089157E+03   -0.79186E-05   -0.24637E-05   799   0.128E-02    0.775E-02
RMM:  15    -0.359944070685E+03    0.18471E-04   -0.13411E-05   794   0.103E-02    0.292E-02
RMM:  16    -0.359944069762E+03    0.92367E-06   -0.46869E-06   622   0.563E-03
  24 F= -.37793499E+03 E0= -.37592012E+03  d E =-.402973E+01
       N       E                     dE             d eps       ncg     rms          rms(c)
DAV:   1    -0.359933668106E+03    0.10403E-01   -0.47981E+00   798   0.241E+00    0.550E-01
RMM:   2    -0.359976780589E+03   -0.43112E-01   -0.23474E-01   839   0.630E-01    0.252E+00
RMM:   3    -0.359959338074E+03    0.17443E-01   -0.11669E-02   804   0.251E-01    0.153E+00
RMM:   4    -0.359958154948E+03    0.11831E-02   -0.56690E-03   801   0.190E-01    0.144E+00
RMM:   5    -0.359962784675E+03   -0.46297E-02   -0.78941E-03   802   0.232E-01    0.178E+00
RMM:   6    -0.359955742429E+03    0.70422E-02   -0.68248E-03   803   0.229E-01    0.100E+00
RMM:   7    -0.359955040069E+03    0.70236E-03   -0.39005E-03   801   0.163E-01    0.859E-01
RMM:   8    -0.359958819846E+03   -0.37798E-02   -0.60998E-03   801   0.196E-01    0.132E+00
RMM:   9    -0.359953189119E+03    0.56307E-02   -0.41700E-03   801   0.177E-01    0.558E-01
RMM:  10    -0.359952474448E+03    0.71467E-03   -0.12188E-03   801   0.896E-02    0.323E-01
RMM:  11    -0.359952221387E+03    0.25306E-03   -0.61418E-04   802   0.605E-02    0.202E-01
RMM:  12    -0.359952067121E+03    0.15427E-03   -0.24438E-04   800   0.430E-02    0.955E-02
RMM:  13    -0.359952111511E+03   -0.44390E-04   -0.10090E-04   801   0.256E-02    0.147E-01
RMM:  14    -0.359952068121E+03    0.43390E-04   -0.61111E-05   801   0.215E-02    0.104E-01
RMM:  15    -0.359952032543E+03    0.35579E-04   -0.29886E-05   795   0.149E-02    0.357E-02
RMM:  16    -0.359952042301E+03   -0.97586E-05   -0.16574E-05   791   0.102E-02    0.595E-02
RMM:  17    -0.359952036303E+03    0.59986E-05   -0.14613E-05   787   0.973E-03    0.326E-02
RMM:  18    -0.359952034741E+03    0.15618E-05   -0.71665E-06   697   0.712E-03    0.217E-02
RMM:  19    -0.359952037997E+03   -0.32565E-05   -0.30582E-06   481   0.492E-03    0.324E-02
RMM:  20    -0.359952035739E+03    0.22581E-05   -0.18390E-06   434   0.428E-03    0.674E-03
RMM:  21    -0.359952036422E+03   -0.68294E-06   -0.47373E-07   406   0.193E-03
  25 F= -.37794363E+03 E0= -.37593294E+03  d E =-.402138E+01
