 vasp.5.4.4.18Apr17-6-g9f103f2a35 (build Dec 15 2018 21:27:54) gamma-only       
  
 executed on             LinuxIFC date 2022.02.17  21:39:31
 running on   72 total cores
 distrk:  each k-point on   72 cores,    1 groups
 distr:  one band on NCORES_PER_BAND=  24 cores,    3 groups


--------------------------------------------------------------------------------------------------------


 INCAR:
 POTCAR:    PAW_PBE Ni 02Aug2007                  
 POTCAR:    PAW_PBE O 08Apr2002                   

 ----------------------------------------------------------------------------- 
|                                                                             |
|           W    W    AA    RRRRR   N    N  II  N    N   GGGG   !!!           |
|           W    W   A  A   R    R  NN   N  II  NN   N  G    G  !!!           |
|           W    W  A    A  R    R  N N  N  II  N N  N  G       !!!           |
|           W WW W  AAAAAA  RRRRR   N  N N  II  N  N N  G  GGG   !            |
|           WW  WW  A    A  R   R   N   NN  II  N   NN  G    G                |
|           W    W  A    A  R    R  N    N  II  N    N   GGGG   !!!           |
|                                                                             |
|      For optimal performance we recommend to set                            |
|        NCORE= 4 - approx SQRT( number of cores)                             |
|      NCORE specifies how many cores store one orbital (NPAR=cpu/NCORE).     |
|      This setting can  greatly improve the performance of VASP for DFT.     |
|      The default,   NCORE=1            might be grossly inefficient         |
|      on modern multi-core architectures or massively parallel machines.     |
|      Do your own testing !!!!                                               |
|      Unfortunately you need to use the default for GW and RPA calculations. |
|      (for HF NCORE is supported but not extensively tested yet)             |
|                                                                             |
 ----------------------------------------------------------------------------- 

 POTCAR:    PAW_PBE Ni 02Aug2007                  
   VRHFIN =Ni:                                                                  
   LEXCH  = PE                                                                  
   EATOM  =  1077.6739 eV,   79.2068 Ry                                         
                                                                                
   TITEL  = PAW_PBE Ni 02Aug2007                                                
   LULTRA =        F    use ultrasoft PP ?                                      
   IUNSCR =        1    unscreen: 0-lin 1-nonlin 2-no                           
   RPACOR =    2.000    partial core radius                                     
   POMASS =   58.690; ZVAL   =   10.000    mass and valenz                      
   RCORE  =    2.300    outmost cutoff radius                                   
   RWIGS  =    2.430; RWIGS  =    1.286    wigner-seitz radius (au A)           
   ENMAX  =  269.532; ENMIN  =  202.149 eV                                      
   RCLOC  =    1.201    cutoff for local pot                                    
   LCOR   =        T    correct aug charges                                     
   LPAW   =        T    paw PP                                                  
   EAUG   =  544.565                                                            
   DEXC   =    0.000                                                            
   RMAX   =    2.357    core radius for proj-oper                               
   RAUG   =    1.300    factor for augmentation sphere                          
   RDEP   =    2.390    radius for radial grids                                 
   RDEPT  =    1.838    core radius for aug-charge                              
                                                                                
   Atomic configuration                                                         
    9 entries                                                                   
     n  l   j            E        occ.                                          
     1  0  0.50     -8206.4253   2.0000                                         
     2  0  0.50      -976.1748   2.0000                                         
     2  1  1.50      -839.0571   6.0000                                         
     3  0  0.50      -105.9991   2.0000                                         
     3  1  1.50       -66.4603   6.0000                                         
     3  2  2.50        -4.6458   9.0000                                         
     4  0  0.50        -4.4926   1.0000                                         
     4  1  1.50        -4.0817   0.0000                                         
     4  3  2.50        -1.3606   0.0000                                         
   Description                                                                  
     l       E           TYP  RCUT    TYP  RCUT                                 
     2     -4.6457903     23  2.300                                             
     2     -6.0063729     23  2.300                                             
     0     -4.4925590     23  2.300                                             
     0      5.0102601     23  2.300                                             
     1     -2.7211652     23  2.300                                             
     1     16.5183231     23  2.300                                             
  local pseudopotential read in
  partial core-charges read in
  partial kinetic energy density read in
  atomic valenz-charges read in
  non local Contribution for L=           2  read in
    real space projection operators read in
  non local Contribution for L=           2  read in
    real space projection operators read in
  non local Contribution for L=           0  read in
    real space projection operators read in
  non local Contribution for L=           0  read in
    real space projection operators read in
  non local Contribution for L=           1  read in
    real space projection operators read in
  non local Contribution for L=           1  read in
    real space projection operators read in
    PAW grid and wavefunctions read in
 
   number of l-projection  operators is LMAX  =           6
   number of lm-projection operators is LMMAX =          18
 
 POTCAR:    PAW_PBE O 08Apr2002                   
   VRHFIN =O: s2p4                                                              
   LEXCH  = PE                                                                  
   EATOM  =   432.3788 eV,   31.7789 Ry                                         
                                                                                
   TITEL  = PAW_PBE O 08Apr2002                                                 
   LULTRA =        F    use ultrasoft PP ?                                      
   IUNSCR =        1    unscreen: 0-lin 1-nonlin 2-no                           
   RPACOR =    1.200    partial core radius                                     
   POMASS =   16.000; ZVAL   =    6.000    mass and valenz                      
   RCORE  =    1.520    outmost cutoff radius                                   
   RWIGS  =    1.550; RWIGS  =    0.820    wigner-seitz radius (au A)           
   ENMAX  =  400.000; ENMIN  =  300.000 eV                                      
   ICORE  =        2    local potential                                         
   LCOR   =        T    correct aug charges                                     
   LPAW   =        T    paw PP                                                  
   EAUG   =  605.392                                                            
   DEXC   =    0.000                                                            
   RMAX   =    1.553    core radius for proj-oper                               
   RAUG   =    1.300    factor for augmentation sphere                          
   RDEP   =    1.550    radius for radial grids                                 
   RDEPT  =    1.329    core radius for aug-charge                              
                                                                                
   Atomic configuration                                                         
    4 entries                                                                   
     n  l   j            E        occ.                                          
     1  0  0.50      -514.6923   2.0000                                         
     2  0  0.50       -23.9615   2.0000                                         
     2  1  0.50        -9.0305   4.0000                                         
     3  2  1.50        -9.5241   0.0000                                         
   Description                                                                  
     l       E           TYP  RCUT    TYP  RCUT                                 
     0    -23.9615318     23  1.200                                             
     0     -9.5240782     23  1.200                                             
     1     -9.0304911     23  1.520                                             
     1      8.1634956     23  1.520                                             
     2     -9.5240782      7  1.500                                             
  local pseudopotential read in
  partial core-charges read in
  partial kinetic energy density read in
  kinetic energy density of atom read in
  atomic valenz-charges read in
  non local Contribution for L=           0  read in
    real space projection operators read in
  non local Contribution for L=           0  read in
    real space projection operators read in
  non local Contribution for L=           1  read in
    real space projection operators read in
  non local Contribution for L=           1  read in
    real space projection operators read in
    PAW grid and wavefunctions read in
 
   number of l-projection  operators is LMAX  =           4
   number of lm-projection operators is LMMAX =           8
 
 Optimization of the real space projectors (new method)

 maximal supplied QI-value         = 16.25
 optimisation between [QCUT,QGAM] = [ 11.54, 23.24] = [ 37.28,151.24] Ry 
 Optimized for a Real-space Cutoff    1.45 Angstroem

   l    n(q)    QCUT    max X(q) W(low)/X(q) W(high)/X(q)  e(spline) 
   2      9    11.539    60.317    0.19E-03    0.47E-04    0.16E-06
   2      9    11.539    55.921    0.19E-03    0.48E-04    0.16E-06
   0     10    11.539    51.690    0.80E-04    0.50E-04    0.24E-06
   0     10    11.539    30.015    0.73E-04    0.45E-04    0.22E-06
   1     10    11.539    18.849    0.87E-04    0.16E-03    0.71E-07
   1     10    11.539    14.624    0.73E-04    0.13E-03    0.64E-07
 Optimization of the real space projectors (new method)

 maximal supplied QI-value         = 24.76
 optimisation between [QCUT,QGAM] = [ 11.64, 23.27] = [ 37.91,151.63] Ry 
 Optimized for a Real-space Cutoff    1.14 Angstroem

   l    n(q)    QCUT    max X(q) W(low)/X(q) W(high)/X(q)  e(spline) 
   0      8    11.635    20.381    0.10E-03    0.33E-03    0.24E-06
   0      8    11.635    15.268    0.11E-03    0.35E-03    0.26E-06
   1      7    11.635     5.964    0.24E-03    0.31E-03    0.30E-06
   1      7    11.635     5.382    0.22E-03    0.25E-03    0.26E-06
  PAW_PBE Ni 02Aug2007                  :
 energy of atom  1       EATOM=-1077.6739
 kinetic energy error for atom=    0.0030 (will be added to EATOM!!)
  PAW_PBE O 08Apr2002                   :
 energy of atom  2       EATOM= -432.3788
 kinetic energy error for atom=    0.0208 (will be added to EATOM!!)
 
 
 POSCAR: POSCAR                                  
  positions in direct lattice
  velocities in cartesian coordinates
 exchange correlation table for  LEXCH =        8
   RHO(1)=    0.500       N(1)  =     2000
   RHO(2)=  100.500       N(2)  =     4000

 VTST: version 3.2, (02/03/18)

 CHAIN: initializing optimizer
 
 OPT: Using VASP Dynamics algorithm
 CHAIN: Read ICHAIN            0
 
 POSCAR: POSCAR                                  
  positions in direct lattice
  velocities in cartesian coordinates
 


--------------------------------------------------------------------------------------------------------


 ion  position               nearest neighbor table
   1  0.113  0.226  0.095-  15 2.49  19 2.49   3 2.49   5 2.49  13 2.49  17 2.49  21 2.49  49 2.49
                            61 2.49
   2  0.111  0.228  0.383-  65 1.84  14 2.43  18 2.43  20 2.47  22 2.49  62 2.50  24 2.52   4 2.52
                             6 2.55  50 2.55
   3  0.196  0.142  0.191-  24 2.44   4 2.44   8 2.44   5 2.49  49 2.49   1 2.49   7 2.49  15 2.49
                            19 2.49  23 2.49  51 2.49  63 2.49
   4  0.030  0.059  0.285-  62 2.43   3 2.44  63 2.44  15 2.44  24 2.49   8 2.49  52 2.49  20 2.49
                            16 2.50  64 2.50   2 2.52  50 2.52
   5  0.363  0.226  0.095-   3 2.49  23 2.49   7 2.49   9 2.49   1 2.49  21 2.49  25 2.49  49 2.49
                            53 2.49
   6  0.367  0.227  0.383-  65 1.84  10 2.43  26 2.43  28 2.47  54 2.49  22 2.49   8 2.52  24 2.53
                            50 2.55   2 2.55
   7  0.446  0.142  0.191-   8 2.44  12 2.44  28 2.47   9 2.49  53 2.49   5 2.49  11 2.49   3 2.49
                            23 2.49  51 2.49  27 2.49  55 2.49
   8  0.279  0.059  0.285-  54 2.43   3 2.44  51 2.44   7 2.44  24 2.49   4 2.49  52 2.49  28 2.49
                            56 2.50  12 2.50   6 2.52  50 2.52
   9  0.613  0.226  0.095-   7 2.49  27 2.49  11 2.49  13 2.49   5 2.49  25 2.49  29 2.49  53 2.49
                            57 2.49
  10  0.611  0.227  0.383-  68 1.84   6 2.43  26 2.43  28 2.47  54 2.49  30 2.49  12 2.52  32 2.53
                            58 2.55  14 2.55
  11  0.696  0.142  0.191-  32 2.44  16 2.44  12 2.44  13 2.49  57 2.49   9 2.49  15 2.49   7 2.49
                            27 2.49  55 2.49  31 2.49  59 2.49
  12  0.530  0.059  0.285-  54 2.43  11 2.44  55 2.44   7 2.44  16 2.49  32 2.49  60 2.49  28 2.49
                            56 2.50   8 2.50  10 2.52  58 2.53
  13  0.863  0.226  0.095-  11 2.49  31 2.49  15 2.49   9 2.49   1 2.49  29 2.49  17 2.49  57 2.49
                            61 2.49
  14  0.867  0.228  0.383-  68 1.84   2 2.43  18 2.43  20 2.47  30 2.49  62 2.49  16 2.52  32 2.52
                            58 2.55  10 2.55
  15  0.946  0.142  0.191-   4 2.44  16 2.44  20 2.47   1 2.49  61 2.49  13 2.49   3 2.49  11 2.49
                            31 2.49  59 2.49  19 2.49  63 2.49
  16  0.779  0.059  0.285-  62 2.43  11 2.44  59 2.44  15 2.44  32 2.49  12 2.49  60 2.49  20 2.49
                             4 2.50  64 2.50  14 2.52  58 2.53
  17  0.113  0.476  0.095-  31 2.49  35 2.49  19 2.49  21 2.49  29 2.49  13 2.49  33 2.49   1 2.49
                            37 2.49
  18  0.111  0.472  0.383-  67 1.84   2 2.43  14 2.43  20 2.47  22 2.49  30 2.49  40 2.52  36 2.52
                            38 2.55  34 2.55
  19  0.196  0.392  0.191-  40 2.44  24 2.44  20 2.47  21 2.49   1 2.49  17 2.49  31 2.49  23 2.49
                            15 2.49  35 2.49  39 2.49   3 2.49
  20  0.030  0.309  0.286-   2 2.47  14 2.47  18 2.47  19 2.47  15 2.47  31 2.47  40 2.49  36 2.49
                            24 2.49   4 2.49  32 2.49  16 2.49
  21  0.363  0.476  0.095-  19 2.49  39 2.49  23 2.49  25 2.49  17 2.49   5 2.49  37 2.49   1 2.49
                            41 2.49
  22  0.363  0.476  0.377-  24 2.43  44 2.43  40 2.43   2 2.49  18 2.49  42 2.49  26 2.49   6 2.49
                            38 2.50
  23  0.446  0.392  0.191-  24 2.44  44 2.44  28 2.47  25 2.49   5 2.49  21 2.49  19 2.49  27 2.49
                             7 2.49  39 2.49  43 2.49   3 2.49
  24  0.279  0.309  0.285-  22 2.43   3 2.44  23 2.44  19 2.44   8 2.49   4 2.49  28 2.49  20 2.49
                            44 2.50  40 2.50   2 2.52   6 2.53
  25  0.613  0.476  0.095-  23 2.49  43 2.49  27 2.49  29 2.49  21 2.49   9 2.49  41 2.49   5 2.49
                            45 2.49
  26  0.611  0.472  0.383-  66 1.84   6 2.43  10 2.43  28 2.47  22 2.49  30 2.49  44 2.53  48 2.53
                            42 2.55  46 2.55
  27  0.696  0.392  0.191-  48 2.44  32 2.44  28 2.47  29 2.49   9 2.49  25 2.49  23 2.49  31 2.49
                            11 2.49  43 2.49  47 2.49   7 2.49
  28  0.529  0.309  0.286-   6 2.47  10 2.47  26 2.47   7 2.47  27 2.47  23 2.47  24 2.49   8 2.49
                            12 2.49  48 2.49  32 2.49  44 2.49
  29  0.863  0.476  0.095-  27 2.49  47 2.49  31 2.49  25 2.49  17 2.49  13 2.49  33 2.49  45 2.49
                             9 2.49
  30  0.863  0.476  0.377-  32 2.43  48 2.43  36 2.43  14 2.49  18 2.49  46 2.49  26 2.49  10 2.49
                            34 2.49
  31  0.946  0.392  0.191-  36 2.44  32 2.44  20 2.47  17 2.49  13 2.49  29 2.49  27 2.49  19 2.49
                            15 2.49  35 2.49  11 2.49  47 2.49
  32  0.779  0.309  0.285-  30 2.43  11 2.44  31 2.44  27 2.44  16 2.49  12 2.49  28 2.49  20 2.49
                            48 2.50  36 2.50  14 2.52  10 2.53
  33  0.113  0.726  0.095-  47 2.49  51 2.49  35 2.49  37 2.49  45 2.49  29 2.49  49 2.49  17 2.49
                            53 2.49
  34  0.111  0.728  0.383-  67 1.84  46 2.43  50 2.43  52 2.47  54 2.49  30 2.49  36 2.52  56 2.52
                            18 2.55  38 2.55
  35  0.196  0.642  0.191-  56 2.44  36 2.44  40 2.44  37 2.49  17 2.49  33 2.49  47 2.49  39 2.49
                            31 2.49  51 2.49  55 2.49  19 2.49
  36  0.030  0.559  0.285-  30 2.43  35 2.44  31 2.44  47 2.44  56 2.49  40 2.49  20 2.49  52 2.49
                            48 2.50  32 2.50  34 2.52  18 2.52
  37  0.363  0.726  0.095-  35 2.49  55 2.49  39 2.49  41 2.49  33 2.49  21 2.49  53 2.49  17 2.49
                            57 2.49
  38  0.367  0.728  0.383-  67 1.84  42 2.43  58 2.43  60 2.47  54 2.49  22 2.50  40 2.52  56 2.53
                            18 2.55  34 2.55
  39  0.446  0.642  0.191-  40 2.44  44 2.44  60 2.47  41 2.49  21 2.49  37 2.49  35 2.49  43 2.49
                            23 2.49  55 2.49  59 2.49  19 2.49
  40  0.279  0.559  0.285-  22 2.43  35 2.44  19 2.44  39 2.44  56 2.49  36 2.49  60 2.49  20 2.49
                            44 2.50  24 2.50  18 2.52  38 2.52
  41  0.613  0.726  0.095-  39 2.49  59 2.49  43 2.49  45 2.49  37 2.49  25 2.49  57 2.49  21 2.49
                            61 2.49
  42  0.611  0.727  0.383-  66 1.84  38 2.43  58 2.43  60 2.47  22 2.49  62 2.50  44 2.52  64 2.53
                            26 2.55  46 2.55
  43  0.696  0.642  0.191-  64 2.44  48 2.44  44 2.44  45 2.49  25 2.49  41 2.49  39 2.49  47 2.49
                            27 2.49  59 2.49  63 2.49  23 2.49
  44  0.530  0.559  0.285-  22 2.43  43 2.44  23 2.44  39 2.44  48 2.49  64 2.49  28 2.49  60 2.49
                            24 2.50  40 2.50  42 2.52  26 2.53
  45  0.863  0.726  0.095-  43 2.49  63 2.49  47 2.49  41 2.49  33 2.49  29 2.49  49 2.49  61 2.49
                            25 2.49
  46  0.867  0.727  0.383-  66 1.84  34 2.43  50 2.43  52 2.47  62 2.49  30 2.49  48 2.52  64 2.52
                            42 2.55  26 2.55
  47  0.946  0.642  0.191-  36 2.44  48 2.44  52 2.47  33 2.49  29 2.49  45 2.49  43 2.49  35 2.49
                            31 2.49  51 2.49  27 2.49  63 2.49
  48  0.779  0.559  0.285-  30 2.43  43 2.44  27 2.44  47 2.44  44 2.49  64 2.49  28 2.49  52 2.49
                            32 2.50  36 2.50  46 2.52  26 2.53
  49  0.113  0.976  0.095-  63 2.49   3 2.49  51 2.49  61 2.49  53 2.49   1 2.49   5 2.49  33 2.49
                            45 2.49
  50  0.111  0.972  0.383-  65 1.84  34 2.43  46 2.43  52 2.47  62 2.49  54 2.49   4 2.52   8 2.52
                             6 2.55   2 2.55
  51  0.196  0.892  0.191-   8 2.44  56 2.44  52 2.47  53 2.49  33 2.49  49 2.49  55 2.49  63 2.49
                            35 2.49  47 2.49   3 2.49   7 2.49
  52  0.029  0.809  0.286-  34 2.47  50 2.47  46 2.47  47 2.47  63 2.47  51 2.47   8 2.49  64 2.49
                             4 2.49  36 2.49  56 2.49  48 2.49
  53  0.363  0.976  0.095-  51 2.49   7 2.49  55 2.49  49 2.49  57 2.49   5 2.49   9 2.49  33 2.49
                            37 2.49
  54  0.363  0.976  0.377-  56 2.43  12 2.43   8 2.43  34 2.49  38 2.49   6 2.49  10 2.49  50 2.49
                            58 2.50
  55  0.446  0.892  0.191-  12 2.44  56 2.44  60 2.47  57 2.49  37 2.49  53 2.49  59 2.49  51 2.49
                            11 2.49  39 2.49   7 2.49  35 2.49
  56  0.279  0.809  0.285-  54 2.43  35 2.44  51 2.44  55 2.44  40 2.49  36 2.49  60 2.49  52 2.49
                             8 2.50  12 2.50  34 2.52  38 2.53
  57  0.613  0.976  0.095-  55 2.49  11 2.49  59 2.49  53 2.49  61 2.49   9 2.49  13 2.49  37 2.49
                            41 2.49
  58  0.611  0.972  0.383-  68 1.84  38 2.43  42 2.43  60 2.47  62 2.49  54 2.50  12 2.53  16 2.53
                            10 2.55  14 2.55
  59  0.696  0.892  0.191-  16 2.44  64 2.44  60 2.47  61 2.49  41 2.49  57 2.49  63 2.49  55 2.49
                            15 2.49  43 2.49  11 2.49  39 2.49
  60  0.529  0.809  0.286-  38 2.47  58 2.47  42 2.47  39 2.47  59 2.47  55 2.47  12 2.49  64 2.49
                            40 2.49  16 2.49  56 2.49  44 2.49
  61  0.863  0.976  0.095-  59 2.49  15 2.49  63 2.49  49 2.49  57 2.49  13 2.49   1 2.49  41 2.49
                            45 2.49
  62  0.863  0.976  0.377-  64 2.43   4 2.43  16 2.43  50 2.49  46 2.49  58 2.49  14 2.49  42 2.50
                             2 2.50
  63  0.946  0.892  0.191-   4 2.44  64 2.44  52 2.47  49 2.49  45 2.49  61 2.49  51 2.49  59 2.49
                             3 2.49  47 2.49  15 2.49  43 2.49
  64  0.779  0.809  0.285-  62 2.43  43 2.44  59 2.44  63 2.44  44 2.49  48 2.49  60 2.49  52 2.49
                            16 2.50   4 2.50  46 2.52  42 2.53
  65  0.196  0.142  0.435-   2 1.84   6 1.84  50 1.84
  66  0.696  0.642  0.435-  26 1.84  42 1.84  46 1.84
  67  0.196  0.642  0.435-  18 1.84  38 1.84  34 1.84
  68  0.696  0.142  0.435-  14 1.84  10 1.84  58 1.84
 

IMPORTANT INFORMATION: All symmetrisations will be switched off!
NOSYMM: (Re-)initialisation of all symmetry stuff for point group C_1.

 
 
 KPOINTS: K-POINTS                                

Automatic generation of k-mesh.
Space group operators:
 irot       det(A)        alpha          n_x          n_y          n_z        tau_x        tau_y        tau_z
    1     1.000000     0.000000     1.000000     0.000000     0.000000     0.000000     0.000000     0.000000
 
 Subroutine IBZKPT returns following result:
 ===========================================
 
 Found      1 irreducible k-points:
 
 Following reciprocal coordinates:
            Coordinates               Weight
  0.000000  0.000000  0.000000      1.000000
 
 Following cartesian coordinates:
            Coordinates               Weight
  0.000000  0.000000  0.000000      1.000000
 
 
 Subroutine IBZKPT_HF returns following result:
 ==============================================
 
 Found      1 k-points in 1st BZ
 the following      1 k-points will be used (e.g. in the exchange kernel)
 Following reciprocal coordinates:   # in IRBZ
  0.000000  0.000000  0.000000    1.00000000   1 t-inv F


--------------------------------------------------------------------------------------------------------




 Dimension of arrays:
   k-points           NKPTS =      1   k-points in BZ     NKDIM =      1   number of bands    NBANDS=    399
   number of dos      NEDOS =    301   number of ions     NIONS =     68
   non local maximal  LDIM  =      6   non local SUM 2l+1 LMDIM =     18
   total plane-waves  NPLWV = ******
   max r-space proj   IRMAX =   7188   max aug-charges    IRDMAX=  18478
   dimension x,y,z NGX =    80 NGY =   80 NGZ =  160
   dimension x,y,z NGXF=   160 NGYF=  160 NGZF=  320
   support grid    NGXF=   160 NGYF=  160 NGZF=  320
   ions per type =              64   4
   NGX,Y,Z   is equivalent  to a cutoff of  13.34, 13.34, 12.60 a.u.
   NGXF,Y,Z  is equivalent  to a cutoff of  26.69, 26.69, 25.21 a.u.

 SYSTEM =  SQS-NiFe                                
 POSCAR =  POSCAR                                  

 Startparameter for this run:
   NWRITE =      2    write-flag & timer
   PREC   = accura    normal or accurate (medium, high low for compatibility)
   ISTART =      0    job   : 0-new  1-cont  2-samecut
   ICHARG =      1    charge: 1-file 2-atom 10-const
   ISPIN  =      1    spin polarized calculation?
   LNONCOLLINEAR =      F non collinear calculations
   LSORBIT =      F    spin-orbit coupling
   INIWAV =      1    electr: 0-lowe 1-rand  2-diag
   LASPH  =      F    aspherical Exc in radial PAW
   METAGGA=      F    non-selfconsistent MetaGGA calc.

 Electronic Relaxation 1
   ENCUT  =  520.0 eV  38.22 Ry    6.18 a.u.  18.53 18.53 39.24*2*pi/ulx,y,z
   ENINI  =  520.0     initial cutoff
   ENAUG  =  605.4 eV  augmentation charge cutoff
   NELM   =    200;   NELMIN=  2; NELMDL= -5     # of ELM steps 
   EDIFF  = 0.1E-05   stopping-criterion for ELM
   LREAL  =      T    real-space projection
   NLSPLINE    = F    spline interpolate recip. space projectors
   LCOMPAT=      F    compatible to vasp.4.4
   GGA_COMPAT  = T    GGA compatible to vasp.4.4-vasp.4.6
   LMAXPAW     = -100 max onsite density
   LMAXMIX     =    2 max onsite mixed and CHGCAR
   VOSKOWN=      0    Vosko Wilk Nusair interpolation
   ROPT   =   -0.00025  -0.00025
 Ionic relaxation
   EDIFFG = -.2E-01   stopping-criterion for IOM
   NSW    =    853    number of steps for IOM
   NBLOCK =      1;   KBLOCK =    853    inner block; outer block 
   IBRION =      5    ionic relax: 0-MD 1-quasi-New 2-CG
   NFREE  =      2    steps in history (QN), initial steepest desc. (CG)
   ISIF   =      2    stress and relaxation
   IWAVPR =     11    prediction:  0-non 1-charg 2-wave 3-comb
   ISYM   =      0    0-nonsym 1-usesym 2-fastsym
   LCORR  =      T    Harris-Foulkes like correction to forces

   POTIM  = 0.0150    time-step for ionic-motion
   TEIN   =    0.0    initial temperature
   TEBEG  =    0.0;   TEEND  =   0.0 temperature during run
   SMASS  =  -3.00    Nose mass-parameter (am)
   estimated Nose-frequenzy (Omega)   =  0.10E-29 period in steps =****** mass=  -0.227E-26a.u.
   SCALEE = 1.0000    scale energy and forces
   NPACO  =    256;   APACO  = 16.0  distance and # of slots for P.C.
   PSTRESS=    0.0 pullay stress

  Mass of Ions in am
   POMASS =  58.69 16.00
  Ionic Valenz
   ZVAL   =  10.00  6.00
  Atomic Wigner-Seitz radii
   RWIGS  =  -1.00 -1.00
  virtual crystal weights 
   VCA    =   1.00  1.00
   NELECT =     664.0000    total number of electrons
   NUPDOWN=      -1.0000    fix difference up-down

 DOS related values:
   EMIN   =  10.00;   EMAX   =-10.00  energy-range for DOS
   EFERMI =   0.00
   ISMEAR =     0;   SIGMA  =   0.20  broadening in eV -4-tet -1-fermi 0-gaus

 Electronic relaxation 2 (details)
   IALGO  =     68    algorithm
   LDIAG  =      T    sub-space diagonalisation (order eigenvalues)
   LSUBROT=      F    optimize rotation matrix (better conditioning)
   TURBO    =      0    0=normal 1=particle mesh
   IRESTART =      0    0=no restart 2=restart with 2 vectors
   NREBOOT  =      0    no. of reboots
   NMIN     =      0    reboot dimension
   EREF     =   0.00    reference energy to select bands
   IMIX   =      4    mixing-type and parameters
     AMIX     =   0.40;   BMIX     =  1.00
     AMIX_MAG =   1.60;   BMIX_MAG =  1.00
     AMIN     =   0.10
     WC   =   100.;   INIMIX=   1;  MIXPRE=   1;  MAXMIX= -45

 Intra band minimization:
   WEIMIN = 0.0010     energy-eigenvalue tresh-hold
   EBREAK =  0.63E-09  absolut break condition
   DEPER  =   0.30     relativ break condition  

   TIME   =   0.40     timestep for ELM

  volume/ion in A,a.u.               =      26.70       180.19
  Fermi-wavevector in a.u.,A,eV,Ry     =   1.170703  2.212308 18.647406  1.370546
  Thomas-Fermi vector in A             =   2.307158
 
 Write flags
   LWAVE        =      F    write WAVECAR
   LDOWNSAMPLE  =      F    k-point downsampling of WAVECAR
   LCHARG       =      F    write CHGCAR
   LVTOT        =      F    write LOCPOT, total local potential
   LVHAR        =      F    write LOCPOT, Hartree potential only
   LELF         =      F    write electronic localiz. function (ELF)
   LORBIT       =     10    0 simple, 1 ext, 2 COOP (PROOUT), +10 PAW based schemes


 Dipole corrections
   LMONO  =      F    monopole corrections only (constant potential shift)
   LDIPOL =      F    correct potential (dipole corrections)
   IDIPOL =      0    1-x, 2-y, 3-z, 4-all directions 
   EPSILON=  1.0000000 bulk dielectric constant

 Exchange correlation treatment:
   GGA     =    --    GGA type
   LEXCH   =     8    internal setting for exchange type
   VOSKOWN=      0    Vosko Wilk Nusair interpolation
   LHFCALC =     F    Hartree Fock is set to
   LHFONE  =     F    Hartree Fock one center treatment
   AEXX    =    0.0000 exact exchange contribution

 Linear response parameters
   LEPSILON=     F    determine dielectric tensor
   LRPA    =     F    only Hartree local field effects (RPA)
   LNABLA  =     F    use nabla operator in PAW spheres
   LVEL    =     F    velocity operator in full k-point grid
   LINTERFAST=   F  fast interpolation
   KINTER  =     0    interpolate to denser k-point grid
   CSHIFT  =0.1000    complex shift for real part using Kramers Kronig
   OMEGAMAX=  -1.0    maximum frequency
   DEG_THRESHOLD= 0.2000000E-02 threshold for treating states as degnerate
   RTIME   =   -0.100 relaxation time in fs
  (WPLASMAI=    0.000 imaginary part of plasma frequency in eV, 0.658/RTIME)
   DFIELD  = 0.0000000 0.0000000 0.0000000 field for delta impulse in time
 
 Orbital magnetization related:
   ORBITALMAG=     F  switch on orbital magnetization
   LCHIMAG   =     F  perturbation theory with respect to B field
   DQ        =  0.001000  dq finite difference perturbation B field
   LLRAUG    =     F  two centre corrections for induced B field



--------------------------------------------------------------------------------------------------------


 finite differences
   using selective dynamics as specified on POSCAR
 charge density and potential will be updated during run
 non-spin polarized calculation
 RMM-DIIS sequential band-by-band and
  variant of blocked Davidson during initial phase
 perform sub-space diagonalisation
    before iterative eigenvector-optimisation
 modified Broyden-mixing scheme, WC =      100.0
 initial mixing is a Kerker type mixing with AMIX =  0.4000 and BMIX =      1.0000
 Hartree-type preconditioning will be used
 using additional bands           67
 real space projection scheme for non local part
 use partial core corrections
 calculate Harris-corrections to forces 
   (improved forces if not selfconsistent)
 use gradient corrections 
 use of overlap-Matrix (Vanderbilt PP)
 Gauss-broadening in eV      SIGMA  =   0.20


--------------------------------------------------------------------------------------------------------


  energy-cutoff  :      520.00
  volume of cell :     1815.73
      direct lattice vectors                 reciprocal lattice vectors
     9.967380000  0.000000000  0.000000000     0.100327268  0.057923975  0.000000000
    -4.983690000  8.632004290  0.000000000     0.000000000  0.115847950  0.000000000
     0.000000000  0.000000000 21.103750000     0.000000000  0.000000000  0.047384943

  length of vectors
     9.967380000  9.967380001 21.103750000     0.115847950  0.115847950  0.047384943


 
 k-points in units of 2pi/SCALE and weight: K-POINTS                                
   0.00000000  0.00000000  0.00000000       1.000
 
 k-points in reciprocal lattice and weights: K-POINTS                                
   0.00000000  0.00000000  0.00000000       1.000
 
 position of ions in fractional coordinates (direct lattice) 
   0.11283300  0.22566700  0.09477000
   0.11092482  0.22757355  0.38250136
   0.19616700  0.14233300  0.19117800
   0.02980593  0.05914509  0.28471391
   0.36283300  0.22566700  0.09477000
   0.36661655  0.22745473  0.38252654
   0.44616700  0.14233300  0.19117800
   0.27929155  0.05910384  0.28471731
   0.61283300  0.22566700  0.09477000
   0.61085361  0.22745237  0.38253542
   0.69616700  0.14233300  0.19117800
   0.52982641  0.05910194  0.28473294
   0.86283300  0.22566700  0.09477000
   0.86671765  0.22755920  0.38251066
   0.94616700  0.14233300  0.19117800
   0.77932387  0.05913939  0.28472720
   0.11283300  0.47566700  0.09477000
   0.11094396  0.47183049  0.38251567
   0.19616700  0.39233300  0.19117800
   0.02953141  0.30901187  0.28645662
   0.36283300  0.47566700  0.09477000
   0.36277200  0.47554750  0.37714213
   0.44616700  0.39233300  0.19117800
   0.27933184  0.30861538  0.28471016
   0.61283300  0.47566700  0.09477000
   0.61084262  0.47170806  0.38256243
   0.69616700  0.39233300  0.19117800
   0.52945895  0.30891242  0.28647107
   0.86283300  0.47566700  0.09477000
   0.86279672  0.47556828  0.37714388
   0.94616700  0.39233300  0.19117800
   0.77930660  0.30860657  0.28472030
   0.11283300  0.72566700  0.09477000
   0.11087517  0.72755880  0.38250166
   0.19616700  0.64233300  0.19117800
   0.02980650  0.55913896  0.28471717
   0.36283300  0.72566700  0.09477000
   0.36665804  0.72754397  0.38253097
   0.44616700  0.64233300  0.19117800
   0.27934363  0.55915500  0.28472150
   0.61283300  0.72566700  0.09477000
   0.61083800  0.72745936  0.38254628
   0.69616700  0.64233300  0.19117800
   0.52982286  0.55910391  0.28473328
   0.86283300  0.72566700  0.09477000
   0.86660831  0.72749218  0.38251312
   0.94616700  0.64233300  0.19117800
   0.77927720  0.55909274  0.28472939
   0.11283300  0.97566700  0.09477000
   0.11086335  0.97178854  0.38251636
   0.19616700  0.89233300  0.19117800
   0.02946358  0.80897569  0.28646295
   0.36283300  0.97566700  0.09477000
   0.36275968  0.97554825  0.37713827
   0.44616700  0.89233300  0.19117800
   0.27930506  0.80861333  0.28471008
   0.61283300  0.97566700  0.09477000
   0.61091785  0.97176753  0.38255727
   0.69616700  0.89233300  0.19117800
   0.52948713  0.80896195  0.28647409
   0.86283300  0.97566700  0.09477000
   0.86280603  0.97557442  0.37714103
   0.94616700  0.89233300  0.19117800
   0.77928077  0.80860209  0.28472222
   0.19611409  0.14231243  0.43475347
   0.69614094  0.64224730  0.43470615
   0.19612898  0.64232866  0.43473714
   0.69626324  0.14234524  0.43471009
 
 position of ions in cartesian coordinates  (Angst):
  -0.00000498  1.94795851  2.00000239
  -0.02852616  1.96441588  8.07221297
   1.24592748  1.22861907  4.03457272
   0.00232626  0.51054066  6.00853123
   2.49184002  1.94795851  2.00000239
   2.52064257  1.96339019  8.07274446
   3.73777248  1.22861907  4.03457272
   2.48924981  0.51018459  6.00860297
   4.98368502  1.94795851  2.00000239
   4.95505797  1.96336980  8.07293192
   6.22961748  1.22861907  4.03457272
   4.98643538  0.51016818  6.00893269
   7.47553002  1.94795851  2.00000239
   7.50481970  1.96429195  8.07240926
   8.72146248  1.22861907  4.03457272
   7.47308476  0.51049144  6.00881168
  -1.24592748  4.10595958  2.00000239
  -1.24563628  4.07284284  8.07251501
   0.00000498  3.38662014  4.03457272
  -1.24566856  2.66739176  6.04530897
   1.24591752  4.10595958  2.00000239
   1.24590507  4.10492805  7.95911321
   2.49184998  3.38662014  4.03457272
   1.24616319  2.66396929  6.00845213
   3.73776252  4.10595958  2.00000239
   3.73765380  4.07178597  8.07350193
   4.98369498  3.38662014  4.03457272
   3.73779476  2.66653334  6.04561379
   6.22960752  4.10595958  2.00000239
   6.22973793  4.10510741  7.95915021
   7.47553998  3.38662014  4.03457272
   6.22964558  2.66389322  6.00866609
  -2.49184998  6.26396066  2.00000239
  -2.52079253  6.28029071  8.07221934
  -1.24591752  5.54462121  4.03457272
  -2.48948250  4.82648990  6.00859997
  -0.00000498  6.26396066  2.00000239
   0.02876640  6.28016265  8.07283788
   1.24592748  5.54462121  4.03457272
  -0.00233105  4.82662837  6.00869126
   2.49184002  6.26396066  2.00000239
   2.46302248  6.27943234  8.07316110
   3.73777248  5.54462121  4.03457272
   2.49454519  4.82618734  6.00893992
   4.98368502  6.26396066  2.00000239
   5.01221886  6.27971561  8.07246126
   6.22961748  5.54462121  4.03457272
   4.98100704  4.82609096  6.00885786
  -3.73777248  8.42196173  2.00000239
  -3.73807572  8.38848281  8.07252971
  -2.49184002  7.70262228  4.03457272
  -3.73800934  6.98308165  6.04544253
  -1.24592748  8.42196173  2.00000239
  -1.24606650  8.42093668  7.95903175
   0.00000498  7.70262228  4.03457272
  -1.24593854  6.97995375  6.00845028
   1.24591752  8.42196173  2.00000239
   1.24626228  8.38830149  8.07339301
   2.49184998  7.70262228  4.03457272
   1.24598382  6.98296301  6.04567754
   3.73776252  8.42196173  2.00000239
   3.73795514  8.42116254  7.95909006
   4.98369498  7.70262228  4.03457272
   3.73756539  6.97985669  6.00870661
   1.24550268  1.22844148  9.17492859
   3.73793987  5.54388145  9.17392986
  -1.24627484  5.54458373  9.17458402
   6.23051576  1.22872468  9.17401304
 


--------------------------------------------------------------------------------------------------------


 use parallel FFT for orbitals z direction half grid
 k-point  1 :   0.0000 0.0000 0.0000  plane waves:   24475

 maximum and minimum number of plane-waves per node :      1022     1017

 maximum number of plane-waves:     24475
 maximum index in each direction: 
   IXMAX=   18   IYMAX=   18   IZMAX=   39
   IXMIN=  -18   IYMIN=  -18   IZMIN=    0


 real space projection operators:
  total allocation   :      63052.69 KBytes
  max/ min on nodes  :       3200.42       2316.36


 parallel 3D FFT for wavefunctions:
    minimum data exchange during FFTs selected (reduces bandwidth)
 parallel 3D FFT for charge:
    minimum data exchange during FFTs selected (reduces bandwidth)


 total amount of memory used by VASP MPI-rank0    52822. kBytes
=======================================================================

   base      :      30000. kBytes
   nonlr-proj:       3914. kBytes
   fftplans  :       5964. kBytes
   grid      :      10693. kBytes
   one-center:         23. kBytes
   wavefun   :       2228. kBytes
 
     INWAV:  cpu time    0.0001: real time    0.0005
 Broyden mixing: mesh for mixing (old mesh)
   NGX = 37   NGY = 37   NGZ = 79
  (NGX  =160   NGY  =160   NGZ  =320)
  gives a total of 108151 points

 initial charge density was supplied:
 number of electron     664.0000031 magnetization 
 keeping initial charge density in first step


--------------------------------------------------------------------------------------------------------


 Maximum index for non-local projection operator          709
 Maximum index for augmentation-charges         1178 (set IRDMAX)


--------------------------------------------------------------------------------------------------------


 First call to EWALD:  gamma=   0.145
 Maximum number of real-space cells 4x 4x 2
 Maximum number of reciprocal cells 2x 2x 4

    FEWALD:  cpu time    0.0035: real time    0.0053


--------------------------------------- Iteration      1(   1)  ---------------------------------------


    POTLOK:  cpu time    0.1841: real time    0.1994
    SETDIJ:  cpu time    0.0122: real time    0.0259
     EDDAV:  cpu time    2.2987: real time    2.5254
       DOS:  cpu time    0.0031: real time    0.0093
    --------------------------------------------
      LOOP:  cpu time    2.4981: real time    2.7612

 eigenvalue-minimisations  :   798
 total energy-change (2. order) : 0.5980561E+04  (-0.3457393E+05)
 number of electron     664.0000031 magnetization 
 augmentation part      664.0000031 magnetization 

 Free energy of the ion-electron system (eV)
  ---------------------------------------------------
  alpha Z        PSCENC =      1227.48193683
  Ewald energy   TEWEN  =    247891.88410989
  -Hartree energ DENC   =   -316534.61757360
  -exchange      EXHF   =         0.00000000
  -V(xc)+E(xc)   XCENC  =      2063.74802623
  PAW double counting   =     74326.33189372   -78721.91165940
  entropy T*S    EENTRO =        -0.20038213
  eigenvalues    EBANDS =      5027.47367741
  atomic energy  EATOM  =     70700.37078785
  Solvation  Ediel_sol  =         0.00000000
  ---------------------------------------------------
  free energy    TOTEN  =      5980.56081679 eV

  energy without entropy =     5980.76119892  energy(sigma->0) =     5980.66100786


--------------------------------------------------------------------------------------------------------




--------------------------------------- Iteration      1(   2)  ---------------------------------------


     EDDAV:  cpu time    2.2908: real time    2.3070
       DOS:  cpu time    0.0013: real time    0.0013
    --------------------------------------------
      LOOP:  cpu time    2.2920: real time    2.3072

 eigenvalue-minimisations  :   798
 total energy-change (2. order) :-0.5624311E+04  (-0.5432163E+04)
 number of electron     664.0000031 magnetization 
 augmentation part      664.0000031 magnetization 

 Free energy of the ion-electron system (eV)
  ---------------------------------------------------
  alpha Z        PSCENC =      1227.48193683
  Ewald energy   TEWEN  =    247891.88410989
  -Hartree energ DENC   =   -316534.61757360
  -exchange      EXHF   =         0.00000000
  -V(xc)+E(xc)   XCENC  =      2063.74802623
  PAW double counting   =     74326.33189372   -78721.91165940
  entropy T*S    EENTRO =        -0.57624642
  eigenvalues    EBANDS =      -596.46182774
  atomic energy  EATOM  =     70700.37078785
  Solvation  Ediel_sol  =         0.00000000
  ---------------------------------------------------
  free energy    TOTEN  =       356.24944735 eV

  energy without entropy =      356.82569377  energy(sigma->0) =      356.53757056


--------------------------------------------------------------------------------------------------------




--------------------------------------- Iteration      1(   3)  ---------------------------------------


     EDDAV:  cpu time    2.2939: real time    2.3065
       DOS:  cpu time    0.0014: real time    0.0014
    --------------------------------------------
      LOOP:  cpu time    2.2953: real time    2.3079

 eigenvalue-minimisations  :   798
 total energy-change (2. order) :-0.6358252E+03  (-0.5750571E+03)
 number of electron     664.0000031 magnetization 
 augmentation part      664.0000031 magnetization 

 Free energy of the ion-electron system (eV)
  ---------------------------------------------------
  alpha Z        PSCENC =      1227.48193683
  Ewald energy   TEWEN  =    247891.88410989
  -Hartree energ DENC   =   -316534.61757360
  -exchange      EXHF   =         0.00000000
  -V(xc)+E(xc)   XCENC  =      2063.74802623
  PAW double counting   =     74326.33189372   -78721.91165940
  entropy T*S    EENTRO =        -2.61703669
  eigenvalues    EBANDS =     -1230.24619051
  atomic energy  EATOM  =     70700.37078785
  Solvation  Ediel_sol  =         0.00000000
  ---------------------------------------------------
  free energy    TOTEN  =      -279.57570568 eV

  energy without entropy =     -276.95866899  energy(sigma->0) =     -278.26718734


--------------------------------------------------------------------------------------------------------




--------------------------------------- Iteration      1(   4)  ---------------------------------------


     EDDAV:  cpu time    2.9584: real time    2.9807
       DOS:  cpu time    0.0014: real time    0.0014
    --------------------------------------------
      LOOP:  cpu time    2.9598: real time    2.9821

 eigenvalue-minimisations  :  1110
 total energy-change (2. order) :-0.7639276E+02  (-0.6810847E+02)
 number of electron     664.0000031 magnetization 
 augmentation part      664.0000031 magnetization 

 Free energy of the ion-electron system (eV)
  ---------------------------------------------------
  alpha Z        PSCENC =      1227.48193683
  Ewald energy   TEWEN  =    247891.88410989
  -Hartree energ DENC   =   -316534.61757360
  -exchange      EXHF   =         0.00000000
  -V(xc)+E(xc)   XCENC  =      2063.74802623
  PAW double counting   =     74326.33189372   -78721.91165940
  entropy T*S    EENTRO =        -3.27155485
  eigenvalues    EBANDS =     -1305.98443491
  atomic energy  EATOM  =     70700.37078785
  Solvation  Ediel_sol  =         0.00000000
  ---------------------------------------------------
  free energy    TOTEN  =      -355.96846825 eV

  energy without entropy =     -352.69691340  energy(sigma->0) =     -354.33269083


--------------------------------------------------------------------------------------------------------




--------------------------------------- Iteration      1(   5)  ---------------------------------------


     EDDAV:  cpu time    2.4141: real time    2.4259
       DOS:  cpu time    0.0015: real time    0.0015
    CHARGE:  cpu time    0.1101: real time    0.1222
    MIXING:  cpu time    0.0059: real time    0.0136
    --------------------------------------------
      LOOP:  cpu time    2.5317: real time    2.5632

 eigenvalue-minimisations  :   858
 total energy-change (2. order) :-0.5014807E+01  (-0.4861571E+01)
 number of electron     664.0000023 magnetization 
 augmentation part      399.9202130 magnetization 

 Broyden mixing:
  rms(total) = 0.10701E+01    rms(broyden)= 0.10700E+01
  rms(prec ) = 0.12907E+01
  weight for this iteration     100.00

 Free energy of the ion-electron system (eV)
  ---------------------------------------------------
  alpha Z        PSCENC =      1227.48193683
  Ewald energy   TEWEN  =    247891.88410989
  -Hartree energ DENC   =   -316534.61757360
  -exchange      EXHF   =         0.00000000
  -V(xc)+E(xc)   XCENC  =      2063.74802623
  PAW double counting   =     74326.33189372   -78721.91165940
  entropy T*S    EENTRO =        -3.42658826
  eigenvalues    EBANDS =     -1310.84420833
  atomic energy  EATOM  =     70700.37078785
  Solvation  Ediel_sol  =         0.00000000
  ---------------------------------------------------
  free energy    TOTEN  =      -360.98327508 eV

  energy without entropy =     -357.55668682  energy(sigma->0) =     -359.26998095


--------------------------------------------------------------------------------------------------------




--------------------------------------- Iteration      1(   6)  ---------------------------------------


    POTLOK:  cpu time    0.1766: real time    0.1858
    SETDIJ:  cpu time    0.0098: real time    0.0098
    EDDIAG:  cpu time    0.3413: real time    0.3519
  RMM-DIIS:  cpu time    1.5958: real time    1.6038
    ORTHCH:  cpu time    0.0742: real time    0.0743
       DOS:  cpu time    0.0016: real time    0.0016
    CHARGE:  cpu time    0.1094: real time    0.1094
    MIXING:  cpu time    0.0048: real time    0.0062
    --------------------------------------------
      LOOP:  cpu time    2.3136: real time    2.3428

 eigenvalue-minimisations  :   804
 total energy-change (2. order) :-0.5165116E+02  (-0.3262300E+01)
 number of electron     664.0000052 magnetization 
 augmentation part      392.8898742 magnetization 

 Broyden mixing:
  rms(total) = 0.95589E+01    rms(broyden)= 0.95588E+01
  rms(prec ) = 0.11708E+02
  weight for this iteration     100.00

 eigenvalues of (default mixing * dielectric matrix)
  average eigenvalue GAMMA=   0.0854
  0.0854

 Free energy of the ion-electron system (eV)
  ---------------------------------------------------
  alpha Z        PSCENC =      1227.48193683
  Ewald energy   TEWEN  =    247891.88410989
  -Hartree energ DENC   =   -316745.12161904
  -exchange      EXHF   =         0.00000000
  -V(xc)+E(xc)   XCENC  =      2066.81187117
  PAW double counting   =     74667.20051456   -79074.50948979
  entropy T*S    EENTRO =        -1.75976488
  eigenvalues    EBANDS =     -1144.99278059
  atomic energy  EATOM  =     70700.37078785
  Solvation  Ediel_sol  =         0.00000000
  ---------------------------------------------------
  free energy    TOTEN  =      -412.63443400 eV

  energy without entropy =     -410.87466912  energy(sigma->0) =     -411.75455156


--------------------------------------------------------------------------------------------------------




--------------------------------------- Iteration      1(   7)  ---------------------------------------


    POTLOK:  cpu time    0.1787: real time    0.1891
    SETDIJ:  cpu time    0.0099: real time    0.0099
    EDDIAG:  cpu time    0.3360: real time    0.3362
  RMM-DIIS:  cpu time    1.5929: real time    1.5942
    ORTHCH:  cpu time    0.0737: real time    0.0737
       DOS:  cpu time    0.0016: real time    0.0016
    CHARGE:  cpu time    0.1079: real time    0.1079
    MIXING:  cpu time    0.0034: real time    0.0034
    --------------------------------------------
      LOOP:  cpu time    2.3050: real time    2.3159

 eigenvalue-minimisations  :   801
 total energy-change (2. order) : 0.4119193E+02  (-0.2421505E+01)
 number of electron     664.0000065 magnetization 
 augmentation part      396.0327875 magnetization 

 Broyden mixing:
  rms(total) = 0.46673E+01    rms(broyden)= 0.46672E+01
  rms(prec ) = 0.55251E+01
  weight for this iteration     100.00

 eigenvalues of (default mixing * dielectric matrix)
  average eigenvalue GAMMA=   0.0875
  0.0875  0.0875

 Free energy of the ion-electron system (eV)
  ---------------------------------------------------
  alpha Z        PSCENC =      1227.48193683
  Ewald energy   TEWEN  =    247891.88410989
  -Hartree energ DENC   =   -316679.49417905
  -exchange      EXHF   =         0.00000000
  -V(xc)+E(xc)   XCENC  =      2066.30717070
  PAW double counting   =     74661.45268238   -79065.35776610
  entropy T*S    EENTRO =        -2.73106492
  eigenvalues    EBANDS =     -1171.35618566
  atomic energy  EATOM  =     70700.37078785
  Solvation  Ediel_sol  =         0.00000000
  ---------------------------------------------------
  free energy    TOTEN  =      -371.44250808 eV

  energy without entropy =     -368.71144316  energy(sigma->0) =     -370.07697562


--------------------------------------------------------------------------------------------------------




--------------------------------------- Iteration      1(   8)  ---------------------------------------


    POTLOK:  cpu time    0.1803: real time    0.1926
    SETDIJ:  cpu time    0.0098: real time    0.0098
    EDDIAG:  cpu time    0.3358: real time    0.3358
  RMM-DIIS:  cpu time    1.6418: real time    1.6422
    ORTHCH:  cpu time    0.0741: real time    0.0741
       DOS:  cpu time    0.0017: real time    0.0017
    CHARGE:  cpu time    0.1079: real time    0.1079
    MIXING:  cpu time    0.0036: real time    0.0036
    --------------------------------------------
      LOOP:  cpu time    2.3541: real time    2.3676

 eigenvalue-minimisations  :   810
 total energy-change (2. order) : 0.1005378E+02  (-0.6407374E+00)
 number of electron     664.0000036 magnetization 
 augmentation part      397.4488586 magnetization 

 Broyden mixing:
  rms(total) = 0.19185E+01    rms(broyden)= 0.19182E+01
  rms(prec ) = 0.25661E+01
  weight for this iteration     100.00

 eigenvalues of (default mixing * dielectric matrix)
  average eigenvalue GAMMA=   0.0851
  0.0978  0.0978  0.0598

 Free energy of the ion-electron system (eV)
  ---------------------------------------------------
  alpha Z        PSCENC =      1227.48193683
  Ewald energy   TEWEN  =    247891.88410989
  -Hartree energ DENC   =   -316615.25776502
  -exchange      EXHF   =         0.00000000
  -V(xc)+E(xc)   XCENC  =      2066.28624379
  PAW double counting   =     74651.05082196   -79052.87743372
  entropy T*S    EENTRO =        -3.61898879
  eigenvalues    EBANDS =     -1226.70844457
  atomic energy  EATOM  =     70700.37078785
  Solvation  Ediel_sol  =         0.00000000
  ---------------------------------------------------
  free energy    TOTEN  =      -361.38873176 eV

  energy without entropy =     -357.76974298  energy(sigma->0) =     -359.57923737


--------------------------------------------------------------------------------------------------------




--------------------------------------- Iteration      1(   9)  ---------------------------------------


    POTLOK:  cpu time    0.1805: real time    0.1930
    SETDIJ:  cpu time    0.0100: real time    0.0100
    EDDIAG:  cpu time    0.3455: real time    0.3456
  RMM-DIIS:  cpu time    1.6380: real time    1.6387
    ORTHCH:  cpu time    0.0747: real time    0.0747
       DOS:  cpu time    0.0016: real time    0.0016
    CHARGE:  cpu time    0.1086: real time    0.1086
    MIXING:  cpu time    0.0037: real time    0.0037
    --------------------------------------------
      LOOP:  cpu time    2.3627: real time    2.3758

 eigenvalue-minimisations  :   815
 total energy-change (2. order) : 0.1155247E+01  (-0.8820729E-01)
 number of electron     664.0000028 magnetization 
 augmentation part      397.3526376 magnetization 

 Broyden mixing:
  rms(total) = 0.85763E+00    rms(broyden)= 0.85751E+00
  rms(prec ) = 0.11677E+01
  weight for this iteration     100.00

 eigenvalues of (default mixing * dielectric matrix)
  average eigenvalue GAMMA=   0.1521
  0.3726  0.0951  0.0951  0.0457

 Free energy of the ion-electron system (eV)
  ---------------------------------------------------
  alpha Z        PSCENC =      1227.48193683
  Ewald energy   TEWEN  =    247891.88410989
  -Hartree energ DENC   =   -316612.27672188
  -exchange      EXHF   =         0.00000000
  -V(xc)+E(xc)   XCENC  =      2066.19150908
  PAW double counting   =     74643.41218281   -79044.36144466
  entropy T*S    EENTRO =        -3.99957545
  eigenvalues    EBANDS =     -1228.93626914
  atomic energy  EATOM  =     70700.37078785
  Solvation  Ediel_sol  =         0.00000000
  ---------------------------------------------------
  free energy    TOTEN  =      -360.23348466 eV

  energy without entropy =     -356.23390921  energy(sigma->0) =     -358.23369693


--------------------------------------------------------------------------------------------------------




--------------------------------------- Iteration      1(  10)  ---------------------------------------


    POTLOK:  cpu time    0.1806: real time    0.1915
    SETDIJ:  cpu time    0.0097: real time    0.0097
    EDDIAG:  cpu time    0.3374: real time    0.3375
  RMM-DIIS:  cpu time    1.5887: real time    1.5892
    ORTHCH:  cpu time    0.0744: real time    0.0744
       DOS:  cpu time    0.0017: real time    0.0016
    CHARGE:  cpu time    0.1082: real time    0.1082
    MIXING:  cpu time    0.0038: real time    0.0038
    --------------------------------------------
      LOOP:  cpu time    2.3044: real time    2.3159

 eigenvalue-minimisations  :   805
 total energy-change (2. order) :-0.3272315E+00  (-0.1000125E+00)
 number of electron     664.0000034 magnetization 
 augmentation part      398.0587115 magnetization 

 Broyden mixing:
  rms(total) = 0.12459E+01    rms(broyden)= 0.12458E+01
  rms(prec ) = 0.15039E+01
  weight for this iteration     100.00

 eigenvalues of (default mixing * dielectric matrix)
  average eigenvalue GAMMA=   0.2098
  0.7041  0.1147  0.0934  0.0934  0.0436

 Free energy of the ion-electron system (eV)
  ---------------------------------------------------
  alpha Z        PSCENC =      1227.48193683
  Ewald energy   TEWEN  =    247891.88410989
  -Hartree energ DENC   =   -316600.48075916
  -exchange      EXHF   =         0.00000000
  -V(xc)+E(xc)   XCENC  =      2065.76663302
  PAW double counting   =     74602.58863467   -78997.76005355
  entropy T*S    EENTRO =        -3.75268782
  eigenvalues    EBANDS =     -1246.65931787
  atomic energy  EATOM  =     70700.37078785
  Solvation  Ediel_sol  =         0.00000000
  ---------------------------------------------------
  free energy    TOTEN  =      -360.56071613 eV

  energy without entropy =     -356.80802831  energy(sigma->0) =     -358.68437222


--------------------------------------------------------------------------------------------------------




--------------------------------------- Iteration      1(  11)  ---------------------------------------


    POTLOK:  cpu time    0.1797: real time    0.1929
    SETDIJ:  cpu time    0.0099: real time    0.0099
    EDDIAG:  cpu time    0.3372: real time    0.3373
  RMM-DIIS:  cpu time    1.5976: real time    1.5979
    ORTHCH:  cpu time    0.0745: real time    0.0745
       DOS:  cpu time    0.0017: real time    0.0017
    CHARGE:  cpu time    0.1079: real time    0.1079
    MIXING:  cpu time    0.0039: real time    0.0039
    --------------------------------------------
      LOOP:  cpu time    2.3123: real time    2.3259

 eigenvalue-minimisations  :   807
 total energy-change (2. order) : 0.5022563E+00  (-0.4755018E-01)
 number of electron     664.0000031 magnetization 
 augmentation part      398.5709723 magnetization 

 Broyden mixing:
  rms(total) = 0.47596E+00    rms(broyden)= 0.47587E+00
  rms(prec ) = 0.54914E+00
  weight for this iteration     100.00

 eigenvalues of (default mixing * dielectric matrix)
  average eigenvalue GAMMA=   0.2271
  0.8060  0.2224  0.0922  0.0922  0.1057  0.0438

 Free energy of the ion-electron system (eV)
  ---------------------------------------------------
  alpha Z        PSCENC =      1227.48193683
  Ewald energy   TEWEN  =    247891.88410989
  -Hartree energ DENC   =   -316581.61743256
  -exchange      EXHF   =         0.00000000
  -V(xc)+E(xc)   XCENC  =      2065.55911769
  PAW double counting   =     74553.70000537   -78943.89718466
  entropy T*S    EENTRO =        -3.92552210
  eigenvalues    EBANDS =     -1269.61427818
  atomic energy  EATOM  =     70700.37078785
  Solvation  Ediel_sol  =         0.00000000
  ---------------------------------------------------
  free energy    TOTEN  =      -360.05845986 eV

  energy without entropy =     -356.13293776  energy(sigma->0) =     -358.09569881


--------------------------------------------------------------------------------------------------------




--------------------------------------- Iteration      1(  12)  ---------------------------------------


    POTLOK:  cpu time    0.1805: real time    0.1923
    SETDIJ:  cpu time    0.0098: real time    0.0098
    EDDIAG:  cpu time    0.3396: real time    0.3397
  RMM-DIIS:  cpu time    1.5864: real time    1.5886
    ORTHCH:  cpu time    0.0749: real time    0.0749
       DOS:  cpu time    0.0016: real time    0.0016
    CHARGE:  cpu time    0.1084: real time    0.1084
    MIXING:  cpu time    0.0040: real time    0.0040
    --------------------------------------------
      LOOP:  cpu time    2.3052: real time    2.3192

 eigenvalue-minimisations  :   804
 total energy-change (2. order) :-0.1844939E-01  (-0.2196213E-01)
 number of electron     664.0000032 magnetization 
 augmentation part      398.4162225 magnetization 

 Broyden mixing:
  rms(total) = 0.58929E+00    rms(broyden)= 0.58924E+00
  rms(prec ) = 0.66701E+00
  weight for this iteration     100.00

 eigenvalues of (default mixing * dielectric matrix)
  average eigenvalue GAMMA=   0.3331
  1.4021  0.5033  0.0438  0.0925  0.0925  0.1128  0.0848

 Free energy of the ion-electron system (eV)
  ---------------------------------------------------
  alpha Z        PSCENC =      1227.48193683
  Ewald energy   TEWEN  =    247891.88410989
  -Hartree energ DENC   =   -316587.83404709
  -exchange      EXHF   =         0.00000000
  -V(xc)+E(xc)   XCENC  =      2065.68571318
  PAW double counting   =     74531.17531484   -78920.68994586
  entropy T*S    EENTRO =        -3.94780953
  eigenvalues    EBANDS =     -1264.20296938
  atomic energy  EATOM  =     70700.37078785
  Solvation  Ediel_sol  =         0.00000000
  ---------------------------------------------------
  free energy    TOTEN  =      -360.07690925 eV

  energy without entropy =     -356.12909972  energy(sigma->0) =     -358.10300449


--------------------------------------------------------------------------------------------------------




--------------------------------------- Iteration      1(  13)  ---------------------------------------


    POTLOK:  cpu time    0.1821: real time    0.1937
    SETDIJ:  cpu time    0.0098: real time    0.0098
    EDDIAG:  cpu time    0.3357: real time    0.3358
  RMM-DIIS:  cpu time    1.5974: real time    1.5978
    ORTHCH:  cpu time    0.0737: real time    0.0737
       DOS:  cpu time    0.0016: real time    0.0016
    CHARGE:  cpu time    0.1085: real time    0.1085
    MIXING:  cpu time    0.0041: real time    0.0041
    --------------------------------------------
      LOOP:  cpu time    2.3129: real time    2.3249

 eigenvalue-minimisations  :   803
 total energy-change (2. order) : 0.8240370E-01  (-0.1721010E-01)
 number of electron     664.0000028 magnetization 
 augmentation part      398.0886128 magnetization 

 Broyden mixing:
  rms(total) = 0.34655E+00    rms(broyden)= 0.34648E+00
  rms(prec ) = 0.39724E+00
  weight for this iteration     100.00

 eigenvalues of (default mixing * dielectric matrix)
  average eigenvalue GAMMA=   0.3467
  1.5072  0.5930  0.2552  0.0438  0.0930  0.0930  0.1093  0.0795

 Free energy of the ion-electron system (eV)
  ---------------------------------------------------
  alpha Z        PSCENC =      1227.48193683
  Ewald energy   TEWEN  =    247891.88410989
  -Hartree energ DENC   =   -316596.96316831
  -exchange      EXHF   =         0.00000000
  -V(xc)+E(xc)   XCENC  =      2066.13894898
  PAW double counting   =     74471.36038894   -78859.80361296
  entropy T*S    EENTRO =        -3.98909782
  eigenvalues    EBANDS =     -1256.47479897
  atomic energy  EATOM  =     70700.37078785
  Solvation  Ediel_sol  =         0.00000000
  ---------------------------------------------------
  free energy    TOTEN  =      -359.99450556 eV

  energy without entropy =     -356.00540774  energy(sigma->0) =     -357.99995665


--------------------------------------------------------------------------------------------------------




--------------------------------------- Iteration      1(  14)  ---------------------------------------


    POTLOK:  cpu time    0.1808: real time    0.1931
    SETDIJ:  cpu time    0.0099: real time    0.0099
    EDDIAG:  cpu time    0.3351: real time    0.3351
  RMM-DIIS:  cpu time    1.5929: real time    1.5976
    ORTHCH:  cpu time    0.0746: real time    0.0747
       DOS:  cpu time    0.0017: real time    0.0017
    CHARGE:  cpu time    0.1082: real time    0.1082
    MIXING:  cpu time    0.0042: real time    0.0042
    --------------------------------------------
      LOOP:  cpu time    2.3083: real time    2.3245

 eigenvalue-minimisations  :   802
 total energy-change (2. order) :-0.5349376E-01  (-0.1364023E-01)
 number of electron     664.0000030 magnetization 
 augmentation part      397.9729702 magnetization 

 Broyden mixing:
  rms(total) = 0.49890E+00    rms(broyden)= 0.49887E+00
  rms(prec ) = 0.55765E+00
  weight for this iteration     100.00

 eigenvalues of (default mixing * dielectric matrix)
  average eigenvalue GAMMA=   0.3923
  1.4841  1.1248  0.4119  0.0438  0.0929  0.0929  0.1102  0.0937  0.0764

 Free energy of the ion-electron system (eV)
  ---------------------------------------------------
  alpha Z        PSCENC =      1227.48193683
  Ewald energy   TEWEN  =    247891.88410989
  -Hartree energ DENC   =   -316600.98482850
  -exchange      EXHF   =         0.00000000
  -V(xc)+E(xc)   XCENC  =      2066.23972057
  PAW double counting   =     74447.49650748   -78835.07643447
  entropy T*S    EENTRO =        -4.00735066
  eigenvalues    EBANDS =     -1253.45244831
  atomic energy  EATOM  =     70700.37078785
  Solvation  Ediel_sol  =         0.00000000
  ---------------------------------------------------
  free energy    TOTEN  =      -360.04799931 eV

  energy without entropy =     -356.04064866  energy(sigma->0) =     -358.04432399


--------------------------------------------------------------------------------------------------------




--------------------------------------- Iteration      1(  15)  ---------------------------------------


    POTLOK:  cpu time    0.1816: real time    0.1940
    SETDIJ:  cpu time    0.0097: real time    0.0097
    EDDIAG:  cpu time    0.3357: real time    0.3357
  RMM-DIIS:  cpu time    1.5970: real time    1.5975
    ORTHCH:  cpu time    0.0747: real time    0.0747
       DOS:  cpu time    0.0017: real time    0.0017
    CHARGE:  cpu time    0.1083: real time    0.1083
    MIXING:  cpu time    0.0044: real time    0.0044
    --------------------------------------------
      LOOP:  cpu time    2.3131: real time    2.3260

 eigenvalue-minimisations  :   803
 total energy-change (2. order) : 0.5686210E-01  (-0.7867894E-02)
 number of electron     664.0000031 magnetization 
 augmentation part      398.0578485 magnetization 

 Broyden mixing:
  rms(total) = 0.33749E+00    rms(broyden)= 0.33746E+00
  rms(prec ) = 0.39645E+00
  weight for this iteration     100.00

 eigenvalues of (default mixing * dielectric matrix)
  average eigenvalue GAMMA=   0.3761
  1.4737  1.2533  0.4181  0.0438  0.0928  0.0928  0.1153  0.1153  0.0781  0.0781

 Free energy of the ion-electron system (eV)
  ---------------------------------------------------
  alpha Z        PSCENC =      1227.48193683
  Ewald energy   TEWEN  =    247891.88410989
  -Hartree energ DENC   =   -316602.10117164
  -exchange      EXHF   =         0.00000000
  -V(xc)+E(xc)   XCENC  =      2066.32829492
  PAW double counting   =     74404.67176944   -78790.24976257
  entropy T*S    EENTRO =        -3.99930209
  eigenvalues    EBANDS =     -1254.37779984
  atomic energy  EATOM  =     70700.37078785
  Solvation  Ediel_sol  =         0.00000000
  ---------------------------------------------------
  free energy    TOTEN  =      -359.99113721 eV

  energy without entropy =     -355.99183512  energy(sigma->0) =     -357.99148617


--------------------------------------------------------------------------------------------------------




--------------------------------------- Iteration      1(  16)  ---------------------------------------


    POTLOK:  cpu time    0.1818: real time    0.1942
    SETDIJ:  cpu time    0.0098: real time    0.0098
    EDDIAG:  cpu time    0.3372: real time    0.3372
  RMM-DIIS:  cpu time    1.6033: real time    1.6049
    ORTHCH:  cpu time    0.0744: real time    0.0743
       DOS:  cpu time    0.0015: real time    0.0015
    CHARGE:  cpu time    0.1104: real time    0.1104
    MIXING:  cpu time    0.0050: real time    0.0049
    --------------------------------------------
      LOOP:  cpu time    2.3224: real time    2.3373

 eigenvalue-minimisations  :   806
 total energy-change (2. order) : 0.2435838E-01  (-0.3110771E-02)
 number of electron     664.0000031 magnetization 
 augmentation part      398.0865729 magnetization 

 Broyden mixing:
  rms(total) = 0.21451E+00    rms(broyden)= 0.21449E+00
  rms(prec ) = 0.25609E+00
  weight for this iteration     100.00

 eigenvalues of (default mixing * dielectric matrix)
  average eigenvalue GAMMA=   0.4121
  1.8120  1.2927  0.4574  0.3964  0.0930  0.0930  0.1116  0.0438  0.0923  0.0786
  0.0626

 Free energy of the ion-electron system (eV)
  ---------------------------------------------------
  alpha Z        PSCENC =      1227.48193683
  Ewald energy   TEWEN  =    247891.88410989
  -Hartree energ DENC   =   -316601.97165057
  -exchange      EXHF   =         0.00000000
  -V(xc)+E(xc)   XCENC  =      2066.32987678
  PAW double counting   =     74394.81290853   -78779.91363731
  entropy T*S    EENTRO =        -4.00163919
  eigenvalues    EBANDS =     -1254.95947165
  atomic energy  EATOM  =     70700.37078785
  Solvation  Ediel_sol  =         0.00000000
  ---------------------------------------------------
  free energy    TOTEN  =      -359.96677884 eV

  energy without entropy =     -355.96513965  energy(sigma->0) =     -357.96595924


--------------------------------------------------------------------------------------------------------




--------------------------------------- Iteration      1(  17)  ---------------------------------------


    POTLOK:  cpu time    0.1798: real time    0.1930
    SETDIJ:  cpu time    0.0100: real time    0.0100
    EDDIAG:  cpu time    0.3367: real time    0.3368
  RMM-DIIS:  cpu time    1.5931: real time    1.5934
    ORTHCH:  cpu time    0.0740: real time    0.0740
       DOS:  cpu time    0.0015: real time    0.0015
    CHARGE:  cpu time    0.1083: real time    0.1082
    MIXING:  cpu time    0.0050: real time    0.0050
    --------------------------------------------
      LOOP:  cpu time    2.3084: real time    2.3219

 eigenvalue-minimisations  :   803
 total energy-change (2. order) :-0.1060291E-01  (-0.3036375E-02)
 number of electron     664.0000031 magnetization 
 augmentation part      398.1083245 magnetization 

 Broyden mixing:
  rms(total) = 0.26584E+00    rms(broyden)= 0.26582E+00
  rms(prec ) = 0.30394E+00
  weight for this iteration     100.00

 eigenvalues of (default mixing * dielectric matrix)
  average eigenvalue GAMMA=   0.4259
  2.1911  1.2323  0.5990  0.4166  0.0929  0.0929  0.0438  0.1116  0.1003  0.0922
  0.0768  0.0606

 Free energy of the ion-electron system (eV)
  ---------------------------------------------------
  alpha Z        PSCENC =      1227.48193683
  Ewald energy   TEWEN  =    247891.88410989
  -Hartree energ DENC   =   -316602.14604354
  -exchange      EXHF   =         0.00000000
  -V(xc)+E(xc)   XCENC  =      2066.31560503
  PAW double counting   =     74366.63913092   -78750.44692665
  entropy T*S    EENTRO =        -4.01121210
  eigenvalues    EBANDS =     -1256.06476998
  atomic energy  EATOM  =     70700.37078785
  Solvation  Ediel_sol  =         0.00000000
  ---------------------------------------------------
  free energy    TOTEN  =      -359.97738175 eV

  energy without entropy =     -355.96616964  energy(sigma->0) =     -357.97177570


--------------------------------------------------------------------------------------------------------




--------------------------------------- Iteration      1(  18)  ---------------------------------------


    POTLOK:  cpu time    0.1917: real time    0.1923
    SETDIJ:  cpu time    0.0098: real time    0.0098
    EDDIAG:  cpu time    0.3536: real time    0.3536
  RMM-DIIS:  cpu time    1.5873: real time    1.5877
    ORTHCH:  cpu time    0.0745: real time    0.0745
       DOS:  cpu time    0.0015: real time    0.0015
    CHARGE:  cpu time    0.1087: real time    0.1087
    MIXING:  cpu time    0.0049: real time    0.0049
    --------------------------------------------
      LOOP:  cpu time    2.3320: real time    2.3332

 eigenvalue-minimisations  :   805
 total energy-change (2. order) : 0.2420884E-01  (-0.1619844E-02)
 number of electron     664.0000031 magnetization 
 augmentation part      398.1354757 magnetization 

 Broyden mixing:
  rms(total) = 0.93481E-01    rms(broyden)= 0.93459E-01
  rms(prec ) = 0.11054E+00
  weight for this iteration     100.00

 eigenvalues of (default mixing * dielectric matrix)
  average eigenvalue GAMMA=   0.4075
  2.2310  1.2331  0.5898  0.4192  0.1542  0.0438  0.0929  0.0929  0.1086  0.1086
  0.0847  0.0788  0.0605

 Free energy of the ion-electron system (eV)
  ---------------------------------------------------
  alpha Z        PSCENC =      1227.48193683
  Ewald energy   TEWEN  =    247891.88410989
  -Hartree energ DENC   =   -316601.61612558
  -exchange      EXHF   =         0.00000000
  -V(xc)+E(xc)   XCENC  =      2066.32000458
  PAW double counting   =     74345.89688549   -78728.81649689
  entropy T*S    EENTRO =        -4.02905999
  eigenvalues    EBANDS =     -1257.44521510
  atomic energy  EATOM  =     70700.37078785
  Solvation  Ediel_sol  =         0.00000000
  ---------------------------------------------------
  free energy    TOTEN  =      -359.95317290 eV

  energy without entropy =     -355.92411291  energy(sigma->0) =     -357.93864291


--------------------------------------------------------------------------------------------------------




--------------------------------------- Iteration      1(  19)  ---------------------------------------


    POTLOK:  cpu time    0.1823: real time    0.1947
    SETDIJ:  cpu time    0.0098: real time    0.0098
    EDDIAG:  cpu time    0.3380: real time    0.3381
  RMM-DIIS:  cpu time    1.5919: real time    1.5924
    ORTHCH:  cpu time    0.0739: real time    0.0739
       DOS:  cpu time    0.0016: real time    0.0016
    CHARGE:  cpu time    0.1080: real time    0.1080
    MIXING:  cpu time    0.0050: real time    0.0050
    --------------------------------------------
      LOOP:  cpu time    2.3105: real time    2.3235

 eigenvalue-minimisations  :   802
 total energy-change (2. order) : 0.9232183E-03  (-0.2419170E-03)
 number of electron     664.0000031 magnetization 
 augmentation part      398.1319705 magnetization 

 Broyden mixing:
  rms(total) = 0.91860E-01    rms(broyden)= 0.91856E-01
  rms(prec ) = 0.10923E+00
  weight for this iteration     100.00

 eigenvalues of (default mixing * dielectric matrix)
  average eigenvalue GAMMA=   0.4276
  2.3501  1.2607  0.6130  0.6130  0.4093  0.0929  0.0929  0.0438  0.1099  0.1099
  0.0890  0.0779  0.0641  0.0597

 Free energy of the ion-electron system (eV)
  ---------------------------------------------------
  alpha Z        PSCENC =      1227.48193683
  Ewald energy   TEWEN  =    247891.88410989
  -Hartree energ DENC   =   -316601.75407618
  -exchange      EXHF   =         0.00000000
  -V(xc)+E(xc)   XCENC  =      2066.33295989
  PAW double counting   =     74342.75757458   -78725.60287081
  entropy T*S    EENTRO =        -4.02776151
  eigenvalues    EBANDS =     -1257.39491024
  atomic energy  EATOM  =     70700.37078785
  Solvation  Ediel_sol  =         0.00000000
  ---------------------------------------------------
  free energy    TOTEN  =      -359.95224969 eV

  energy without entropy =     -355.92448818  energy(sigma->0) =     -357.93836893


--------------------------------------------------------------------------------------------------------




--------------------------------------- Iteration      1(  20)  ---------------------------------------


    POTLOK:  cpu time    0.1936: real time    0.1944
    SETDIJ:  cpu time    0.0098: real time    0.0098
    EDDIAG:  cpu time    0.3367: real time    0.3367
  RMM-DIIS:  cpu time    1.5843: real time    1.5856
    ORTHCH:  cpu time    0.0743: real time    0.0743
       DOS:  cpu time    0.0016: real time    0.0015
    CHARGE:  cpu time    0.1090: real time    0.1090
    MIXING:  cpu time    0.0051: real time    0.0051
    --------------------------------------------
      LOOP:  cpu time    2.3143: real time    2.3165

 eigenvalue-minimisations  :   803
 total energy-change (2. order) : 0.1690771E-02  (-0.1694155E-03)
 number of electron     664.0000030 magnetization 
 augmentation part      398.1104497 magnetization 

 Broyden mixing:
  rms(total) = 0.56611E-01    rms(broyden)= 0.56608E-01
  rms(prec ) = 0.68939E-01
  weight for this iteration     100.00

 eigenvalues of (default mixing * dielectric matrix)
  average eigenvalue GAMMA=   0.4184
  2.3958  1.2867  0.6577  0.6577  0.4103  0.1341  0.0929  0.0929  0.0438  0.1113
  0.1027  0.0898  0.0775  0.0628  0.0593

 Free energy of the ion-electron system (eV)
  ---------------------------------------------------
  alpha Z        PSCENC =      1227.48193683
  Ewald energy   TEWEN  =    247891.88410989
  -Hartree energ DENC   =   -316602.40426152
  -exchange      EXHF   =         0.00000000
  -V(xc)+E(xc)   XCENC  =      2066.38136084
  PAW double counting   =     74333.34386541   -78716.02861472
  entropy T*S    EENTRO =        -4.02573157
  eigenvalues    EBANDS =     -1256.95401194
  atomic energy  EATOM  =     70700.37078785
  Solvation  Ediel_sol  =         0.00000000
  ---------------------------------------------------
  free energy    TOTEN  =      -359.95055892 eV

  energy without entropy =     -355.92482734  energy(sigma->0) =     -357.93769313


--------------------------------------------------------------------------------------------------------




--------------------------------------- Iteration      1(  21)  ---------------------------------------


    POTLOK:  cpu time    0.1810: real time    0.1929
    SETDIJ:  cpu time    0.0101: real time    0.0101
    EDDIAG:  cpu time    0.3389: real time    0.3390
  RMM-DIIS:  cpu time    1.5905: real time    1.5907
    ORTHCH:  cpu time    0.0736: real time    0.0736
       DOS:  cpu time    0.0016: real time    0.0017
    CHARGE:  cpu time    0.1085: real time    0.1086
    MIXING:  cpu time    0.0053: real time    0.0053
    --------------------------------------------
      LOOP:  cpu time    2.3095: real time    2.3218

 eigenvalue-minimisations  :   805
 total energy-change (2. order) : 0.8081592E-03  (-0.9773765E-04)
 number of electron     664.0000030 magnetization 
 augmentation part      398.1070937 magnetization 

 Broyden mixing:
  rms(total) = 0.34519E-01    rms(broyden)= 0.34517E-01
  rms(prec ) = 0.44675E-01
  weight for this iteration     100.00

 eigenvalues of (default mixing * dielectric matrix)
  average eigenvalue GAMMA=   0.4295
  2.4550  1.3712  0.6910  0.6910  0.4172  0.4172  0.0929  0.0929  0.0438  0.1093
  0.1093  0.0938  0.0876  0.0777  0.0624  0.0592

 Free energy of the ion-electron system (eV)
  ---------------------------------------------------
  alpha Z        PSCENC =      1227.48193683
  Ewald energy   TEWEN  =    247891.88410989
  -Hartree energ DENC   =   -316602.45311713
  -exchange      EXHF   =         0.00000000
  -V(xc)+E(xc)   XCENC  =      2066.39130069
  PAW double counting   =     74330.22144573   -78712.83702651
  entropy T*S    EENTRO =        -4.02535484
  eigenvalues    EBANDS =     -1256.98383328
  atomic energy  EATOM  =     70700.37078785
  Solvation  Ediel_sol  =         0.00000000
  ---------------------------------------------------
  free energy    TOTEN  =      -359.94975076 eV

  energy without entropy =     -355.92439592  energy(sigma->0) =     -357.93707334


--------------------------------------------------------------------------------------------------------




--------------------------------------- Iteration      1(  22)  ---------------------------------------


    POTLOK:  cpu time    0.1812: real time    0.1922
    SETDIJ:  cpu time    0.0098: real time    0.0098
    EDDIAG:  cpu time    0.3359: real time    0.3359
  RMM-DIIS:  cpu time    1.6064: real time    1.6079
    ORTHCH:  cpu time    0.0745: real time    0.0745
       DOS:  cpu time    0.0016: real time    0.0016
    CHARGE:  cpu time    0.1087: real time    0.1087
    MIXING:  cpu time    0.0058: real time    0.0057
    --------------------------------------------
      LOOP:  cpu time    2.3239: real time    2.3365

 eigenvalue-minimisations  :   803
 total energy-change (2. order) :-0.1764537E-03  (-0.7618091E-04)
 number of electron     664.0000030 magnetization 
 augmentation part      398.1118539 magnetization 

 Broyden mixing:
  rms(total) = 0.37007E-01    rms(broyden)= 0.37005E-01
  rms(prec ) = 0.42537E-01
  weight for this iteration     100.00

 eigenvalues of (default mixing * dielectric matrix)
  average eigenvalue GAMMA=   0.4421
  2.5251  1.5140  0.7793  0.7793  0.5689  0.4122  0.0929  0.0929  0.0438  0.1202
  0.1092  0.1092  0.0894  0.0774  0.0803  0.0624  0.0592

 Free energy of the ion-electron system (eV)
  ---------------------------------------------------
  alpha Z        PSCENC =      1227.48193683
  Ewald energy   TEWEN  =    247891.88410989
  -Hartree energ DENC   =   -316602.20362388
[...]
     -1.246275  5.544584  9.174584    -0.501899   -0.441511   -0.027784  
      6.230516  1.228725  9.174013     0.335548   -0.081242    0.018727  
 
  10 f  =   11.713133 THz    73.595785 2PiTHz  390.708047 cm-1    48.441641 meV
             X         Y         Z           dx          dy          dz
     -0.000005  1.947959  2.000002            0           0           0  
     -0.028526  1.964416  8.072213            0           0           0  
      1.245927  1.228619  4.034573            0           0           0  
      0.002326  0.510541  6.008531            0           0           0  
      2.491840  1.947959  2.000002            0           0           0  
      2.520643  1.963390  8.072744            0           0           0  
      3.737772  1.228619  4.034573            0           0           0  
      2.489250  0.510185  6.008603            0           0           0  
      4.983685  1.947959  2.000002            0           0           0  
      4.955058  1.963370  8.072932            0           0           0  
      6.229617  1.228619  4.034573            0           0           0  
      4.986435  0.510168  6.008933            0           0           0  
      7.475530  1.947959  2.000002            0           0           0  
      7.504820  1.964292  8.072409            0           0           0  
      8.721462  1.228619  4.034573            0           0           0  
      7.473085  0.510491  6.008812            0           0           0  
     -1.245927  4.105960  2.000002            0           0           0  
     -1.245636  4.072843  8.072515            0           0           0  
      0.000005  3.386620  4.034573            0           0           0  
     -1.245669  2.667392  6.045309            0           0           0  
      1.245918  4.105960  2.000002            0           0           0  
      1.245905  4.104928  7.959113            0           0           0  
      2.491850  3.386620  4.034573            0           0           0  
      1.246163  2.663969  6.008452            0           0           0  
      3.737763  4.105960  2.000002            0           0           0  
      3.737654  4.071786  8.073502            0           0           0  
      4.983695  3.386620  4.034573            0           0           0  
      3.737795  2.666533  6.045614            0           0           0  
      6.229608  4.105960  2.000002            0           0           0  
      6.229738  4.105107  7.959150            0           0           0  
      7.475540  3.386620  4.034573            0           0           0  
      6.229646  2.663893  6.008666            0           0           0  
     -2.491850  6.263961  2.000002            0           0           0  
     -2.520793  6.280291  8.072219            0           0           0  
     -1.245918  5.544621  4.034573            0           0           0  
     -2.489482  4.826490  6.008600            0           0           0  
     -0.000005  6.263961  2.000002            0           0           0  
      0.028766  6.280163  8.072838            0           0           0  
      1.245927  5.544621  4.034573            0           0           0  
     -0.002331  4.826628  6.008691            0           0           0  
      2.491840  6.263961  2.000002            0           0           0  
      2.463022  6.279432  8.073161            0           0           0  
      3.737772  5.544621  4.034573            0           0           0  
      2.494545  4.826187  6.008940            0           0           0  
      4.983685  6.263961  2.000002            0           0           0  
      5.012219  6.279716  8.072461            0           0           0  
      6.229617  5.544621  4.034573            0           0           0  
      4.981007  4.826091  6.008858            0           0           0  
     -3.737772  8.421962  2.000002            0           0           0  
     -3.738076  8.388483  8.072530            0           0           0  
     -2.491840  7.702622  4.034573            0           0           0  
     -3.738009  6.983082  6.045443            0           0           0  
     -1.245927  8.421962  2.000002            0           0           0  
     -1.246066  8.420937  7.959032            0           0           0  
      0.000005  7.702622  4.034573            0           0           0  
     -1.245939  6.979954  6.008450            0           0           0  
      1.245918  8.421962  2.000002            0           0           0  
      1.246262  8.388301  8.073393            0           0           0  
      2.491850  7.702622  4.034573            0           0           0  
      1.245984  6.982963  6.045678            0           0           0  
      3.737763  8.421962  2.000002            0           0           0  
      3.737955  8.421163  7.959090            0           0           0  
      4.983695  7.702622  4.034573            0           0           0  
      3.737565  6.979857  6.008707            0           0           0  
      1.245503  1.228441  9.174929     0.418927   -0.339527   -0.028690  
      3.737940  5.543881  9.173930     0.432530   -0.638782   -0.007305  
     -1.246275  5.544584  9.174584    -0.116322   -0.283466    0.028400  
      6.230516  1.228725  9.174013    -0.112176    0.076562    0.009258  
 
  11 f  =   11.701304 THz    73.521460 2PiTHz  390.313470 cm-1    48.392720 meV
             X         Y         Z           dx          dy          dz
     -0.000005  1.947959  2.000002            0           0           0  
     -0.028526  1.964416  8.072213            0           0           0  
      1.245927  1.228619  4.034573            0           0           0  
      0.002326  0.510541  6.008531            0           0           0  
      2.491840  1.947959  2.000002            0           0           0  
      2.520643  1.963390  8.072744            0           0           0  
      3.737772  1.228619  4.034573            0           0           0  
      2.489250  0.510185  6.008603            0           0           0  
      4.983685  1.947959  2.000002            0           0           0  
      4.955058  1.963370  8.072932            0           0           0  
      6.229617  1.228619  4.034573            0           0           0  
      4.986435  0.510168  6.008933            0           0           0  
      7.475530  1.947959  2.000002            0           0           0  
      7.504820  1.964292  8.072409            0           0           0  
      8.721462  1.228619  4.034573            0           0           0  
      7.473085  0.510491  6.008812            0           0           0  
     -1.245927  4.105960  2.000002            0           0           0  
     -1.245636  4.072843  8.072515            0           0           0  
      0.000005  3.386620  4.034573            0           0           0  
     -1.245669  2.667392  6.045309            0           0           0  
      1.245918  4.105960  2.000002            0           0           0  
      1.245905  4.104928  7.959113            0           0           0  
      2.491850  3.386620  4.034573            0           0           0  
      1.246163  2.663969  6.008452            0           0           0  
      3.737763  4.105960  2.000002            0           0           0  
      3.737654  4.071786  8.073502            0           0           0  
      4.983695  3.386620  4.034573            0           0           0  
      3.737795  2.666533  6.045614            0           0           0  
      6.229608  4.105960  2.000002            0           0           0  
      6.229738  4.105107  7.959150            0           0           0  
      7.475540  3.386620  4.034573            0           0           0  
      6.229646  2.663893  6.008666            0           0           0  
     -2.491850  6.263961  2.000002            0           0           0  
     -2.520793  6.280291  8.072219            0           0           0  
     -1.245918  5.544621  4.034573            0           0           0  
     -2.489482  4.826490  6.008600            0           0           0  
     -0.000005  6.263961  2.000002            0           0           0  
      0.028766  6.280163  8.072838            0           0           0  
      1.245927  5.544621  4.034573            0           0           0  
     -0.002331  4.826628  6.008691            0           0           0  
      2.491840  6.263961  2.000002            0           0           0  
      2.463022  6.279432  8.073161            0           0           0  
      3.737772  5.544621  4.034573            0           0           0  
      2.494545  4.826187  6.008940            0           0           0  
      4.983685  6.263961  2.000002            0           0           0  
      5.012219  6.279716  8.072461            0           0           0  
      6.229617  5.544621  4.034573            0           0           0  
      4.981007  4.826091  6.008858            0           0           0  
     -3.737772  8.421962  2.000002            0           0           0  
     -3.738076  8.388483  8.072530            0           0           0  
     -2.491840  7.702622  4.034573            0           0           0  
     -3.738009  6.983082  6.045443            0           0           0  
     -1.245927  8.421962  2.000002            0           0           0  
     -1.246066  8.420937  7.959032            0           0           0  
      0.000005  7.702622  4.034573            0           0           0  
     -1.245939  6.979954  6.008450            0           0           0  
      1.245918  8.421962  2.000002            0           0           0  
      1.246262  8.388301  8.073393            0           0           0  
      2.491850  7.702622  4.034573            0           0           0  
      1.245984  6.982963  6.045678            0           0           0  
      3.737763  8.421962  2.000002            0           0           0  
      3.737955  8.421163  7.959090            0           0           0  
      4.983695  7.702622  4.034573            0           0           0  
      3.737565  6.979857  6.008707            0           0           0  
      1.245503  1.228441  9.174929     0.119267   -0.375016    0.031975  
      3.737940  5.543881  9.173930    -0.051423    0.052984   -0.008453  
     -1.246275  5.544584  9.174584     0.435935   -0.086430   -0.022938  
      6.230516  1.228725  9.174013     0.338626   -0.725180    0.001962  
 
  12 f  =   11.698063 THz    73.501098 2PiTHz  390.205372 cm-1    48.379318 meV
             X         Y         Z           dx          dy          dz
     -0.000005  1.947959  2.000002            0           0           0  
     -0.028526  1.964416  8.072213            0           0           0  
      1.245927  1.228619  4.034573            0           0           0  
      0.002326  0.510541  6.008531            0           0           0  
      2.491840  1.947959  2.000002            0           0           0  
      2.520643  1.963390  8.072744            0           0           0  
      3.737772  1.228619  4.034573            0           0           0  
      2.489250  0.510185  6.008603            0           0           0  
      4.983685  1.947959  2.000002            0           0           0  
      4.955058  1.963370  8.072932            0           0           0  
      6.229617  1.228619  4.034573            0           0           0  
      4.986435  0.510168  6.008933            0           0           0  
      7.475530  1.947959  2.000002            0           0           0  
      7.504820  1.964292  8.072409            0           0           0  
      8.721462  1.228619  4.034573            0           0           0  
      7.473085  0.510491  6.008812            0           0           0  
     -1.245927  4.105960  2.000002            0           0           0  
     -1.245636  4.072843  8.072515            0           0           0  
      0.000005  3.386620  4.034573            0           0           0  
     -1.245669  2.667392  6.045309            0           0           0  
      1.245918  4.105960  2.000002            0           0           0  
      1.245905  4.104928  7.959113            0           0           0  
      2.491850  3.386620  4.034573            0           0           0  
      1.246163  2.663969  6.008452            0           0           0  
      3.737763  4.105960  2.000002            0           0           0  
      3.737654  4.071786  8.073502            0           0           0  
      4.983695  3.386620  4.034573            0           0           0  
      3.737795  2.666533  6.045614            0           0           0  
      6.229608  4.105960  2.000002            0           0           0  
      6.229738  4.105107  7.959150            0           0           0  
      7.475540  3.386620  4.034573            0           0           0  
      6.229646  2.663893  6.008666            0           0           0  
     -2.491850  6.263961  2.000002            0           0           0  
     -2.520793  6.280291  8.072219            0           0           0  
     -1.245918  5.544621  4.034573            0           0           0  
     -2.489482  4.826490  6.008600            0           0           0  
     -0.000005  6.263961  2.000002            0           0           0  
      0.028766  6.280163  8.072838            0           0           0  
      1.245927  5.544621  4.034573            0           0           0  
     -0.002331  4.826628  6.008691            0           0           0  
      2.491840  6.263961  2.000002            0           0           0  
      2.463022  6.279432  8.073161            0           0           0  
      3.737772  5.544621  4.034573            0           0           0  
      2.494545  4.826187  6.008940            0           0           0  
      4.983685  6.263961  2.000002            0           0           0  
      5.012219  6.279716  8.072461            0           0           0  
      6.229617  5.544621  4.034573            0           0           0  
      4.981007  4.826091  6.008858            0           0           0  
     -3.737772  8.421962  2.000002            0           0           0  
     -3.738076  8.388483  8.072530            0           0           0  
     -2.491840  7.702622  4.034573            0           0           0  
     -3.738009  6.983082  6.045443            0           0           0  
     -1.245927  8.421962  2.000002            0           0           0  
     -1.246066  8.420937  7.959032            0           0           0  
      0.000005  7.702622  4.034573            0           0           0  
     -1.245939  6.979954  6.008450            0           0           0  
      1.245918  8.421962  2.000002            0           0           0  
      1.246262  8.388301  8.073393            0           0           0  
      2.491850  7.702622  4.034573            0           0           0  
      1.245984  6.982963  6.045678            0           0           0  
      3.737763  8.421962  2.000002            0           0           0  
      3.737955  8.421163  7.959090            0           0           0  
      4.983695  7.702622  4.034573            0           0           0  
      3.737565  6.979857  6.008707            0           0           0  
      1.245503  1.228441  9.174929    -0.184438    0.484458   -0.000671  
      3.737940  5.543881  9.173930    -0.165389   -0.341194    0.030028  
     -1.246275  5.544584  9.174584     0.470155   -0.562038    0.009061  
      6.230516  1.228725  9.174013     0.172272    0.135217   -0.040476  
 
 Finite differences POTIM=  1.500000000000000E-002
     LOOP+:  cpu time   50.7837: real time   51.1839
    4ORBIT:  cpu time    0.0000: real time    0.0000
 


 total charge     
 
# of ion       s       p       d       tot
------------------------------------------
    1        0.483   0.358   8.330   9.172
    2        0.489   0.496   8.338   9.322
    3        0.494   0.491   8.340   9.325
    4        0.494   0.487   8.351   9.332
    5        0.483   0.358   8.330   9.172
    6        0.489   0.496   8.338   9.322
    7        0.490   0.487   8.342   9.320
    8        0.494   0.487   8.351   9.332
    9        0.483   0.358   8.330   9.172
   10        0.490   0.500   8.340   9.330
   11        0.494   0.491   8.340   9.325
   12        0.494   0.487   8.351   9.332
   13        0.483   0.358   8.330   9.172
   14        0.490   0.500   8.340   9.330
   15        0.490   0.487   8.342   9.320
   16        0.494   0.487   8.351   9.332
   17        0.483   0.358   8.330   9.172
   18        0.489   0.496   8.338   9.322
   19        0.490   0.487   8.342   9.320
   20        0.501   0.500   8.333   9.333
   21        0.482   0.358   8.331   9.171
   22        0.476   0.358   8.389   9.223
   23        0.490   0.487   8.342   9.320
   24        0.494   0.487   8.351   9.332
   25        0.483   0.358   8.330   9.172
   26        0.489   0.496   8.338   9.322
   27        0.490   0.487   8.342   9.320
   28        0.501   0.499   8.333   9.333
   29        0.482   0.358   8.331   9.171
   30        0.476   0.358   8.389   9.223
   31        0.490   0.487   8.342   9.320
   32        0.494   0.487   8.351   9.332
   33        0.483   0.358   8.330   9.172
   34        0.489   0.496   8.338   9.322
   35        0.494   0.491   8.340   9.325
   36        0.494   0.487   8.351   9.332
   37        0.483   0.358   8.330   9.172
   38        0.489   0.496   8.338   9.322
   39        0.490   0.487   8.342   9.320
   40        0.494   0.487   8.351   9.332
   41        0.483   0.358   8.330   9.172
   42        0.489   0.496   8.338   9.323
   43        0.493   0.491   8.340   9.325
   44        0.494   0.487   8.351   9.332
   45        0.483   0.358   8.330   9.172
   46        0.489   0.496   8.338   9.323
   47        0.490   0.487   8.342   9.320
   48        0.494   0.487   8.351   9.332
   49        0.483   0.358   8.330   9.172
   50        0.489   0.496   8.338   9.322
   51        0.490   0.487   8.342   9.320
   52        0.501   0.499   8.333   9.333
   53        0.482   0.358   8.331   9.171
   54        0.476   0.358   8.389   9.223
   55        0.490   0.487   8.342   9.320
   56        0.494   0.487   8.351   9.332
   57        0.483   0.358   8.330   9.172
   58        0.490   0.500   8.340   9.330
   59        0.490   0.487   8.342   9.320
   60        0.501   0.499   8.333   9.333
   61        0.482   0.358   8.331   9.171
   62        0.476   0.358   8.389   9.223
   63        0.490   0.487   8.342   9.320
   64        0.494   0.487   8.351   9.332
   65        1.583   3.332   0.000   4.915
   66        1.583   3.333   0.000   4.915
   67        1.583   3.332   0.000   4.915
   68        1.583   3.339   0.000   4.922
--------------------------------------------------
tot         37.617  42.115 533.914 613.646
 

 total amount of memory used by VASP MPI-rank0    52822. kBytes
=======================================================================

   base      :      30000. kBytes
   nonlr-proj:       3914. kBytes
   fftplans  :       5964. kBytes
   grid      :      10693. kBytes
   one-center:         23. kBytes
   wavefun   :       2228. kBytes
 
  
  
 General timing and accounting informations for this job:
 ========================================================
  
                  Total CPU time used (sec):     1212.948
                            User time (sec):     1203.549
                          System time (sec):        9.399
                         Elapsed time (sec):     1233.229
  
                   Maximum memory used (kb):      289564.
                   Average memory used (kb):           0.
  
                          Minor page faults:      2724243
                          Major page faults:           18
                 Voluntary context switches:         3261
