       N       E                     dE             d eps       ncg     rms          rms(c)
DAV:   1    -0.484787928314E+03   -0.48479E+03   -0.14013E-01  8736   0.301E+00    0.977E-01
RMM:   2    -0.485131050799E+03   -0.34312E+00   -0.19475E-01  7522   0.147E+00    0.605E+00
RMM:   3    -0.485041376745E+03    0.89674E-01   -0.79078E-02  7552   0.793E-01    0.271E+00
RMM:   4    -0.485046221800E+03   -0.48451E-02   -0.34409E-02  7855   0.478E-01    0.217E+00
RMM:   5    -0.485051750853E+03   -0.55291E-02   -0.14701E-02  8033   0.295E-01    0.217E+00
RMM:   6    -0.485028692764E+03    0.23058E-01   -0.73405E-03  7571   0.238E-01    0.741E-01
RMM:   7    -0.485028613082E+03    0.79682E-04   -0.24301E-03  7958   0.121E-01    0.707E-01
RMM:   8    -0.485028925292E+03   -0.31221E-03   -0.13160E-03  8084   0.836E-02    0.797E-01
RMM:   9    -0.485028613849E+03    0.31144E-03   -0.63283E-04  7923   0.623E-02    0.769E-01
RMM:  10    -0.485029147876E+03   -0.53403E-03   -0.69153E-04  7977   0.600E-02    0.908E-01
RMM:  11    -0.485028984827E+03    0.16305E-03   -0.20121E-04  8505   0.270E-02    0.924E-01
RMM:  12    -0.485029164149E+03   -0.17932E-03   -0.88816E-04  7681   0.738E-02    0.923E-01
RMM:  13    -0.485027658782E+03    0.15054E-02   -0.16953E-03  7597   0.101E-01    0.621E-01
RMM:  14    -0.485027175201E+03    0.48358E-03   -0.16576E-03  7650   0.102E-01    0.535E-01
RMM:  15    -0.485026393892E+03    0.78131E-03   -0.17404E-03  7668   0.963E-02    0.444E-01
RMM:  16    -0.485025507892E+03    0.88600E-03   -0.10903E-03  7664   0.840E-02    0.260E-01
RMM:  17    -0.485025625125E+03   -0.11723E-03   -0.90657E-04  7651   0.741E-02    0.354E-01
RMM:  18    -0.485024949490E+03    0.67564E-03   -0.52511E-04  7644   0.646E-02    0.184E-01
RMM:  19    -0.485024938732E+03    0.10758E-04   -0.25207E-04  7814   0.399E-02    0.163E-01
RMM:  20    -0.485025099615E+03   -0.16088E-03   -0.21457E-04  7740   0.361E-02    0.207E-01
RMM:  21    -0.485025101520E+03   -0.19046E-05   -0.12696E-04  7694   0.298E-02    0.127E-01
RMM:  22    -0.485025754583E+03   -0.65306E-03   -0.20568E-04  7697   0.336E-02    0.192E-01
RMM:  23    -0.485026223694E+03   -0.46911E-03   -0.14473E-04  7716   0.302E-02    0.115E-01
RMM:  24    -0.485026707908E+03   -0.48421E-03   -0.13252E-04  7792   0.277E-02    0.162E-01
RMM:  25    -0.485027562304E+03   -0.85440E-03   -0.13714E-04  7832   0.257E-02    0.125E-01
RMM:  26    -0.485027984177E+03   -0.42187E-03   -0.11636E-04  7630   0.259E-02    0.103E-01
RMM:  27    -0.485028981271E+03   -0.99709E-03   -0.15041E-04  7779   0.262E-02    0.124E-01
RMM:  28    -0.485029505790E+03   -0.52452E-03   -0.98268E-05  7644   0.241E-02    0.655E-02
RMM:  29    -0.485030044540E+03   -0.53875E-03   -0.74127E-05  7917   0.200E-02    0.834E-02
RMM:  30    -0.485030653769E+03   -0.60923E-03   -0.52011E-05  7655   0.171E-02    0.380E-02
RMM:  31    -0.485030898768E+03   -0.24500E-03   -0.28125E-05  8017   0.120E-02    0.364E-02
RMM:  32    -0.485031294087E+03   -0.39532E-03   -0.19273E-05  7708   0.831E-03    0.258E-02
RMM:  33    -0.485031400035E+03   -0.10595E-03   -0.87663E-06  7650   0.655E-03    0.180E-02
RMM:  34    -0.485031611494E+03   -0.21146E-03   -0.98901E-06  7212   0.508E-03    0.170E-02
RMM:  35    -0.485031660791E+03   -0.49297E-04   -0.30989E-06  5694   0.381E-03    0.115E-02
RMM:  36    -0.485031711048E+03   -0.50257E-04   -0.25554E-06  5361   0.312E-03    0.900E-03
RMM:  37    -0.485031733720E+03   -0.22672E-04   -0.15334E-06  4777   0.309E-03    0.518E-03
RMM:  38    -0.485031760289E+03   -0.26569E-04   -0.14266E-06  4857   0.215E-03    0.541E-03
RMM:  39    -0.485031773267E+03   -0.12978E-04   -0.87447E-07  4407   0.234E-03    0.343E-03
RMM:  40    -0.485031794961E+03   -0.21694E-04   -0.10282E-06  4707   0.163E-03    0.326E-03
RMM:  41    -0.485031801309E+03   -0.63474E-05   -0.40490E-07  4081   0.158E-03    0.195E-03
RMM:  42    -0.485031817185E+03   -0.15876E-04   -0.53534E-07  4325   0.982E-04    0.213E-03
RMM:  43    -0.485031822866E+03   -0.56812E-05   -0.23313E-07  3976   0.111E-03    0.168E-03
RMM:  44    -0.485031835269E+03   -0.12403E-04   -0.43207E-07  4273   0.831E-04    0.144E-03
RMM:  45    -0.485031838898E+03   -0.36289E-05   -0.16560E-07  3794   0.854E-04    0.116E-03
RMM:  46    -0.485031847396E+03   -0.84978E-05   -0.37003E-07  3943   0.676E-04    0.105E-03
RMM:  47    -0.485031849451E+03   -0.20548E-05   -0.12395E-07  3403   0.713E-04    0.763E-04
RMM:  48    -0.485031852384E+03   -0.29339E-05   -0.15249E-07  2845   0.523E-04    0.590E-04
RMM:  49    -0.485031853402E+03   -0.10177E-05   -0.69804E-08  2704   0.544E-04    0.510E-04
RMM:  50    -0.485031855093E+03   -0.16908E-05   -0.10204E-07  2494   0.445E-04    0.460E-04
RMM:  51    -0.485031855602E+03   -0.50897E-06   -0.51043E-08  2330   0.483E-04
   1 F= -.49971635E+03 E0= -.49971635E+03  d E =0.000000E+00  mag=    87.0766
