 vasp.5.4.4.18Apr17-6-g9f103f2a35 (build Dec 15 2018 21:27:11) complex          
  
 executed on             LinuxIFC date 2022.02.23  04:32:12
 running on   72 total cores
 distrk:  each k-point on   72 cores,    1 groups
 distr:  one band on NCORES_PER_BAND=  24 cores,    3 groups


--------------------------------------------------------------------------------------------------------


 INCAR:
 POTCAR:    PAW_PBE Fe 06Sep2000                  
 POTCAR:    PAW_PBE Ni 02Aug2007                  
 POTCAR:    PAW_PBE O 08Apr2002                   

 ----------------------------------------------------------------------------- 
|                                                                             |
|           W    W    AA    RRRRR   N    N  II  N    N   GGGG   !!!           |
|           W    W   A  A   R    R  NN   N  II  NN   N  G    G  !!!           |
|           W    W  A    A  R    R  N N  N  II  N N  N  G       !!!           |
|           W WW W  AAAAAA  RRRRR   N  N N  II  N  N N  G  GGG   !            |
|           WW  WW  A    A  R   R   N   NN  II  N   NN  G    G                |
|           W    W  A    A  R    R  N    N  II  N    N   GGGG   !!!           |
|                                                                             |
|      For optimal performance we recommend to set                            |
|        NCORE= 4 - approx SQRT( number of cores)                             |
|      NCORE specifies how many cores store one orbital (NPAR=cpu/NCORE).     |
|      This setting can  greatly improve the performance of VASP for DFT.     |
|      The default,   NCORE=1            might be grossly inefficient         |
|      on modern multi-core architectures or massively parallel machines.     |
|      Do your own testing !!!!                                               |
|      Unfortunately you need to use the default for GW and RPA calculations. |
|      (for HF NCORE is supported but not extensively tested yet)             |
|                                                                             |
 ----------------------------------------------------------------------------- 

 POTCAR:    PAW_PBE Fe 06Sep2000                  
   VRHFIN =Fe:  d7 s1                                                           
   LEXCH  = PE                                                                  
   EATOM  =   594.3153 eV,   43.6809 Ry                                         
                                                                                
   TITEL  = PAW_PBE Fe 06Sep2000                                                
   LULTRA =        F    use ultrasoft PP ?                                      
   IUNSCR =        1    unscreen: 0-lin 1-nonlin 2-no                           
   RPACOR =    2.000    partial core radius                                     
   POMASS =   55.847; ZVAL   =    8.000    mass and valenz                      
   RCORE  =    2.300    outmost cutoff radius                                   
   RWIGS  =    2.460; RWIGS  =    1.302    wigner-seitz radius (au A)           
   ENMAX  =  267.882; ENMIN  =  200.911 eV                                      
   RCLOC  =    1.701    cutoff for local pot                                    
   LCOR   =        T    correct aug charges                                     
   LPAW   =        T    paw PP                                                  
   EAUG   =  511.368                                                            
   DEXC   =    0.000                                                            
   RMAX   =    2.356    core radius for proj-oper                               
   RAUG   =    1.300    factor for augmentation sphere                          
   RDEP   =    2.442    radius for radial grids                                 
   RDEPT  =    1.890    core radius for aug-charge                              
                                                                                
   Atomic configuration                                                         
    9 entries                                                                   
     n  l   j            E        occ.                                          
     1  0  0.50     -6993.8440   2.0000                                         
     2  0  0.50      -814.6047   2.0000                                         
     2  1  1.50      -693.3689   6.0000                                         
     3  0  0.50       -89.4732   2.0000                                         
     3  1  1.50       -55.6373   6.0000                                         
     3  2  2.50        -3.8151   7.0000                                         
     4  0  0.50        -4.2551   1.0000                                         
     4  1  1.50        -3.4015   0.0000                                         
     4  3  2.50        -1.3606   0.0000                                         
   Description                                                                  
     l       E           TYP  RCUT    TYP  RCUT                                 
     2     -3.8151135     23  2.300                                             
     2     -5.1756961     23  2.300                                             
     0     -4.2550963     23  2.300                                             
     0      7.2035603     23  2.300                                             
     1     -2.7211652     23  2.300                                             
     1     18.4316424     23  2.300                                             
  local pseudopotential read in
  partial core-charges read in
  partial kinetic energy density read in
  atomic valenz-charges read in
  non local Contribution for L=           2  read in
    real space projection operators read in
  non local Contribution for L=           2  read in
    real space projection operators read in
  non local Contribution for L=           0  read in
    real space projection operators read in
  non local Contribution for L=           0  read in
    real space projection operators read in
  non local Contribution for L=           1  read in
    real space projection operators read in
  non local Contribution for L=           1  read in
    real space projection operators read in
    PAW grid and wavefunctions read in
 
   number of l-projection  operators is LMAX  =           6
   number of lm-projection operators is LMMAX =          18
 
 POTCAR:    PAW_PBE Ni 02Aug2007                  
   VRHFIN =Ni:                                                                  
   LEXCH  = PE                                                                  
   EATOM  =  1077.6739 eV,   79.2068 Ry                                         
                                                                                
   TITEL  = PAW_PBE Ni 02Aug2007                                                
   LULTRA =        F    use ultrasoft PP ?                                      
   IUNSCR =        1    unscreen: 0-lin 1-nonlin 2-no                           
   RPACOR =    2.000    partial core radius                                     
   POMASS =   58.690; ZVAL   =   10.000    mass and valenz                      
   RCORE  =    2.300    outmost cutoff radius                                   
   RWIGS  =    2.430; RWIGS  =    1.286    wigner-seitz radius (au A)           
   ENMAX  =  269.532; ENMIN  =  202.149 eV                                      
   RCLOC  =    1.201    cutoff for local pot                                    
   LCOR   =        T    correct aug charges                                     
   LPAW   =        T    paw PP                                                  
   EAUG   =  544.565                                                            
   DEXC   =    0.000                                                            
   RMAX   =    2.357    core radius for proj-oper                               
   RAUG   =    1.300    factor for augmentation sphere                          
   RDEP   =    2.390    radius for radial grids                                 
   RDEPT  =    1.838    core radius for aug-charge                              
                                                                                
   Atomic configuration                                                         
    9 entries                                                                   
     n  l   j            E        occ.                                          
     1  0  0.50     -8206.4253   2.0000                                         
     2  0  0.50      -976.1748   2.0000                                         
     2  1  1.50      -839.0571   6.0000                                         
     3  0  0.50      -105.9991   2.0000                                         
     3  1  1.50       -66.4603   6.0000                                         
     3  2  2.50        -4.6458   9.0000                                         
     4  0  0.50        -4.4926   1.0000                                         
     4  1  1.50        -4.0817   0.0000                                         
     4  3  2.50        -1.3606   0.0000                                         
   Description                                                                  
     l       E           TYP  RCUT    TYP  RCUT                                 
     2     -4.6457903     23  2.300                                             
     2     -6.0063729     23  2.300                                             
     0     -4.4925590     23  2.300                                             
     0      5.0102601     23  2.300                                             
     1     -2.7211652     23  2.300                                             
     1     16.5183231     23  2.300                                             
  local pseudopotential read in
  partial core-charges read in
  partial kinetic energy density read in
  atomic valenz-charges read in
  non local Contribution for L=           2  read in
    real space projection operators read in
  non local Contribution for L=           2  read in
    real space projection operators read in
  non local Contribution for L=           0  read in
    real space projection operators read in
  non local Contribution for L=           0  read in
    real space projection operators read in
  non local Contribution for L=           1  read in
    real space projection operators read in
  non local Contribution for L=           1  read in
    real space projection operators read in
    PAW grid and wavefunctions read in
 
   number of l-projection  operators is LMAX  =           6
   number of lm-projection operators is LMMAX =          18
 
 POTCAR:    PAW_PBE O 08Apr2002                   
   VRHFIN =O: s2p4                                                              
   LEXCH  = PE                                                                  
   EATOM  =   432.3788 eV,   31.7789 Ry                                         
                                                                                
   TITEL  = PAW_PBE O 08Apr2002                                                 
   LULTRA =        F    use ultrasoft PP ?                                      
   IUNSCR =        1    unscreen: 0-lin 1-nonlin 2-no                           
   RPACOR =    1.200    partial core radius                                     
   POMASS =   16.000; ZVAL   =    6.000    mass and valenz                      
   RCORE  =    1.520    outmost cutoff radius                                   
   RWIGS  =    1.550; RWIGS  =    0.820    wigner-seitz radius (au A)           
   ENMAX  =  400.000; ENMIN  =  300.000 eV                                      
   ICORE  =        2    local potential                                         
   LCOR   =        T    correct aug charges                                     
   LPAW   =        T    paw PP                                                  
   EAUG   =  605.392                                                            
   DEXC   =    0.000                                                            
   RMAX   =    1.553    core radius for proj-oper                               
   RAUG   =    1.300    factor for augmentation sphere                          
   RDEP   =    1.550    radius for radial grids                                 
   RDEPT  =    1.329    core radius for aug-charge                              
                                                                                
   Atomic configuration                                                         
    4 entries                                                                   
     n  l   j            E        occ.                                          
     1  0  0.50      -514.6923   2.0000                                         
     2  0  0.50       -23.9615   2.0000                                         
     2  1  0.50        -9.0305   4.0000                                         
     3  2  1.50        -9.5241   0.0000                                         
   Description                                                                  
     l       E           TYP  RCUT    TYP  RCUT                                 
     0    -23.9615318     23  1.200                                             
     0     -9.5240782     23  1.200                                             
     1     -9.0304911     23  1.520                                             
     1      8.1634956     23  1.520                                             
     2     -9.5240782      7  1.500                                             
  local pseudopotential read in
  partial core-charges read in
  partial kinetic energy density read in
  kinetic energy density of atom read in
  atomic valenz-charges read in
  non local Contribution for L=           0  read in
    real space projection operators read in
  non local Contribution for L=           0  read in
    real space projection operators read in
  non local Contribution for L=           1  read in
    real space projection operators read in
  non local Contribution for L=           1  read in
    real space projection operators read in
    PAW grid and wavefunctions read in
 
   number of l-projection  operators is LMAX  =           4
   number of lm-projection operators is LMMAX =           8
 
 Optimization of the real space projectors (new method)

 maximal supplied QI-value         = 16.25
 optimisation between [QCUT,QGAM] = [ 11.54, 23.24] = [ 37.28,151.24] Ry 
 Optimized for a Real-space Cutoff    1.53 Angstroem

   l    n(q)    QCUT    max X(q) W(low)/X(q) W(high)/X(q)  e(spline) 
   2     10    11.539    80.901    0.11E-03    0.14E-03    0.21E-06
   2     10    11.539    75.754    0.11E-03    0.14E-03    0.22E-06
   0     11    11.539    58.752    0.52E-04    0.18E-04    0.33E-06
   0     11    11.539    30.679    0.44E-04    0.16E-04    0.30E-06
   1     10    11.539    17.977    0.53E-04    0.29E-04    0.13E-06
   1     10    11.539    13.559    0.44E-04    0.25E-04    0.11E-06
 Optimization of the real space projectors (new method)

 maximal supplied QI-value         = 16.25
 optimisation between [QCUT,QGAM] = [ 11.54, 23.24] = [ 37.28,151.24] Ry 
 Optimized for a Real-space Cutoff    1.45 Angstroem

   l    n(q)    QCUT    max X(q) W(low)/X(q) W(high)/X(q)  e(spline) 
   2      9    11.539    60.317    0.19E-03    0.47E-04    0.16E-06
   2      9    11.539    55.921    0.19E-03    0.48E-04    0.16E-06
   0     10    11.539    51.690    0.80E-04    0.50E-04    0.24E-06
   0     10    11.539    30.015    0.73E-04    0.45E-04    0.22E-06
   1     10    11.539    18.849    0.87E-04    0.16E-03    0.71E-07
   1     10    11.539    14.624    0.73E-04    0.13E-03    0.64E-07
 Optimization of the real space projectors (new method)

 maximal supplied QI-value         = 24.76
 optimisation between [QCUT,QGAM] = [ 11.64, 23.27] = [ 37.91,151.63] Ry 
 Optimized for a Real-space Cutoff    1.14 Angstroem

   l    n(q)    QCUT    max X(q) W(low)/X(q) W(high)/X(q)  e(spline) 
   0      8    11.635    20.381    0.10E-03    0.33E-03    0.24E-06
   0      8    11.635    15.268    0.11E-03    0.35E-03    0.26E-06
   1      7    11.635     5.964    0.24E-03    0.31E-03    0.30E-06
   1      7    11.635     5.382    0.22E-03    0.25E-03    0.26E-06
  PAW_PBE Fe 06Sep2000                  :
 energy of atom  1       EATOM= -594.3153
 kinetic energy error for atom=    0.0026 (will be added to EATOM!!)
  PAW_PBE Ni 02Aug2007                  :
 energy of atom  2       EATOM=-1077.6739
 kinetic energy error for atom=    0.0030 (will be added to EATOM!!)
  PAW_PBE O 08Apr2002                   :
 energy of atom  3       EATOM= -432.3788
 kinetic energy error for atom=    0.0208 (will be added to EATOM!!)
 
 
 POSCAR: POSCAR                                  
  positions in direct lattice
  velocities in cartesian coordinates
 exchange correlation table for  LEXCH =        8
   RHO(1)=    0.500       N(1)  =     2000
   RHO(2)=  100.500       N(2)  =     4000

 VTST: version 3.2, (02/03/18)

 CHAIN: initializing optimizer
 
 OPT: Using VASP Dynamics algorithm
 CHAIN: Read ICHAIN            0
 
 POSCAR: POSCAR                                  
  positions in direct lattice
  velocities in cartesian coordinates
 


--------------------------------------------------------------------------------------------------------


 ion  position               nearest neighbor table
   1  0.002  0.999  0.097-   9 2.45  29 2.50  49 2.51  64 2.51  44 2.53   7 2.53  51 2.54  38 2.55
                             5 2.60
   2  0.001  0.003  0.381-  11 2.38  57 2.47   8 2.49   6 2.51  52 2.51  48 2.52  30 2.53  39 2.55
                            50 2.57
   3  0.499  0.996  0.096-   5 2.47  62 2.50  34 2.52  31 2.52  49 2.53  45 2.55  55 2.55  12 2.56
                            53 2.58
   4  0.504  0.001  0.379-  15 2.41  13 2.43  63 2.48  56 2.52   6 2.52  54 2.52  32 2.53  35 2.53
                            50 2.54
   5  0.743  0.996  0.094-   3 2.47  34 2.47  62 2.52  38 2.53  55 2.54  64 2.58  14 2.58  51 2.59
                             1 2.60
   6  0.749  0.996  0.388-  68 1.81  35 2.46  39 2.50   2 2.51   4 2.52  47 2.53  56 2.57  15 2.58
                            52 2.60  57 2.61
   7  0.249  0.253  0.097-  22 2.43   9 2.44  51 2.49  18 2.52  20 2.53   1 2.53  53 2.54  10 2.55
                            49 2.58
   8  0.249  0.247  0.385-  66 1.81   2 2.49  21 2.50  11 2.50  52 2.50  19 2.51  50 2.53  59 2.55
                            54 2.55  26 2.55
   9  0.089  0.161  0.191-  10 2.41   7 2.44   1 2.45  44 2.47  51 2.52  59 2.53  57 2.53  64 2.54
                            11 2.55  22 2.55  58 2.62  14 2.68
  10  0.330  0.166  0.195-   9 2.41  26 2.45  13 2.48  22 2.48  45 2.48  44 2.49  11 2.51   7 2.55
                            12 2.57  49 2.58  53 2.59  25 2.59
  11  0.162  0.075  0.291-   2 2.38  44 2.49   8 2.50  10 2.51  57 2.51  46 2.52  13 2.52  50 2.54
                             9 2.55  48 2.55  59 2.56  26 2.60
  12  0.583  0.166  0.194-  14 2.45  15 2.47  13 2.50  28 2.50  27 2.50  62 2.52  45 2.54  55 2.55
                             3 2.56  10 2.57  53 2.58  25 2.58
  13  0.414  0.082  0.289-   4 2.43  10 2.48  45 2.49  12 2.50  11 2.52  54 2.53  63 2.54  28 2.55
                            50 2.55  15 2.56  26 2.56  46 2.57
  14  0.827  0.167  0.193-  60 2.43  15 2.45  12 2.45  57 2.50  62 2.51  55 2.51  27 2.53  58 2.56
                            51 2.56   5 2.58  64 2.59   9 2.68
  15  0.667  0.082  0.288-   4 2.41  14 2.45  47 2.47  12 2.47  62 2.50  60 2.52  28 2.52  57 2.52
                            56 2.53  63 2.55  13 2.56   6 2.58
  16  0.003  0.511  0.095-  31 2.44  29 2.45  23 2.48  33 2.51  58 2.57  18 2.58  27 2.59  55 2.60
                            51 2.63
  17  0.000  0.503  0.374-  37 2.39  43 2.41  60 2.41  24 2.53  30 2.54  56 2.55  32 2.55  52 2.56
                            19 2.57
  18  0.256  0.506  0.097-  36 2.40  31 2.45  34 2.47  22 2.47  20 2.48   7 2.52  58 2.53  51 2.58
                            16 2.58
  19  0.249  0.495  0.383-  67 1.86  52 2.46  21 2.49  59 2.51   8 2.51  61 2.53  37 2.56  17 2.57
                            35 2.60  32 2.61
  20  0.500  0.503  0.098-  22 2.41  40 2.43  34 2.48  18 2.48  38 2.50  25 2.53   7 2.53  53 2.54
                            23 2.58
  21  0.495  0.495  0.376-  26 2.37  42 2.44  61 2.44  19 2.49   8 2.50  54 2.53  35 2.55  24 2.55
                            39 2.57
  22  0.339  0.416  0.189-  20 2.41   7 2.43  40 2.46  18 2.47  25 2.48  10 2.48  26 2.48  61 2.52
                            36 2.53  59 2.55   9 2.55  58 2.60
  23  0.757  0.508  0.096-  29 2.40  41 2.46  16 2.48  27 2.48  38 2.48  25 2.56  55 2.57  20 2.58
                            53 2.60
  24  0.745  0.491  0.387-  65 1.87  54 2.45  56 2.47  28 2.49  17 2.53  21 2.55  39 2.59  43 2.59
                            30 2.63  42 2.63
  25  0.586  0.422  0.194-  42 2.41  40 2.45  41 2.46  27 2.46  26 2.46  22 2.48  20 2.53  28 2.53
                            23 2.56  53 2.58  12 2.58  10 2.59
  26  0.416  0.336  0.286-  21 2.37  10 2.45  25 2.46  22 2.48  59 2.49  61 2.52  42 2.52   8 2.55
                            13 2.56  28 2.57  54 2.59  11 2.60
  27  0.827  0.417  0.192-  41 2.45  25 2.46  23 2.48  43 2.48  60 2.50  28 2.50  12 2.50  55 2.51
                            14 2.53  58 2.59  16 2.59  33 2.60
  28  0.668  0.332  0.290-  56 2.48  24 2.49  12 2.50  54 2.50  27 2.50  60 2.50  43 2.51  15 2.52
                            25 2.53  13 2.55  26 2.57  42 2.58
  29  0.992  0.747  0.096-  23 2.40  16 2.45  38 2.48  41 2.50   1 2.50  33 2.54  44 2.56  49 2.57
                            31 2.63
  30  0.003  0.754  0.386-  65 1.87  46 2.45  50 2.49  32 2.52   2 2.53  39 2.53  17 2.54  48 2.56
                            43 2.59  24 2.63
  31  0.251  0.746  0.097-  16 2.44  36 2.44  18 2.45  33 2.49  34 2.52   3 2.52  45 2.55  49 2.56
                            29 2.63
  32  0.251  0.754  0.386-  67 1.87  50 2.47  46 2.47  30 2.52   4 2.53  63 2.55  17 2.55  35 2.59
                            19 2.61  37 2.61
  33  0.086  0.671  0.192-  45 2.48  37 2.48  44 2.48  31 2.49  46 2.50  16 2.51  36 2.52  43 2.52
                            41 2.52  29 2.54  58 2.55  27 2.60
  34  0.502  0.749  0.098-  18 2.47   5 2.47  40 2.48  36 2.48  20 2.48  62 2.49  38 2.49  31 2.52
                             3 2.52
  35  0.506  0.752  0.385-  67 1.87   6 2.46  47 2.46  39 2.48   4 2.53  21 2.55  61 2.57  63 2.58
                            32 2.59  19 2.60
  36  0.330  0.661  0.190-  18 2.40  31 2.44  37 2.47  61 2.47  34 2.48  58 2.49  33 2.52  63 2.52
                            22 2.53  40 2.53  62 2.56  45 2.62
  37  0.169  0.583  0.285-  17 2.39  58 2.45  36 2.47  61 2.48  33 2.48  63 2.49  46 2.50  59 2.54
                            60 2.55  19 2.56  32 2.61  43 2.63
  38  0.748  0.749  0.094-  29 2.48  23 2.48  34 2.49  20 2.50   5 2.53  40 2.54  64 2.55   1 2.55
                            41 2.58
  39  0.750  0.749  0.381-  65 1.86  48 2.42  35 2.48  42 2.49  47 2.49   6 2.50  30 2.53   2 2.55
                            21 2.57  24 2.59
  40  0.580  0.661  0.192-  20 2.43  25 2.45  42 2.45  22 2.46  34 2.48  61 2.48  36 2.53  38 2.54
                            41 2.54  62 2.56  47 2.57  64 2.57
  41  0.832  0.662  0.193-  43 2.39  27 2.45  42 2.45  25 2.46  23 2.46  48 2.47  29 2.50  33 2.52
                            40 2.54  64 2.54  44 2.57  38 2.58
  42  0.665  0.585  0.286-  25 2.41  48 2.44  21 2.44  40 2.45  41 2.45  43 2.47  39 2.49  26 2.52
                            61 2.53  47 2.54  28 2.58  24 2.63
  43  0.910  0.586  0.286-  41 2.39  17 2.41  48 2.45  42 2.47  27 2.48  46 2.49  28 2.51  33 2.52
                            24 2.59  30 2.59  60 2.59  37 2.63
  44  0.086  0.916  0.194-  45 2.43   9 2.47  33 2.48  11 2.49  10 2.49  46 2.52   1 2.53  49 2.53
                            64 2.54  48 2.54  29 2.56  41 2.57
  45  0.327  0.919  0.193-  44 2.43  33 2.48  10 2.48  49 2.49  13 2.49  63 2.51  12 2.54  31 2.55
                            46 2.55   3 2.55  62 2.59  36 2.62
  46  0.161  0.826  0.291-  30 2.45  32 2.47  43 2.49  33 2.50  37 2.50  11 2.52  44 2.52  63 2.54
                            45 2.55  50 2.56  48 2.57  13 2.57
  47  0.663  0.835  0.288-  35 2.46  15 2.47  62 2.48  39 2.49  63 2.49  48 2.51  61 2.53   6 2.53
                            64 2.54  57 2.54  42 2.54  40 2.57
  48  0.906  0.826  0.288-  39 2.42  42 2.44  43 2.45  64 2.47  41 2.47  47 2.51   2 2.52  44 2.54
                            57 2.54  11 2.55  30 2.56  46 2.57
  49  0.249  0.998  0.096-  45 2.49   1 2.51  44 2.53   3 2.53  53 2.55  31 2.56  29 2.57  10 2.58
                             7 2.58
  50  0.252  0.998  0.388-  66 1.89  32 2.47  30 2.49   8 2.53  54 2.54  11 2.54   4 2.54  13 2.55
                            46 2.56   2 2.57
  51  0.001  0.250  0.097-   7 2.49  58 2.51   9 2.52   1 2.54  55 2.55  14 2.56  18 2.58   5 2.59
                            16 2.63
  52  0.005  0.254  0.382-  68 1.88  19 2.46  59 2.48   8 2.50   2 2.51  57 2.52  60 2.53  56 2.55
                            17 2.56   6 2.60
  53  0.499  0.252  0.095-  55 2.53   7 2.54  20 2.54  49 2.55   3 2.58  25 2.58  12 2.58  10 2.59
                            23 2.60
  54  0.502  0.249  0.385-  66 1.90  24 2.45  28 2.50  56 2.51   4 2.52  21 2.53  13 2.53  50 2.54
                             8 2.55  26 2.59
  55  0.749  0.251  0.096-  14 2.51  27 2.51  53 2.53   5 2.54  51 2.55   3 2.55  12 2.55  23 2.57
                            16 2.60
  56  0.751  0.250  0.385-  68 1.89  24 2.47  28 2.48  54 2.51   4 2.52  15 2.53  17 2.55  52 2.55
                            60 2.56   6 2.57
  57  0.917  0.083  0.287-   2 2.47  64 2.49  14 2.50  11 2.51  52 2.52  15 2.52  59 2.53  60 2.53
                             9 2.53  47 2.54  48 2.54   6 2.61
  58  0.083  0.417  0.192-  37 2.45  60 2.46  36 2.49  59 2.50  51 2.51  18 2.53  33 2.55  14 2.56
                            16 2.57  27 2.59  22 2.60   9 2.62
  59  0.168  0.332  0.287-  52 2.48  26 2.49  58 2.50  19 2.51  61 2.52  57 2.53   9 2.53  37 2.54
                             8 2.55  22 2.55  60 2.56  11 2.56
  60  0.915  0.332  0.285-  17 2.41  14 2.43  58 2.46  27 2.50  28 2.50  15 2.52  57 2.53  52 2.53
                            37 2.55  59 2.56  56 2.56  43 2.59
  61  0.414  0.584  0.286-  21 2.44  36 2.47  40 2.48  37 2.48  63 2.49  59 2.52  26 2.52  22 2.52
                            19 2.53  47 2.53  42 2.53  35 2.57
  62  0.582  0.915  0.192-  63 2.48  47 2.48  34 2.49   3 2.50  15 2.50  14 2.51   5 2.52  12 2.52
                            64 2.55  36 2.56  40 2.56  45 2.59
  63  0.414  0.830  0.286-   4 2.48  62 2.48  37 2.49  61 2.49  47 2.49  45 2.51  36 2.52  46 2.54
                            13 2.54  32 2.55  15 2.55  35 2.58
  64  0.834  0.915  0.192-  48 2.47  57 2.49   1 2.51  47 2.54   9 2.54  44 2.54  41 2.54  38 2.55
                            62 2.55  40 2.57   5 2.58  14 2.59
  65  0.830  0.665  0.437-  39 1.86  30 1.87  24 1.87
  66  0.332  0.173  0.440-   8 1.81  50 1.89  54 1.90
  67  0.334  0.663  0.437-  19 1.86  32 1.87  35 1.87
  68  0.838  0.163  0.437-   6 1.81  52 1.88  56 1.89
 

IMPORTANT INFORMATION: All symmetrisations will be switched off!
NOSYMM: (Re-)initialisation of all symmetry stuff for point group C_1.

 
 

Automatic generation of k-mesh.
 generate k-points for:    3    3    1
Space group operators:
 irot       det(A)        alpha          n_x          n_y          n_z        tau_x        tau_y        tau_z
    1     1.000000     0.000000     1.000000     0.000000     0.000000     0.000000     0.000000     0.000000
 
 Subroutine IBZKPT returns following result:
 ===========================================
 
 Found      5 irreducible k-points:
 
 Following reciprocal coordinates:
            Coordinates               Weight
  0.000000  0.000000  0.000000      1.000000
  0.333333  0.000000  0.000000      2.000000
  0.000000  0.333333  0.000000      2.000000
  0.333333  0.333333  0.000000      2.000000
 -0.333333  0.333333  0.000000      2.000000
 
 Following cartesian coordinates:
            Coordinates               Weight
  0.000000  0.000000  0.000000      1.000000
  0.032965  0.019033  0.000000      2.000000
  0.000000  0.038065  0.000000      2.000000
  0.032965  0.057098  0.000000      2.000000
 -0.032965  0.019033  0.000000      2.000000
 
 TETIRR: Found     24 inequivalent tetrahedra from       54


--------------------------------------------------------------------------------------------------------




 Dimension of arrays:
   k-points           NKPTS =      5   k-points in BZ     NKDIM =      5   number of bands    NBANDS=    375
   number of dos      NEDOS =    301   number of ions     NIONS =     68
   non local maximal  LDIM  =      6   non local SUM 2l+1 LMDIM =     18
   total plane-waves  NPLWV = ******
   max r-space proj   IRMAX =   8269   max aug-charges    IRDMAX=  19568
   dimension x,y,z NGX =    80 NGY =   80 NGZ =  160
   dimension x,y,z NGXF=   160 NGYF=  160 NGZF=  320
   support grid    NGXF=   160 NGYF=  160 NGZF=  320
   ions per type =              48  16   4
   NGX,Y,Z   is equivalent  to a cutoff of  13.15, 13.15, 12.51 a.u.
   NGXF,Y,Z  is equivalent  to a cutoff of  26.31, 26.31, 25.02 a.u.

 SYSTEM =  SQS-NiFe                                
 POSCAR =  POSCAR                                  

 Startparameter for this run:
   NWRITE =      2    write-flag & timer
   PREC   = accura    normal or accurate (medium, high low for compatibility)
   ISTART =      1    job   : 0-new  1-cont  2-samecut
   ICHARG =      1    charge: 1-file 2-atom 10-const
   ISPIN  =      2    spin polarized calculation?
   LNONCOLLINEAR =      F non collinear calculations
   LSORBIT =      F    spin-orbit coupling
   INIWAV =      1    electr: 0-lowe 1-rand  2-diag
   LASPH  =      F    aspherical Exc in radial PAW
   METAGGA=      F    non-selfconsistent MetaGGA calc.

 Electronic Relaxation 1
   ENCUT  =  520.0 eV  38.22 Ry    6.18 a.u.  18.80 18.80 39.54*2*pi/ulx,y,z
   ENINI  =  520.0     initial cutoff
   ENAUG  =  605.4 eV  augmentation charge cutoff
   NELM   =    200;   NELMIN=  2; NELMDL=  0     # of ELM steps 
   EDIFF  = 0.1E-05   stopping-criterion for ELM
   LREAL  =      T    real-space projection
   NLSPLINE    = F    spline interpolate recip. space projectors
   LCOMPAT=      F    compatible to vasp.4.4
   GGA_COMPAT  = T    GGA compatible to vasp.4.4-vasp.4.6
   LMAXPAW     = -100 max onsite density
   LMAXMIX     =    2 max onsite mixed and CHGCAR
   VOSKOWN=      0    Vosko Wilk Nusair interpolation
   ROPT   =   -0.00025  -0.00025  -0.00025
 Ionic relaxation
   EDIFFG = -.2E-01   stopping-criterion for IOM
   NSW    =      0    number of steps for IOM
   NBLOCK =      1;   KBLOCK =      1    inner block; outer block 
   IBRION =     -1    ionic relax: 0-MD 1-quasi-New 2-CG
   NFREE  =      0    steps in history (QN), initial steepest desc. (CG)
   ISIF   =      2    stress and relaxation
   IWAVPR =     10    prediction:  0-non 1-charg 2-wave 3-comb
   ISYM   =      0    0-nonsym 1-usesym 2-fastsym
   LCORR  =      T    Harris-Foulkes like correction to forces

   POTIM  = 0.5000    time-step for ionic-motion
   TEIN   =    0.0    initial temperature
   TEBEG  =    0.0;   TEEND  =   0.0 temperature during run
   SMASS  =  -3.00    Nose mass-parameter (am)
   estimated Nose-frequenzy (Omega)   =  0.10E-29 period in steps =****** mass=  -0.234E-26a.u.
   SCALEE = 1.0000    scale energy and forces
   NPACO  =    256;   APACO  = 16.0  distance and # of slots for P.C.
   PSTRESS=    0.0 pullay stress

  Mass of Ions in am
   POMASS =  55.85 58.69 16.00
  Ionic Valenz
   ZVAL   =   8.00 10.00  6.00
  Atomic Wigner-Seitz radii
   RWIGS  =  -1.00 -1.00 -1.00
  virtual crystal weights 
   VCA    =   1.00  1.00  1.00
   NELECT =     568.0000    total number of electrons
   NUPDOWN=      -1.0000    fix difference up-down

 DOS related values:
   EMIN   =  10.00;   EMAX   =-10.00  energy-range for DOS
   EFERMI =   0.00
   ISMEAR =    -5;   SIGMA  =   0.20  broadening in eV -4-tet -1-fermi 0-gaus

 Electronic relaxation 2 (details)
   IALGO  =     68    algorithm
   LDIAG  =      T    sub-space diagonalisation (order eigenvalues)
   LSUBROT=      F    optimize rotation matrix (better conditioning)
   TURBO    =      0    0=normal 1=particle mesh
   IRESTART =      0    0=no restart 2=restart with 2 vectors
   NREBOOT  =      0    no. of reboots
   NMIN     =      0    reboot dimension
   EREF     =   0.00    reference energy to select bands
   IMIX   =      4    mixing-type and parameters
     AMIX     =   0.40;   BMIX     =  1.00
     AMIX_MAG =   1.60;   BMIX_MAG =  1.00
     AMIN     =   0.10
     WC   =   100.;   INIMIX=   1;  MIXPRE=   1;  MAXMIX= -45

 Intra band minimization:
   WEIMIN = 0.0000     energy-eigenvalue tresh-hold
   EBREAK =  0.67E-09  absolut break condition
   DEPER  =   0.30     relativ break condition  

   TIME   =   0.40     timestep for ELM

  volume/ion in A,a.u.               =      27.69       186.88
  Fermi-wavevector in a.u.,A,eV,Ry     =   1.097914  2.074757 16.400676  1.205416
  Thomas-Fermi vector in A             =   2.234283
 
 Write flags
   LWAVE        =      T    write WAVECAR
   LDOWNSAMPLE  =      F    k-point downsampling of WAVECAR
   LCHARG       =      T    write CHGCAR
   LVTOT        =      F    write LOCPOT, total local potential
   LVHAR        =      F    write LOCPOT, Hartree potential only
   LELF         =      F    write electronic localiz. function (ELF)
   LORBIT       =     11    0 simple, 1 ext, 2 COOP (PROOUT), +10 PAW based schemes


 Dipole corrections
   LMONO  =      F    monopole corrections only (constant potential shift)
   LDIPOL =      T    correct potential (dipole corrections)
   IDIPOL =      3    1-x, 2-y, 3-z, 4-all directions 
   EPSILON=  1.0000000 bulk dielectric constant

 Exchange correlation treatment:
   GGA     =    --    GGA type
   LEXCH   =     8    internal setting for exchange type
   VOSKOWN=      0    Vosko Wilk Nusair interpolation
   LHFCALC =     F    Hartree Fock is set to
   LHFONE  =     F    Hartree Fock one center treatment
   AEXX    =    0.0000 exact exchange contribution

 Linear response parameters
   LEPSILON=     F    determine dielectric tensor
   LRPA    =     F    only Hartree local field effects (RPA)
   LNABLA  =     F    use nabla operator in PAW spheres
   LVEL    =     F    velocity operator in full k-point grid
   LINTERFAST=   F  fast interpolation
   KINTER  =     0    interpolate to denser k-point grid
   CSHIFT  =0.1000    complex shift for real part using Kramers Kronig
   OMEGAMAX=  -1.0    maximum frequency
   DEG_THRESHOLD= 0.2000000E-02 threshold for treating states as degnerate
   RTIME   =   -0.100 relaxation time in fs
  (WPLASMAI=    0.000 imaginary part of plasma frequency in eV, 0.658/RTIME)
   DFIELD  = 0.0000000 0.0000000 0.0000000 field for delta impulse in time
 
 Orbital magnetization related:
   ORBITALMAG=     F  switch on orbital magnetization
   LCHIMAG   =     F  perturbation theory with respect to B field
   DQ        =  0.001000  dq finite difference perturbation B field
   LLRAUG    =     F  two centre corrections for induced B field



--------------------------------------------------------------------------------------------------------


 Static calculation
 charge density and potential will be updated during run
 spin polarized calculation
 RMM-DIIS sequential band-by-band and
  variant of blocked Davidson during initial phase
 perform sub-space diagonalisation
    before iterative eigenvector-optimisation
 modified Broyden-mixing scheme, WC =      100.0
 initial mixing is a Kerker type mixing with AMIX =  0.4000 and BMIX =      1.0000
 Hartree-type preconditioning will be used
 using additional bands           91
 real space projection scheme for non local part
 use partial core corrections
 calculate Harris-corrections to forces 
   (improved forces if not selfconsistent)
 use gradient corrections 
 use of overlap-Matrix (Vanderbilt PP)
 Fermi weights with tetrahedron method with Bloechl corrections


--------------------------------------------------------------------------------------------------------


  energy-cutoff  :      520.00
  volume of cell :     1883.07
      direct lattice vectors                 reciprocal lattice vectors
    10.111630000  0.000000000  0.000000000     0.098896024  0.057097646  0.000000000
    -5.055815000  8.756928450  0.000000000     0.000000000  0.114195292  0.000000000
     0.000000000  0.000000000 21.266430000     0.000000000  0.000000000  0.047022467

  length of vectors
    10.111630000 10.111629997 21.266430000     0.114195292  0.114195292  0.047022467


 
 old parameters found on file WAVECAR:
  energy-cutoff  :      520.00
  volume of cell :     1883.07
      direct lattice vectors                 reciprocal lattice vectors
    10.111630000  0.000000000  0.000000000     0.098896024  0.057097646  0.000000000
    -5.055815000  8.756928450  0.000000000     0.000000000  0.114195292  0.000000000
     0.000000000  0.000000000 21.266430000     0.000000000  0.000000000  0.047022467

  length of vectors

 
 k-points in units of 2pi/SCALE and weight: read from INCAR                         
   0.00000000  0.00000000  0.00000000       0.111
   0.03296534  0.01903255  0.00000000       0.222
   0.00000000  0.03806510  0.00000000       0.222
   0.03296534  0.05709765  0.00000000       0.222
  -0.03296534  0.01903255  0.00000000       0.222
 
 k-points in reciprocal lattice and weights: read from INCAR                         
   0.00000000  0.00000000  0.00000000       0.111
   0.33333333  0.00000000  0.00000000       0.222
   0.00000000  0.33333333  0.00000000       0.222
   0.33333333  0.33333333  0.00000000       0.222
  -0.33333333  0.33333333  0.00000000       0.222
 
 position of ions in fractional coordinates (direct lattice) 
   0.00194700  0.99920000  0.09682900
   0.00057145  0.00279854  0.38101941
   0.49880600  0.99647600  0.09614500
   0.50366846  0.00094856  0.37904062
   0.74316000  0.99645900  0.09443100
   0.74928743  0.99552953  0.38767278
   0.24913600  0.25322600  0.09681000
   0.24930458  0.24716958  0.38493520
   0.08873200  0.16149400  0.19059200
   0.32962600  0.16609800  0.19506300
   0.16191999  0.07546522  0.29084686
   0.58333000  0.16550300  0.19443700
   0.41407151  0.08153169  0.28881979
   0.82651500  0.16651000  0.19326300
   0.66732042  0.08194422  0.28813485
   0.00320800  0.51090900  0.09451300
   0.00007916  0.50338867  0.37379617
   0.25586900  0.50577700  0.09734600
   0.24939770  0.49517629  0.38343564
   0.49960200  0.50304900  0.09754100
   0.49525601  0.49487790  0.37647219
   0.33859900  0.41583700  0.18939300
   0.75679100  0.50804300  0.09630900
   0.74506226  0.49101844  0.38663732
   0.58633600  0.42229400  0.19423600
   0.41613466  0.33564366  0.28648311
   0.82677100  0.41676200  0.19199500
   0.66819044  0.33187136  0.28970472
   0.99180600  0.74702800  0.09571300
   0.00256929  0.75403444  0.38597481
   0.25104600  0.74563900  0.09703600
   0.25138464  0.75410573  0.38560152
   0.08604600  0.67086900  0.19220200
   0.50153700  0.74905700  0.09752900
   0.50641264  0.75202949  0.38474539
   0.33005900  0.66135600  0.19018600
   0.16852968  0.58290745  0.28519633
   0.74777500  0.74863100  0.09404500
   0.74975303  0.74886019  0.38135015
   0.58008200  0.66096300  0.19152700
   0.83213700  0.66199500  0.19303500
   0.66527190  0.58523902  0.28565261
   0.90998478  0.58573125  0.28577466
   0.08603600  0.91635500  0.19371200
   0.32743000  0.91932200  0.19293700
   0.16068853  0.82602454  0.29095916
   0.66276400  0.83530487  0.28846853
   0.90641889  0.82607872  0.28758973
   0.24916500  0.99813100  0.09559800
   0.25157266  0.99794536  0.38845193
   0.00129700  0.24974200  0.09658600
   0.00513903  0.25362750  0.38182518
   0.49933100  0.25162700  0.09537300
   0.50233752  0.24944124  0.38536813
   0.74944200  0.25071300  0.09573100
   0.75134274  0.25040743  0.38484425
   0.91745006  0.08304213  0.28657806
   0.08260800  0.41708000  0.19225300
   0.16814711  0.33197598  0.28657796
   0.91528972  0.33184399  0.28518879
   0.41391799  0.58385252  0.28568832
   0.58190700  0.91526900  0.19241300
   0.41378285  0.83021570  0.28624379
   0.83399900  0.91457100  0.19240400
   0.82968062  0.66507873  0.43718727
   0.33178897  0.17303401  0.44016968
   0.33365724  0.66309547  0.43666761
   0.83831119  0.16295244  0.43736356
 
 position of ions in cartesian coordinates  (Angst):
  -5.03208300  8.74992291  2.05920715
  -0.00837064  0.02450662  8.10292251
   0.00574341  8.72606903  2.04466091
   5.08811334  0.00830645  8.06084071
   2.47664659  8.72592017  2.00821025
   2.54330412  8.71778084  8.24441600
   1.23890724  2.21748196  2.05880309
   1.27123200  2.16444634  8.18619748
   0.08074137  1.41419140  4.05321143
   2.49329539  1.45450830  4.14829364
   1.25573682  0.66084352  6.18527432
   5.06166458  1.44929793  4.13498085
   3.77472880  0.71396718  6.14216585
   7.51557011  1.45811616  4.11001406
   6.33340240  0.71757970  6.12759966
  -2.55062328  4.47399356  2.00995410
  -2.54423953  4.40813860  7.94931010
   0.03013771  4.42905300  2.07020189
   0.01829753  4.33622332  8.15430730
   2.50846789  4.40516410  2.07434885
   2.50583445  4.33361033  8.00621949
   1.32139286  3.64145486  4.02771298
   5.08381916  4.44889620  2.04814861
   5.05129557  4.29981331  8.22239548
   3.79377235  3.69799834  4.13070630
   2.51084751  2.93920752  6.09247294
   6.25293088  3.64955501  4.08304823
   5.07861427  2.90617376  6.16098525
   6.25193994  6.54167075  2.03547381
  -3.78627888  6.60302561  8.20830623
  -1.23132858  6.52950737  2.06360930
  -1.27071057  6.60364995  8.20036782
  -2.52172424  5.87475183  4.08745038
   1.28426296  6.55943855  2.07409365
   1.31853525  6.58546845  8.18216090
  -0.00625910  5.79144717  4.04457726
  -1.24296241  5.10447880  6.06510780
   3.77628428  6.55570810  2.00000141
   3.79512660  6.55771510  8.10995636
   2.52386790  5.78800570  4.07309554
   5.06733720  5.79704285  4.10516532
   3.76812304  5.12489625  6.07481124
   6.24008058  5.12920661  6.07740690
  -3.76295716  8.02445517  4.11956269
  -1.33707095  8.05043698  4.10308120
  -2.55140431  7.23343782  6.18766252
   2.47847749  7.31470497  6.13469577
   4.98887129  7.23391224  6.11600685
  -2.52690139  8.74056175  2.03302818
  -2.50161746  8.73893615  8.26098586
  -1.24953457  2.18697282  2.05403941
  -1.23032970  2.22099786  8.12005836
   3.77687076  2.20347964  2.02824323
   3.81832239  2.18433906  8.19540432
   6.31052166  2.19547580  2.03585661
   6.33128619  2.19279992  8.18426330
   8.85706992  0.72719396  6.09449220
  -1.27337779  3.65233972  4.08853497
   0.02183229  2.90708986  6.09449022
   7.57732913  2.90593406  6.06494736
   1.23353527  5.11275477  6.07557063
   1.25659754  8.01494515  4.09193760
  -0.01339793  7.27013952  6.08738351
   3.80918753  8.00883281  4.09174620
   5.02690841  5.82404683  9.29741249
   2.48009937  1.51524641  9.36083768
   0.02133057  5.80667957  9.28636115
   7.65283521  1.42696284  9.30116163
 


--------------------------------------------------------------------------------------------------------


 k-point  1 :   0.0000 0.0000 0.0000  plane waves:   50761
 k-point  2 :   0.3333 0.0000 0.0000  plane waves:   50732
 k-point  3 :   0.0000 0.3333 0.0000  plane waves:   50732
 k-point  4 :   0.3333 0.3333 0.0000  plane waves:   50727
 k-point  5 :  -0.3333 0.3333 0.0000  plane waves:   50732

 maximum and minimum number of plane-waves per node :      2133     2094

 maximum number of plane-waves:     50761
 maximum index in each direction: 
   IXMAX=   19   IYMAX=   18   IZMAX=   39
   IXMIN=  -19   IYMIN=  -19   IZMIN=  -39


 real space projection operators:
  total allocation   :      69687.52 KBytes
  max/ min on nodes  :       3473.12       2613.73


 parallel 3D FFT for wavefunctions:
    minimum data exchange during FFTs selected (reduces bandwidth)
 parallel 3D FFT for charge:
    minimum data exchange during FFTs selected (reduces bandwidth)


 total amount of memory used by VASP MPI-rank0   111638. kBytes
=======================================================================

   base      :      30000. kBytes
   nonlr-proj:      13830. kBytes
   fftplans  :       6403. kBytes
   grid      :      17692. kBytes
   one-center:         93. kBytes
   wavefun   :      43620. kBytes
 
     INWAV:  cpu time   10.6836: real time   10.9196
 Broyden mixing: mesh for mixing (old mesh)
   NGX = 37   NGY = 37   NGZ = 79
  (NGX  =160   NGY  =160   NGZ  =320)
  gives a total of 108151 points

 initial charge density was supplied:
 number of electron     568.0000069 magnetization      86.3068833
 keeping initial charge density in first step


--------------------------------------------------------------------------------------------------------


 Maximum index for non-local projection operator          744
 Maximum index for augmentation-charges         1054 (set IRDMAX)


--------------------------------------------------------------------------------------------------------


 First call to EWALD:  gamma=   0.144
 Maximum number of real-space cells 4x 4x 2
 Maximum number of reciprocal cells 2x 2x 4

    FEWALD:  cpu time    0.0037: real time    0.0034


--------------------------------------- Iteration      1(   1)  ---------------------------------------


    POTLOK:  cpu time    0.4113: real time    0.4202
    SETDIJ:  cpu time    0.0251: real time    0.0251
     EDDAV:  cpu time   38.7680: real time   38.7940
 BZINTS: Fermi energy: -0.285185;568.000000 electrons
         Band energy:***********;  BLOECHL correction: -0.004322
       DOS:  cpu time    0.0488: real time    0.0488
    CHARGE:  cpu time    0.9587: real time    0.9592
    MIXING:  cpu time    0.0062: real time    0.0064
    --------------------------------------------
      LOOP:  cpu time   40.2184: real time   40.2537

 eigenvalue-minimisations  :  8736
 total energy-change (2. order) :-0.4847879E+03  (-0.1401302E-01)
 number of electron     568.0000068 magnetization      86.3438339
 augmentation part      300.6183680 magnetization      69.8245590

 DIPCOR: dipole corrections for dipol
 direction  3 min pos   233,
 dipolmoment           0.000000      0.000000      0.220157 electrons x Angstroem
 Tr[quadrupol]     -9876.487026

 energy correction for charged system         0.000000 eV
 dipol+quadrupol energy correction           -0.002329 eV
 added-field ion interaction         -6.002330 eV  (added to PSCEN)


 Broyden mixing:
  rms(total) = 0.97686E-01    rms(broyden)= 0.97516E-01
  rms(prec ) = 0.10209E+00
  weight for this iteration     100.00

 Free energy of the ion-electron system (eV)
  ---------------------------------------------------
  alpha Z        PSCENC =      1518.89362237
  Ewald energy   TEWEN  =    174786.09014659
  -Hartree energ DENC   =   -221868.73817556
  -exchange      EXHF   =         0.00000000
  -V(xc)+E(xc)   XCENC  =       800.45572891
  PAW double counting   =     53897.38927299   -55436.02820187
  entropy T*S    EENTRO =         0.00000000
  eigenvalues    EBANDS =     -1682.02565202
  atomic energy  EATOM  =     47499.17533030
  Solvation  Ediel_sol  =         0.00000000
  ---------------------------------------------------
  free energy    TOTEN  =      -484.78792831 eV

  energy without entropy =     -484.78792831  energy(sigma->0) =     -484.78792831


--------------------------------------------------------------------------------------------------------




--------------------------------------- Iteration      1(   2)  ---------------------------------------


    POTLOK:  cpu time    0.4118: real time    0.4333
    SETDIJ:  cpu time    0.0248: real time    0.0248
    EDDIAG:  cpu time    5.0918: real time    5.0990
  RMM-DIIS:  cpu time   18.3703: real time   18.3776
    ORTHCH:  cpu time    1.3563: real time    1.3567
 BZINTS: Fermi energy: -0.276802;568.000000 electrons
         Band energy:***********;  BLOECHL correction: -0.002333
       DOS:  cpu time    0.0458: real time    0.0457
    CHARGE:  cpu time    0.9578: real time    0.9580
    MIXING:  cpu time    0.0065: real time    0.0065
    --------------------------------------------
      LOOP:  cpu time   26.2657: real time   26.3016

 eigenvalue-minimisations  :  7522
 total energy-change (2. order) :-0.3431225E+00  (-0.1947543E-01)
 number of electron     568.0000069 magnetization      86.3376585
 augmentation part      300.5089603 magnetization      70.1103414

 DIPCOR: dipole corrections for dipol
 direction  3 min pos   235,
 dipolmoment           0.000000      0.000000      0.234187 electrons x Angstroem
 Tr[quadrupol]     -9876.558403

 energy correction for charged system         0.000000 eV
 dipol+quadrupol energy correction           -0.002635 eV
 added-field ion interaction         -4.685828 eV  (added to PSCEN)


 Broyden mixing:
  rms(total) = 0.60500E+00    rms(broyden)= 0.60498E+00
  rms(prec ) = 0.69283E+00
  weight for this iteration     100.00

 eigenvalues of (default mixing * dielectric matrix)
  average eigenvalue GAMMA=   0.1346
  0.1346

 Free energy of the ion-electron system (eV)
  ---------------------------------------------------
  alpha Z        PSCENC =      1520.20981871
  Ewald energy   TEWEN  =    174786.09014659
  -Hartree energ DENC   =   -221869.98845432
  -exchange      EXHF   =         0.00000000
  -V(xc)+E(xc)   XCENC  =       800.77710403
  PAW double counting   =     53899.16952802   -55437.61591253
  entropy T*S    EENTRO =         0.00000000
  eigenvalues    EBANDS =     -1682.94861158
  atomic energy  EATOM  =     47499.17533030
  Solvation  Ediel_sol  =         0.00000000
  ---------------------------------------------------
  free energy    TOTEN  =      -485.13105080 eV

  energy without entropy =     -485.13105080  energy(sigma->0) =     -485.13105080


--------------------------------------------------------------------------------------------------------




--------------------------------------- Iteration      1(   3)  ---------------------------------------


    POTLOK:  cpu time    0.4133: real time    0.4255
    SETDIJ:  cpu time    0.0249: real time    0.0248
    EDDIAG:  cpu time    5.0999: real time    5.1087
  RMM-DIIS:  cpu time   18.5031: real time   18.5163
    ORTHCH:  cpu time    1.3597: real time    1.3601
 BZINTS: Fermi energy: -0.283324;568.000000 electrons
         Band energy:***********;  BLOECHL correction: -0.005385
       DOS:  cpu time    0.0479: real time    0.0479
    CHARGE:  cpu time    0.9547: real time    0.9548
    MIXING:  cpu time    0.0067: real time    0.0067
    --------------------------------------------
      LOOP:  cpu time   26.4095: real time   26.4448

 eigenvalue-minimisations  :  7552
 total energy-change (2. order) : 0.8967405E-01  (-0.7907761E-02)
 number of electron     568.0000069 magnetization      86.3421370
 augmentation part      300.5699073 magnetization      69.8333195

 DIPCOR: dipole corrections for dipol
 direction  3 min pos   236,
 dipolmoment           0.000000      0.000000      0.223078 electrons x Angstroem
 Tr[quadrupol]     -9876.601645

 energy correction for charged system         0.000000 eV
 dipol+quadrupol energy correction           -0.002391 eV
 added-field ion interaction         -3.654331 eV  (added to PSCEN)


 Broyden mixing:
  rms(total) = 0.27064E+00    rms(broyden)= 0.27059E+00
  rms(prec ) = 0.30811E+00
  weight for this iteration     100.00

 eigenvalues of (default mixing * dielectric matrix)
  average eigenvalue GAMMA=   0.2133
  0.3624  0.0641

 Free energy of the ion-electron system (eV)
  ---------------------------------------------------
  alpha Z        PSCENC =      1521.24155911
  Ewald energy   TEWEN  =    174786.09014659
  -Hartree energ DENC   =   -221870.72234307
  -exchange      EXHF   =         0.00000000
  -V(xc)+E(xc)   XCENC  =       800.73048774
  PAW double counting   =     53899.89475652   -55438.41661669
  entropy T*S    EENTRO =         0.00000000
  eigenvalues    EBANDS =     -1683.03469725
  atomic energy  EATOM  =     47499.17533030
  Solvation  Ediel_sol  =         0.00000000
  ---------------------------------------------------
  free energy    TOTEN  =      -485.04137675 eV

  energy without entropy =     -485.04137675  energy(sigma->0) =     -485.04137675


--------------------------------------------------------------------------------------------------------




--------------------------------------- Iteration      1(   4)  ---------------------------------------


    POTLOK:  cpu time    0.4137: real time    0.4269
    SETDIJ:  cpu time    0.0248: real time    0.0248
    EDDIAG:  cpu time    5.0938: real time    5.0949
  RMM-DIIS:  cpu time   19.1168: real time   19.1382
    ORTHCH:  cpu time    1.3537: real time    1.3545
 BZINTS: Fermi energy: -0.284314;568.000000 electrons
         Band energy:***********;  BLOECHL correction: -0.004856
       DOS:  cpu time    0.0468: real time    0.0468
    CHARGE:  cpu time    0.9562: real time    0.9563
    MIXING:  cpu time    0.0066: real time    0.0067
    --------------------------------------------
      LOOP:  cpu time   27.0125: real time   27.0492

 eigenvalue-minimisations  :  7855
 total energy-change (2. order) :-0.4845054E-02  (-0.3440909E-02)
 number of electron     568.0000068 magnetization      86.3520183
 augmentation part      300.5500386 magnetization      69.7962344

 DIPCOR: dipole corrections for dipol
 direction  3 min pos   237,
 dipolmoment           0.000000      0.000000      0.195732 electrons x Angstroem
 Tr[quadrupol]     -9876.587613

 energy correction for charged system         0.000000 eV
 dipol+quadrupol energy correction           -0.001841 eV
 added-field ion interaction         -2.496340 eV  (added to PSCEN)


 Broyden mixing:
  rms(total) = 0.21672E+00    rms(broyden)= 0.21670E+00
  rms(prec ) = 0.28613E+00
  weight for this iteration     100.00

 eigenvalues of (default mixing * dielectric matrix)
  average eigenvalue GAMMA=   0.2140
  0.4785  0.1000  0.0634

 Free energy of the ion-electron system (eV)
  ---------------------------------------------------
  alpha Z        PSCENC =      1522.40010108
  Ewald energy   TEWEN  =    174786.09014659
  -Hartree energ DENC   =   -221869.47768295
  -exchange      EXHF   =         0.00000000
  -V(xc)+E(xc)   XCENC  =       800.74776254
  PAW double counting   =     53900.76722983   -55439.42266924
  entropy T*S    EENTRO =         0.00000000
  eigenvalues    EBANDS =     -1685.32643994
  atomic energy  EATOM  =     47499.17533030
  Solvation  Ediel_sol  =         0.00000000
  ---------------------------------------------------
  free energy    TOTEN  =      -485.04622180 eV

  energy without entropy =     -485.04622180  energy(sigma->0) =     -485.04622180


--------------------------------------------------------------------------------------------------------




--------------------------------------- Iteration      1(   5)  ---------------------------------------


    POTLOK:  cpu time    0.4150: real time    0.4304
    SETDIJ:  cpu time    0.0249: real time    0.0249
    EDDIAG:  cpu time    5.0946: real time    5.0963
  RMM-DIIS:  cpu time   19.5379: real time   19.5597
    ORTHCH:  cpu time    1.3591: real time    1.3594
 BZINTS: Fermi energy: -0.290664;568.000000 electrons
         Band energy:***********;  BLOECHL correction: -0.004871
       DOS:  cpu time    0.0479: real time    0.0479
    CHARGE:  cpu time    0.9541: real time    0.9544
    MIXING:  cpu time    0.0075: real time    0.0074
    --------------------------------------------
      LOOP:  cpu time   27.4412: real time   27.4804

 eigenvalue-minimisations  :  8033
 total energy-change (2. order) :-0.5529053E-02  (-0.1470114E-02)
 number of electron     568.0000069 magnetization      86.3599478
 augmentation part      300.5043133 magnetization      69.8903258

 DIPCOR: dipole corrections for dipol
 direction  3 min pos   238,
 dipolmoment           0.000000      0.000000      0.246674 electrons x Angstroem
 Tr[quadrupol]     -9876.631053

 energy correction for charged system         0.000000 eV
 dipol+quadrupol energy correction           -0.002924 eV
 added-field ion interaction         -2.251235 eV  (added to PSCEN)


 Broyden mixing:
  rms(total) = 0.21704E+00    rms(broyden)= 0.21702E+00
  rms(prec ) = 0.30136E+00
  weight for this iteration     100.00

 eigenvalues of (default mixing * dielectric matrix)
  average eigenvalue GAMMA=   0.1862
  0.4929  0.1289  0.0759  0.0469

 Free energy of the ion-electron system (eV)
  ---------------------------------------------------
  alpha Z        PSCENC =      1522.64412290
  Ewald energy   TEWEN  =    174786.09014659
  -Hartree energ DENC   =   -221870.34406023
  -exchange      EXHF   =         0.00000000
  -V(xc)+E(xc)   XCENC  =       800.73456070
  PAW double counting   =     53901.67273120   -55440.30266755
  entropy T*S    EENTRO =         0.00000000
  eigenvalues    EBANDS =     -1684.72191476
  atomic energy  EATOM  =     47499.17533030
  Solvation  Ediel_sol  =         0.00000000
  ---------------------------------------------------
  free energy    TOTEN  =      -485.05175085 eV

  energy without entropy =     -485.05175085  energy(sigma->0) =     -485.05175085


--------------------------------------------------------------------------------------------------------




--------------------------------------- Iteration      1(   6)  ---------------------------------------


    POTLOK:  cpu time    0.4135: real time    0.4272
    SETDIJ:  cpu time    0.0248: real time    0.0249
    EDDIAG:  cpu time    5.0953: real time    5.0964
  RMM-DIIS:  cpu time   18.5444: real time   18.5653
    ORTHCH:  cpu time    1.3538: real time    1.3540
 BZINTS: Fermi energy: -0.285595;568.000000 electrons
         Band energy:***********;  BLOECHL correction: -0.005418
       DOS:  cpu time    0.0478: real time    0.0478
    CHARGE:  cpu time    0.9604: real time    0.9607
    MIXING:  cpu time    0.0070: real time    0.0070
    --------------------------------------------
      LOOP:  cpu time   26.4469: real time   26.4834

 eigenvalue-minimisations  :  7571
 total energy-change (2. order) : 0.2305809E-01  (-0.7340546E-03)
 number of electron     568.0000069 magnetization      86.3650942
 augmentation part      300.5522719 magnetization      69.8899093

 DIPCOR: dipole corrections for dipol
 direction  3 min pos   237,
 dipolmoment           0.000000      0.000000      0.217285 electrons x Angstroem
 Tr[quadrupol]     -9876.609749

 energy correction for charged system         0.000000 eV
 dipol+quadrupol energy correction           -0.002269 eV
 added-field ion interaction         -2.771226 eV  (added to PSCEN)


 Broyden mixing:
  rms(total) = 0.74050E-01    rms(broyden)= 0.74037E-01
  rms(prec ) = 0.81649E-01
  weight for this iteration     100.00

 eigenvalues of (default mixing * dielectric matrix)
  average eigenvalue GAMMA=   0.1832
  0.3937  0.2709  0.1346  0.0640  0.0527

 Free energy of the ion-electron system (eV)
  ---------------------------------------------------
  alpha Z        PSCENC =      1522.12478755
  Ewald energy   TEWEN  =    174786.09014659
  -Hartree energ DENC   =   -221869.65210742
  -exchange      EXHF   =         0.00000000
  -V(xc)+E(xc)   XCENC  =       800.68814961
  PAW double counting   =     53901.09814762   -55439.56872406
  entropy T*S    EENTRO =         0.00000000
  eigenvalues    EBANDS =     -1684.98442296
  atomic energy  EATOM  =     47499.17533030
  Solvation  Ediel_sol  =         0.00000000
  ---------------------------------------------------
  free energy    TOTEN  =      -485.02869276 eV

  energy without entropy =     -485.02869276  energy(sigma->0) =     -485.02869276


--------------------------------------------------------------------------------------------------------




--------------------------------------- Iteration      1(   7)  ---------------------------------------


    POTLOK:  cpu time    0.4150: real time    0.4287
    SETDIJ:  cpu time    0.0249: real time    0.0249
    EDDIAG:  cpu time    5.0880: real time    5.0893
  RMM-DIIS:  cpu time   19.3953: real time   19.4132
    ORTHCH:  cpu time    1.3498: real time    1.3501
 BZINTS: Fermi energy: -0.285493;568.000000 electrons
         Band energy:***********;  BLOECHL correction: -0.005318
       DOS:  cpu time    0.0469: real time    0.0468
    CHARGE:  cpu time    0.9590: real time    0.9593
    MIXING:  cpu time    0.0071: real time    0.0071
    --------------------------------------------
      LOOP:  cpu time   27.2868: real time   27.3193

 eigenvalue-minimisations  :  7958
 total energy-change (2. order) : 0.7968207E-04  (-0.2430114E-03)
 number of electron     568.0000069 magnetization      86.3852277
 augmentation part      300.5630382 magnetization      69.8633709

 DIPCOR: dipole corrections for dipol
 direction  3 min pos   236,
 dipolmoment           0.000000      0.000000      0.220362 electrons x Angstroem
 Tr[quadrupol]     -9876.566735

 energy correction for charged system         0.000000 eV
 dipol+quadrupol energy correction           -0.002333 eV
 added-field ion interaction         -3.609831 eV  (added to PSCEN)


 Broyden mixing:
  rms(total) = 0.70664E-01    rms(broyden)= 0.70662E-01
  rms(prec ) = 0.78960E-01
  weight for this iteration     100.00

 eigenvalues of (default mixing * dielectric matrix)
  average eigenvalue GAMMA=   0.2472
  0.5565  0.5565  0.1516  0.0998  0.0691  0.0494

 Free energy of the ion-electron system (eV)
  ---------------------------------------------------
  alpha Z        PSCENC =      1521.28611728
  Ewald energy   TEWEN  =    174786.09014659
  -Hartree energ DENC   =   -221869.17405300
  -exchange      EXHF   =         0.00000000
  -V(xc)+E(xc)   XCENC  =       800.67676946
  PAW double counting   =     53901.18018690   -55439.62658586
  entropy T*S    EENTRO =         0.00000000
  eigenvalues    EBANDS =     -1684.63652474
  atomic energy  EATOM  =     47499.17533030
  Solvation  Ediel_sol  =         0.00000000
  ---------------------------------------------------
  free energy    TOTEN  =      -485.02861308 eV

  energy without entropy =     -485.02861308  energy(sigma->0) =     -485.02861308


--------------------------------------------------------------------------------------------------------




--------------------------------------- Iteration      1(   8)  ---------------------------------------


    POTLOK:  cpu time    0.4150: real time    0.4295
    SETDIJ:  cpu time    0.0247: real time    0.0246
    EDDIAG:  cpu time    5.0829: real time    5.0843
  RMM-DIIS:  cpu time   19.7259: real time   19.7454
    ORTHCH:  cpu time    1.3488: real time    1.3491
 BZINTS: Fermi energy: -0.284539;568.000000 electrons
         Band energy:***********;  BLOECHL correction: -0.005360
       DOS:  cpu time    0.0479: real time    0.0479
    CHARGE:  cpu time    0.9606: real time    0.9607
    MIXING:  cpu time    0.0071: real time    0.0073
    --------------------------------------------
      LOOP:  cpu time   27.6121: real time   27.6487

 eigenvalue-minimisations  :  8084
 total energy-change (2. order) :-0.3122098E-03  (-0.1316041E-03)
 number of electron     568.0000069 magnetization      86.3930291
 augmentation part      300.5654223 magnetization      69.8844425

 DIPCOR: dipole corrections for dipol
 direction  3 min pos   235,
 dipolmoment           0.000000      0.000000      0.220479 electrons x Angstroem
 Tr[quadrupol]     -9876.536408

 energy correction for charged system         0.000000 eV
 dipol+quadrupol energy correction           -0.002336 eV
 added-field ion interaction         -4.411532 eV  (added to PSCEN)


 Broyden mixing:
  rms(total) = 0.79725E-01    rms(broyden)= 0.79723E-01
  rms(prec ) = 0.88725E-01
  weight for this iteration     100.00

 eigenvalues of (default mixing * dielectric matrix)
  average eigenvalue GAMMA=   0.2353
  0.5619  0.5619  0.1862  0.0504  0.0661  0.1103  0.1103

 Free energy of the ion-electron system (eV)
  ---------------------------------------------------
  alpha Z        PSCENC =      1520.48441348
  Ewald energy   TEWEN  =    174786.09014659
  -Hartree energ DENC   =   -221868.99124477
  -exchange      EXHF   =         0.00000000
  -V(xc)+E(xc)   XCENC  =       800.67591141
  PAW double counting   =     53901.83553498   -55440.28507663
  entropy T*S    EENTRO =         0.00000000
  eigenvalues    EBANDS =     -1684.01394064
  atomic energy  EATOM  =     47499.17533030
  Solvation  Ediel_sol  =         0.00000000
  ---------------------------------------------------
  free energy    TOTEN  =      -485.02892529 eV

  energy without entropy =     -485.02892529  energy(sigma->0) =     -485.02892529


--------------------------------------------------------------------------------------------------------




--------------------------------------- Iteration      1(   9)  ---------------------------------------


    POTLOK:  cpu time    0.4125: real time    0.4284
    SETDIJ:  cpu time    0.0246: real time    0.0246
    EDDIAG:  cpu time    5.0821: real time    5.0832
  RMM-DIIS:  cpu time   19.3992: real time   19.4124
    ORTHCH:  cpu time    1.3490: real time    1.3492
 BZINTS: Fermi energy: -0.284396;568.000000 electrons
         Band energy:***********;  BLOECHL correction: -0.005386
       DOS:  cpu time    0.0435: real time    0.0436
    CHARGE:  cpu time    0.9602: real time    0.9655
    MIXING:  cpu time    0.0074: real time    0.0074
    --------------------------------------------
      LOOP:  cpu time   27.2792: real time   27.3143

 eigenvalue-minimisations  :  7923
 total energy-change (2. order) : 0.3114434E-03  (-0.6328269E-04)
 number of electron     568.0000069 magnetization      86.4064527
 augmentation part      300.5628832 magnetization      69.9059844

 DIPCOR: dipole corrections for dipol
 direction  3 min pos   235,
 dipolmoment           0.000000      0.000000      0.221082 electrons x Angstroem
 Tr[quadrupol]     -9876.539400

 energy correction for charged system         0.000000 eV
 dipol+quadrupol energy correction           -0.002349 eV
 added-field ion interaction         -4.423610 eV  (added to PSCEN)


 Broyden mixing:
  rms(total) = 0.76872E-01    rms(broyden)= 0.76872E-01
  rms(prec ) = 0.86855E-01
  weight for this iteration     100.00

 eigenvalues of (default mixing * dielectric matrix)
  average eigenvalue GAMMA=   0.2996
  0.7126  0.7126  0.4887  0.0500  0.0677  0.1396  0.1298  0.0961

 Free energy of the ion-electron system (eV)
  ---------------------------------------------------
  alpha Z        PSCENC =      1520.47232266
  Ewald energy   TEWEN  =    174786.09014659
  -Hartree energ DENC   =   -221869.08430003
  -exchange      EXHF   =         0.00000000
  -V(xc)+E(xc)   XCENC  =       800.67664997
  PAW double counting   =     53902.09177759   -55440.55044576
  entropy T*S    EENTRO =         0.00000000
  eigenvalues    EBANDS =     -1683.90009516
  atomic energy  EATOM  =     47499.17533030
  Solvation  Ediel_sol  =         0.00000000
  ---------------------------------------------------
  free energy    TOTEN  =      -485.02861385 eV

  energy without entropy =     -485.02861385  energy(sigma->0) =     -485.02861385


--------------------------------------------------------------------------------------------------------




--------------------------------------- Iteration      1(  10)  ---------------------------------------


    POTLOK:  cpu time    0.4108: real time    0.4283
    SETDIJ:  cpu time    0.0249: real time    0.0249
    EDDIAG:  cpu time    5.0792: real time    5.0806
  RMM-DIIS:  cpu time   19.4039: real time   19.4210
    ORTHCH:  cpu time    1.3478: real time    1.3480
 BZINTS: Fermi energy: -0.285044;568.000000 electrons
         Band energy:***********;  BLOECHL correction: -0.005280
       DOS:  cpu time    0.0468: real time    0.0468
    CHARGE:  cpu time    0.9596: real time    0.9598
    MIXING:  cpu time    0.0077: real time    0.0077
    --------------------------------------------
      LOOP:  cpu time   27.2799: real time   27.3170

 eigenvalue-minimisations  :  7977
 total energy-change (2. order) :-0.5340275E-03  (-0.6915251E-04)
 number of electron     568.0000069 magnetization      86.4143128
 augmentation part      300.5690929 magnetization      69.8822111

 DIPCOR: dipole corrections for dipol
 direction  3 min pos   235,
 dipolmoment           0.000000      0.000000      0.220257 electrons x Angstroem
 Tr[quadrupol]     -9876.535527

 energy correction for charged system         0.000000 eV
 dipol+quadrupol energy correction           -0.002331 eV
 added-field ion interaction         -4.407104 eV  (added to PSCEN)


 Broyden mixing:
  rms(total) = 0.90842E-01    rms(broyden)= 0.90841E-01
  rms(prec ) = 0.10193E+00
  weight for this iteration     100.00

 eigenvalues of (default mixing * dielectric matrix)
  average eigenvalue GAMMA=   0.2710
  0.7230  0.7230  0.4928  0.1354  0.1354  0.0500  0.0678  0.0963  0.0157

 Free energy of the ion-electron system (eV)
  ---------------------------------------------------
  alpha Z        PSCENC =      1520.48884711
  Ewald energy   TEWEN  =    174786.09014659
  -Hartree energ DENC   =   -221868.95663275
  -exchange      EXHF   =         0.00000000
  -V(xc)+E(xc)   XCENC  =       800.67503978
  PAW double counting   =     53902.41317253   -55440.89059105
  entropy T*S    EENTRO =         0.00000000
  eigenvalues    EBANDS =     -1684.02446038
  atomic energy  EATOM  =     47499.17533030
  Solvation  Ediel_sol  =         0.00000000
  ---------------------------------------------------
  free energy    TOTEN  =      -485.02914788 eV

  energy without entropy =     -485.02914788  energy(sigma->0) =     -485.02914788


--------------------------------------------------------------------------------------------------------




--------------------------------------- Iteration      1(  11)  ---------------------------------------


    POTLOK:  cpu time    0.4264: real time    0.4273
    SETDIJ:  cpu time    0.0248: real time    0.0247
    EDDIAG:  cpu time    5.0828: real time    5.0888
  RMM-DIIS:  cpu time   20.6393: real time   20.6454
    ORTHCH:  cpu time    1.3427: real time    1.3503
 BZINTS: Fermi energy: -0.284876;568.000000 electrons
         Band energy:***********;  BLOECHL correction: -0.005301
       DOS:  cpu time    0.0457: real time    0.0457
    CHARGE:  cpu time    0.9593: real time    0.9595
    MIXING:  cpu time    0.0079: real time    0.0078
    --------------------------------------------
      LOOP:  cpu time   28.5289: real time   28.5497

 eigenvalue-minimisations  :  8505
 total energy-change (2. order) : 0.1630496E-03  (-0.2012145E-04)
 number of electron     568.0000069 magnetization      86.4030249
 augmentation part      300.5670047 magnetization      69.8809038

 DIPCOR: dipole corrections for dipol
 direction  3 min pos   235,
 dipolmoment           0.000000      0.000000      0.220499 electrons x Angstroem
 Tr[quadrupol]     -9876.536354

 energy correction for charged system         0.000000 eV
 dipol+quadrupol energy correction           -0.002336 eV
 added-field ion interaction         -4.411931 eV  (added to PSCEN)


 Broyden mixing:
  rms(total) = 0.92448E-01    rms(broyden)= 0.92448E-01
  rms(prec ) = 0.10365E+00
  weight for this iteration     100.00

 eigenvalues of (default mixing * dielectric matrix)
  average eigenvalue GAMMA=   0.4154
  1.1294  0.9206  0.9206  0.5899  0.1523  0.1329  0.0500  0.0675  0.1024  0.0886

 Free energy of the ion-electron system (eV)
  ---------------------------------------------------
  alpha Z        PSCENC =      1520.48401439
  Ewald energy   TEWEN  =    174786.09014659
  -Hartree energ DENC   =   -221869.00347533
  -exchange      EXHF   =         0.00000000
  -V(xc)+E(xc)   XCENC  =       800.67631804
  PAW double counting   =     53902.58939260   -55441.07508970
  entropy T*S    EENTRO =         0.00000000
  eigenvalues    EBANDS =     -1683.96562172
  atomic energy  EATOM  =     47499.17533030
  Solvation  Ediel_sol  =         0.00000000
  ---------------------------------------------------
  free energy    TOTEN  =      -485.02898483 eV

  energy without entropy =     -485.02898483  energy(sigma->0) =     -485.02898483


--------------------------------------------------------------------------------------------------------




--------------------------------------- Iteration      1(  12)  ---------------------------------------


    POTLOK:  cpu time    0.4265: real time    0.4271
    SETDIJ:  cpu time    0.0247: real time    0.0247
    EDDIAG:  cpu time    5.0957: real time    5.1024
  RMM-DIIS:  cpu time   18.7955: real time   18.8026
    ORTHCH:  cpu time    1.3501: real time    1.3504
 BZINTS: Fermi energy: -0.284707;568.000000 electrons
         Band energy:***********;  BLOECHL correction: -0.005324
       DOS:  cpu time    0.0468: real time    0.0468
    CHARGE:  cpu time    0.9556: real time    0.9557
    MIXING:  cpu time    0.0079: real time    0.0079
    --------------------------------------------
      LOOP:  cpu time   26.7029: real time   26.7177

 eigenvalue-minimisations  :  7681
 total energy-change (2. order) :-0.1793226E-03  (-0.8881610E-04)
 number of electron     568.0000069 magnetization      86.3832931
 augmentation part      300.5626976 magnetization      69.8786957

 DIPCOR: dipole corrections for dipol
 direction  3 min pos   235,
 dipolmoment           0.000000      0.000000      0.220201 electrons x Angstroem
 Tr[quadrupol]     -9876.531377

 energy correction for charged system         0.000000 eV
 dipol+quadrupol energy correction           -0.002330 eV
 added-field ion interaction         -4.405973 eV  (added to PSCEN)


 Broyden mixing:
  rms(total) = 0.92277E-01    rms(broyden)= 0.92276E-01
  rms(prec ) = 0.10210E+00
  weight for this iteration     100.00

 eigenvalues of (default mixing * dielectric matrix)
  average eigenvalue GAMMA=   0.4772
  1.7988  1.0511  1.0511  0.6332  0.1460  0.1460  0.0500  0.0675  0.1096  0.1066
  0.0898

 Free energy of the ion-electron system (eV)
  ---------------------------------------------------
  alpha Z        PSCENC =      1520.48997872
  Ewald energy   TEWEN  =    174786.09014659
  -Hartree energ DENC   =   -221868.86917250
  -exchange      EXHF   =         0.00000000
  -V(xc)+E(xc)   XCENC  =       800.67673457
  PAW double counting   =     53902.54429522   -55441.03992699
  entropy T*S    EENTRO =         0.00000000
  eigenvalues    EBANDS =     -1684.09655005
  atomic energy  EATOM  =     47499.17533030
  Solvation  Ediel_sol  =         0.00000000
  ---------------------------------------------------
  free energy    TOTEN  =      -485.02916415 eV

  energy without entropy =     -485.02916415  energy(sigma->0) =     -485.02916415


--------------------------------------------------------------------------------------------------------




--------------------------------------- Iteration      1(  13)  ---------------------------------------


    POTLOK:  cpu time    0.4137: real time    0.4295
    SETDIJ:  cpu time    0.0247: real time    0.0247
    EDDIAG:  cpu time    5.0982: real time    5.1078
  RMM-DIIS:  cpu time   18.5394: real time   18.5523
    ORTHCH:  cpu time    1.3498: real time    1.3502
 BZINTS: Fermi energy: -0.284264;568.000000 electrons
         Band energy:***********;  BLOECHL correction: -0.005447
       DOS:  cpu time    0.0470: real time    0.0470
    CHARGE:  cpu time    0.9556: real time    0.9558
    MIXING:  cpu time    0.0082: real time    0.0082
    --------------------------------------------
      LOOP:  cpu time   26.4374: real time   26.4756

 eigenvalue-minimisations  :  7597
 total energy-change (2. order) : 0.1505367E-02  (-0.1695310E-03)
 number of electron     568.0000069 magnetization      86.3804882
 augmentation part      300.5564634 magnetization      69.8895615

 DIPCOR: dipole corrections for dipol
 direction  3 min pos   235,
 dipolmoment           0.000000      0.000000      0.219597 electrons x Angstroem
 Tr[quadrupol]     -9876.536336

 energy correction for charged system         0.000000 eV
 dipol+quadrupol energy correction           -0.002317 eV
 added-field ion interaction         -4.393897 eV  (added to PSCEN)


 Broyden mixing:
  rms(total) = 0.62135E-01    rms(broyden)= 0.62131E-01
  rms(prec ) = 0.69454E-01
  weight for this iteration     100.00

 eigenvalues of (default mixing * dielectric matrix)
  average eigenvalue GAMMA=   0.4892
  2.0391  1.1137  1.1137  0.6347  0.2507  0.1667  0.0500  0.0675  0.1311  0.1155
  0.1003  0.0881

 Free energy of the ion-electron system (eV)
  ---------------------------------------------------
  alpha Z        PSCENC =      1520.50206731
  Ewald energy   TEWEN  =    174786.09014659
  -Hartree energ DENC   =   -221868.96736121
  -exchange      EXHF   =         0.00000000
  -V(xc)+E(xc)   XCENC  =       800.66764974
  PAW double counting   =     53902.55631822   -55441.06497265
  entropy T*S    EENTRO =         0.00000000
  eigenvalues    EBANDS =     -1683.98683707
  atomic energy  EATOM  =     47499.17533030
  Solvation  Ediel_sol  =         0.00000000
  ---------------------------------------------------
  free energy    TOTEN  =      -485.02765878 eV

  energy without entropy =     -485.02765878  energy(sigma->0) =     -485.02765878


--------------------------------------------------------------------------------------------------------




--------------------------------------- Iteration      1(  14)  ---------------------------------------


    POTLOK:  cpu time    0.4162: real time    0.4275
    SETDIJ:  cpu time    0.0247: real time    0.0247
    EDDIAG:  cpu time    5.0898: real time    5.0999
  RMM-DIIS:  cpu time   18.7420: real time   18.7554
    ORTHCH:  cpu time    1.3500: real time    1.3503
 BZINTS: Fermi energy: -0.284345;568.000000 electrons
         Band energy:***********;  BLOECHL correction: -0.005380
       DOS:  cpu time    0.0484: real time    0.0484
    CHARGE:  cpu time    0.9550: real time    0.9553
    MIXING:  cpu time    0.0087: real time    0.0086
    --------------------------------------------
      LOOP:  cpu time   26.6340: real time   26.6701

 eigenvalue-minimisations  :  7650
 total energy-change (2. order) : 0.4835817E-03  (-0.1657587E-03)
 number of electron     568.0000069 magnetization      86.3915684
 augmentation part      300.5647754 magnetization      69.8884953

 DIPCOR: dipole corrections for dipol
 direction  3 min pos   235,
 dipolmoment           0.000000      0.000000      0.219212 electrons x Angstroem
 Tr[quadrupol]     -9876.536402

 energy correction for charged system         0.000000 eV
 dipol+quadrupol energy correction           -0.002309 eV
 added-field ion interaction         -4.386179 eV  (added to PSCEN)


 Broyden mixing:
  rms(total) = 0.53535E-01    rms(broyden)= 0.53532E-01
  rms(prec ) = 0.58941E-01
  weight for this iteration     100.00

 eigenvalues of (default mixing * dielectric matrix)
  average eigenvalue GAMMA=   0.5514
  2.3648  1.3223  1.3223  0.6589  0.6589  0.0500  0.1608  0.0675  0.1422  0.1290
  0.0887  0.1035  0.0991

 Free energy of the ion-electron system (eV)
  ---------------------------------------------------
  alpha Z        PSCENC =      1520.50979349
  Ewald energy   TEWEN  =    174786.09014659
  -Hartree energ DENC   =   -221868.78894142
  -exchange      EXHF   =         0.00000000
  -V(xc)+E(xc)   XCENC  =       800.65657677
[...]
   -.669E+01 -.583E+01 0.209E+04   0.670E+01 0.579E+01 -.209E+04   0.328E+00 0.283E+00 -.190E+01   0.175E-03 -.121E-03 0.185E-03
   -.723E+02 -.171E+02 -.189E+04   0.745E+02 0.178E+02 0.189E+04   -.221E+01 -.697E+00 0.241E+01   -.259E-03 0.211E-03 0.193E-03
   0.123E+02 -.706E+01 0.210E+04   -.124E+02 0.698E+01 -.210E+04   -.300E+00 0.436E+00 -.162E+01   -.245E-03 0.112E-03 0.282E-03
   0.929E+02 -.160E+02 -.191E+04   -.949E+02 0.166E+02 0.191E+04   0.199E+01 -.622E+00 0.232E+01   0.116E-03 0.168E-03 0.238E-03
   0.336E+02 -.241E+02 0.795E+03   -.336E+02 0.241E+02 -.794E+03   0.653E-01 -.404E+00 -.572E+00   0.319E-04 0.213E-03 0.676E-03
   0.892E+00 0.100E+02 0.212E+04   -.799E+00 -.966E+01 -.212E+04   -.140E-01 -.142E+00 -.570E+00   -.244E-03 0.354E-04 0.285E-03
   -.971E+02 -.378E+02 -.192E+04   0.986E+02 0.393E+02 0.192E+04   -.154E+01 -.149E+01 0.209E+01   0.232E-03 0.938E-05 0.130E-03
   0.188E+02 -.264E+02 0.855E+03   -.188E+02 0.266E+02 -.854E+03   -.636E-01 0.153E+00 -.470E+00   -.730E-04 0.981E-04 0.102E-02
   0.551E+02 -.588E+02 -.538E+03   -.553E+02 0.591E+02 0.538E+03   0.174E+00 -.214E+00 -.153E+00   0.254E-03 0.121E-03 0.845E-03
   -.818E+01 0.815E+01 0.213E+04   0.820E+01 -.783E+01 -.213E+04   0.807E-02 -.143E+00 -.184E+01   0.320E-03 -.234E-03 0.122E-03
   0.763E+02 -.267E+02 -.185E+04   -.782E+02 0.277E+02 0.185E+04   0.193E+01 -.110E+01 0.122E+01   -.924E-04 0.121E-04 0.717E-04
   -.360E+02 0.486E+01 0.823E+03   0.363E+02 -.466E+01 -.822E+03   -.667E-01 0.476E-01 -.649E+00   0.720E-05 -.248E-03 0.127E-02
   -.143E+02 -.743E+01 0.791E+03   0.144E+02 0.771E+01 -.792E+03   -.183E+00 -.186E+00 0.273E+00   0.246E-04 -.676E-04 0.971E-03
   -.321E+02 0.716E+01 -.539E+03   0.322E+02 -.677E+01 0.539E+03   -.129E+00 -.320E+00 0.512E+00   -.128E-03 -.197E-04 0.111E-02
   0.107E+02 -.334E+02 -.530E+03   -.106E+02 0.332E+02 0.530E+03   -.944E-02 0.222E+00 0.162E+00   -.357E-03 0.228E-03 0.961E-03
   -.112E+02 0.327E+02 0.755E+03   0.110E+02 -.327E+02 -.755E+03   -.278E+00 -.586E+00 -.803E-01   0.124E-03 0.160E-03 0.947E-03
   0.186E+02 0.222E+01 0.780E+03   -.186E+02 -.240E+01 -.780E+03   0.654E+00 -.220E+00 -.227E-01   0.774E-04 0.264E-03 0.885E-03
   0.307E+02 0.684E+01 -.577E+03   -.305E+02 -.659E+01 0.577E+03   -.256E+00 -.227E+00 -.345E+00   -.647E-04 0.290E-03 0.828E-03
   -.354E+02 0.303E+02 -.596E+03   0.352E+02 -.302E+02 0.596E+03   0.247E+00 -.150E+00 -.707E+00   0.440E-04 -.135E-03 0.116E-02
   -.443E+02 0.259E+02 -.560E+03   0.442E+02 -.263E+02 0.559E+03   0.123E+00 0.409E+00 0.275E+00   -.129E-03 0.549E-06 0.110E-02
   0.104E+02 0.301E+02 0.262E+04   -.105E+02 -.304E+02 -.261E+04   0.142E+00 0.431E+00 -.108E+01   0.826E-04 -.202E-05 0.480E-03
   0.999E+01 0.177E+03 -.239E+04   -.100E+02 -.180E+03 0.238E+04   0.434E-01 0.291E+01 0.137E+01   -.139E-03 0.286E-03 0.208E-03
   -.125E+02 0.354E+01 0.264E+04   0.127E+02 -.379E+01 -.264E+04   -.514E+00 0.252E+00 -.811E+00   0.685E-04 0.628E-04 0.259E-03
   -.120E+03 -.793E+02 -.239E+04   0.123E+03 0.809E+02 0.239E+04   -.236E+01 -.153E+01 0.650E+00   0.372E-03 -.233E-03 0.436E-03
   0.145E+02 -.285E+02 0.260E+04   -.144E+02 0.288E+02 -.260E+04   0.436E-01 -.171E+00 -.111E+01   0.833E-04 0.156E-04 0.597E-03
   -.912E+02 -.904E+02 -.234E+04   0.935E+02 0.917E+02 0.234E+04   -.230E+01 -.135E+01 0.112E+01   -.354E-03 0.325E-04 0.148E-03
   0.105E+02 -.183E+02 0.263E+04   -.106E+02 0.186E+02 -.263E+04   -.248E-01 -.133E+00 -.136E+01   -.295E-03 0.154E-03 0.327E-03
   0.127E+03 -.772E+02 -.239E+04   -.129E+03 0.785E+02 0.238E+04   0.236E+01 -.132E+01 0.109E+01   -.188E-03 -.136E-03 0.435E-03
   -.239E+02 0.810E+02 -.658E+03   0.237E+02 -.811E+02 0.657E+03   0.121E+00 0.138E+00 0.671E+00   0.310E-03 -.294E-03 0.133E-02
   0.162E+02 -.372E+02 0.105E+04   -.162E+02 0.369E+02 -.105E+04   -.553E-01 0.273E-01 -.823E-01   0.329E-03 -.724E-05 0.981E-03
   -.748E+02 0.228E+01 -.653E+03   0.747E+02 -.244E+01 0.654E+03   0.270E-01 0.166E+00 -.723E+00   0.595E-03 -.138E-03 0.110E-02
   0.728E+02 -.620E+02 -.620E+03   -.730E+02 0.621E+02 0.619E+03   0.293E+00 -.102E+00 0.871E+00   0.699E-04 -.114E-03 0.116E-02
   -.483E+02 -.108E+02 -.668E+03   0.485E+02 0.109E+02 0.668E+03   -.133E+00 -.559E-01 0.477E+00   0.282E-03 -.114E-03 0.125E-02
   0.259E+02 0.744E+01 0.102E+04   -.258E+02 -.747E+01 -.102E+04   -.265E+00 -.915E-02 -.101E+00   -.446E-03 0.218E-03 0.147E-02
   0.526E+02 -.183E+02 -.680E+03   -.530E+02 0.186E+02 0.679E+03   0.335E+00 -.295E+00 0.396E+00   0.179E-03 0.166E-03 0.105E-02
   -.372E+02 0.450E+02 0.103E+04   0.371E+02 -.449E+02 -.103E+04   -.194E+00 0.953E-02 0.703E-01   0.193E-03 0.486E-04 0.150E-02
   0.635E+01 -.226E+01 -.187E+04   -.697E+01 0.233E+01 0.190E+04   0.627E+00 -.655E-01 -.265E+02   -.186E-03 0.404E-04 -.215E-03
   0.223E+02 -.229E+02 -.194E+04   -.205E+02 0.228E+02 0.196E+04   -.180E+01 -.339E-02 -.273E+02   -.646E-04 -.142E-04 -.278E-03
   -.426E+00 0.262E+01 -.188E+04   0.535E+00 -.284E+01 0.191E+04   -.132E+00 0.241E+00 -.262E+02   0.176E-03 0.298E-04 -.123E-03
   -.625E+01 0.221E+02 -.194E+04   0.667E+01 -.192E+02 0.197E+04   -.434E+00 -.284E+01 -.267E+02   0.842E-04 -.152E-03 -.729E-04
 -----------------------------------------------------------------------------------------------
   0.198E+01 0.309E+01 0.102E+03   -.260E-12 -.881E-12 -.614E-11   -.198E+01 -.308E+01 -.102E+03   0.135E-03 -.200E-03 0.396E-01
 
 
 POSITION                                       TOTAL-FORCE (eV/Angst)
 -----------------------------------------------------------------------------------
     -5.03208      8.74992      2.05921        -0.071569     -0.049235     -0.200212
     -0.00837      0.02451      8.10292        -0.021925     -0.029528      0.011474
      0.00574      8.72607      2.04466        -0.262339      0.420389      0.119827
      5.08811      0.00831      8.06084         0.025119      0.014560     -0.001447
      2.47665      8.72592      2.00821         0.375290      0.208347      0.053255
      2.54330      8.71778      8.24442        -0.001348     -0.004505     -0.036101
      1.23891      2.21748      2.05880         0.540285     -0.053140     -0.325720
      1.27123      2.16445      8.18620        -0.014206      0.012219     -0.008811
      0.08074      1.41419      4.05321        -1.031263      0.452029      0.401044
      2.49330      1.45451      4.14829         0.814633      0.161514     -0.739433
      1.25574      0.66084      6.18527         0.019928      0.019759     -0.004292
      5.06166      1.44930      4.13498        -0.404670      0.333178     -0.453150
      3.77473      0.71397      6.14217        -0.020794     -0.001042      0.004358
      7.51557      1.45812      4.11001         0.517737     -0.031221     -0.674763
      6.33340      0.71758      6.12760        -0.026579     -0.009028      0.011548
     -2.55062      4.47399      2.00995        -0.156704     -0.733543      0.245706
     -2.54424      4.40814      7.94931        -0.014074     -0.015727      0.011044
      0.03014      4.42905      2.07020        -0.288582     -0.513705     -0.151569
      0.01830      4.33622      8.15431         0.031493     -0.024215      0.014131
      2.50847      4.40516      2.07435         0.509953     -0.490162     -0.352151
      2.50583      4.33361      8.00622        -0.024062      0.016226      0.002691
      1.32139      3.64145      4.02771        -0.775411      0.344525      0.393529
      5.08382      4.44890      2.04815        -0.269052     -0.516004      0.735575
      5.05130      4.29981      8.22240         0.002744      0.007028     -0.006764
      3.79377      3.69800      4.13071         0.311546     -0.045118     -0.761679
      2.51085      2.93921      6.09247         0.016511     -0.000779      0.006081
      6.25293      3.64956      4.08305         0.349960      0.107796     -0.153282
      5.07861      2.90617      6.16099         0.008786     -0.027661     -0.015231
      6.25194      6.54167      2.03547         0.328059      0.221152      0.103013
     -3.78628      6.60303      8.20831        -0.018175      0.022019     -0.022633
     -1.23133      6.52951      2.06361        -0.395438      0.339102     -0.102437
     -1.27071      6.60365      8.20037        -0.013876      0.003412     -0.004333
     -2.52172      5.87475      4.08745         0.095402     -0.408670     -0.016348
      1.28426      6.55944      2.07409         0.075767      0.194427      0.084862
      1.31854      6.58547      8.18216         0.013587     -0.005316     -0.015456
     -0.00626      5.79145      4.04458        -0.056068      0.387178      0.262903
     -1.24296      5.10448      6.06511         0.006151     -0.000969     -0.015234
      3.77628      6.55571      2.00000         0.024693      0.174899      0.244081
      3.79513      6.55772      8.10996         0.016705     -0.025330     -0.006089
      2.52387      5.78801      4.07310         0.231346      0.238524      0.337681
      5.06734      5.79704      4.10517        -0.059509      0.089609     -0.295059
      3.76812      5.12490      6.07481         0.031081      0.067376      0.003352
      6.24008      5.12921      6.07741         0.041014      0.000638     -0.027385
     -3.76296      8.02446      4.11956        -0.462970     -0.647939      0.087464
     -1.33707      8.05044      4.10308         0.723904     -0.407307      0.167138
     -2.55140      7.23344      6.18766         0.015458      0.018555     -0.016972
      2.47848      7.31470      6.13470         0.007781     -0.032964     -0.023233
      4.98887      7.23391      6.11601         0.019126     -0.006419      0.032878
     -2.52690      8.74056      2.03303         0.057813      0.110165      0.186846
     -2.50162      8.73894      8.26099         0.000440      0.006690      0.006575
     -1.24953      2.18697      2.05404        -0.253227     -0.005275      0.409619
     -1.23033      2.22100      8.12006         0.010082      0.003396      0.007611
      3.77687      2.20348      2.02824         0.115236      0.103739      0.635005
      3.81832      2.18434      8.19540         0.027473      0.016113      0.019501
      6.31052      2.19548      2.03586        -0.145611      0.148691      0.310679
      6.33129      2.19280      8.18426        -0.020813      0.007744      0.001155
      8.85707      0.72719      6.09449        -0.010467      0.032948      0.007498
     -1.27338      3.65234      4.08853        -0.013938     -0.198110     -0.306446
      0.02183      2.90709      6.09449        -0.017143      0.005830     -0.032106
      7.57733      2.90593      6.06495         0.000312     -0.011158     -0.004320
      1.23354      5.11275      6.07557         0.000350     -0.000653      0.004298
      1.25660      8.01495      4.09194        -0.224201     -0.039612     -0.005718
     -0.01340      7.27014      6.08738        -0.018830      0.000171     -0.005757
      3.80919      8.00883      4.09175        -0.262873      0.042214     -0.080496
      5.02691      5.82405      9.29741         0.001411      0.003441     -0.002357
      2.48010      1.51525      9.36084         0.019665     -0.012943     -0.015084
      0.02133      5.80668      9.28636        -0.022626      0.021597     -0.033037
      7.65284      1.42696      9.30116        -0.008498     -0.009924     -0.007313
 -----------------------------------------------------------------------------------
    total drift:                                0.002559      0.007177     -0.011204


--------------------------------------------------------------------------------------------------------



  FREE ENERGIE OF THE ION-ELECTRON SYSTEM (eV)
  ---------------------------------------------------
  free  energy   TOTEN  =      -499.71634928 eV

  energy  without entropy=     -499.71634928  energy(sigma->0) =     -499.71634928
 


--------------------------------------------------------------------------------------------------------


    POTLOK:  cpu time    0.4362: real time    0.4363


--------------------------------------------------------------------------------------------------------


 stress matrix after NEB project (eV)
    -36.35137      1.10800     -0.16146
      1.10800    -36.90069      0.95827
     -0.16146      0.95827     -5.24814
  FORCES: max atom, RMS     0.074275    0.022549
  FORCE total and by dimension    0.185943    0.067376
  Stress total and by dimension   52.105372   36.900687
 writing wavefunctions
     LOOP+:  cpu time 1335.2669: real time 1442.2620
    4ORBIT:  cpu time    0.0000: real time    0.0000
 


 total charge     
 
# of ion       s       p       d       tot
------------------------------------------
    1        0.478   0.400   6.168   7.046
    2        0.471   0.405   6.201   7.077
    3        0.470   0.394   6.143   7.007
    4        0.474   0.412   6.182   7.068
    5        0.466   0.385   6.149   7.000
    6        0.490   0.531   6.244   7.265
    7        0.479   0.409   6.181   7.069
    8        0.491   0.534   6.254   7.279
    9        0.486   0.511   6.222   7.219
   10        0.496   0.532   6.236   7.265
   11        0.485   0.529   6.232   7.246
   12        0.488   0.527   6.197   7.212
   13        0.484   0.519   6.235   7.238
   14        0.474   0.494   6.186   7.153
   15        0.487   0.523   6.240   7.250
   16        0.474   0.394   6.153   7.021
   17        0.479   0.419   6.192   7.090
   18        0.489   0.430   6.202   7.121
   19        0.473   0.507   6.216   7.196
   20        0.497   0.430   6.205   7.131
   21        0.483   0.422   6.216   7.120
   22        0.501   0.548   6.270   7.319
   23        0.477   0.399   6.280   7.156
   24        0.471   0.500   6.205   7.176
   25        0.502   0.559   6.234   7.294
   26        0.490   0.534   6.244   7.268
   27        0.488   0.530   6.237   7.255
   28        0.485   0.540   6.214   7.239
   29        0.487   0.423   6.202   7.112
   30        0.473   0.516   6.231   7.219
   31        0.486   0.422   6.208   7.117
   32        0.472   0.509   6.214   7.194
   33        0.502   0.558   6.198   7.258
   34        0.495   0.442   6.215   7.152
   35        0.474   0.511   6.233   7.218
   36        0.499   0.549   6.211   7.258
   37        0.490   0.528   6.215   7.234
   38        0.481   0.415   6.180   7.075
   39        0.499   0.555   6.227   7.281
   40        0.496   0.549   6.242   7.287
   41        0.506   0.563   6.257   7.326
   42        0.506   0.569   6.271   7.346
   43        0.499   0.549   6.281   7.328
   44        0.492   0.535   6.257   7.284
   45        0.484   0.524   6.239   7.248
   46        0.489   0.534   6.258   7.281
   47        0.489   0.535   6.194   7.218
   48        0.504   0.562   6.215   7.281
   49        0.502   0.387   8.304   9.193
   50        0.505   0.502   8.324   9.331
   51        0.495   0.378   8.304   9.176
   52        0.497   0.500   8.328   9.324
   53        0.487   0.357   8.311   9.156
   54        0.500   0.504   8.326   9.330
   55        0.500   0.373   8.310   9.183
   56        0.497   0.495   8.332   9.324
   57        0.506   0.514   8.320   9.339
   58        0.507   0.505   8.325   9.337
   59        0.504   0.511   8.310   9.325
   60        0.513   0.520   8.320   9.353
   61        0.526   0.542   8.334   9.401
   62        0.517   0.533   8.314   9.364
   63        0.517   0.533   8.325   9.374
   64        0.506   0.511   8.319   9.336
   65        1.581   3.376   0.000   4.957
   66        1.582   3.346   0.000   4.927
   67        1.580   3.380   0.000   4.959
   68        1.581   3.350   0.000   4.931
--------------------------------------------------
tot         37.755  44.779 431.589 514.123
 


 magnetization (x)
 
# of ion       s       p       d       tot
------------------------------------------
    1        0.002  -0.006   2.701   2.697
    2        0.012   0.011   2.741   2.765
    3        0.005  -0.002   2.733   2.736
    4        0.003  -0.001   2.863   2.865
    5        0.004  -0.011   2.793   2.786
    6        0.009   0.002   2.198   2.209
    7       -0.003  -0.011   2.670   2.655
    8        0.004  -0.011   2.333   2.326
    9       -0.005  -0.034   2.572   2.533
   10       -0.002  -0.021   2.396   2.373
   11       -0.007  -0.028   2.423   2.388
   12       -0.035  -0.058  -1.952  -2.046
   13       -0.005  -0.024   2.361   2.333
   14        0.008  -0.006   2.593   2.595
   15       -0.002  -0.019   2.435   2.415
   16        0.012  -0.001   2.622   2.633
   17        0.002  -0.009   2.813   2.807
   18        0.001  -0.016   2.486   2.470
   19        0.008  -0.002   2.459   2.464
   20        0.005  -0.003   2.403   2.405
   21        0.012   0.004   2.643   2.658
   22       -0.002  -0.016   2.080   2.062
   23       -0.030  -0.026  -0.026  -0.082
   24        0.010   0.007   2.529   2.546
   25       -0.024  -0.036  -1.815  -1.876
   26       -0.004  -0.024   2.317   2.289
   27        0.005  -0.001   2.079   2.083
   28        0.010  -0.000   2.204   2.213
   29        0.002  -0.019   2.429   2.413
   30        0.006   0.000   2.370   2.377
   31        0.003  -0.016   2.377   2.364
   32        0.007  -0.006   2.485   2.486
   33       -0.040  -0.073  -1.986  -2.098
   34        0.002  -0.027   2.381   2.356
   35        0.010   0.001   2.199   2.210
   36       -0.031  -0.047  -2.044  -2.122
   37        0.007  -0.017   2.392   2.381
   38        0.005  -0.012   2.523   2.516
   39       -0.029  -0.044  -2.122  -2.195
   40       -0.024  -0.044  -1.677  -1.745
   41        0.009   0.006   1.901   1.915
   42       -0.019  -0.027  -1.540  -1.585
   43       -0.004  -0.029   1.841   1.809
   44       -0.003  -0.027   2.154   2.124
   45        0.001  -0.008   2.132   2.125
   46       -0.001  -0.013   1.958   1.944
   47        0.016   0.010   2.327   2.353
   48       -0.033  -0.050  -2.014  -2.097
   49       -0.031  -0.037   0.719   0.652
   50       -0.023  -0.029   0.629   0.576
   51       -0.032  -0.030   0.687   0.625
   52       -0.017  -0.020   0.540   0.503
   53       -0.014  -0.015   0.384   0.354
   54       -0.020  -0.025   0.601   0.556
   55       -0.021  -0.015   0.488   0.452
   56       -0.016  -0.024   0.547   0.507
   57       -0.022  -0.044   0.653   0.586
   58       -0.015  -0.036   0.477   0.427
   59       -0.016  -0.029   0.594   0.549
   60       -0.023  -0.042   0.752   0.687
   61       -0.018  -0.037   0.389   0.335
   62       -0.015  -0.038   0.512   0.459
   63       -0.027  -0.056   0.635   0.552
   64       -0.018  -0.039   0.441   0.384
   65        0.001   0.028   0.000   0.029
   66        0.002   0.083   0.000   0.085
   67        0.003   0.085   0.000   0.088
   68        0.003   0.078   0.000   0.081
--------------------------------------------------
tot         -0.442  -1.030  87.791  86.320
 
 BZINTS: Fermi energy: -0.280891;568.000000 electrons
         Band energy:***********;  BLOECHL correction: -0.005095

 total amount of memory used by VASP MPI-rank0   111638. kBytes
=======================================================================

   base      :      30000. kBytes
   nonlr-proj:      13830. kBytes
   fftplans  :       6403. kBytes
   grid      :      17692. kBytes
   one-center:         93. kBytes
   wavefun   :      43620. kBytes
 
  
  
 General timing and accounting informations for this job:
 ========================================================
  
                  Total CPU time used (sec):     1503.241
                            User time (sec):     1326.076
                          System time (sec):      177.165
                         Elapsed time (sec):     1615.189
  
                   Maximum memory used (kb):      342748.
                   Average memory used (kb):           0.
  
                          Minor page faults:     23952507
                          Major page faults:            0
                 Voluntary context switches:         4474
