SQS-NiFe                                
           1
    10.111630    0.000000    0.000000
    -5.055815    8.756928    0.000000
     0.000000    0.000000   21.266430
   Fe   Ni   O 
  48  16   4
Direct configuration=     1
   0.00194700  0.99920000  0.09682900
   0.00057145  0.00279854  0.38101941
   0.49880600  0.99647600  0.09614500
   0.50366846  0.00094856  0.37904062
   0.74316000  0.99645900  0.09443100
   0.74928743  0.99552953  0.38767278
   0.24913600  0.25322600  0.09681000
   0.24930458  0.24716958  0.38493520
   0.08873200  0.16149400  0.19059200
   0.32962600  0.16609800  0.19506300
   0.16191999  0.07546522  0.29084686
   0.58333000  0.16550300  0.19443700
   0.41407151  0.08153169  0.28881979
   0.82651500  0.16651000  0.19326300
   0.66732042  0.08194422  0.28813485
   0.00320800  0.51090900  0.09451300
   0.00007916  0.50338867  0.37379617
   0.25586900  0.50577700  0.09734600
   0.24939770  0.49517629  0.38343564
   0.49960200  0.50304900  0.09754100
   0.49525601  0.49487790  0.37647219
   0.33859900  0.41583700  0.18939300
   0.75679100  0.50804300  0.09630900
   0.74506226  0.49101844  0.38663732
   0.58633600  0.42229400  0.19423600
   0.41613466  0.33564366  0.28648311
   0.82677100  0.41676200  0.19199500
   0.66819044  0.33187136  0.28970472
   0.99180600  0.74702800  0.09571300
   0.00256929  0.75403444  0.38597481
   0.25104600  0.74563900  0.09703600
   0.25138464  0.75410573  0.38560152
   0.08604600  0.67086900  0.19220200
   0.50153700  0.74905700  0.09752900
   0.50641264  0.75202949  0.38474539
   0.33005900  0.66135600  0.19018600
   0.16852968  0.58290745  0.28519633
   0.74777500  0.74863100  0.09404500
   0.74975303  0.74886019  0.38135015
   0.58008200  0.66096300  0.19152700
   0.83213700  0.66199500  0.19303500
   0.66527190  0.58523902  0.28565261
   0.90998478  0.58573125  0.28577466
   0.08603600  0.91635500  0.19371200
   0.32743000  0.91932200  0.19293700
   0.16068853  0.82602454  0.29095916
   0.66276400  0.83530487  0.28846853
   0.90641889  0.82607872  0.28758973
   0.24916500  0.99813100  0.09559800
   0.25157266  0.99794536  0.38845193
   0.00129700  0.24974200  0.09658600
   0.00513903  0.25362750  0.38182518
   0.49933100  0.25162700  0.09537300
   0.50233752  0.24944124  0.38536813
   0.74944200  0.25071300  0.09573100
   0.75134274  0.25040743  0.38484425
   0.91745006  0.08304213  0.28657806
   0.08260800  0.41708000  0.19225300
   0.16814711  0.33197598  0.28657796
   0.91528972  0.33184399  0.28518879
   0.41391799  0.58385252  0.28568832
   0.58190700  0.91526900  0.19241300
   0.41378285  0.83021570  0.28624379
   0.83399900  0.91457100  0.19240400
   0.82968062  0.66507873  0.43718727
   0.33178897  0.17303401  0.44016968
   0.33365724  0.66309547  0.43666761
   0.83831119  0.16295244  0.43736356
