       N       E                     dE             d eps       ncg     rms          rms(c)
DAV:   1    -0.490921776948E+03   -0.49092E+03   -0.14751E-01  8472   0.310E+00    0.120E+00
RMM:   2    -0.491326116221E+03   -0.40434E+00   -0.26482E-01  7682   0.159E+00    0.772E+00
RMM:   3    -0.491187467795E+03    0.13865E+00   -0.11846E-01  7723   0.957E-01    0.413E+00
RMM:   4    -0.491181996454E+03    0.54713E-02   -0.51561E-02  8006   0.574E-01    0.307E+00
RMM:   5    -0.491173637329E+03    0.83591E-02   -0.28016E-02  7901   0.400E-01    0.272E+00
RMM:   6    -0.491146783612E+03    0.26854E-01   -0.15301E-02  7685   0.349E-01    0.131E+00
RMM:   7    -0.491145968484E+03    0.81513E-03   -0.37669E-03  8008   0.154E-01    0.101E+00
RMM:   8    -0.491147075540E+03   -0.11071E-02   -0.23009E-03  7864   0.117E-01    0.109E+00
RMM:   9    -0.491147018414E+03    0.57127E-04   -0.76382E-04  7952   0.710E-02    0.996E-01
RMM:  10    -0.491146961420E+03    0.56994E-04   -0.14150E-04 10789   0.133E-02    0.101E+00
RMM:  11    -0.491144605862E+03    0.23556E-02   -0.20545E-03  7789   0.109E-01    0.870E-01
RMM:  12    -0.491143400640E+03    0.12052E-02   -0.20682E-03  7720   0.120E-01    0.615E-01
RMM:  13    -0.491143907732E+03   -0.50709E-03   -0.20822E-03  7759   0.111E-01    0.624E-01
RMM:  14    -0.491142951198E+03    0.95653E-03   -0.11754E-03  7761   0.917E-02    0.337E-01
RMM:  15    -0.491143326450E+03   -0.37525E-03   -0.10573E-03  7774   0.796E-02    0.427E-01
RMM:  16    -0.491142961149E+03    0.36530E-03   -0.66682E-04  7866   0.644E-02    0.281E-01
RMM:  17    -0.491142794176E+03    0.16697E-03   -0.29474E-04  7948   0.402E-02    0.251E-01
RMM:  18    -0.491142790386E+03    0.37905E-05   -0.10749E-04  8552   0.206E-02    0.283E-01
RMM:  19    -0.491142765648E+03    0.24737E-04   -0.20791E-05  9373   0.623E-03    0.285E-01
RMM:  20    -0.491142435447E+03    0.33020E-03   -0.23671E-04  7746   0.368E-02    0.298E-01
RMM:  21    -0.491142022421E+03    0.41303E-03   -0.20259E-04  7759   0.363E-02    0.221E-01
RMM:  22    -0.491141882482E+03    0.13994E-03   -0.29117E-04  7712   0.406E-02    0.268E-01
RMM:  23    -0.491141533242E+03    0.34924E-03   -0.17703E-04  7741   0.343E-02    0.190E-01
RMM:  24    -0.491141546787E+03   -0.13545E-04   -0.15003E-04  7740   0.293E-02    0.194E-01
RMM:  25    -0.491141459975E+03    0.86812E-04   -0.17599E-04  7711   0.315E-02    0.152E-01
RMM:  26    -0.491141412801E+03    0.47173E-04   -0.97479E-05  7830   0.234E-02    0.108E-01
RMM:  27    -0.491141506226E+03   -0.93424E-04   -0.12611E-04  7764   0.250E-02    0.138E-01
RMM:  28    -0.491141289923E+03    0.21630E-03   -0.89925E-05  7863   0.217E-02    0.102E-01
RMM:  29    -0.491141505988E+03   -0.21606E-03   -0.70218E-05  7805   0.188E-02    0.105E-01
RMM:  30    -0.491141768750E+03   -0.26276E-03   -0.45456E-05  7766   0.158E-02    0.662E-02
RMM:  31    -0.491142110754E+03   -0.34200E-03   -0.61057E-05  7862   0.174E-02    0.885E-02
RMM:  32    -0.491142609119E+03   -0.49836E-03   -0.66891E-05  7780   0.170E-02    0.637E-02
RMM:  33    -0.491142913535E+03   -0.30442E-03   -0.38710E-05  8101   0.136E-02    0.635E-02
RMM:  34    -0.491143439342E+03   -0.52581E-03   -0.30713E-05  7869   0.111E-02    0.457E-02
RMM:  35    -0.491143766199E+03   -0.32686E-03   -0.25681E-05  7935   0.111E-02    0.513E-02
RMM:  36    -0.491144411475E+03   -0.64528E-03   -0.34521E-05  7737   0.100E-02    0.357E-02
RMM:  37    -0.491144718718E+03   -0.30724E-03   -0.19605E-05  8135   0.927E-03    0.376E-02
RMM:  38    -0.491145538715E+03   -0.82000E-03   -0.44992E-05  7892   0.994E-03    0.345E-02
RMM:  39    -0.491145750041E+03   -0.21133E-03   -0.18447E-05  8388   0.761E-03    0.259E-02
RMM:  40    -0.491145913413E+03   -0.16337E-03   -0.24603E-05  7968   0.644E-03    0.222E-02
RMM:  41    -0.491145919639E+03   -0.62261E-05   -0.98227E-06  7175   0.481E-03    0.114E-02
RMM:  42    -0.491145897749E+03    0.21891E-04   -0.52749E-06  6341   0.458E-03    0.175E-02
RMM:  43    -0.491145869023E+03    0.28726E-04   -0.24816E-06  5153   0.441E-03    0.642E-03
RMM:  44    -0.491145870305E+03   -0.12821E-05   -0.10211E-06  4238   0.268E-03    0.912E-03
RMM:  45    -0.491145881638E+03   -0.11333E-04   -0.78347E-07  4230   0.271E-03    0.429E-03
RMM:  46    -0.491145904599E+03   -0.22961E-04   -0.66412E-07  4458   0.166E-03    0.572E-03
RMM:  47    -0.491145926298E+03   -0.21699E-04   -0.68434E-07  4571   0.183E-03    0.367E-03
RMM:  48    -0.491145957982E+03   -0.31684E-04   -0.91832E-07  4925   0.134E-03    0.435E-03
RMM:  49    -0.491145977198E+03   -0.19216E-04   -0.56928E-07  4530   0.150E-03    0.266E-03
RMM:  50    -0.491146007418E+03   -0.30220E-04   -0.11073E-06  5092   0.115E-03    0.288E-03
RMM:  51    -0.491146022909E+03   -0.15491E-04   -0.60189E-07  4648   0.132E-03    0.222E-03
RMM:  52    -0.491146035714E+03   -0.12805E-04   -0.51310E-07  4489   0.109E-03    0.291E-03
RMM:  53    -0.491146053893E+03   -0.18179E-04   -0.97575E-07  4991   0.117E-03    0.178E-03
RMM:  54    -0.491146062268E+03   -0.83754E-05   -0.56228E-07  4642   0.108E-03    0.184E-03
RMM:  55    -0.491146068308E+03   -0.60398E-05   -0.55261E-07  4574   0.950E-04    0.123E-03
RMM:  56    -0.491146070074E+03   -0.17657E-05   -0.22149E-07  3555   0.857E-04    0.975E-04
RMM:  57    -0.491146071379E+03   -0.13050E-05   -0.21261E-07  3294   0.622E-04    0.109E-03
RMM:  58    -0.491146072515E+03   -0.11365E-05   -0.87876E-08  2731   0.629E-04    0.771E-04
RMM:  59    -0.491146073381E+03   -0.86597E-06   -0.97404E-08  2402   0.441E-04
   1 F= -.50588252E+03 E0= -.50588252E+03  d E =0.000000E+00  mag=    90.9826
