 vasp.5.4.4.18Apr17-6-g9f103f2a35 (build Dec 15 2018 21:27:11) complex          
  
 executed on             LinuxIFC date 2022.03.06  04:24:17
 running on   72 total cores
 distrk:  each k-point on   72 cores,    1 groups
 distr:  one band on NCORES_PER_BAND=  24 cores,    3 groups


--------------------------------------------------------------------------------------------------------


 INCAR:
 POTCAR:    PAW_PBE Fe 06Sep2000                  
 POTCAR:    PAW_PBE Ni 02Aug2007                  
 POTCAR:    PAW_PBE O 08Apr2002                   

 ----------------------------------------------------------------------------- 
|                                                                             |
|           W    W    AA    RRRRR   N    N  II  N    N   GGGG   !!!           |
|           W    W   A  A   R    R  NN   N  II  NN   N  G    G  !!!           |
|           W    W  A    A  R    R  N N  N  II  N N  N  G       !!!           |
|           W WW W  AAAAAA  RRRRR   N  N N  II  N  N N  G  GGG   !            |
|           WW  WW  A    A  R   R   N   NN  II  N   NN  G    G                |
|           W    W  A    A  R    R  N    N  II  N    N   GGGG   !!!           |
|                                                                             |
|      For optimal performance we recommend to set                            |
|        NCORE= 4 - approx SQRT( number of cores)                             |
|      NCORE specifies how many cores store one orbital (NPAR=cpu/NCORE).     |
|      This setting can  greatly improve the performance of VASP for DFT.     |
|      The default,   NCORE=1            might be grossly inefficient         |
|      on modern multi-core architectures or massively parallel machines.     |
|      Do your own testing !!!!                                               |
|      Unfortunately you need to use the default for GW and RPA calculations. |
|      (for HF NCORE is supported but not extensively tested yet)             |
|                                                                             |
 ----------------------------------------------------------------------------- 

 POTCAR:    PAW_PBE Fe 06Sep2000                  
   VRHFIN =Fe:  d7 s1                                                           
   LEXCH  = PE                                                                  
   EATOM  =   594.3153 eV,   43.6809 Ry                                         
                                                                                
   TITEL  = PAW_PBE Fe 06Sep2000                                                
   LULTRA =        F    use ultrasoft PP ?                                      
   IUNSCR =        1    unscreen: 0-lin 1-nonlin 2-no                           
   RPACOR =    2.000    partial core radius                                     
   POMASS =   55.847; ZVAL   =    8.000    mass and valenz                      
   RCORE  =    2.300    outmost cutoff radius                                   
   RWIGS  =    2.460; RWIGS  =    1.302    wigner-seitz radius (au A)           
   ENMAX  =  267.882; ENMIN  =  200.911 eV                                      
   RCLOC  =    1.701    cutoff for local pot                                    
   LCOR   =        T    correct aug charges                                     
   LPAW   =        T    paw PP                                                  
   EAUG   =  511.368                                                            
   DEXC   =    0.000                                                            
   RMAX   =    2.356    core radius for proj-oper                               
   RAUG   =    1.300    factor for augmentation sphere                          
   RDEP   =    2.442    radius for radial grids                                 
   RDEPT  =    1.890    core radius for aug-charge                              
                                                                                
   Atomic configuration                                                         
    9 entries                                                                   
     n  l   j            E        occ.                                          
     1  0  0.50     -6993.8440   2.0000                                         
     2  0  0.50      -814.6047   2.0000                                         
     2  1  1.50      -693.3689   6.0000                                         
     3  0  0.50       -89.4732   2.0000                                         
     3  1  1.50       -55.6373   6.0000                                         
     3  2  2.50        -3.8151   7.0000                                         
     4  0  0.50        -4.2551   1.0000                                         
     4  1  1.50        -3.4015   0.0000                                         
     4  3  2.50        -1.3606   0.0000                                         
   Description                                                                  
     l       E           TYP  RCUT    TYP  RCUT                                 
     2     -3.8151135     23  2.300                                             
     2     -5.1756961     23  2.300                                             
     0     -4.2550963     23  2.300                                             
     0      7.2035603     23  2.300                                             
     1     -2.7211652     23  2.300                                             
     1     18.4316424     23  2.300                                             
  local pseudopotential read in
  partial core-charges read in
  partial kinetic energy density read in
  atomic valenz-charges read in
  non local Contribution for L=           2  read in
    real space projection operators read in
  non local Contribution for L=           2  read in
    real space projection operators read in
  non local Contribution for L=           0  read in
    real space projection operators read in
  non local Contribution for L=           0  read in
    real space projection operators read in
  non local Contribution for L=           1  read in
    real space projection operators read in
  non local Contribution for L=           1  read in
    real space projection operators read in
    PAW grid and wavefunctions read in
 
   number of l-projection  operators is LMAX  =           6
   number of lm-projection operators is LMMAX =          18
 
 POTCAR:    PAW_PBE Ni 02Aug2007                  
   VRHFIN =Ni:                                                                  
   LEXCH  = PE                                                                  
   EATOM  =  1077.6739 eV,   79.2068 Ry                                         
                                                                                
   TITEL  = PAW_PBE Ni 02Aug2007                                                
   LULTRA =        F    use ultrasoft PP ?                                      
   IUNSCR =        1    unscreen: 0-lin 1-nonlin 2-no                           
   RPACOR =    2.000    partial core radius                                     
   POMASS =   58.690; ZVAL   =   10.000    mass and valenz                      
   RCORE  =    2.300    outmost cutoff radius                                   
   RWIGS  =    2.430; RWIGS  =    1.286    wigner-seitz radius (au A)           
   ENMAX  =  269.532; ENMIN  =  202.149 eV                                      
   RCLOC  =    1.201    cutoff for local pot                                    
   LCOR   =        T    correct aug charges                                     
   LPAW   =        T    paw PP                                                  
   EAUG   =  544.565                                                            
   DEXC   =    0.000                                                            
   RMAX   =    2.357    core radius for proj-oper                               
   RAUG   =    1.300    factor for augmentation sphere                          
   RDEP   =    2.390    radius for radial grids                                 
   RDEPT  =    1.838    core radius for aug-charge                              
                                                                                
   Atomic configuration                                                         
    9 entries                                                                   
     n  l   j            E        occ.                                          
     1  0  0.50     -8206.4253   2.0000                                         
     2  0  0.50      -976.1748   2.0000                                         
     2  1  1.50      -839.0571   6.0000                                         
     3  0  0.50      -105.9991   2.0000                                         
     3  1  1.50       -66.4603   6.0000                                         
     3  2  2.50        -4.6458   9.0000                                         
     4  0  0.50        -4.4926   1.0000                                         
     4  1  1.50        -4.0817   0.0000                                         
     4  3  2.50        -1.3606   0.0000                                         
   Description                                                                  
     l       E           TYP  RCUT    TYP  RCUT                                 
     2     -4.6457903     23  2.300                                             
     2     -6.0063729     23  2.300                                             
     0     -4.4925590     23  2.300                                             
     0      5.0102601     23  2.300                                             
     1     -2.7211652     23  2.300                                             
     1     16.5183231     23  2.300                                             
  local pseudopotential read in
  partial core-charges read in
  partial kinetic energy density read in
  atomic valenz-charges read in
  non local Contribution for L=           2  read in
    real space projection operators read in
  non local Contribution for L=           2  read in
    real space projection operators read in
  non local Contribution for L=           0  read in
    real space projection operators read in
  non local Contribution for L=           0  read in
    real space projection operators read in
  non local Contribution for L=           1  read in
    real space projection operators read in
  non local Contribution for L=           1  read in
    real space projection operators read in
    PAW grid and wavefunctions read in
 
   number of l-projection  operators is LMAX  =           6
   number of lm-projection operators is LMMAX =          18
 
 POTCAR:    PAW_PBE O 08Apr2002                   
   VRHFIN =O: s2p4                                                              
   LEXCH  = PE                                                                  
   EATOM  =   432.3788 eV,   31.7789 Ry                                         
                                                                                
   TITEL  = PAW_PBE O 08Apr2002                                                 
   LULTRA =        F    use ultrasoft PP ?                                      
   IUNSCR =        1    unscreen: 0-lin 1-nonlin 2-no                           
   RPACOR =    1.200    partial core radius                                     
   POMASS =   16.000; ZVAL   =    6.000    mass and valenz                      
   RCORE  =    1.520    outmost cutoff radius                                   
   RWIGS  =    1.550; RWIGS  =    0.820    wigner-seitz radius (au A)           
   ENMAX  =  400.000; ENMIN  =  300.000 eV                                      
   ICORE  =        2    local potential                                         
   LCOR   =        T    correct aug charges                                     
   LPAW   =        T    paw PP                                                  
   EAUG   =  605.392                                                            
   DEXC   =    0.000                                                            
   RMAX   =    1.553    core radius for proj-oper                               
   RAUG   =    1.300    factor for augmentation sphere                          
   RDEP   =    1.550    radius for radial grids                                 
   RDEPT  =    1.329    core radius for aug-charge                              
                                                                                
   Atomic configuration                                                         
    4 entries                                                                   
     n  l   j            E        occ.                                          
     1  0  0.50      -514.6923   2.0000                                         
     2  0  0.50       -23.9615   2.0000                                         
     2  1  0.50        -9.0305   4.0000                                         
     3  2  1.50        -9.5241   0.0000                                         
   Description                                                                  
     l       E           TYP  RCUT    TYP  RCUT                                 
     0    -23.9615318     23  1.200                                             
     0     -9.5240782     23  1.200                                             
     1     -9.0304911     23  1.520                                             
     1      8.1634956     23  1.520                                             
     2     -9.5240782      7  1.500                                             
  local pseudopotential read in
  partial core-charges read in
  partial kinetic energy density read in
  kinetic energy density of atom read in
  atomic valenz-charges read in
  non local Contribution for L=           0  read in
    real space projection operators read in
  non local Contribution for L=           0  read in
    real space projection operators read in
  non local Contribution for L=           1  read in
    real space projection operators read in
  non local Contribution for L=           1  read in
    real space projection operators read in
    PAW grid and wavefunctions read in
 
   number of l-projection  operators is LMAX  =           4
   number of lm-projection operators is LMMAX =           8
 
 Optimization of the real space projectors (new method)

 maximal supplied QI-value         = 16.25
 optimisation between [QCUT,QGAM] = [ 11.54, 23.24] = [ 37.28,151.24] Ry 
 Optimized for a Real-space Cutoff    1.53 Angstroem

   l    n(q)    QCUT    max X(q) W(low)/X(q) W(high)/X(q)  e(spline) 
   2     10    11.539    80.901    0.11E-03    0.14E-03    0.21E-06
   2     10    11.539    75.754    0.11E-03    0.14E-03    0.22E-06
   0     11    11.539    58.752    0.52E-04    0.18E-04    0.33E-06
   0     11    11.539    30.679    0.44E-04    0.16E-04    0.30E-06
   1     10    11.539    17.977    0.53E-04    0.29E-04    0.13E-06
   1     10    11.539    13.559    0.44E-04    0.25E-04    0.11E-06
 Optimization of the real space projectors (new method)

 maximal supplied QI-value         = 16.25
 optimisation between [QCUT,QGAM] = [ 11.54, 23.24] = [ 37.28,151.24] Ry 
 Optimized for a Real-space Cutoff    1.45 Angstroem

   l    n(q)    QCUT    max X(q) W(low)/X(q) W(high)/X(q)  e(spline) 
   2      9    11.539    60.317    0.19E-03    0.47E-04    0.16E-06
   2      9    11.539    55.921    0.19E-03    0.48E-04    0.16E-06
   0     10    11.539    51.690    0.80E-04    0.50E-04    0.24E-06
   0     10    11.539    30.015    0.73E-04    0.45E-04    0.22E-06
   1     10    11.539    18.849    0.87E-04    0.16E-03    0.71E-07
   1     10    11.539    14.624    0.73E-04    0.13E-03    0.64E-07
 Optimization of the real space projectors (new method)

 maximal supplied QI-value         = 24.76
 optimisation between [QCUT,QGAM] = [ 11.64, 23.27] = [ 37.91,151.63] Ry 
 Optimized for a Real-space Cutoff    1.14 Angstroem

   l    n(q)    QCUT    max X(q) W(low)/X(q) W(high)/X(q)  e(spline) 
   0      8    11.635    20.381    0.10E-03    0.33E-03    0.24E-06
   0      8    11.635    15.268    0.11E-03    0.35E-03    0.26E-06
   1      7    11.635     5.964    0.24E-03    0.31E-03    0.30E-06
   1      7    11.635     5.382    0.22E-03    0.25E-03    0.26E-06
  PAW_PBE Fe 06Sep2000                  :
 energy of atom  1       EATOM= -594.3153
 kinetic energy error for atom=    0.0026 (will be added to EATOM!!)
  PAW_PBE Ni 02Aug2007                  :
 energy of atom  2       EATOM=-1077.6739
 kinetic energy error for atom=    0.0030 (will be added to EATOM!!)
  PAW_PBE O 08Apr2002                   :
 energy of atom  3       EATOM= -432.3788
 kinetic energy error for atom=    0.0208 (will be added to EATOM!!)
 
 
 POSCAR: POSCAR                                  
  positions in direct lattice
  velocities in cartesian coordinates
 exchange correlation table for  LEXCH =        8
   RHO(1)=    0.500       N(1)  =     2000
   RHO(2)=  100.500       N(2)  =     4000

 VTST: version 3.2, (02/03/18)

 CHAIN: initializing optimizer
 
 OPT: Using VASP Dynamics algorithm
 CHAIN: Read ICHAIN            0
 
 POSCAR: POSCAR                                  
  positions in direct lattice
  velocities in cartesian coordinates
 


--------------------------------------------------------------------------------------------------------


 ion  position               nearest neighbor table
   1  0.002  0.999  0.097-   9 2.45  29 2.50  49 2.51  64 2.51  44 2.53   7 2.53  51 2.54  38 2.55
                             5 2.60
   2  0.003  0.002  0.381-  11 2.43  48 2.45   8 2.49  30 2.50  52 2.51  57 2.51   6 2.51  50 2.55
                            39 2.56
   3  0.499  0.996  0.096-   5 2.47  62 2.50  34 2.52  31 2.52  49 2.53  45 2.55  55 2.55  12 2.56
                            53 2.58
   4  0.495  0.987  0.379-  63 2.40  15 2.43  32 2.45  35 2.46  13 2.47  50 2.52   6 2.55  56 2.58
                            54 2.61
   5  0.743  0.996  0.094-   3 2.47  34 2.47  62 2.52  38 2.53  55 2.54  64 2.58  14 2.58  51 2.59
                             1 2.60
   6  0.752  0.996  0.382-  68 1.79  39 2.44  47 2.49  56 2.49  57 2.50   2 2.51  35 2.53  15 2.54
                             4 2.55  52 2.59
   7  0.249  0.253  0.097-  22 2.43   9 2.44  51 2.49  18 2.52  20 2.53   1 2.53  53 2.54  10 2.55
                            49 2.58
   8  0.250  0.249  0.382-  66 1.77  11 2.44  19 2.46  52 2.46   2 2.49  59 2.50  26 2.52  21 2.52
                            54 2.54  50 2.57
   9  0.089  0.161  0.191-  10 2.41   7 2.44   1 2.45  44 2.47  59 2.52  51 2.52  57 2.53  11 2.53
                            64 2.54  22 2.55  58 2.62  14 2.68
  10  0.330  0.166  0.195-  26 2.41   9 2.41  11 2.45  13 2.47  22 2.48  45 2.48  44 2.49   7 2.55
                            12 2.57  49 2.58  53 2.59  25 2.59
  11  0.170  0.083  0.290-   2 2.43   8 2.44  10 2.45  26 2.50  44 2.52  59 2.52  13 2.52  46 2.52
                             9 2.53  48 2.54  50 2.56  57 2.57
  12  0.583  0.166  0.194-  15 2.43  13 2.44  14 2.45  27 2.50  62 2.52  45 2.54  55 2.55   3 2.56
                            10 2.57  53 2.58  25 2.58  28 2.60
  13  0.421  0.088  0.288-  12 2.44  26 2.45  15 2.46  10 2.47   4 2.47  45 2.50  11 2.52  54 2.56
                            46 2.56  28 2.56  63 2.58  50 2.59
  14  0.827  0.167  0.193-  60 2.45  12 2.45  15 2.47  57 2.48  62 2.51  55 2.51  27 2.53  58 2.56
                            51 2.56   5 2.58  64 2.59   9 2.68
  15  0.663  0.085  0.288-   4 2.43  12 2.43  13 2.46  14 2.47  60 2.51  62 2.51   6 2.54  56 2.55
                            63 2.55  47 2.56  57 2.56  28 2.56
  16  0.003  0.511  0.095-  31 2.44  29 2.45  23 2.48  33 2.51  58 2.57  18 2.58  27 2.59  55 2.60
                            51 2.63
  17  0.002  0.503  0.376-  43 2.37  37 2.40  60 2.43  32 2.51  19 2.55  30 2.55  24 2.56  52 2.57
                            56 2.62
  18  0.256  0.506  0.097-  36 2.40  31 2.45  34 2.47  22 2.47  20 2.48   7 2.52  58 2.53  51 2.58
                            16 2.58
  19  0.247  0.491  0.384-  67 1.84  52 2.42   8 2.46  59 2.51  21 2.52  17 2.55  37 2.55  61 2.56
                            35 2.58  32 2.60
  20  0.500  0.503  0.098-  22 2.41  40 2.43  34 2.48  18 2.48  38 2.50  25 2.53   7 2.53  53 2.54
                            23 2.58
  21  0.500  0.498  0.377-  42 2.37  26 2.43  61 2.43  35 2.51  19 2.52   8 2.52  39 2.55  24 2.56
                            54 2.56
  22  0.339  0.416  0.189-  20 2.41   7 2.43  40 2.46  18 2.47  25 2.48  10 2.48  61 2.51  36 2.53
                            26 2.53  59 2.54   9 2.55  58 2.60
  23  0.757  0.508  0.096-  29 2.40  41 2.46  16 2.48  27 2.48  38 2.48  25 2.56  55 2.57  20 2.58
                            53 2.60
  24  0.749  0.496  0.396-  69 1.78  65 1.85  54 2.54  21 2.56  17 2.56  28 2.58  56 2.59  39 2.61
                            30 2.63  43 2.70  42 2.73
  25  0.586  0.422  0.194-  40 2.45  26 2.45  41 2.46  27 2.46  42 2.46  22 2.48  20 2.53  28 2.54
                            23 2.56  53 2.58  12 2.58  10 2.59
  26  0.419  0.329  0.287-  10 2.41  21 2.43  25 2.45  13 2.45  11 2.50  28 2.50   8 2.52  22 2.53
                            42 2.54  59 2.55  61 2.57  54 2.61
  27  0.827  0.417  0.192-  41 2.45  25 2.46  23 2.48  12 2.50  55 2.51  60 2.52  28 2.52  14 2.53
                            43 2.55  58 2.59  16 2.59  33 2.60
  28  0.673  0.343  0.292-  43 2.46  42 2.49  60 2.50  26 2.50  27 2.52  25 2.54  15 2.56  13 2.56
                            54 2.57  24 2.58  56 2.58  12 2.60
  29  0.992  0.747  0.096-  23 2.40  16 2.45  38 2.48  41 2.50   1 2.50  33 2.54  44 2.56  49 2.57
                            31 2.63
  30  0.007  0.757  0.388-  65 1.86  50 2.45  46 2.46  32 2.50   2 2.50  17 2.55  43 2.58  39 2.61
                            48 2.61  24 2.63
  31  0.251  0.746  0.097-  16 2.44  36 2.44  18 2.45  33 2.49  34 2.52   3 2.52  45 2.55  49 2.56
                            29 2.63
  32  0.251  0.749  0.388-  67 1.86   4 2.45  46 2.49  50 2.50  30 2.50  17 2.51  35 2.55  19 2.60
                            63 2.60  37 2.63
  33  0.086  0.671  0.192-  45 2.48  44 2.48  31 2.49  16 2.51  37 2.52  36 2.52  41 2.52  29 2.54
                            43 2.54  58 2.55  46 2.59  27 2.60
  34  0.502  0.749  0.098-  18 2.47   5 2.47  40 2.48  36 2.48  20 2.48  62 2.49  38 2.49  31 2.52
                             3 2.52
  35  0.501  0.746  0.384-  67 1.88  39 2.46   4 2.46  47 2.49  21 2.51   6 2.53  61 2.54  32 2.55
                            63 2.56  19 2.58
  36  0.330  0.661  0.190-  18 2.40  31 2.44  34 2.48  37 2.49  58 2.49  61 2.50  63 2.52  33 2.52
                            22 2.53  40 2.53  62 2.56  45 2.62
  37  0.169  0.580  0.286-  17 2.40  58 2.46  61 2.49  36 2.49  63 2.50  59 2.51  33 2.52  19 2.55
                            60 2.56  46 2.57  43 2.59  32 2.63
  38  0.748  0.749  0.094-  29 2.48  23 2.48  34 2.49  20 2.50   5 2.53  40 2.54  64 2.55   1 2.55
                            41 2.58
  39  0.747  0.752  0.386-  65 1.85   6 2.44  35 2.46  42 2.53  48 2.54  47 2.54  21 2.55   2 2.56
                            24 2.61  30 2.61
  40  0.580  0.661  0.192-  20 2.43  25 2.45  22 2.46  61 2.47  34 2.48  42 2.51  47 2.52  36 2.53
                            38 2.54  41 2.54  62 2.56  64 2.57
  41  0.832  0.662  0.193-  27 2.45  25 2.46  23 2.46  43 2.47  29 2.50  42 2.51  33 2.52  48 2.54
                            40 2.54  64 2.54  44 2.57  38 2.58
  42  0.665  0.584  0.289-  21 2.37  25 2.46  28 2.49  40 2.51  41 2.51  47 2.51  61 2.51  43 2.52
                            39 2.53  48 2.53  26 2.54  24 2.73
  43  0.916  0.587  0.289-  17 2.37  28 2.46  41 2.47  42 2.52  46 2.53  48 2.54  33 2.54  27 2.55
                            60 2.58  30 2.58  37 2.59  24 2.70
  44  0.086  0.916  0.194-  45 2.43   9 2.47  33 2.48  10 2.49  48 2.51  11 2.52   1 2.53  49 2.53
                            64 2.54  29 2.56  41 2.57  46 2.58
  45  0.327  0.919  0.193-  44 2.43  33 2.48  10 2.48  49 2.49  13 2.50  63 2.52  12 2.54  31 2.55
                             3 2.55  46 2.55  62 2.59  36 2.62
  46  0.169  0.834  0.294-  50 2.46  30 2.46  32 2.49  63 2.50  11 2.52  43 2.53  45 2.55  13 2.56
                            37 2.57  44 2.58  33 2.59  48 2.60
  47  0.661  0.831  0.287-  62 2.47   6 2.49  35 2.49  63 2.49  61 2.51  42 2.51  64 2.52  40 2.52
                            48 2.53  39 2.54  15 2.56  57 2.56
  48  0.914  0.837  0.288-   2 2.45  64 2.46  57 2.49  44 2.51  47 2.53  42 2.53  39 2.54  43 2.54
                            41 2.54  11 2.54  46 2.60  30 2.61
  49  0.249  0.998  0.096-  45 2.49   1 2.51  44 2.53   3 2.53  53 2.55  31 2.56  29 2.57  10 2.58
                             7 2.58
  50  0.252  0.997  0.388-  66 1.87  30 2.45  46 2.46  54 2.50  32 2.50   4 2.52   2 2.55  11 2.56
                             8 2.57  13 2.59
  51  0.001  0.250  0.097-   7 2.49  58 2.51   9 2.52   1 2.54  55 2.55  14 2.56  18 2.58   5 2.59
                            16 2.63
  52  0.008  0.252  0.381-  68 1.87  19 2.42  59 2.46   8 2.46   2 2.51  57 2.51  60 2.51  56 2.55
                            17 2.57   6 2.59
  53  0.499  0.252  0.095-  55 2.53   7 2.54  20 2.54  49 2.55   3 2.58  25 2.58  12 2.58  10 2.59
                            23 2.60
  54  0.498  0.245  0.389-  69 1.88  66 1.93  50 2.50   8 2.54  24 2.54  13 2.56  21 2.56  56 2.57
                            28 2.57   4 2.61  26 2.61
  55  0.749  0.251  0.096-  14 2.51  27 2.51  53 2.53   5 2.54  51 2.55   3 2.55  12 2.55  23 2.57
                            16 2.60
  56  0.750  0.241  0.389-  69 1.88  68 1.93   6 2.49  15 2.55  52 2.55  54 2.57   4 2.58  28 2.58
                            24 2.59  60 2.60  17 2.62
  57  0.915  0.083  0.286-  64 2.47  14 2.48  48 2.49   6 2.50  60 2.51   2 2.51  52 2.51   9 2.53
                            59 2.53  47 2.56  15 2.56  11 2.57
  58  0.083  0.417  0.192-  37 2.46  36 2.49  60 2.49  59 2.50  51 2.51  18 2.53  33 2.55  14 2.56
                            16 2.57  27 2.59  22 2.60   9 2.62
  59  0.168  0.331  0.286-  52 2.46  58 2.50   8 2.50  19 2.51  37 2.51  61 2.52   9 2.52  11 2.52
                            57 2.53  22 2.54  26 2.55  60 2.57
  60  0.913  0.330  0.287-  17 2.43  14 2.45  58 2.49  28 2.50  15 2.51  57 2.51  52 2.51  27 2.52
                            37 2.56  59 2.57  43 2.58  56 2.60
  61  0.415  0.581  0.286-  21 2.43  40 2.47  37 2.49  36 2.50  47 2.51  42 2.51  22 2.51  59 2.52
                            63 2.52  35 2.54  19 2.56  26 2.57
  62  0.582  0.915  0.192-  47 2.47  63 2.48  34 2.49   3 2.50  14 2.51  15 2.51   5 2.52  12 2.52
                            64 2.55  36 2.56  40 2.56  45 2.59
  63  0.414  0.829  0.286-   4 2.40  62 2.48  47 2.49  37 2.50  46 2.50  45 2.52  61 2.52  36 2.52
                            15 2.55  35 2.56  13 2.58  32 2.60
  64  0.834  0.915  0.192-  48 2.46  57 2.47   1 2.51  47 2.52   9 2.54  44 2.54  41 2.54  38 2.55
                            62 2.55  40 2.57   5 2.58  14 2.59
  65  0.837  0.678  0.440-  39 1.85  24 1.85  30 1.86
  66  0.315  0.167  0.439-   8 1.77  50 1.87  54 1.93
  67  0.332  0.655  0.438-  19 1.84  32 1.86  35 1.88
  68  0.845  0.149  0.437-   6 1.79  52 1.87  56 1.93
  69  0.669  0.328  0.443-  24 1.78  56 1.88  54 1.88
 

IMPORTANT INFORMATION: All symmetrisations will be switched off!
NOSYMM: (Re-)initialisation of all symmetry stuff for point group C_1.

 
 

Automatic generation of k-mesh.
 generate k-points for:    3    3    1
Space group operators:
 irot       det(A)        alpha          n_x          n_y          n_z        tau_x        tau_y        tau_z
    1     1.000000     0.000000     1.000000     0.000000     0.000000     0.000000     0.000000     0.000000
 
 Subroutine IBZKPT returns following result:
 ===========================================
 
 Found      5 irreducible k-points:
 
 Following reciprocal coordinates:
            Coordinates               Weight
  0.000000  0.000000  0.000000      1.000000
  0.333333  0.000000  0.000000      2.000000
  0.000000  0.333333  0.000000      2.000000
  0.333333  0.333333  0.000000      2.000000
 -0.333333  0.333333  0.000000      2.000000
 
 Following cartesian coordinates:
            Coordinates               Weight
  0.000000  0.000000  0.000000      1.000000
  0.032965  0.019033  0.000000      2.000000
  0.000000  0.038065  0.000000      2.000000
  0.032965  0.057098  0.000000      2.000000
 -0.032965  0.019033  0.000000      2.000000
 
 TETIRR: Found     24 inequivalent tetrahedra from       54


--------------------------------------------------------------------------------------------------------




 Dimension of arrays:
   k-points           NKPTS =      5   k-points in BZ     NKDIM =      5   number of bands    NBANDS=    381
   number of dos      NEDOS =    301   number of ions     NIONS =     69
   non local maximal  LDIM  =      6   non local SUM 2l+1 LMDIM =     18
   total plane-waves  NPLWV = ******
   max r-space proj   IRMAX =   8269   max aug-charges    IRDMAX=  19568
   dimension x,y,z NGX =    80 NGY =   80 NGZ =  160
   dimension x,y,z NGXF=   160 NGYF=  160 NGZF=  320
   support grid    NGXF=   160 NGYF=  160 NGZF=  320
   ions per type =              48  16   5
   NGX,Y,Z   is equivalent  to a cutoff of  13.15, 13.15, 12.51 a.u.
   NGXF,Y,Z  is equivalent  to a cutoff of  26.31, 26.31, 25.02 a.u.

 SYSTEM =  SQS-NiFe                                
 POSCAR =  POSCAR                                  

 Startparameter for this run:
   NWRITE =      2    write-flag & timer
   PREC   = accura    normal or accurate (medium, high low for compatibility)
   ISTART =      1    job   : 0-new  1-cont  2-samecut
   ICHARG =      1    charge: 1-file 2-atom 10-const
   ISPIN  =      2    spin polarized calculation?
   LNONCOLLINEAR =      F non collinear calculations
   LSORBIT =      F    spin-orbit coupling
   INIWAV =      1    electr: 0-lowe 1-rand  2-diag
   LASPH  =      F    aspherical Exc in radial PAW
   METAGGA=      F    non-selfconsistent MetaGGA calc.

 Electronic Relaxation 1
   ENCUT  =  520.0 eV  38.22 Ry    6.18 a.u.  18.80 18.80 39.54*2*pi/ulx,y,z
   ENINI  =  520.0     initial cutoff
   ENAUG  =  605.4 eV  augmentation charge cutoff
   NELM   =    200;   NELMIN=  2; NELMDL=  0     # of ELM steps 
   EDIFF  = 0.1E-05   stopping-criterion for ELM
   LREAL  =      T    real-space projection
   NLSPLINE    = F    spline interpolate recip. space projectors
   LCOMPAT=      F    compatible to vasp.4.4
   GGA_COMPAT  = T    GGA compatible to vasp.4.4-vasp.4.6
   LMAXPAW     = -100 max onsite density
   LMAXMIX     =    2 max onsite mixed and CHGCAR
   VOSKOWN=      0    Vosko Wilk Nusair interpolation
   ROPT   =   -0.00025  -0.00025  -0.00025
 Ionic relaxation
   EDIFFG = -.2E-01   stopping-criterion for IOM
   NSW    =      0    number of steps for IOM
   NBLOCK =      1;   KBLOCK =      1    inner block; outer block 
   IBRION =     -1    ionic relax: 0-MD 1-quasi-New 2-CG
   NFREE  =      0    steps in history (QN), initial steepest desc. (CG)
   ISIF   =      2    stress and relaxation
   IWAVPR =     10    prediction:  0-non 1-charg 2-wave 3-comb
   ISYM   =      0    0-nonsym 1-usesym 2-fastsym
   LCORR  =      T    Harris-Foulkes like correction to forces

   POTIM  = 0.5000    time-step for ionic-motion
   TEIN   =    0.0    initial temperature
   TEBEG  =    0.0;   TEEND  =   0.0 temperature during run
   SMASS  =  -3.00    Nose mass-parameter (am)
   estimated Nose-frequenzy (Omega)   =  0.10E-29 period in steps =****** mass=  -0.234E-26a.u.
   SCALEE = 1.0000    scale energy and forces
   NPACO  =    256;   APACO  = 16.0  distance and # of slots for P.C.
   PSTRESS=    0.0 pullay stress

  Mass of Ions in am
   POMASS =  55.85 58.69 16.00
  Ionic Valenz
   ZVAL   =   8.00 10.00  6.00
  Atomic Wigner-Seitz radii
   RWIGS  =  -1.00 -1.00 -1.00
  virtual crystal weights 
   VCA    =   1.00  1.00  1.00
   NELECT =     574.0000    total number of electrons
   NUPDOWN=      -1.0000    fix difference up-down

 DOS related values:
   EMIN   =  10.00;   EMAX   =-10.00  energy-range for DOS
   EFERMI =   0.00
   ISMEAR =    -5;   SIGMA  =   0.20  broadening in eV -4-tet -1-fermi 0-gaus

 Electronic relaxation 2 (details)
   IALGO  =     68    algorithm
   LDIAG  =      T    sub-space diagonalisation (order eigenvalues)
   LSUBROT=      F    optimize rotation matrix (better conditioning)
   TURBO    =      0    0=normal 1=particle mesh
   IRESTART =      0    0=no restart 2=restart with 2 vectors
   NREBOOT  =      0    no. of reboots
   NMIN     =      0    reboot dimension
   EREF     =   0.00    reference energy to select bands
   IMIX   =      4    mixing-type and parameters
     AMIX     =   0.40;   BMIX     =  1.00
     AMIX_MAG =   1.60;   BMIX_MAG =  1.00
     AMIN     =   0.10
     WC   =   100.;   INIMIX=   1;  MIXPRE=   1;  MAXMIX= -45

 Intra band minimization:
   WEIMIN = 0.0000     energy-eigenvalue tresh-hold
   EBREAK =  0.66E-09  absolut break condition
   DEPER  =   0.30     relativ break condition  

   TIME   =   0.40     timestep for ELM

  volume/ion in A,a.u.               =      27.29       184.17
  Fermi-wavevector in a.u.,A,eV,Ry     =   1.101767  2.082037 16.515972  1.213890
  Thomas-Fermi vector in A             =   2.238199
 
 Write flags
   LWAVE        =      T    write WAVECAR
   LDOWNSAMPLE  =      F    k-point downsampling of WAVECAR
   LCHARG       =      T    write CHGCAR
   LVTOT        =      F    write LOCPOT, total local potential
   LVHAR        =      F    write LOCPOT, Hartree potential only
   LELF         =      F    write electronic localiz. function (ELF)
   LORBIT       =     11    0 simple, 1 ext, 2 COOP (PROOUT), +10 PAW based schemes


 Dipole corrections
   LMONO  =      F    monopole corrections only (constant potential shift)
   LDIPOL =      T    correct potential (dipole corrections)
   IDIPOL =      3    1-x, 2-y, 3-z, 4-all directions 
   EPSILON=  1.0000000 bulk dielectric constant

 Exchange correlation treatment:
   GGA     =    --    GGA type
   LEXCH   =     8    internal setting for exchange type
   VOSKOWN=      0    Vosko Wilk Nusair interpolation
   LHFCALC =     F    Hartree Fock is set to
   LHFONE  =     F    Hartree Fock one center treatment
   AEXX    =    0.0000 exact exchange contribution

 Linear response parameters
   LEPSILON=     F    determine dielectric tensor
   LRPA    =     F    only Hartree local field effects (RPA)
   LNABLA  =     F    use nabla operator in PAW spheres
   LVEL    =     F    velocity operator in full k-point grid
   LINTERFAST=   F  fast interpolation
   KINTER  =     0    interpolate to denser k-point grid
   CSHIFT  =0.1000    complex shift for real part using Kramers Kronig
   OMEGAMAX=  -1.0    maximum frequency
   DEG_THRESHOLD= 0.2000000E-02 threshold for treating states as degnerate
   RTIME   =   -0.100 relaxation time in fs
  (WPLASMAI=    0.000 imaginary part of plasma frequency in eV, 0.658/RTIME)
   DFIELD  = 0.0000000 0.0000000 0.0000000 field for delta impulse in time
 
 Orbital magnetization related:
   ORBITALMAG=     F  switch on orbital magnetization
   LCHIMAG   =     F  perturbation theory with respect to B field
   DQ        =  0.001000  dq finite difference perturbation B field
   LLRAUG    =     F  two centre corrections for induced B field



--------------------------------------------------------------------------------------------------------


 Static calculation
 charge density and potential will be updated during run
 spin polarized calculation
 RMM-DIIS sequential band-by-band and
  variant of blocked Davidson during initial phase
 perform sub-space diagonalisation
    before iterative eigenvector-optimisation
 modified Broyden-mixing scheme, WC =      100.0
 initial mixing is a Kerker type mixing with AMIX =  0.4000 and BMIX =      1.0000
 Hartree-type preconditioning will be used
 using additional bands           94
 real space projection scheme for non local part
 use partial core corrections
 calculate Harris-corrections to forces 
   (improved forces if not selfconsistent)
 use gradient corrections 
 use of overlap-Matrix (Vanderbilt PP)
 Fermi weights with tetrahedron method with Bloechl corrections


--------------------------------------------------------------------------------------------------------


  energy-cutoff  :      520.00
  volume of cell :     1883.07
      direct lattice vectors                 reciprocal lattice vectors
    10.111630000  0.000000000  0.000000000     0.098896024  0.057097646  0.000000000
    -5.055815000  8.756928450  0.000000000     0.000000000  0.114195292  0.000000000
     0.000000000  0.000000000 21.266430000     0.000000000  0.000000000  0.047022467

  length of vectors
    10.111630000 10.111629997 21.266430000     0.114195292  0.114195292  0.047022467


 
 old parameters found on file WAVECAR:
  energy-cutoff  :      520.00
  volume of cell :     1883.07
      direct lattice vectors                 reciprocal lattice vectors
    10.111630000  0.000000000  0.000000000     0.098896024  0.057097646  0.000000000
    -5.055815000  8.756928450  0.000000000     0.000000000  0.114195292  0.000000000
     0.000000000  0.000000000 21.266430000     0.000000000  0.000000000  0.047022467

  length of vectors

 
 k-points in units of 2pi/SCALE and weight: read from INCAR                         
   0.00000000  0.00000000  0.00000000       0.111
   0.03296534  0.01903255  0.00000000       0.222
   0.00000000  0.03806510  0.00000000       0.222
   0.03296534  0.05709765  0.00000000       0.222
  -0.03296534  0.01903255  0.00000000       0.222
 
 k-points in reciprocal lattice and weights: read from INCAR                         
   0.00000000  0.00000000  0.00000000       0.111
   0.33333333  0.00000000  0.00000000       0.222
   0.00000000  0.33333333  0.00000000       0.222
   0.33333333  0.33333333  0.00000000       0.222
  -0.33333333  0.33333333  0.00000000       0.222
 
 position of ions in fractional coordinates (direct lattice) 
   0.00194700  0.99920000  0.09682900
   0.00325685  0.00196278  0.38111237
   0.49880600  0.99647600  0.09614500
   0.49544669  0.98659692  0.37867872
   0.74316000  0.99645900  0.09443100
   0.75215354  0.99636361  0.38209615
   0.24913600  0.25322600  0.09681000
   0.24952126  0.24878899  0.38208532
   0.08873200  0.16149400  0.19059200
   0.32962600  0.16609800  0.19506300
   0.17011620  0.08347322  0.28995676
   0.58333000  0.16550300  0.19443700
   0.42130765  0.08781490  0.28774204
   0.82651500  0.16651000  0.19326300
   0.66289568  0.08462857  0.28783244
   0.00320800  0.51090900  0.09451300
   0.00224762  0.50316380  0.37608683
   0.25586900  0.50577700  0.09734600
   0.24721596  0.49056690  0.38429804
   0.49960200  0.50304900  0.09754100
   0.49957213  0.49769920  0.37711292
   0.33859900  0.41583700  0.18939300
   0.75679100  0.50804300  0.09630900
   0.74864708  0.49596264  0.39585971
   0.58633600  0.42229400  0.19423600
   0.41904271  0.32922116  0.28651377
   0.82677100  0.41676200  0.19199500
   0.67286331  0.34266216  0.29234111
   0.99180600  0.74702800  0.09571300
   0.00747975  0.75698441  0.38826830
   0.25104600  0.74563900  0.09703600
   0.25089401  0.74888802  0.38849241
   0.08604600  0.67086900  0.19220200
   0.50153700  0.74905700  0.09752900
   0.50118106  0.74625480  0.38400241
   0.33005900  0.66135600  0.19018600
   0.16887737  0.58017286  0.28642151
   0.74777500  0.74863100  0.09404500
   0.74715549  0.75247742  0.38579310
   0.58008200  0.66096300  0.19152700
   0.83213700  0.66199500  0.19303500
   0.66514391  0.58440654  0.28892815
   0.91582509  0.58668413  0.28912456
   0.08603600  0.91635500  0.19371200
   0.32743000  0.91932200  0.19293700
   0.16938261  0.83392140  0.29375235
   0.66132054  0.83085387  0.28723403
   0.91401628  0.83658855  0.28832000
   0.24916500  0.99813100  0.09559800
   0.25240513  0.99653834  0.38785908
   0.00129700  0.24974200  0.09658600
   0.00774746  0.25238049  0.38100316
   0.49933100  0.25162700  0.09537300
   0.49788485  0.24466050  0.38932550
   0.74944200  0.25071300  0.09573100
   0.75024152  0.24083997  0.38870433
   0.91540369  0.08300810  0.28571436
   0.08260800  0.41708000  0.19225300
   0.16779780  0.33104823  0.28606009
   0.91341666  0.33021495  0.28657697
   0.41517022  0.58112164  0.28594114
   0.58190700  0.91526900  0.19241300
   0.41401152  0.82932616  0.28623567
   0.83399900  0.91457100  0.19240400
   0.83708968  0.67785606  0.44004418
   0.31495449  0.16749454  0.43932577
   0.33219634  0.65516581  0.43828108
   0.84493127  0.14941645  0.43711071
   0.66865766  0.32797043  0.44303714
 
 position of ions in cartesian coordinates  (Angst):
  -5.03208300  8.74992291  2.05920715
   0.02300863  0.01718791  8.10489946
   0.00574341  8.72606903  2.04466091
   0.02172215  8.63955863  8.05314443
   2.47664659  8.72592017  2.00821025
   2.56806817  8.72508483  8.12582106
   1.23890724  2.21748196  2.05880309
   1.26523555  2.17862735  8.12559071
   0.08074137  1.41419140  4.05321143
   2.49329539  1.45450830  4.14829364
   1.29812691  0.73096903  6.16634520
   5.06166458  1.44929793  4.13498085
   3.81613112  0.76898882  6.11924595
   7.51557011  1.45811616  4.11001406
   6.27508944  0.74108637  6.12116843
  -2.55062328  4.47399356  2.00995410
  -2.52117599  4.40616937  7.99802424
   0.03013771  4.42905300  2.07020189
   0.01954081  4.29585923  8.17264746
   2.50846789  4.40516410  2.07434885
   2.53521342  4.35831632  8.01984560
   1.32139286  3.64145486  4.02771298
   5.08381916  4.44889620  2.04814861
   5.06254697  4.34310933  8.41852286
   3.79377235  3.69799834  4.13070630
   2.57272353  2.88296615  6.09312497
   6.25293088  3.64955501  4.08304823
   5.07130838  3.00066803  6.21705176
   6.25193994  6.54167075  2.03547381
  -3.75154070  6.62885830  8.25708057
  -1.23132858  6.52950737  2.06360930
  -1.24929193  6.55795882  8.26184660
  -2.52172424  5.87475183  4.08745038
   1.28426296  6.55943855  2.07409365
   1.29483126  6.53489985  8.16636041
  -0.00625910  5.79144717  4.04457726
  -1.22562113  5.08053222  6.09116299
   3.77628428  6.55570810  2.00000141
   3.75057323  6.58939089  8.20444205
   2.52386790  5.78800570  4.07309554
   5.06733720  5.79704285  4.10516532
   3.77103773  5.11760624  6.14447019
   6.29431805  5.13755094  6.14864722
  -3.76295716  8.02445517  4.11956269
  -1.33707095  8.05043698  4.10308120
  -2.50341802  7.30259002  6.24706380
   2.48638512  7.27572789  6.10844249
   5.01255752  7.32594609  6.13153707
  -2.52690139  8.74056175  2.03302818
  -2.48608624  8.72661493  8.24837804
  -1.24953457  2.18697282  2.05403941
  -1.19764966  2.21007791  8.10257706
   3.77687076  2.20347964  2.02824323
   3.79746913  2.14247449  8.27956359
   6.31052166  2.19547580  2.03585661
   6.36852239  2.10901834  8.26635338
   8.83654978  0.72689600  6.07612440
  -1.27337779  3.65233972  4.08853497
   0.02299070  2.89896564  6.08347697
   7.56662559  2.89166873  6.09446909
   1.26000410  5.08884062  6.08094723
   1.25659754  8.01494515  4.09193760
  -0.00658832  7.26234985  6.08721088
   3.80918753  8.00883281  4.09174620
   5.03722634  5.93593701  9.35816870
   2.33788187  1.46673773  9.34289074
   0.04664937  5.73724012  9.32067387
   7.78821045  1.30842915  9.29578435
   5.10306107  2.87201361  9.42181832
 


--------------------------------------------------------------------------------------------------------


 k-point  1 :   0.0000 0.0000 0.0000  plane waves:   50761
 k-point  2 :   0.3333 0.0000 0.0000  plane waves:   50732
 k-point  3 :   0.0000 0.3333 0.0000  plane waves:   50732
 k-point  4 :   0.3333 0.3333 0.0000  plane waves:   50727
 k-point  5 :  -0.3333 0.3333 0.0000  plane waves:   50732

 maximum and minimum number of plane-waves per node :      2133     2094

 maximum number of plane-waves:     50761
 maximum index in each direction: 
   IXMAX=   19   IYMAX=   18   IZMAX=   39
   IXMIN=  -19   IYMIN=  -19   IZMIN=  -39


 real space projection operators:
  total allocation   :      69906.92 KBytes
  max/ min on nodes  :       3485.83       2629.14


 parallel 3D FFT for wavefunctions:
    minimum data exchange during FFTs selected (reduces bandwidth)
 parallel 3D FFT for charge:
    minimum data exchange during FFTs selected (reduces bandwidth)


 total amount of memory used by VASP MPI-rank0   112483. kBytes
=======================================================================

   base      :      30000. kBytes
   nonlr-proj:      13978. kBytes
   fftplans  :       6403. kBytes
   grid      :      17692. kBytes
   one-center:         93. kBytes
   wavefun   :      44317. kBytes
 
     INWAV:  cpu time   10.7398: real time   11.0028
 Broyden mixing: mesh for mixing (old mesh)
   NGX = 37   NGY = 37   NGZ = 79
  (NGX  =160   NGY  =160   NGZ  =320)
  gives a total of 108151 points

 initial charge density was supplied:
 number of electron     574.0000091 magnetization      91.2512350
 keeping initial charge density in first step


--------------------------------------------------------------------------------------------------------


 Maximum index for non-local projection operator          758
 Maximum index for augmentation-charges         1103 (set IRDMAX)


--------------------------------------------------------------------------------------------------------


 First call to EWALD:  gamma=   0.144
 Maximum number of real-space cells 4x 4x 2
 Maximum number of reciprocal cells 2x 2x 4

    FEWALD:  cpu time    0.0033: real time    0.0033


--------------------------------------- Iteration      1(   1)  ---------------------------------------


    POTLOK:  cpu time    0.4167: real time    0.4243
    SETDIJ:  cpu time    0.0249: real time    0.0250
     EDDAV:  cpu time   38.3963: real time   38.4342
 BZINTS: Fermi energy: -0.290896;574.000000 electrons
         Band energy:***********;  BLOECHL correction: -0.011862
       DOS:  cpu time    0.0481: real time    0.0481
    CHARGE:  cpu time    0.9720: real time    0.9722
    MIXING:  cpu time    0.0063: real time    0.0063
    --------------------------------------------
      LOOP:  cpu time   39.8644: real time   39.9101

 eigenvalue-minimisations  :  8472
 total energy-change (2. order) :-0.4909218E+03  (-0.1475132E-01)
 number of electron     574.0000091 magnetization      91.2764199
 augmentation part      301.2897770 magnetization      73.3319209

 DIPCOR: dipole corrections for dipol
 direction  3 min pos   237,
 dipolmoment           0.000000      0.000000      0.296091 electrons x Angstroem
 Tr[quadrupol]    -10012.743048

 energy correction for charged system         0.000000 eV
 dipol+quadrupol energy correction           -0.004212 eV
 added-field ion interaction         -4.689982 eV  (added to PSCEN)


 Broyden mixing:
  rms(total) = 0.12040E+00    rms(broyden)= 0.12013E+00
  rms(prec ) = 0.12603E+00
  weight for this iteration     100.00

 Free energy of the ion-electron system (eV)
  ---------------------------------------------------
  alpha Z        PSCENC =      1543.37153098
  Ewald energy   TEWEN  =    175195.75680742
  -Hartree energ DENC   =   -222709.51357715
  -exchange      EXHF   =         0.00000000
  -V(xc)+E(xc)   XCENC  =       829.15117979
  PAW double counting   =     54542.61572740   -56084.26795967
  entropy T*S    EENTRO =         0.00000000
  eigenvalues    EBANDS =     -1739.56880253
  atomic energy  EATOM  =     47931.53331682
  Solvation  Ediel_sol  =         0.00000000
  ---------------------------------------------------
  free energy    TOTEN  =      -490.92177695 eV

  energy without entropy =     -490.92177695  energy(sigma->0) =     -490.92177695


--------------------------------------------------------------------------------------------------------




--------------------------------------- Iteration      1(   2)  ---------------------------------------


    POTLOK:  cpu time    0.4181: real time    0.4279
    SETDIJ:  cpu time    0.0250: real time    0.0249
    EDDIAG:  cpu time    5.1866: real time    5.1887
  RMM-DIIS:  cpu time   18.6610: real time   18.6737
    ORTHCH:  cpu time    1.4355: real time    1.4358
 BZINTS: Fermi energy: -0.276774;574.000000 electrons
         Band energy:***********;  BLOECHL correction: -0.012430
       DOS:  cpu time    0.0468: real time    0.0467
    CHARGE:  cpu time    0.9699: real time    0.9701
    MIXING:  cpu time    0.0063: real time    0.0063
    --------------------------------------------
      LOOP:  cpu time   26.7498: real time   26.7742

 eigenvalue-minimisations  :  7682
 total energy-change (2. order) :-0.4043393E+00  (-0.2648235E-01)
 number of electron     574.0000092 magnetization      91.2678069
 augmentation part      301.1737292 magnetization      73.6281703

 DIPCOR: dipole corrections for dipol
 direction  3 min pos   238,
 dipolmoment           0.000000      0.000000      0.303029 electrons x Angstroem
 Tr[quadrupol]    -10012.834348

 energy correction for charged system         0.000000 eV
 dipol+quadrupol energy correction           -0.004412 eV
 added-field ion interaction         -3.689031 eV  (added to PSCEN)


 Broyden mixing:
  rms(total) = 0.77219E+00    rms(broyden)= 0.77215E+00
  rms(prec ) = 0.88363E+00
  weight for this iteration     100.00

 eigenvalues of (default mixing * dielectric matrix)
  average eigenvalue GAMMA=   0.1271
  0.1271

 Free energy of the ion-electron system (eV)
  ---------------------------------------------------
  alpha Z        PSCENC =      1544.37228231
  Ewald energy   TEWEN  =    175195.75680742
  -Hartree energ DENC   =   -222710.86204888
  -exchange      EXHF   =         0.00000000
  -V(xc)+E(xc)   XCENC  =       829.44785073
  PAW double counting   =     54543.58759855   -56084.89055200
  entropy T*S    EENTRO =         0.00000000
  eigenvalues    EBANDS =     -1740.27137117
  atomic energy  EATOM  =     47931.53331682
  Solvation  Ediel_sol  =         0.00000000
  ---------------------------------------------------
  free energy    TOTEN  =      -491.32611622 eV

  energy without entropy =     -491.32611622  energy(sigma->0) =     -491.32611622


--------------------------------------------------------------------------------------------------------




--------------------------------------- Iteration      1(   3)  ---------------------------------------


    POTLOK:  cpu time    0.4291: real time    0.4297
    SETDIJ:  cpu time    0.0247: real time    0.0246
    EDDIAG:  cpu time    5.1849: real time    5.1936
  RMM-DIIS:  cpu time   18.7912: real time   18.7989
    ORTHCH:  cpu time    1.4253: real time    1.4301
 BZINTS: Fermi energy: -0.287322;574.000000 electrons
         Band energy:***********;  BLOECHL correction: -0.010296
       DOS:  cpu time    0.0465: real time    0.0465
    CHARGE:  cpu time    0.9701: real time    0.9702
    MIXING:  cpu time    0.0065: real time    0.0064
    --------------------------------------------
      LOOP:  cpu time   26.8776: real time   26.9001

 eigenvalue-minimisations  :  7723
 total energy-change (2. order) : 0.1386484E+00  (-0.1184572E-01)
 number of electron     574.0000091 magnetization      91.2658389
 augmentation part      301.2887928 magnetization      73.3307245

 DIPCOR: dipole corrections for dipol
 direction  3 min pos   237,
 dipolmoment           0.000000      0.000000      0.321844 electrons x Angstroem
 Tr[quadrupol]    -10012.786316

 energy correction for charged system         0.000000 eV
 dipol+quadrupol energy correction           -0.004977 eV
 added-field ion interaction         -5.097899 eV  (added to PSCEN)


 Broyden mixing:
  rms(total) = 0.41342E+00    rms(broyden)= 0.41336E+00
  rms(prec ) = 0.51357E+00
  weight for this iteration     100.00

 eigenvalues of (default mixing * dielectric matrix)
  average eigenvalue GAMMA=   0.1856
  0.3107  0.0604

 Free energy of the ion-electron system (eV)
  ---------------------------------------------------
  alpha Z        PSCENC =      1542.96284975
  Ewald energy   TEWEN  =    175195.75680742
  -Hartree energ DENC   =   -222712.18910597
  -exchange      EXHF   =         0.00000000
  -V(xc)+E(xc)   XCENC  =       829.41313992
  PAW double counting   =     54545.14737857   -56086.61675780
  entropy T*S    EENTRO =         0.00000000
  eigenvalues    EBANDS =     -1737.19509650
  atomic energy  EATOM  =     47931.53331682
  Solvation  Ediel_sol  =         0.00000000
  ---------------------------------------------------
  free energy    TOTEN  =      -491.18746780 eV

  energy without entropy =     -491.18746780  energy(sigma->0) =     -491.18746780


--------------------------------------------------------------------------------------------------------




--------------------------------------- Iteration      1(   4)  ---------------------------------------


    POTLOK:  cpu time    0.4204: real time    0.4332
    SETDIJ:  cpu time    0.0246: real time    0.0246
    EDDIAG:  cpu time    5.1933: real time    5.2010
  RMM-DIIS:  cpu time   19.4603: real time   19.4697
    ORTHCH:  cpu time    1.4280: real time    1.4282
 BZINTS: Fermi energy: -0.285410;574.000000 electrons
         Band energy:***********;  BLOECHL correction: -0.011927
       DOS:  cpu time    0.0436: real time    0.0435
    CHARGE:  cpu time    0.9694: real time    0.9704
    MIXING:  cpu time    0.0065: real time    0.0065
    --------------------------------------------
      LOOP:  cpu time   27.5464: real time   27.5772

 eigenvalue-minimisations  :  8006
 total energy-change (2. order) : 0.5471342E-02  (-0.5156085E-02)
 number of electron     574.0000091 magnetization      91.2641615
 augmentation part      301.2185186 magnetization      73.3766109

 DIPCOR: dipole corrections for dipol
 direction  3 min pos   238,
 dipolmoment           0.000000      0.000000      0.259314 electrons x Angstroem
 Tr[quadrupol]    -10012.780101

 energy correction for charged system         0.000000 eV
 dipol+quadrupol energy correction           -0.003231 eV
 added-field ion interaction         -3.156843 eV  (added to PSCEN)


 Broyden mixing:
  rms(total) = 0.30724E+00    rms(broyden)= 0.30719E+00
  rms(prec ) = 0.43320E+00
  weight for this iteration     100.00

 eigenvalues of (default mixing * dielectric matrix)
  average eigenvalue GAMMA=   0.2019
  0.4637  0.0963  0.0457

 Free energy of the ion-electron system (eV)
  ---------------------------------------------------
  alpha Z        PSCENC =      1544.90565147
  Ewald energy   TEWEN  =    175195.75680742
  -Hartree energ DENC   =   -222710.40284581
  -exchange      EXHF   =         0.00000000
  -V(xc)+E(xc)   XCENC  =       829.43759792
  PAW double counting   =     54545.93312977   -56087.63459274
  entropy T*S    EENTRO =         0.00000000
  eigenvalues    EBANDS =     -1740.71106129
  atomic energy  EATOM  =     47931.53331682
  Solvation  Ediel_sol  =         0.00000000
  ---------------------------------------------------
  free energy    TOTEN  =      -491.18199645 eV

  energy without entropy =     -491.18199645  energy(sigma->0) =     -491.18199645


--------------------------------------------------------------------------------------------------------




--------------------------------------- Iteration      1(   5)  ---------------------------------------


    POTLOK:  cpu time    0.4194: real time    0.4361
    SETDIJ:  cpu time    0.0246: real time    0.0246
    EDDIAG:  cpu time    5.1952: real time    5.1966
  RMM-DIIS:  cpu time   19.1941: real time   19.2086
    ORTHCH:  cpu time    1.4368: real time    1.4370
 BZINTS: Fermi energy: -0.288714;574.000000 electrons
         Band energy:***********;  BLOECHL correction: -0.013515
       DOS:  cpu time    0.0465: real time    0.0465
    CHARGE:  cpu time    0.9722: real time    0.9725
    MIXING:  cpu time    0.0066: real time    0.0067
    --------------------------------------------
      LOOP:  cpu time   27.2961: real time   27.3287

 eigenvalue-minimisations  :  7901
 total energy-change (2. order) : 0.8359125E-02  (-0.2801621E-02)
 number of electron     574.0000091 magnetization      91.2580050
 augmentation part      301.1479514 magnetization      73.4853685

 DIPCOR: dipole corrections for dipol
 direction  3 min pos   238,
 dipolmoment           0.000000      0.000000      0.320716 electrons x Angstroem
 Tr[quadrupol]    -10012.770498

 energy correction for charged system         0.000000 eV
 dipol+quadrupol energy correction           -0.004942 eV
 added-field ion interaction         -3.904344 eV  (added to PSCEN)


 Broyden mixing:
  rms(total) = 0.27218E+00    rms(broyden)= 0.27215E+00
  rms(prec ) = 0.34192E+00
  weight for this iteration     100.00

 eigenvalues of (default mixing * dielectric matrix)
  average eigenvalue GAMMA=   0.1901
  0.5146  0.1301  0.0468  0.0690

 Free energy of the ion-electron system (eV)
  ---------------------------------------------------
  alpha Z        PSCENC =      1544.15643981
  Ewald energy   TEWEN  =    175195.75680742
  -Hartree energ DENC   =   -222711.30054451
  -exchange      EXHF   =         0.00000000
  -V(xc)+E(xc)   XCENC  =       829.43496381
  PAW double counting   =     54547.14304352   -56088.91351415
  entropy T*S    EENTRO =         0.00000000
  eigenvalues    EBANDS =     -1738.98415005
  atomic energy  EATOM  =     47931.53331682
  Solvation  Ediel_sol  =         0.00000000
  ---------------------------------------------------
  free energy    TOTEN  =      -491.17363733 eV

  energy without entropy =     -491.17363733  energy(sigma->0) =     -491.17363733


--------------------------------------------------------------------------------------------------------




--------------------------------------- Iteration      1(   6)  ---------------------------------------


    POTLOK:  cpu time    0.4192: real time    0.4310
    SETDIJ:  cpu time    0.0247: real time    0.0247
    EDDIAG:  cpu time    5.1895: real time    5.1961
  RMM-DIIS:  cpu time   18.7042: real time   18.7189
    ORTHCH:  cpu time    1.4317: real time    1.4324
 BZINTS: Fermi energy: -0.284033;574.000000 electrons
         Band energy:***********;  BLOECHL correction: -0.012101
       DOS:  cpu time    0.0457: real time    0.0457
    CHARGE:  cpu time    0.9711: real time    0.9712
    MIXING:  cpu time    0.0068: real time    0.0068
    --------------------------------------------
      LOOP:  cpu time   26.7922: real time   26.8268

 eigenvalue-minimisations  :  7685
 total energy-change (2. order) : 0.2685372E-01  (-0.1530104E-02)
 number of electron     574.0000091 magnetization      91.2557177
 augmentation part      301.2104452 magnetization      73.3916558

 DIPCOR: dipole corrections for dipol
 direction  3 min pos   237,
 dipolmoment           0.000000      0.000000      0.292472 electrons x Angstroem
 Tr[quadrupol]    -10012.762005

 energy correction for charged system         0.000000 eV
 dipol+quadrupol energy correction           -0.004110 eV
 added-field ion interaction         -4.632665 eV  (added to PSCEN)


 Broyden mixing:
  rms(total) = 0.13057E+00    rms(broyden)= 0.13055E+00
  rms(prec ) = 0.15147E+00
  weight for this iteration     100.00

 eigenvalues of (default mixing * dielectric matrix)
  average eigenvalue GAMMA=   0.1751
  0.4788  0.1738  0.1141  0.0665  0.0423

 Free energy of the ion-electron system (eV)
  ---------------------------------------------------
  alpha Z        PSCENC =      1543.42895067
  Ewald energy   TEWEN  =    175195.75680742
  -Hartree energ DENC   =   -222710.77691326
  -exchange      EXHF   =         0.00000000
  -V(xc)+E(xc)   XCENC  =       829.34385363
  PAW double counting   =     54545.96397511   -56087.49801042
  entropy T*S    EENTRO =         0.00000000
  eigenvalues    EBANDS =     -1738.89876357
  atomic energy  EATOM  =     47931.53331682
  Solvation  Ediel_sol  =         0.00000000
  ---------------------------------------------------
  free energy    TOTEN  =      -491.14678361 eV

  energy without entropy =     -491.14678361  energy(sigma->0) =     -491.14678361


--------------------------------------------------------------------------------------------------------




--------------------------------------- Iteration      1(   7)  ---------------------------------------


    POTLOK:  cpu time    0.4199: real time    0.4327
    SETDIJ:  cpu time    0.0248: real time    0.0247
    EDDIAG:  cpu time    5.1665: real time    5.1686
  RMM-DIIS:  cpu time   19.5041: real time   19.5236
    ORTHCH:  cpu time    1.4250: real time    1.4261
 BZINTS: Fermi energy: -0.284603;574.000000 electrons
         Band energy:***********;  BLOECHL correction: -0.012734
       DOS:  cpu time    0.0474: real time    0.0474
    CHARGE:  cpu time    0.9792: real time    0.9794
    MIXING:  cpu time    0.0071: real time    0.0071
    --------------------------------------------
      LOOP:  cpu time   27.5741: real time   27.6095

 eigenvalue-minimisations  :  8008
 total energy-change (2. order) : 0.8151282E-03  (-0.3766884E-03)
 number of electron     574.0000091 magnetization      91.2506213
 augmentation part      301.2310029 magnetization      73.3780199

 DIPCOR: dipole corrections for dipol
 direction  3 min pos   237,
 dipolmoment           0.000000      0.000000      0.290289 electrons x Angstroem
 Tr[quadrupol]    -10012.759095

 energy correction for charged system         0.000000 eV
 dipol+quadrupol energy correction           -0.004049 eV
 added-field ion interaction         -4.598079 eV  (added to PSCEN)


 Broyden mixing:
  rms(total) = 0.10149E+00    rms(broyden)= 0.10148E+00
  rms(prec ) = 0.12364E+00
  weight for this iteration     100.00

 eigenvalues of (default mixing * dielectric matrix)
  average eigenvalue GAMMA=   0.1921
  0.4190  0.4190  0.1313  0.0446  0.0774  0.0615

 Free energy of the ion-electron system (eV)
  ---------------------------------------------------
  alpha Z        PSCENC =      1543.46359803
  Ewald energy   TEWEN  =    175195.75680742
  -Hartree energ DENC   =   -222710.43640691
  -exchange      EXHF   =         0.00000000
  -V(xc)+E(xc)   XCENC  =       829.32370940
  PAW double counting   =     54545.67926817   -56087.14891985
  entropy T*S    EENTRO =         0.00000000
  eigenvalues    EBANDS =     -1739.31734156
  atomic energy  EATOM  =     47931.53331682
  Solvation  Ediel_sol  =         0.00000000
  ---------------------------------------------------
  free energy    TOTEN  =      -491.14596848 eV

  energy without entropy =     -491.14596848  energy(sigma->0) =     -491.14596848


--------------------------------------------------------------------------------------------------------




--------------------------------------- Iteration      1(   8)  ---------------------------------------


    POTLOK:  cpu time    0.4200: real time    0.4329
    SETDIJ:  cpu time    0.0246: real time    0.0246
    EDDIAG:  cpu time    5.1702: real time    5.1714
  RMM-DIIS:  cpu time   19.1748: real time   19.1938
    ORTHCH:  cpu time    1.4273: real time    1.4275
 BZINTS: Fermi energy: -0.285366;574.000000 electrons
         Band energy:***********;  BLOECHL correction: -0.012952
       DOS:  cpu time    0.0473: real time    0.0473
    CHARGE:  cpu time    0.9793: real time    0.9795
    MIXING:  cpu time    0.0070: real time    0.0070
    --------------------------------------------
      LOOP:  cpu time   27.2504: real time   27.2839

 eigenvalue-minimisations  :  7864
 total energy-change (2. order) :-0.1107056E-02  (-0.2300872E-03)
 number of electron     574.0000091 magnetization      91.2450900
 augmentation part      301.2327205 magnetization      73.3772412

 DIPCOR: dipole corrections for dipol
 direction  3 min pos   237,
 dipolmoment           0.000000      0.000000      0.293861 electrons x Angstroem
 Tr[quadrupol]    -10012.747145

 energy correction for charged system         0.000000 eV
 dipol+quadrupol energy correction           -0.004149 eV
 added-field ion interaction         -4.654666 eV  (added to PSCEN)


 Broyden mixing:
  rms(total) = 0.10860E+00    rms(broyden)= 0.10860E+00
  rms(prec ) = 0.12636E+00
  weight for this iteration     100.00

 eigenvalues of (default mixing * dielectric matrix)
  average eigenvalue GAMMA=   0.1813
  0.4394  0.4394  0.1346  0.0893  0.0426  0.0617  0.0617

 Free energy of the ion-electron system (eV)
  ---------------------------------------------------
  alpha Z        PSCENC =      1543.40691010
  Ewald energy   TEWEN  =    175195.75680742
  -Hartree energ DENC   =   -222710.04555184
  -exchange      EXHF   =         0.00000000
  -V(xc)+E(xc)   XCENC  =       829.31289276
  PAW double counting   =     54545.59229247   -56087.03488004
  entropy T*S    EENTRO =         0.00000000
  eigenvalues    EBANDS =     -1739.66886322
  atomic energy  EATOM  =     47931.53331682
  Solvation  Ediel_sol  =         0.00000000
  ---------------------------------------------------
  free energy    TOTEN  =      -491.14707554 eV

  energy without entropy =     -491.14707554  energy(sigma->0) =     -491.14707554


--------------------------------------------------------------------------------------------------------




--------------------------------------- Iteration      1(   9)  ---------------------------------------


    POTLOK:  cpu time    0.4183: real time    0.4322
    SETDIJ:  cpu time    0.0249: real time    0.0249
    EDDIAG:  cpu time    5.1677: real time    5.1698
  RMM-DIIS:  cpu time   19.3218: real time   19.3418
    ORTHCH:  cpu time    1.4215: real time    1.4219
 BZINTS: Fermi energy: -0.284939;574.000000 electrons
         Band energy:***********;  BLOECHL correction: -0.012955
       DOS:  cpu time    0.0420: real time    0.0420
    CHARGE:  cpu time    0.9789: real time    0.9790
    MIXING:  cpu time    0.0074: real time    0.0073
    --------------------------------------------
      LOOP:  cpu time   27.3825: real time   27.4189

 eigenvalue-minimisations  :  7952
 total energy-change (2. order) : 0.5712660E-04  (-0.7638195E-04)
 number of electron     574.0000091 magnetization      91.2449066
 augmentation part      301.2301035 magnetization      73.3807697

 DIPCOR: dipole corrections for dipol
 direction  3 min pos   237,
 dipolmoment           0.000000      0.000000      0.292872 electrons x Angstroem
 Tr[quadrupol]    -10012.752723

 energy correction for charged system         0.000000 eV
 dipol+quadrupol energy correction           -0.004121 eV
 added-field ion interaction         -4.638989 eV  (added to PSCEN)


 Broyden mixing:
  rms(total) = 0.99559E-01    rms(broyden)= 0.99558E-01
  rms(prec ) = 0.11786E+00
  weight for this iteration     100.00

 eigenvalues of (default mixing * dielectric matrix)
  average eigenvalue GAMMA=   0.2043
  0.4991  0.4991  0.2177  0.1384  0.1052  0.0437  0.0688  0.0622

 Free energy of the ion-electron system (eV)
  ---------------------------------------------------
  alpha Z        PSCENC =      1543.42261583
  Ewald energy   TEWEN  =    175195.75680742
  -Hartree energ DENC   =   -222710.21809639
  -exchange      EXHF   =         0.00000000
  -V(xc)+E(xc)   XCENC  =       829.31374592
  PAW double counting   =     54545.67975206   -56087.13493790
  entropy T*S    EENTRO =         0.00000000
  eigenvalues    EBANDS =     -1739.50022216
  atomic energy  EATOM  =     47931.53331682
  Solvation  Ediel_sol  =         0.00000000
  ---------------------------------------------------
  free energy    TOTEN  =      -491.14701841 eV

  energy without entropy =     -491.14701841  energy(sigma->0) =     -491.14701841


--------------------------------------------------------------------------------------------------------




--------------------------------------- Iteration      1(  10)  ---------------------------------------


    POTLOK:  cpu time    0.4230: real time    0.4344
    SETDIJ:  cpu time    0.0247: real time    0.0247
    EDDIAG:  cpu time    5.1750: real time    5.1773
  RMM-DIIS:  cpu time   25.9161: real time   25.9370
    ORTHCH:  cpu time    1.4237: real time    1.4247
 BZINTS: Fermi energy: -0.284912;574.000000 electrons
         Band energy:***********;  BLOECHL correction: -0.012966
       DOS:  cpu time    0.0429: real time    0.0429
    CHARGE:  cpu time    0.9794: real time    0.9796
    MIXING:  cpu time    0.0075: real time    0.0075
    --------------------------------------------
      LOOP:  cpu time   33.9924: real time   34.0280

 eigenvalue-minimisations  : 10789
 total energy-change (2. order) : 0.5699403E-04  (-0.1414988E-04)
 number of electron     574.0000091 magnetization      91.2525267
 augmentation part      301.2303562 magnetization      73.3864411

 DIPCOR: dipole corrections for dipol
 direction  3 min pos   237,
 dipolmoment           0.000000      0.000000      0.292887 electrons x Angstroem
 Tr[quadrupol]    -10012.753014

 energy correction for charged system         0.000000 eV
 dipol+quadrupol energy correction           -0.004122 eV
 added-field ion interaction         -4.639236 eV  (added to PSCEN)


 Broyden mixing:
  rms(total) = 0.10074E+00    rms(broyden)= 0.10074E+00
  rms(prec ) = 0.11912E+00
  weight for this iteration     100.00

 eigenvalues of (default mixing * dielectric matrix)
  average eigenvalue GAMMA=   0.2989
  0.7079  0.7079  0.6880  0.1733  0.1320  0.1059  0.0438  0.0695  0.0616

 Free energy of the ion-electron system (eV)
  ---------------------------------------------------
  alpha Z        PSCENC =      1543.42236832
  Ewald energy   TEWEN  =    175195.75680742
  -Hartree energ DENC   =   -222710.22400028
  -exchange      EXHF   =         0.00000000
  -V(xc)+E(xc)   XCENC  =       829.31385735
  PAW double counting   =     54545.68079166   -56087.13515783
  entropy T*S    EENTRO =         0.00000000
  eigenvalues    EBANDS =     -1739.49494488
  atomic energy  EATOM  =     47931.53331682
  Solvation  Ediel_sol  =         0.00000000
  ---------------------------------------------------
  free energy    TOTEN  =      -491.14696142 eV

  energy without entropy =     -491.14696142  energy(sigma->0) =     -491.14696142


--------------------------------------------------------------------------------------------------------




--------------------------------------- Iteration      1(  11)  ---------------------------------------


    POTLOK:  cpu time    0.4187: real time    0.4319
    SETDIJ:  cpu time    0.0247: real time    0.0247
    EDDIAG:  cpu time    5.1679: real time    5.1695
  RMM-DIIS:  cpu time   18.9382: real time   18.9570
    ORTHCH:  cpu time    1.4235: real time    1.4238
 BZINTS: Fermi energy: -0.285661;574.000000 electrons
         Band energy:***********;  BLOECHL correction: -0.012614
       DOS:  cpu time    0.0463: real time    0.0463
    CHARGE:  cpu time    0.9792: real time    0.9794
    MIXING:  cpu time    0.0078: real time    0.0077
    --------------------------------------------
      LOOP:  cpu time   27.0062: real time   27.0403

 eigenvalue-minimisations  :  7789
 total energy-change (2. order) : 0.2355558E-02  (-0.2054526E-03)
 number of electron     574.0000091 magnetization      91.2522331
 augmentation part      301.2337124 magnetization      73.4037935

 DIPCOR: dipole corrections for dipol
 direction  3 min pos   237,
 dipolmoment           0.000000      0.000000      0.295113 electrons x Angstroem
 Tr[quadrupol]    -10012.760829

 energy correction for charged system         0.000000 eV
 dipol+quadrupol energy correction           -0.004185 eV
 added-field ion interaction         -4.674489 eV  (added to PSCEN)


 Broyden mixing:
  rms(total) = 0.86980E-01    rms(broyden)= 0.86976E-01
  rms(prec ) = 0.98684E-01
  weight for this iteration     100.00

 eigenvalues of (default mixing * dielectric matrix)
  average eigenvalue GAMMA=   0.3117
  0.7898  0.7525  0.7525  0.2750  0.1464  0.1216  0.1041  0.0438  0.0693  0.0616

 Free energy of the ion-electron system (eV)
  ---------------------------------------------------
  alpha Z        PSCENC =      1543.38705194
  Ewald energy   TEWEN  =    175195.75680742
  -Hartree energ DENC   =   -222710.21258858
  -exchange      EXHF   =         0.00000000
  -V(xc)+E(xc)   XCENC  =       829.32479871
  PAW double counting   =     54545.85998952   -56087.27503919
  entropy T*S    EENTRO =         0.00000000
  eigenvalues    EBANDS =     -1739.51894249
  atomic energy  EATOM  =     47931.53331682
  Solvation  Ediel_sol  =         0.00000000
  ---------------------------------------------------
  free energy    TOTEN  =      -491.14460586 eV

  energy without entropy =     -491.14460586  energy(sigma->0) =     -491.14460586


--------------------------------------------------------------------------------------------------------




--------------------------------------- Iteration      1(  12)  ---------------------------------------


    POTLOK:  cpu time    0.4209: real time    0.4330
    SETDIJ:  cpu time    0.0246: real time    0.0246
    EDDIAG:  cpu time    5.1463: real time    5.1487
  RMM-DIIS:  cpu time   18.8842: real time   18.9033
    ORTHCH:  cpu time    1.4272: real time    1.4274
 BZINTS: Fermi energy: -0.287144;574.000000 electrons
         Band energy:***********;  BLOECHL correction: -0.012669
       DOS:  cpu time    0.0462: real time    0.0462
    CHARGE:  cpu time    0.9614: real time    0.9615
    MIXING:  cpu time    0.0078: real time    0.0078
    --------------------------------------------
      LOOP:  cpu time   26.9184: real time   26.9525

 eigenvalue-minimisations  :  7720
 total energy-change (2. order) : 0.1205221E-02  (-0.2068195E-03)
 number of electron     574.0000091 magnetization      91.2530440
 augmentation part      301.2511360 magnetization      73.3620854

 DIPCOR: dipole corrections for dipol
 direction  3 min pos   237,
 dipolmoment           0.000000      0.000000      0.295261 electrons x Angstroem
 Tr[quadrupol]    -10012.740601

 energy correction for charged system         0.000000 eV
 dipol+quadrupol energy correction           -0.004189 eV
 added-field ion interaction         -4.676836 eV  (added to PSCEN)


 Broyden mixing:
  rms(total) = 0.61537E-01    rms(broyden)= 0.61532E-01
  rms(prec ) = 0.70437E-01
  weight for this iteration     100.00

 eigenvalues of (default mixing * dielectric matrix)
  average eigenvalue GAMMA=   0.3638
  0.9055  0.9373  0.9373  0.5352  0.1605  0.1362  0.0438  0.0616  0.0694  0.1134
  0.1020

 Free energy of the ion-electron system (eV)
  ---------------------------------------------------
  alpha Z        PSCENC =      1543.38470130
  Ewald energy   TEWEN  =    175195.75680742
  -Hartree energ DENC   =   -222709.50107471
  -exchange      EXHF   =         0.00000000
  -V(xc)+E(xc)   XCENC  =       829.32242902
  PAW double counting   =     54545.88995361   -56087.28838048
  entropy T*S    EENTRO =         0.00000000
  eigenvalues    EBANDS =     -1740.24115361
  atomic energy  EATOM  =     47931.53331682
  Solvation  Ediel_sol  =         0.00000000
  ---------------------------------------------------
  free energy    TOTEN  =      -491.14340064 eV

  energy without entropy =     -491.14340064  energy(sigma->0) =     -491.14340064


--------------------------------------------------------------------------------------------------------




--------------------------------------- Iteration      1(  13)  ---------------------------------------


    POTLOK:  cpu time    0.4217: real time    0.4343
    SETDIJ:  cpu time    0.0246: real time    0.0246
    EDDIAG:  cpu time    5.1440: real time    5.1463
  RMM-DIIS:  cpu time   18.9332: real time   18.9501
    ORTHCH:  cpu time    1.4265: real time    1.4275
 BZINTS: Fermi energy: -0.286014;574.000000 electrons
         Band energy:***********;  BLOECHL correction: -0.012303
       DOS:  cpu time    0.0451: real time    0.0451
    CHARGE:  cpu time    0.9603: real time    0.9605
    MIXING:  cpu time    0.0083: real time    0.0083
    --------------------------------------------
      LOOP:  cpu time   26.9638: real time   26.9968

 eigenvalue-minimisations  :  7759
 total energy-change (2. order) :-0.5070920E-03  (-0.2082210E-03)
 number of electron     574.0000091 magnetization      91.2507522
 augmentation part      301.2379011 magnetization      73.4005409

 DIPCOR: dipole corrections for dipol
 direction  3 min pos   237,
 dipolmoment           0.000000      0.000000      0.296071 electrons x Angstroem
 Tr[quadrupol]    -10012.752416

 energy correction for charged system         0.000000 eV
 dipol+quadrupol energy correction           -0.004212 eV
 added-field ion interaction         -4.689665 eV  (added to PSCEN)


 Broyden mixing:
  rms(total) = 0.62448E-01    rms(broyden)= 0.62444E-01
  rms(prec ) = 0.69512E-01
  weight for this iteration     100.00

 eigenvalues of (default mixing * dielectric matrix)
  average eigenvalue GAMMA=   0.3606
  0.9254  1.0144  1.0144  0.5482  0.1539  0.1539  0.1341  0.0438  0.0616  0.0693
  0.1100  0.0975

 Free energy of the ion-electron system (eV)
  ---------------------------------------------------
  alpha Z        PSCENC =      1543.37184889
  Ewald energy   TEWEN  =    175195.75680742
  -Hartree energ DENC   =   -222710.01418191
  -exchange      EXHF   =         0.00000000
  -V(xc)+E(xc)   XCENC  =       829.32285989
  PAW double counting   =     54546.60855253   -56088.07308043
  entropy T*S    EENTRO =         0.00000000
  eigenvalues    EBANDS =     -1739.65003094
  atomic energy  EATOM  =     47931.53331682
  Solvation  Ediel_sol  =         0.00000000
  ---------------------------------------------------
  free energy    TOTEN  =      -491.14390773 eV

  energy without entropy =     -491.14390773  energy(sigma->0) =     -491.14390773


--------------------------------------------------------------------------------------------------------




--------------------------------------- Iteration      1(  14)  ---------------------------------------


    POTLOK:  cpu time    0.4214: real time    0.4338
    SETDIJ:  cpu time    0.0247: real time    0.0246
    EDDIAG:  cpu time    5.1422: real time    5.1433
  RMM-DIIS:  cpu time   18.9077: real time   18.9197
    ORTHCH:  cpu time    1.4256: real time    1.4327
 BZINTS: Fermi energy: -0.286357;574.000000 electrons
         Band energy:***********;  BLOECHL correction: -0.012227
       DOS:  cpu time    0.0429: real time    0.0429
    CHARGE:  cpu time    0.9623: real time    0.9625
    MIXING:  cpu time    0.0084: real time    0.0084
    --------------------------------------------
      LOOP:  cpu time   26.9351: real time   26.9680

 eigenvalue-minimisations  :  7761
 total energy-change (2. order) : 0.9565346E-03  (-0.1175438E-03)
 number of electron     574.0000091 magnetization      91.2475659
 augmentation part      301.2373070 magnetization      73.3590318

 DIPCOR: dipole corrections for dipol
 direction  3 min pos   237,
 dipolmoment           0.000000      0.000000      0.296919 electrons x Angstroem
 Tr[quadrupol]    -10012.751147

 energy correction for charged system         0.000000 eV
 dipol+quadrupol energy correction           -0.004236 eV
 added-field ion interaction         -4.703095 eV  (added to PSCEN)


 Broyden mixing:
  rms(total) = 0.33707E-01    rms(broyden)= 0.33701E-01
  rms(prec ) = 0.36438E-01
  weight for this iteration     100.00

 eigenvalues of (default mixing * dielectric matrix)
  average eigenvalue GAMMA=   0.3774
  1.1082  1.1082  0.9302  0.4566  0.4566  0.2064  0.1389  0.0438  0.0616  0.0693
  0.1186  0.1073  0.1003

 Free energy of the ion-electron system (eV)
  ---------------------------------------------------
  alpha Z        PSCENC =      1543.35839483
  Ewald energy   TEWEN  =    175195.75680742
[...]
   0.143E+02 -.535E+01 0.211E+04   -.143E+02 0.542E+01 -.211E+04   -.117E+00 0.622E+00 -.181E+01   -.222E-03 0.340E-04 0.443E-03
   0.962E+02 -.151E+02 -.191E+04   -.982E+02 0.159E+02 0.191E+04   0.206E+01 -.784E+00 0.228E+01   0.551E-04 -.139E-03 -.258E-03
   0.407E+02 -.247E+02 0.799E+03   -.410E+02 0.247E+02 -.799E+03   0.819E+00 -.508E+00 -.830E-01   -.279E-04 -.359E-05 0.410E-03
   0.441E+00 0.107E+02 0.213E+04   -.583E+00 -.105E+02 -.213E+04   -.861E-02 0.390E+00 -.964E+00   -.428E-03 -.604E-03 0.482E-03
   -.988E+02 -.467E+02 -.189E+04   0.101E+03 0.481E+02 0.189E+04   -.205E+01 -.140E+01 0.163E+01   0.284E-03 -.726E-05 -.472E-03
   0.247E+02 -.255E+02 0.872E+03   -.238E+02 0.253E+02 -.872E+03   -.270E+00 0.290E+00 -.470E+00   -.456E-04 -.144E-03 0.605E-03
   0.622E+02 -.716E+02 -.511E+03   -.630E+02 0.717E+02 0.511E+03   0.765E+00 -.180E+00 0.317E-01   0.135E-04 -.136E-03 -.109E-03
   -.999E+01 0.957E+01 0.214E+04   0.102E+02 -.937E+01 -.213E+04   -.269E+00 0.268E+00 -.172E+01   0.466E-03 -.712E-03 0.428E-03
   0.743E+02 -.370E+02 -.185E+04   -.764E+02 0.379E+02 0.184E+04   0.213E+01 -.954E+00 0.244E+01   0.714E-05 -.733E-04 -.601E-03
   -.464E+02 0.792E+01 0.842E+03   0.456E+02 -.809E+01 -.841E+03   0.278E+00 0.345E+00 -.368E+00   0.138E-03 -.435E-03 0.974E-03
   -.194E+02 -.549E+01 0.789E+03   0.196E+02 0.589E+01 -.788E+03   -.947E+00 0.205E+00 -.223E+00   -.702E-04 -.252E-03 0.750E-03
   -.565E+02 -.204E+02 -.531E+03   0.573E+02 0.207E+02 0.531E+03   -.871E+00 -.215E+00 0.338E+00   0.515E-04 0.157E-03 -.596E-04
   0.251E+02 -.596E+02 -.521E+03   -.253E+02 0.598E+02 0.521E+03   0.243E+00 -.188E+00 0.543E+00   -.316E-03 -.116E-03 -.425E-04
   -.120E+02 0.493E+02 0.772E+03   0.119E+02 -.494E+02 -.772E+03   -.278E+00 -.138E+00 -.529E+00   0.111E-03 -.957E-04 0.407E-03
   0.233E+02 0.138E+02 0.802E+03   -.233E+02 -.139E+02 -.802E+03   0.883E+00 -.184E+00 0.783E-01   0.102E-04 0.784E-04 0.106E-03
   0.430E+02 0.357E+02 -.559E+03   -.434E+02 -.362E+02 0.559E+03   0.306E+00 0.468E+00 -.111E+00   -.231E-03 -.284E-03 -.236E-03
   -.434E+02 0.322E+02 -.544E+03   0.439E+02 -.323E+02 0.545E+03   -.484E+00 0.143E+00 -.969E+00   0.146E-03 -.158E-03 0.167E-03
   -.484E+02 0.686E+02 -.535E+03   0.487E+02 -.690E+02 0.534E+03   -.328E+00 0.374E+00 0.344E+00   -.272E-03 -.281E-03 0.605E-04
   0.113E+02 0.341E+02 0.263E+04   -.112E+02 -.342E+02 -.263E+04   0.244E+00 0.295E+00 -.988E+00   0.214E-03 0.217E-03 0.521E-03
   0.815E+01 0.192E+03 -.234E+04   -.779E+01 -.195E+03 0.234E+04   -.337E+00 0.332E+01 0.103E+01   -.192E-03 -.821E-04 -.223E-04
   -.110E+02 0.187E+01 0.266E+04   0.110E+02 -.211E+01 -.266E+04   -.415E+00 0.749E-01 -.998E+00   0.524E-03 0.788E-03 0.448E-03
   -.120E+03 -.835E+02 -.234E+04   0.123E+03 0.852E+02 0.234E+04   -.222E+01 -.166E+01 0.743E+00   -.472E-03 -.961E-04 -.365E-03
   0.125E+02 -.310E+02 0.262E+04   -.127E+02 0.311E+02 -.261E+04   0.276E+00 -.243E+00 -.144E+01   -.116E-03 0.141E-04 0.717E-03
   0.261E+02 -.118E+02 -.223E+04   -.260E+02 0.118E+02 0.223E+04   -.740E-01 -.156E-01 0.703E+00   0.377E-03 0.409E-03 -.105E-03
   0.101E+02 -.222E+02 0.264E+04   -.101E+02 0.217E+02 -.264E+04   -.271E-02 0.266E+00 -.159E+01   -.868E-03 0.673E-03 0.576E-03
   0.282E+01 0.253E+01 -.227E+04   -.281E+01 -.233E+01 0.227E+04   -.325E-01 -.161E+00 0.469E+00   0.267E-03 0.596E-04 -.556E-03
   -.260E+02 0.859E+02 -.591E+03   0.262E+02 -.861E+02 0.591E+03   -.282E+00 0.268E+00 0.642E+00   -.277E-03 -.161E-03 0.429E-03
   0.266E+02 -.457E+02 0.107E+04   -.268E+02 0.455E+02 -.107E+04   0.904E-01 0.378E-01 -.209E+00   0.677E-04 0.270E-03 0.691E-03
   -.686E+02 -.132E+02 -.589E+03   0.686E+02 0.131E+02 0.589E+03   0.353E-01 0.665E-01 -.637E+00   -.268E-03 0.202E-03 -.489E-04
   0.791E+02 -.758E+02 -.585E+03   -.794E+02 0.761E+02 0.584E+03   0.285E+00 -.273E+00 0.620E+00   -.264E-03 -.918E-04 0.318E-03
   -.431E+02 -.102E+02 -.622E+03   0.430E+02 0.102E+02 0.621E+03   0.951E-01 0.121E-01 0.626E+00   0.306E-03 0.209E-03 -.868E-04
   0.240E+02 0.105E+02 0.105E+04   -.239E+02 -.105E+02 -.105E+04   -.109E+00 -.416E-01 0.191E+00   -.568E-03 -.317E-04 0.151E-02
   0.562E+02 -.133E+01 -.626E+03   -.564E+02 0.111E+01 0.626E+03   0.142E+00 0.227E+00 0.687E+00   0.472E-03 -.206E-03 -.183E-03
   -.419E+02 0.576E+02 0.106E+04   0.420E+02 -.575E+02 -.106E+04   -.408E+00 -.123E+00 -.105E+00   0.413E-03 -.460E-03 0.156E-02
   0.490E+01 -.538E+02 -.185E+04   -.526E+01 0.559E+02 0.188E+04   0.340E+00 -.203E+01 -.266E+02   -.130E-03 -.129E-03 -.258E-03
   0.679E+02 -.316E+01 -.193E+04   -.671E+02 0.307E+01 0.196E+04   -.803E+00 0.121E+00 -.284E+02   0.179E-04 -.112E-04 0.297E-04
   -.805E+01 0.114E+01 -.188E+04   0.901E+01 -.169E+01 0.191E+04   -.957E+00 0.564E+00 -.266E+02   0.102E-03 -.233E-04 -.873E-04
   -.451E+02 0.552E+02 -.193E+04   0.465E+02 -.531E+02 0.196E+04   -.133E+01 -.206E+01 -.281E+02   -.550E-04 0.113E-03 -.388E-03
   -.524E+01 -.226E+02 -.193E+04   0.571E+01 0.185E+02 0.196E+04   -.443E+00 0.409E+01 -.289E+02   0.201E-03 0.878E-04 -.290E-03
 -----------------------------------------------------------------------------------------------
   0.365E+01 -.102E+01 0.136E+03   0.391E-12 -.302E-12 0.387E-11   -.365E+01 0.102E+01 -.136E+03   0.155E-04 0.252E-03 0.106E-01
 
 
 POSITION                                       TOTAL-FORCE (eV/Angst)
 -----------------------------------------------------------------------------------
     -5.03208      8.74992      2.05921        -0.444681      0.009887     -0.223704
      0.02301      0.01719      8.10490        -0.006222      0.040321     -0.024938
      0.00574      8.72607      2.04466         0.240127      0.134901      0.781376
      0.02172      8.63956      8.05314        -0.028714      0.011681     -0.003042
      2.47665      8.72592      2.00821        -0.390632      0.199727      0.844517
      2.56807      8.72508      8.12582        -0.010802      0.007687     -0.003301
      1.23891      2.21748      2.05880         0.469123     -0.369038     -0.287087
      1.26524      2.17863      8.12559         0.034444     -0.016276      0.039094
      0.08074      1.41419      4.05321        -0.702767      0.387206      0.353063
      2.49330      1.45451      4.14829         0.518883      0.264757     -0.853851
      1.29813      0.73097      6.16635         0.000686     -0.004923      0.003041
      5.06166      1.44930      4.13498        -0.402036      0.026137     -0.874745
      3.81613      0.76899      6.11925        -0.023376      0.018908      0.012371
      7.51557      1.45812      4.11001         0.486255     -0.177137     -0.827332
      6.27509      0.74109      6.12117         0.056463      0.007473      0.019504
     -2.55062      4.47399      2.00995         0.325993     -0.703032      0.123233
     -2.52118      4.40617      7.99802        -0.000981     -0.002300      0.015793
      0.03014      4.42905      2.07020        -0.216209     -0.375715     -0.078438
      0.01954      4.29586      8.17265         0.007854      0.012220     -0.001713
      2.50847      4.40516      2.07435         0.221323     -0.256654     -0.188199
      2.53521      4.35832      8.01985         0.000792      0.022893     -0.018584
      1.32139      3.64145      4.02771        -0.186775      0.509475      0.600092
      5.08382      4.44890      2.04815        -0.503819     -0.866981     -0.421127
      5.06255      4.34311      8.41852        -0.005977     -0.022962     -0.013441
      3.79377      3.69800      4.13071        -0.314782     -0.412459     -0.180043
      2.57272      2.88297      6.09312         0.008108      0.024373      0.023217
      6.25293      3.64956      4.08305         0.848089     -0.333372      0.082316
      5.07131      3.00067      6.21705         0.014819     -0.013924     -0.036222
      6.25194      6.54167      2.03547         0.490175      0.637871     -0.228923
     -3.75154      6.62886      8.25708         0.031587     -0.001166      0.000249
     -1.23133      6.52951      2.06361        -0.145302      0.680688     -0.271200
     -1.24929      6.55796      8.26185         0.004690      0.037359      0.026937
     -2.52172      5.87475      4.08745         0.541333     -0.444697      0.234363
      1.28426      6.55944      2.07409        -0.153659      0.542031      0.051687
      1.29483      6.53490      8.16636         0.008794      0.020639      0.003275
     -0.00626      5.79145      4.04458         0.663476      0.063473      0.344499
     -1.22562      5.08053      6.09116         0.001809      0.003269     -0.036046
      3.77628      6.55571      2.00000        -0.101652      0.458672      0.267047
      3.75057      6.58939      8.20444        -0.027856     -0.022167     -0.001955
      2.52387      5.78801      4.07310        -0.495370      0.164691      0.154746
      5.06734      5.79704      4.10517        -0.771719      0.601894      0.355471
      3.77104      5.11761      6.14447        -0.025121      0.024864     -0.010941
      6.29432      5.13755      6.14865         0.004455      0.000131      0.012790
     -3.76296      8.02446      4.11956        -0.390686     -0.265292     -0.142263
     -1.33707      8.05044      4.10308         0.895365     -0.237405     -0.080076
     -2.50342      7.30259      6.24706        -0.043947      0.049904     -0.022254
      2.48639      7.27573      6.10844         0.009055     -0.009213     -0.008704
      5.01256      7.32595      6.13154        -0.032217     -0.015525     -0.005218
     -2.52690      8.74056      2.03303         0.258674      0.157734      0.209312
     -2.48609      8.72661      8.24838         0.025418      0.040372      0.008787
     -1.24953      2.18697      2.05404        -0.350440     -0.166155      0.326382
     -1.19765      2.21008      8.10258        -0.011659      0.004297      0.012298
      3.77687      2.20348      2.02824         0.121550     -0.175979      0.621890
      3.79747      2.14247      8.27956         0.000171      0.005621     -0.024978
      6.31052      2.19548      2.03586        -0.005540     -0.257499      0.168991
      6.36852      2.10902      8.26635        -0.019104      0.032883     -0.011730
      8.83655      0.72690      6.07612        -0.027757      0.009417      0.000738
     -1.27338      3.65234      4.08853        -0.088248     -0.138950     -0.314112
      0.02299      2.89897      6.08348         0.007238      0.008147     -0.006676
      7.56663      2.89167      6.09447        -0.009794      0.018392     -0.000359
      1.26000      5.08884      6.08095         0.012379     -0.015473     -0.002068
      1.25660      8.01495      4.09194        -0.018521     -0.011485     -0.224658
     -0.00659      7.26235      6.08721        -0.026449      0.002096     -0.003708
      3.80919      8.00883      4.09175        -0.335450     -0.033940     -0.351416
      5.03723      5.93594      9.35817        -0.011020      0.008778      0.049148
      2.33788      1.46674      9.34289        -0.020422      0.029131     -0.018037
      0.04665      5.73724      9.32067        -0.001735      0.017319      0.027099
      7.78821      1.30843      9.29578         0.018154      0.029846      0.017084
      5.10306      2.87201      9.42182         0.024159      0.022557      0.010679
 -----------------------------------------------------------------------------------
    total drift:                               -0.002710      0.009940     -0.005770


--------------------------------------------------------------------------------------------------------



  FREE ENERGIE OF THE ION-ELECTRON SYSTEM (eV)
  ---------------------------------------------------
  free  energy   TOTEN  =      -505.88252065 eV

  energy  without entropy=     -505.88252065  energy(sigma->0) =     -505.88252065
 


--------------------------------------------------------------------------------------------------------


    POTLOK:  cpu time    0.4446: real time    0.4447


--------------------------------------------------------------------------------------------------------


 stress matrix after NEB project (eV)
    -35.18964      0.92475      0.28770
      0.92475    -34.02750      2.12188
      0.28770      2.12188     -3.81046
  FORCES: max atom, RMS     0.070121    0.025774
  FORCE total and by dimension    0.214094    0.056463
  Stress total and by dimension   49.209569   35.189639
 writing wavefunctions
     LOOP+:  cpu time 1581.8646: real time 1631.9727
    4ORBIT:  cpu time    0.0000: real time    0.0000
 


 total charge     
 
# of ion       s       p       d       tot
------------------------------------------
    1        0.480   0.399   6.162   7.041
    2        0.465   0.402   6.202   7.069
    3        0.456   0.371   6.243   7.069
    4        0.480   0.415   6.178   7.073
    5        0.449   0.367   6.244   7.060
    6        0.502   0.568   6.268   7.337
    7        0.481   0.405   6.183   7.069
    8        0.508   0.565   6.311   7.384
    9        0.483   0.518   6.222   7.223
   10        0.499   0.540   6.255   7.294
   11        0.491   0.536   6.250   7.278
   12        0.484   0.516   6.223   7.223
   13        0.494   0.540   6.238   7.271
   14        0.474   0.494   6.178   7.145
   15        0.491   0.539   6.200   7.231
   16        0.475   0.394   6.164   7.033
   17        0.476   0.410   6.200   7.086
   18        0.489   0.428   6.204   7.121
   19        0.479   0.522   6.230   7.231
   20        0.494   0.433   6.211   7.139
   21        0.478   0.425   6.210   7.112
   22        0.501   0.553   6.248   7.302
   23        0.490   0.419   6.192   7.101
   24        0.472   0.601   6.280   7.353
   25        0.496   0.543   6.273   7.312
   26        0.500   0.556   6.213   7.270
   27        0.482   0.523   6.225   7.230
   28        0.476   0.516   6.200   7.192
   29        0.486   0.433   6.193   7.111
   30        0.475   0.516   6.236   7.226
   31        0.491   0.422   6.198   7.111
   32        0.472   0.515   6.233   7.221
   33        0.489   0.532   6.234   7.255
   34        0.497   0.445   6.194   7.136
   35        0.474   0.525   6.229   7.228
   36        0.497   0.545   6.208   7.250
   37        0.480   0.514   6.218   7.213
   38        0.484   0.416   6.177   7.077
   39        0.484   0.534   6.244   7.262
   40        0.499   0.553   6.215   7.267
   41        0.498   0.545   6.243   7.286
   42        0.498   0.536   6.278   7.312
   43        0.485   0.525   6.241   7.250
   44        0.488   0.540   6.241   7.269
   45        0.485   0.520   6.225   7.230
   46        0.485   0.527   6.211   7.223
   47        0.488   0.531   6.198   7.217
   48        0.482   0.524   6.227   7.233
   49        0.501   0.386   8.304   9.191
   50        0.514   0.523   8.338   9.375
   51        0.497   0.375   8.300   9.172
   52        0.504   0.514   8.339   9.357
   53        0.488   0.365   8.289   9.143
   54        0.464   0.557   8.347   9.368
   55        0.503   0.371   8.300   9.173
   56        0.460   0.552   8.345   9.357
   57        0.507   0.515   8.328   9.350
   58        0.505   0.501   8.322   9.327
   59        0.509   0.514   8.326   9.348
   60        0.511   0.505   8.335   9.351
   61        0.524   0.537   8.332   9.394
   62        0.515   0.526   8.321   9.362
   63        0.520   0.533   8.326   9.379
   64        0.508   0.514   8.315   9.337
   65        1.581   3.385   0.000   4.966
   66        1.585   3.341   0.000   4.927
   67        1.580   3.378   0.000   4.958
   68        1.584   3.340   0.000   4.925
   69        1.585   3.347   0.000   4.931
--------------------------------------------------
tot         39.231  48.275 431.816 519.322
 


 magnetization (x)
 
# of ion       s       p       d       tot
------------------------------------------
    1        0.006  -0.006   2.694   2.695
    2        0.003  -0.002   2.812   2.812
    3       -0.023  -0.014  -0.122  -0.159
    4        0.018   0.011   2.755   2.784
    5       -0.026  -0.018  -0.190  -0.234
    6        0.003  -0.013   2.085   2.075
    7        0.008  -0.008   2.592   2.592
    8       -0.001   0.001   1.828   1.828
    9       -0.005  -0.021   2.452   2.426
   10        0.001  -0.012   2.110   2.099
   11       -0.004  -0.023   2.317   2.290
   12        0.004  -0.004   2.125   2.124
   13       -0.027  -0.039  -1.806  -1.872
   14        0.010   0.002   2.523   2.535
   15       -0.032  -0.049  -2.097  -2.179
   16        0.000  -0.010   2.760   2.751
   17       -0.000  -0.003   2.848   2.845
   18        0.009  -0.011   2.446   2.444
   19        0.006   0.000   2.375   2.381
   20        0.004  -0.011   2.364   2.357
   21        0.007  -0.003   2.711   2.715
   22       -0.024  -0.036  -1.617  -1.677
   23       -0.002  -0.018   2.683   2.664
   24        0.001   0.002   2.073   2.076
   25       -0.003  -0.019   1.923   1.901
   26       -0.030  -0.044  -2.033  -2.107
   27       -0.011  -0.034   2.499   2.454
   28        0.010   0.004   2.311   2.325
   29       -0.009  -0.027   2.638   2.602
   30        0.002  -0.011   2.401   2.392
   31        0.005  -0.014   2.445   2.436
   32        0.004  -0.009   2.391   2.386
   33       -0.012  -0.040   2.414   2.362
   34        0.014  -0.002   2.301   2.314
   35        0.002  -0.015   2.419   2.406
   36       -0.032  -0.043  -2.041  -2.117
   37       -0.001  -0.023   2.476   2.452
   38        0.007  -0.014   2.561   2.554
   39       -0.003  -0.021   2.271   2.247
   40       -0.033  -0.049  -1.952  -2.034
   41       -0.009  -0.037   2.430   2.383
   42       -0.007  -0.034   2.047   2.005
   43       -0.014  -0.047   2.490   2.429
   44       -0.014  -0.041   2.390   2.335
   45        0.002  -0.012   2.258   2.248
   46       -0.000  -0.026   2.373   2.346
   47        0.008  -0.001   2.364   2.371
   48       -0.013  -0.046   2.565   2.506
   49       -0.023  -0.029   0.625   0.573
   50       -0.023  -0.026   0.287   0.238
   51       -0.024  -0.023   0.652   0.605
   52       -0.017  -0.013   0.457   0.427
   53       -0.017  -0.017   0.673   0.640
   54       -0.004  -0.001  -0.097  -0.102
   55       -0.014  -0.008   0.619   0.597
   56       -0.007  -0.005  -0.044  -0.056
   57       -0.022  -0.041   0.634   0.571
   58       -0.016  -0.033   0.522   0.472
   59       -0.008  -0.017   0.267   0.242
   60       -0.012  -0.033   0.509   0.464
   61       -0.008  -0.027   0.341   0.306
   62       -0.008  -0.016   0.232   0.208
   63       -0.014  -0.037   0.538   0.488
   64       -0.021  -0.042   0.597   0.534
   65        0.003   0.073   0.000   0.076
   66        0.001   0.012   0.000   0.012
   67        0.003   0.073   0.000   0.077
   68        0.002   0.040   0.000   0.042
   69        0.002   0.019   0.000   0.021
--------------------------------------------------
tot         -0.429  -1.040  91.467  89.998
 
 BZINTS: Fermi energy: -0.281542;574.000000 electrons
         Band energy:***********;  BLOECHL correction: -0.011624

 total amount of memory used by VASP MPI-rank0   112483. kBytes
=======================================================================

   base      :      30000. kBytes
   nonlr-proj:      13978. kBytes
   fftplans  :       6403. kBytes
   grid      :      17692. kBytes
   one-center:         93. kBytes
   wavefun   :      44317. kBytes
 
  
  
 General timing and accounting informations for this job:
 ========================================================
  
                  Total CPU time used (sec):     1753.558
                            User time (sec):     1557.867
                          System time (sec):      195.691
                         Elapsed time (sec):     1809.920
  
                   Maximum memory used (kb):      345348.
                   Average memory used (kb):           0.
  
                          Minor page faults:     28876976
                          Major page faults:            0
                 Voluntary context switches:         4627
