       N       E                     dE             d eps       ncg     rms          rms(c)
DAV:   1    -0.417281097715E+03   -0.41728E+03   -0.63582E-02  8793   0.235E+00    0.838E-01
RMM:   2    -0.417259713367E+03    0.21384E-01   -0.11117E-01  8659   0.968E-01    0.379E+00
RMM:   3    -0.417220373221E+03    0.39340E-01   -0.47362E-02  8754   0.575E-01    0.195E+00
RMM:   4    -0.417233521884E+03   -0.13149E-01   -0.12716E-02  9032   0.260E-01    0.270E+00
RMM:   5    -0.417211211776E+03    0.22310E-01   -0.77460E-03  8869   0.224E-01    0.101E+00
RMM:   6    -0.417210584414E+03    0.62736E-03   -0.37621E-03  8925   0.159E-01    0.482E-01
RMM:   7    -0.417210890447E+03   -0.30603E-03   -0.18048E-03  8968   0.104E-01    0.610E-01
RMM:   8    -0.417209430306E+03    0.14601E-02   -0.11490E-03  8963   0.862E-02    0.304E-01
RMM:   9    -0.417209131805E+03    0.29850E-03   -0.82447E-04  8977   0.716E-02    0.278E-01
RMM:  10    -0.417206947677E+03    0.21841E-02   -0.46504E-04  8769   0.535E-02    0.238E-01
RMM:  11    -0.417206811380E+03    0.13630E-03   -0.27027E-04  8932   0.423E-02    0.149E-01
RMM:  12    -0.417206884069E+03   -0.72689E-04   -0.13416E-04  8870   0.288E-02    0.152E-01
RMM:  13    -0.417206947189E+03   -0.63120E-04   -0.88869E-05  8636   0.243E-02    0.939E-02
RMM:  14    -0.417207091512E+03   -0.14432E-03   -0.45359E-05  8579   0.168E-02    0.838E-02
RMM:  15    -0.417207408970E+03   -0.31746E-03   -0.30737E-05  8666   0.133E-02    0.586E-02
RMM:  16    -0.417207536908E+03   -0.12794E-03   -0.15459E-05  8801   0.985E-03    0.271E-02
RMM:  17    -0.417207761642E+03   -0.22473E-03   -0.94450E-06  8594   0.721E-03    0.386E-02
RMM:  18    -0.417207960880E+03   -0.19924E-03   -0.61562E-06  8040   0.595E-03    0.232E-02
RMM:  19    -0.417208074661E+03   -0.11378E-03   -0.28336E-06  6222   0.406E-03    0.237E-02
RMM:  20    -0.417208377101E+03   -0.30244E-03   -0.57825E-06  7391   0.447E-03    0.249E-02
RMM:  21    -0.417208503349E+03   -0.12625E-03   -0.27319E-06  5970   0.368E-03    0.116E-02
RMM:  22    -0.417208684332E+03   -0.18098E-03   -0.40807E-06  6702   0.354E-03    0.169E-02
RMM:  23    -0.417208837193E+03   -0.15286E-03   -0.45014E-06  6966   0.384E-03    0.103E-02
RMM:  24    -0.417208893972E+03   -0.56779E-04   -0.18847E-06  5713   0.272E-03    0.130E-02
RMM:  25    -0.417208963561E+03   -0.69589E-04   -0.37027E-06  6611   0.303E-03    0.756E-03
RMM:  26    -0.417208968201E+03   -0.46399E-05   -0.90112E-07  5510   0.203E-03    0.602E-03
RMM:  27    -0.417208970219E+03   -0.20185E-05   -0.69804E-07  5403   0.162E-03    0.519E-03
RMM:  28    -0.417208970548E+03   -0.32908E-06   -0.27242E-07  5256   0.134E-03
   1 F= -.43421909E+03 E0= -.43421909E+03  d E =0.000000E+00  mag=    74.4501
