  71  71   1   0
  0.2598415E+02  0.1002677E-08  0.1002677E-08  0.2118918E-08  0.1500000E-16
  1.000000000000000E-004
  CAR 
 SQS-NiFe                                
      5.01711821    -25.18875076  301      0.16333211      1.00000000
    -25.189  0.0000E+00  0.0000E+00
    -25.088  0.0000E+00  0.0000E+00
    -24.987  0.0000E+00  0.0000E+00
    -24.887  0.0000E+00  0.0000E+00
    -24.786  0.0000E+00  0.0000E+00
    -24.685  0.0000E+00  0.0000E+00
    -24.585  0.0000E+00  0.0000E+00
    -24.484  0.0000E+00  0.0000E+00
    -24.383  0.0000E+00  0.0000E+00
    -24.283  0.1166E-15  0.1174E-16
    -24.182  0.2422E-13  0.2451E-14
    -24.081  0.3081E-11  0.3127E-12
    -23.981  0.2383E-09  0.2430E-10
    -23.880  0.1122E-07  0.1154E-08
    -23.779  0.3219E-06  0.3356E-07
    -23.678  0.5640E-05  0.6014E-06
    -23.578  0.6045E-04  0.6688E-05
    -23.477  0.3968E-03  0.4664E-04
    -23.376  0.1599E-02  0.2076E-03
    -23.276  0.3956E-02  0.6059E-03
    -23.175  0.6018E-02  0.1212E-02
    -23.074  0.5633E-02  0.1779E-02
    -22.974  0.3243E-02  0.2105E-02
    -22.873  0.1148E-02  0.2221E-02
    -22.772  0.2494E-03  0.2246E-02
    -22.672  0.3324E-04  0.2249E-02
    -22.571  0.2713E-05  0.2250E-02
    -22.470  0.1354E-06  0.2250E-02
    -22.370  0.4122E-08  0.2250E-02
    -22.269  0.7650E-10  0.2250E-02
    -22.168  0.8639E-12  0.2250E-02
    -22.067  0.5929E-14  0.2250E-02
    -21.967  0.2481E-16  0.2250E-02
    -21.866  0.0000E+00  0.2250E-02
    -21.765  0.0000E+00  0.2250E-02
    -21.665  0.0000E+00  0.2250E-02
    -21.564  0.0000E+00  0.2250E-02
    -21.463  0.0000E+00  0.2250E-02
    -21.363  0.0000E+00  0.2250E-02
    -21.262  0.0000E+00  0.2250E-02
    -21.161  0.0000E+00  0.2250E-02
    -21.061  0.0000E+00  0.2250E-02
    -20.960  0.0000E+00  0.2250E-02
    -20.859  0.0000E+00  0.2250E-02
    -20.759  0.0000E+00  0.2250E-02
    -20.658  0.0000E+00  0.2250E-02
    -20.557  0.0000E+00  0.2250E-02
    -20.456  0.0000E+00  0.2250E-02
    -20.356  0.0000E+00  0.2250E-02
    -20.255  0.0000E+00  0.2250E-02
    -20.154  0.2121E-15  0.2250E-02
    -20.054  0.4266E-13  0.2250E-02
    -19.953  0.5295E-11  0.2250E-02
    -19.852  0.4033E-09  0.2250E-02
    -19.752  0.1894E-07  0.2250E-02
    -19.651  0.5514E-06  0.2250E-02
    -19.550  0.1001E-04  0.2251E-02
    -19.450  0.1141E-03  0.2262E-02
    -19.349  0.8221E-03  0.2345E-02
    -19.248  0.3759E-02  0.2724E-02
    -19.148  0.1095E-01  0.3826E-02
    -19.047  0.2032E-01  0.5872E-02
    -18.946  0.2398E-01  0.8286E-02
    -18.846  0.1794E-01  0.1009E-01
    -18.745  0.8462E-02  0.1094E-01
    -18.644  0.2505E-02  0.1120E-01
    -18.543  0.4628E-03  0.1124E-01
    -18.443  0.5313E-04  0.1125E-01
    -18.342  0.3773E-05  0.1125E-01
    -18.241  0.1652E-06  0.1125E-01
    -18.141  0.4443E-08  0.1125E-01
    -18.040  0.7321E-10  0.1125E-01
    -17.939  0.7376E-12  0.1125E-01
    -17.839  0.4535E-14  0.1125E-01
    -17.738  0.1488E-16  0.1125E-01
    -17.637  0.0000E+00  0.1125E-01
    -17.537  0.0000E+00  0.1125E-01
    -17.436  0.0000E+00  0.1125E-01
    -17.335  0.0000E+00  0.1125E-01
    -17.235  0.0000E+00  0.1125E-01
    -17.134  0.0000E+00  0.1125E-01
    -17.033  0.3721E-17  0.1125E-01
    -16.932  0.9327E-15  0.1125E-01
    -16.832  0.1618E-12  0.1125E-01
    -16.731  0.1703E-10  0.1125E-01
    -16.630  0.1091E-08  0.1125E-01
    -16.530  0.4253E-07  0.1125E-01
    -16.429  0.1012E-05  0.1125E-01
    -16.328  0.1471E-04  0.1125E-01
    -16.228  0.1308E-03  0.1126E-01
    -16.127  0.7134E-03  0.1134E-01
    -16.026  0.2388E-02  0.1158E-01
    -15.926  0.4912E-02  0.1207E-01
    -15.825  0.6214E-02  0.1270E-01
    -15.724  0.4836E-02  0.1318E-01
    -15.624  0.2315E-02  0.1342E-01
    -15.523  0.6808E-03  0.1348E-01
    -15.422  0.1229E-03  0.1350E-01
    -15.322  0.1360E-04  0.1350E-01
    -15.221  0.9210E-06  0.1350E-01
    -15.120  0.3810E-07  0.1350E-01
    -15.019  0.9616E-09  0.1350E-01
    -14.919  0.1478E-10  0.1350E-01
    -14.818  0.1382E-12  0.1350E-01
    -14.717  0.7864E-15  0.1350E-01
    -14.617  0.2481E-17  0.1350E-01
    -14.516  0.0000E+00  0.1350E-01
    -14.415  0.0000E+00  0.1350E-01
    -14.315  0.0000E+00  0.1350E-01
    -14.214  0.0000E+00  0.1350E-01
    -14.113  0.0000E+00  0.1350E-01
    -14.013  0.0000E+00  0.1350E-01
    -13.912  0.0000E+00  0.1350E-01
    -13.811  0.0000E+00  0.1350E-01
    -13.711  0.0000E+00  0.1350E-01
    -13.610  0.0000E+00  0.1350E-01
    -13.509  0.0000E+00  0.1350E-01
    -13.408  0.0000E+00  0.1350E-01
    -13.308  0.0000E+00  0.1350E-01
    -13.207  0.0000E+00  0.1350E-01
    -13.106  0.0000E+00  0.1350E-01
    -13.006  0.0000E+00  0.1350E-01
    -12.905  0.0000E+00  0.1350E-01
    -12.804  0.0000E+00  0.1350E-01
    -12.704  0.0000E+00  0.1350E-01
    -12.603  0.0000E+00  0.1350E-01
    -12.502  0.0000E+00  0.1350E-01
    -12.402  0.0000E+00  0.1350E-01
    -12.301  0.0000E+00  0.1350E-01
    -12.200  0.0000E+00  0.1350E-01
    -12.100  0.0000E+00  0.1350E-01
    -11.999  0.0000E+00  0.1350E-01
    -11.898  0.0000E+00  0.1350E-01
    -11.797  0.0000E+00  0.1350E-01
    -11.697  0.0000E+00  0.1350E-01
    -11.596  0.0000E+00  0.1350E-01
    -11.495  0.0000E+00  0.1350E-01
    -11.395  0.0000E+00  0.1350E-01
    -11.294  0.0000E+00  0.1350E-01
    -11.193  0.0000E+00  0.1350E-01
    -11.093  0.0000E+00  0.1350E-01
    -10.992  0.0000E+00  0.1350E-01
    -10.891  0.0000E+00  0.1350E-01
    -10.791  0.0000E+00  0.1350E-01
    -10.690  0.0000E+00  0.1350E-01
    -10.589  0.0000E+00  0.1350E-01
    -10.489  0.0000E+00  0.1350E-01
    -10.388  0.0000E+00  0.1350E-01
    -10.287  0.0000E+00  0.1350E-01
    -10.187  0.0000E+00  0.1350E-01
    -10.086  0.0000E+00  0.1350E-01
     -9.985  0.0000E+00  0.1350E-01
     -9.884  0.0000E+00  0.1350E-01
     -9.784  0.0000E+00  0.1350E-01
     -9.683  0.1935E-15  0.1350E-01
     -9.582  0.3862E-13  0.1350E-01
     -9.482  0.4693E-11  0.1350E-01
     -9.381  0.3467E-09  0.1350E-01
     -9.280  0.1559E-07  0.1350E-01
     -9.180  0.4276E-06  0.1350E-01
     -9.079  0.7160E-05  0.1350E-01
     -8.978  0.7335E-04  0.1351E-01
     -8.878  0.4604E-03  0.1355E-01
     -8.777  0.1773E-02  0.1373E-01
     -8.676  0.4199E-02  0.1415E-01
     -8.576  0.6143E-02  0.1477E-01
     -8.475  0.5744E-02  0.1535E-01
     -8.374  0.4257E-02  0.1578E-01
     -8.273  0.4435E-02  0.1623E-01
     -8.173  0.5956E-02  0.1683E-01
     -8.072  0.5968E-02  0.1743E-01
     -7.971  0.3781E-02  0.1781E-01
     -7.871  0.1478E-02  0.1796E-01
     -7.770  0.3550E-03  0.1799E-01
     -7.669  0.5232E-04  0.1800E-01
     -7.569  0.4727E-05  0.1800E-01
     -7.468  0.3707E-06  0.1800E-01
     -7.367  0.2283E-05  0.1800E-01
     -7.267  0.2875E-04  0.1800E-01
     -7.166  0.2225E-03  0.1802E-01
     -7.065  0.1057E-02  0.1813E-01
     -6.965  0.3085E-02  0.1844E-01
     -6.864  0.5587E-02  0.1900E-01
     -6.763  0.6608E-02  0.1967E-01
     -6.662  0.6708E-02  0.2034E-01
     -6.562  0.1009E-01  0.2136E-01
     -6.461  0.1894E-01  0.2327E-01
     -6.360  0.2912E-01  0.2620E-01
     -6.260  0.3389E-01  0.2961E-01
     -6.159  0.3010E-01  0.3264E-01
     -6.058  0.2020E-01  0.3468E-01
     -5.958  0.1072E-01  0.3576E-01
     -5.857  0.7862E-02  0.3655E-01
     -5.756  0.1330E-01  0.3789E-01
     -5.656  0.2379E-01  0.4028E-01
     -5.555  0.3450E-01  0.4376E-01
     -5.454  0.4262E-01  0.4805E-01
     -5.354  0.4548E-01  0.5263E-01
     -5.253  0.4056E-01  0.5671E-01
     -5.152  0.3084E-01  0.5981E-01
     -5.052  0.2380E-01  0.6221E-01
     -4.951  0.2437E-01  0.6466E-01
     -4.850  0.3147E-01  0.6783E-01
     -4.749  0.3898E-01  0.7176E-01
     -4.649  0.3935E-01  0.7572E-01
     -4.548  0.3034E-01  0.7877E-01
     -4.447  0.1859E-01  0.8064E-01
     -4.347  0.1289E-01  0.8194E-01
     -4.246  0.1612E-01  0.8357E-01
     -4.145  0.2644E-01  0.8623E-01
     -4.045  0.3898E-01  0.9015E-01
     -3.944  0.4816E-01  0.9500E-01
     -3.843  0.5575E-01  0.1006E+00
     -3.743  0.6805E-01  0.1075E+00
     -3.642  0.8630E-01  0.1162E+00
     -3.541  0.1086E+00  0.1271E+00
     -3.441  0.1290E+00  0.1401E+00
     -3.340  0.1366E+00  0.1538E+00
     -3.239  0.1257E+00  0.1665E+00
     -3.138  0.1040E+00  0.1770E+00
     -3.038  0.9128E-01  0.1862E+00
     -2.937  0.1018E+00  0.1964E+00
     -2.836  0.1204E+00  0.2085E+00
     -2.736  0.1242E+00  0.2210E+00
     -2.635  0.1190E+00  0.2330E+00
     -2.534  0.1249E+00  0.2456E+00
     -2.434  0.1391E+00  0.2596E+00
     -2.333  0.1453E+00  0.2742E+00
     -2.232  0.1441E+00  0.2887E+00
     -2.132  0.1457E+00  0.3034E+00
     -2.031  0.1510E+00  0.3186E+00
     -1.930  0.1608E+00  0.3348E+00
     -1.830  0.1811E+00  0.3530E+00
     -1.729  0.2077E+00  0.3739E+00
     -1.628  0.2270E+00  0.3968E+00
     -1.527  0.2344E+00  0.4204E+00
     -1.427  0.2303E+00  0.4436E+00
     -1.326  0.2091E+00  0.4646E+00
     -1.225  0.1768E+00  0.4824E+00
     -1.125  0.1569E+00  0.4982E+00
     -1.024  0.1601E+00  0.5144E+00
     -0.923  0.1756E+00  0.5320E+00
     -0.823  0.1909E+00  0.5512E+00
     -0.722  0.1998E+00  0.5714E+00
     -0.621  0.2009E+00  0.5916E+00
     -0.521  0.1959E+00  0.6113E+00
     -0.420  0.1857E+00  0.6300E+00
     -0.319  0.1721E+00  0.6473E+00
     -0.219  0.1611E+00  0.6636E+00
     -0.118  0.1584E+00  0.6795E+00
     -0.017  0.1642E+00  0.6960E+00
      0.083  0.1735E+00  0.7135E+00
      0.184  0.1786E+00  0.7315E+00
      0.285  0.1734E+00  0.7490E+00
      0.386  0.1571E+00  0.7648E+00
      0.486  0.1344E+00  0.7783E+00
      0.587  0.1107E+00  0.7894E+00
      0.688  0.8656E-01  0.7982E+00
      0.788  0.6196E-01  0.8044E+00
      0.889  0.4234E-01  0.8087E+00
      0.990  0.3172E-01  0.8119E+00
      1.090  0.2724E-01  0.8146E+00
      1.191  0.2655E-01  0.8173E+00
      1.292  0.2915E-01  0.8202E+00
      1.392  0.3112E-01  0.8233E+00
      1.493  0.2847E-01  0.8262E+00
      1.594  0.2343E-01  0.8286E+00
      1.694  0.2240E-01  0.8308E+00
      1.795  0.2804E-01  0.8336E+00
      1.896  0.3416E-01  0.8371E+00
      1.997  0.3204E-01  0.8403E+00
      2.097  0.2315E-01  0.8426E+00
      2.198  0.1866E-01  0.8445E+00
      2.299  0.2598E-01  0.8471E+00
      2.399  0.3930E-01  0.8511E+00
      2.500  0.4528E-01  0.8557E+00
      2.601  0.3895E-01  0.8596E+00
      2.701  0.2930E-01  0.8625E+00
      2.802  0.2726E-01  0.8653E+00
      2.903  0.3316E-01  0.8686E+00
      3.003  0.3654E-01  0.8723E+00
      3.104  0.2897E-01  0.8752E+00
      3.205  0.1525E-01  0.8767E+00
      3.305  0.5166E-02  0.8773E+00
      3.406  0.1109E-02  0.8774E+00
      3.507  0.1494E-03  0.8774E+00
      3.608  0.1253E-04  0.8774E+00
      3.708  0.6512E-06  0.8774E+00
      3.809  0.2089E-07  0.8774E+00
      3.910  0.4124E-09  0.8774E+00
      4.010  0.4997E-11  0.8774E+00
      4.111  0.3707E-13  0.8774E+00
      4.212  0.1662E-15  0.8774E+00
      4.312  0.0000E+00  0.8774E+00
      4.413  0.0000E+00  0.8774E+00
      4.514  0.0000E+00  0.8774E+00
      4.614  0.0000E+00  0.8774E+00
      4.715  0.0000E+00  0.8774E+00
      4.816  0.0000E+00  0.8774E+00
      4.916  0.0000E+00  0.8774E+00
      5.017  0.0000E+00  0.8774E+00
      5.01711821    -25.18875076  301      0.16333211      1.00000000
    -25.189  0.0000E+00  0.0000E+00  0.0000E+00
    -25.088  0.0000E+00  0.0000E+00  0.0000E+00
    -24.987  0.0000E+00  0.0000E+00  0.0000E+00
    -24.887  0.0000E+00  0.0000E+00  0.0000E+00
    -24.786  0.0000E+00  0.0000E+00  0.0000E+00
    -24.685  0.0000E+00  0.0000E+00  0.0000E+00
    -24.585  0.0000E+00  0.0000E+00  0.0000E+00
    -24.484  0.0000E+00  0.0000E+00  0.0000E+00
    -24.383  0.0000E+00  0.0000E+00  0.0000E+00
    -24.283  0.1517E-20  0.1619E-20  0.6195E-21
    -24.182  0.3152E-18  0.3363E-18  0.1287E-18
    -24.081  0.4010E-16  0.4278E-16  0.1637E-16
    -23.981  0.3101E-14  0.3308E-14  0.1266E-14
    -23.880  0.1460E-12  0.1557E-12  0.5960E-13
    -23.779  0.4189E-11  0.4469E-11  0.1710E-11
    -23.678  0.7340E-10  0.7830E-10  0.2997E-10
    -23.578  0.7867E-09  0.8392E-09  0.3212E-09
    -23.477  0.5165E-08  0.5509E-08  0.2109E-08
    -23.376  0.2080E-07  0.2219E-07  0.8494E-08
    -23.276  0.5148E-07  0.5492E-07  0.2102E-07
    -23.175  0.7833E-07  0.8355E-07  0.3198E-07
    -23.074  0.7331E-07  0.7820E-07  0.2993E-07
    -22.974  0.4220E-07  0.4502E-07  0.1723E-07
    -22.873  0.1493E-07  0.1593E-07  0.6097E-08
    -22.772  0.3246E-08  0.3462E-08  0.1325E-08
    -22.672  0.4326E-09  0.4615E-09  0.1766E-09
    -22.571  0.3531E-10  0.3767E-10  0.1442E-10
    -22.470  0.1762E-11  0.1879E-11  0.7193E-12
    -22.370  0.5365E-13  0.5723E-13  0.2190E-13
    -22.269  0.9956E-15  0.1062E-14  0.4065E-15
    -22.168  0.1124E-16  0.1199E-16  0.4590E-17
    -22.067  0.7716E-19  0.8231E-19  0.3150E-19
    -21.967  0.3228E-21  0.3444E-21  0.1318E-21
    -21.866  0.0000E+00  0.0000E+00  0.0000E+00
    -21.765  0.0000E+00  0.0000E+00  0.0000E+00
    -21.665  0.0000E+00  0.0000E+00  0.0000E+00
    -21.564  0.0000E+00  0.0000E+00  0.0000E+00
    -21.463  0.0000E+00  0.0000E+00  0.0000E+00
    -21.363  0.0000E+00  0.0000E+00  0.0000E+00
    -21.262  0.0000E+00  0.0000E+00  0.0000E+00
    -21.161  0.0000E+00  0.0000E+00  0.0000E+00
    -21.061  0.0000E+00  0.0000E+00  0.0000E+00
    -20.960  0.0000E+00  0.0000E+00  0.0000E+00
    -20.859  0.0000E+00  0.0000E+00  0.0000E+00
    -20.759  0.0000E+00  0.0000E+00  0.0000E+00
    -20.658  0.0000E+00  0.0000E+00  0.0000E+00
    -20.557  0.0000E+00  0.0000E+00  0.0000E+00
    -20.456  0.0000E+00  0.0000E+00  0.0000E+00
    -20.356  0.0000E+00  0.0000E+00  0.0000E+00
    -20.255  0.0000E+00  0.0000E+00  0.0000E+00
    -20.154  0.1018E-17  0.1093E-17  0.7057E-18
    -20.054  0.2046E-15  0.2197E-15  0.1417E-15
    -19.953  0.2524E-13  0.2710E-13  0.1749E-13
    -19.852  0.1906E-11  0.2047E-11  0.1320E-11
    -19.752  0.8841E-10  0.9493E-10  0.6125E-10
    -19.651  0.2527E-08  0.2715E-08  0.1753E-08
    -19.550  0.4473E-07  0.4810E-07  0.3109E-07
    -19.450  0.4926E-06  0.5305E-06  0.3436E-06
    -19.349  0.3392E-05  0.3662E-05  0.2380E-05
    -19.248  0.1467E-04  0.1590E-04  0.1038E-04
    -19.148  0.4000E-04  0.4355E-04  0.2861E-04
    -19.047  0.6893E-04  0.7550E-04  0.4999E-04
    -18.946  0.7512E-04  0.8285E-04  0.5535E-04
    -18.846  0.5172E-04  0.5750E-04  0.3879E-04
    -18.745  0.2245E-04  0.2517E-04  0.1715E-04
    -18.644  0.6120E-05  0.6921E-05  0.4767E-05
    -18.543  0.1044E-05  0.1191E-05  0.8285E-06
    -18.443  0.1109E-06  0.1276E-06  0.8963E-07
    -18.342  0.7311E-08  0.8479E-08  0.6009E-08
    -18.241  0.2978E-09  0.3480E-09  0.2486E-09
    -18.141  0.7472E-11  0.8793E-11  0.6328E-11
    -18.040  0.1151E-12  0.1363E-12  0.9877E-13
    -17.939  0.1087E-14  0.1294E-14  0.9430E-15
    -17.839  0.6274E-17  0.7510E-17  0.5496E-17
    -17.738  0.1586E-19  0.2059E-19  0.1634E-19
    -17.637  0.0000E+00  0.0000E+00  0.0000E+00
    -17.537  0.0000E+00  0.0000E+00  0.0000E+00
    -17.436  0.0000E+00  0.0000E+00  0.0000E+00
    -17.335  0.0000E+00  0.0000E+00  0.0000E+00
    -17.235  0.0000E+00  0.0000E+00  0.0000E+00
    -17.134  0.0000E+00  0.0000E+00  0.0000E+00
    -17.033  0.1416E-20  0.9800E-21  0.4136E-21
    -16.932  0.3549E-18  0.2456E-18  0.1037E-18
    -16.832  0.6156E-16  0.4261E-16  0.1798E-16
    -16.731  0.6481E-14  0.4485E-14  0.1893E-14
    -16.630  0.4150E-12  0.2872E-12  0.1212E-12
    -16.530  0.1619E-10  0.1120E-10  0.4728E-11
    -16.429  0.3851E-09  0.2665E-09  0.1125E-09
    -16.328  0.5597E-08  0.3874E-08  0.1635E-08
    -16.228  0.4979E-07  0.3446E-07  0.1454E-07
    -16.127  0.2715E-06  0.1879E-06  0.7930E-07
    -16.026  0.9087E-06  0.6289E-06  0.2654E-06
    -15.926  0.1869E-05  0.1294E-05  0.5460E-06
    -15.825  0.2365E-05  0.1637E-05  0.6907E-06
    -15.724  0.1840E-05  0.1274E-05  0.5375E-06
    -15.624  0.8808E-06  0.6096E-06  0.2573E-06
    -15.523  0.2590E-06  0.1793E-06  0.7567E-07
    -15.422  0.4677E-07  0.3237E-07  0.1366E-07
    -15.322  0.5175E-08  0.3582E-08  0.1512E-08
    -15.221  0.3505E-09  0.2426E-09  0.1024E-09
    -15.120  0.1450E-10  0.1004E-10  0.4235E-11
    -15.019  0.3659E-12  0.2532E-12  0.1069E-12
    -14.919  0.5624E-14  0.3892E-14  0.1643E-14
    -14.818  0.5257E-16  0.3638E-16  0.1536E-16
    -14.717  0.2992E-18  0.2071E-18  0.8740E-19
    -14.617  0.9439E-21  0.6533E-21  0.2757E-21
    -14.516  0.0000E+00  0.0000E+00  0.0000E+00
    -14.415  0.0000E+00  0.0000E+00  0.0000E+00
    -14.315  0.0000E+00  0.0000E+00  0.0000E+00
    -14.214  0.0000E+00  0.0000E+00  0.0000E+00
    -14.113  0.0000E+00  0.0000E+00  0.0000E+00
    -14.013  0.0000E+00  0.0000E+00  0.0000E+00
    -13.912  0.0000E+00  0.0000E+00  0.0000E+00
    -13.811  0.0000E+00  0.0000E+00  0.0000E+00
    -13.711  0.0000E+00  0.0000E+00  0.0000E+00
    -13.610  0.0000E+00  0.0000E+00  0.0000E+00
    -13.509  0.0000E+00  0.0000E+00  0.0000E+00
    -13.408  0.0000E+00  0.0000E+00  0.0000E+00
    -13.308  0.0000E+00  0.0000E+00  0.0000E+00
    -13.207  0.0000E+00  0.0000E+00  0.0000E+00
    -13.106  0.0000E+00  0.0000E+00  0.0000E+00
    -13.006  0.0000E+00  0.0000E+00  0.0000E+00
    -12.905  0.0000E+00  0.0000E+00  0.0000E+00
    -12.804  0.0000E+00  0.0000E+00  0.0000E+00
    -12.704  0.0000E+00  0.0000E+00  0.0000E+00
    -12.603  0.0000E+00  0.0000E+00  0.0000E+00
    -12.502  0.0000E+00  0.0000E+00  0.0000E+00
    -12.402  0.0000E+00  0.0000E+00  0.0000E+00
    -12.301  0.0000E+00  0.0000E+00  0.0000E+00
    -12.200  0.0000E+00  0.0000E+00  0.0000E+00
    -12.100  0.0000E+00  0.0000E+00  0.0000E+00
    -11.999  0.0000E+00  0.0000E+00  0.0000E+00
    -11.898  0.0000E+00  0.0000E+00  0.0000E+00
    -11.797  0.0000E+00  0.0000E+00  0.0000E+00
    -11.697  0.0000E+00  0.0000E+00  0.0000E+00
    -11.596  0.0000E+00  0.0000E+00  0.0000E+00
    -11.495  0.0000E+00  0.0000E+00  0.0000E+00
    -11.395  0.0000E+00  0.0000E+00  0.0000E+00
    -11.294  0.0000E+00  0.0000E+00  0.0000E+00
    -11.193  0.0000E+00  0.0000E+00  0.0000E+00
    -11.093  0.0000E+00  0.0000E+00  0.0000E+00
    -10.992  0.0000E+00  0.0000E+00  0.0000E+00
    -10.891  0.0000E+00  0.0000E+00  0.0000E+00
    -10.791  0.0000E+00  0.0000E+00  0.0000E+00
    -10.690  0.0000E+00  0.0000E+00  0.0000E+00
    -10.589  0.0000E+00  0.0000E+00  0.0000E+00
    -10.489  0.0000E+00  0.0000E+00  0.0000E+00
    -10.388  0.0000E+00  0.0000E+00  0.0000E+00
    -10.287  0.0000E+00  0.0000E+00  0.0000E+00
    -10.187  0.0000E+00  0.0000E+00  0.0000E+00
    -10.086  0.0000E+00  0.0000E+00  0.0000E+00
     -9.985  0.0000E+00  0.0000E+00  0.0000E+00
     -9.884  0.0000E+00  0.0000E+00  0.0000E+00
     -9.784  0.0000E+00  0.0000E+00  0.0000E+00
     -9.683  0.2350E-16  0.2092E-17  0.1153E-17
     -9.582  0.4690E-14  0.4177E-15  0.2301E-15
     -9.482  0.5699E-12  0.5075E-13  0.2796E-13
     -9.381  0.4210E-10  0.3749E-11  0.2066E-11
     -9.280  0.1894E-08  0.1686E-09  0.9291E-10
     -9.180  0.5193E-07  0.4624E-08  0.2548E-08
     -9.079  0.8696E-06  0.7744E-07  0.4267E-07
     -8.978  0.8910E-05  0.7933E-06  0.4371E-06
     -8.878  0.5600E-04  0.4979E-05  0.2744E-05
     -8.777  0.2183E-03  0.1919E-04  0.1057E-04
     -8.676  0.5663E-03  0.4572E-04  0.2512E-04
     -8.576  0.1415E-02  0.7020E-04  0.3775E-04
     -8.475  0.5550E-02  0.8947E-04  0.4255E-04
     -8.374  0.2212E-01  0.1678E-03  0.6244E-04
     -8.273  0.5963E-01  0.3810E-03  0.1278E-03
     -8.173  0.1001E+00  0.6243E-03  0.2059E-03
     -8.072  0.1034E+00  0.6435E-03  0.2118E-03
     -7.971  0.6580E-01  0.4092E-03  0.1346E-03
     -7.871  0.2573E-01  0.1600E-03  0.5265E-04
     -7.770  0.6182E-02  0.3844E-04  0.1265E-04
     -7.669  0.9111E-03  0.5665E-05  0.1864E-05
     -7.569  0.8226E-04  0.5171E-06  0.1691E-06
     -7.468  0.5077E-05  0.2200E-06  0.3895E-07
     -7.367  0.1124E-04  0.3966E-05  0.6138E-06
     -7.267  0.1402E-03  0.5013E-04  0.7756E-05
     -7.166  0.1085E-02  0.3881E-03  0.6004E-04
     -7.065  0.5165E-02  0.1842E-02  0.2853E-03
     -6.965  0.1529E-01  0.5374E-02  0.8363E-03
     -6.864  0.2998E-01  0.9683E-02  0.1556E-02
     -6.763  0.5058E-01  0.1115E-01  0.2159E-02
     -6.662  0.1078E+00  0.1044E-01  0.3658E-02
     -6.562  0.2361E+00  0.1591E-01  0.8633E-02
     -6.461  0.3720E+00  0.3562E-01  0.1752E-01
     -6.360  0.3827E+00  0.6520E-01  0.2503E-01
     -6.260  0.2605E+00  0.8532E-01  0.2470E-01
     -6.159  0.1247E+00  0.7880E-01  0.1708E-01
     -6.058  0.4592E-01  0.5160E-01  0.8550E-02
     -5.958  0.1550E-01  0.2821E-01  0.3806E-02
     -5.857  0.1058E-01  0.2669E-01  0.4040E-02
     -5.756  0.1723E-01  0.4254E-01  0.9954E-02
     -5.656  0.2542E-01  0.5325E-01  0.2391E-01
     -5.555  0.2879E-01  0.4561E-01  0.4896E-01
     -5.454  0.2629E-01  0.3087E-01  0.7894E-01
     -5.354  0.1961E-01  0.2094E-01  0.9144E-01
     -5.253  0.1258E-01  0.1433E-01  0.7261E-01
     -5.152  0.9952E-02  0.9200E-02  0.4073E-01
     -5.052  0.1593E-01  0.8928E-02  0.2368E-01
     -4.951  0.3694E-01  0.1695E-01  0.3380E-01
     -4.850  0.8098E-01  0.3133E-01  0.6826E-01
     -4.749  0.1424E+00  0.4271E-01  0.1085E+00
     -4.649  0.1838E+00  0.4217E-01  0.1249E+00
     -4.548  0.1667E+00  0.3052E-01  0.1036E+00
     -4.447  0.1137E+00  0.1608E-01  0.7117E-01
     -4.347  0.8284E-01  0.6454E-02  0.8205E-01
     -4.246  0.9025E-01  0.3744E-02  0.1929E+00
     -4.145  0.1154E+00  0.7457E-02  0.4133E+00
     -4.045  0.1402E+00  0.1965E-01  0.6298E+00
     -3.944  0.1637E+00  0.4726E-01  0.6992E+00
     -3.843  0.1932E+00  0.9645E-01  0.6565E+00
     -3.743  0.2126E+00  0.1526E+00  0.6597E+00
     -3.642  0.1987E+00  0.1804E+00  0.8272E+00
     -3.541  0.1589E+00  0.1687E+00  0.1195E+01
     -3.441  0.1139E+00  0.1422E+00  0.1612E+01
     -3.340  0.7330E-01  0.1226E+00  0.1812E+01
     -3.239  0.4201E-01  0.1098E+00  0.1702E+01
     -3.138  0.2316E-01  0.1010E+00  0.1434E+01
     -3.038  0.1315E-01  0.1127E+00  0.1346E+01
     -2.937  0.7503E-02  0.1506E+00  0.1688E+01
     -2.836  0.4972E-02  0.1753E+00  0.2151E+01
     -2.736  0.4487E-02  0.1578E+00  0.2173E+01
     -2.635  0.5004E-02  0.1249E+00  0.1805E+01
     -2.534  0.6626E-02  0.1082E+00  0.1576E+01
     -2.434  0.9497E-02  0.1099E+00  0.1670E+01
     -2.333  0.1318E-01  0.1243E+00  0.1899E+01
     -2.232  0.1723E-01  0.1444E+00  0.2115E+01
     -2.132  0.1993E-01  0.1574E+00  0.2212E+01
     -2.031  0.1931E-01  0.1503E+00  0.2090E+01
     -1.930  0.1726E-01  0.1249E+00  0.1884E+01
     -1.830  0.1665E-01  0.1008E+00  0.1872E+01
     -1.729  0.1697E-01  0.9427E-01  0.2091E+01
     -1.628  0.1816E-01  0.1018E+00  0.2323E+01
     -1.527  0.2236E-01  0.1102E+00  0.2411E+01
     -1.427  0.2839E-01  0.1081E+00  0.2345E+01
     -1.326  0.3075E-01  0.9320E-01  0.2144E+01
     -1.225  0.2694E-01  0.7621E-01  0.1941E+01
     -1.125  0.2004E-01  0.6901E-01  0.2006E+01
     -1.024  0.1354E-01  0.7004E-01  0.2454E+01
     -0.923  0.9266E-02  0.6916E-01  0.3092E+01
     -0.823  0.7581E-02  0.6223E-01  0.3574E+01
     -0.722  0.7351E-02  0.5219E-01  0.3615E+01
     -0.621  0.7580E-02  0.4311E-01  0.3190E+01
     -0.521  0.8291E-02  0.3749E-01  0.2549E+01
     -0.420  0.9348E-02  0.3441E-01  0.1975E+01
     -0.319  0.9868E-02  0.3118E-01  0.1595E+01
     -0.219  0.9616E-02  0.2756E-01  0.1436E+01
     -0.118  0.9452E-02  0.2521E-01  0.1495E+01
     -0.017  0.9868E-02  0.2677E-01  0.1692E+01
      0.083  0.1046E-01  0.3551E-01  0.1869E+01
      0.184  0.1018E-01  0.5025E-01  0.1886E+01
      0.285  0.8518E-02  0.6172E-01  0.1700E+01
      0.386  0.6340E-02  0.6064E-01  0.1368E+01
      0.486  0.4684E-02  0.5011E-01  0.9959E+00
      0.587  0.3753E-02  0.4163E-01  0.6837E+00
      0.688  0.3255E-02  0.4060E-01  0.4666E+00
      0.788  0.2723E-02  0.4675E-01  0.3261E+00
      0.889  0.2224E-02  0.5734E-01  0.2495E+00
      0.990  0.2558E-02  0.6233E-01  0.2133E+00
      1.090  0.3893E-02  0.5960E-01  0.1844E+00
      1.191  0.5450E-02  0.6507E-01  0.1797E+00
      1.292  0.7195E-02  0.7976E-01  0.2251E+00
      1.392  0.9327E-02  0.8039E-01  0.2834E+00
      1.493  0.1043E-01  0.6130E-01  0.2968E+00
      1.594  0.1077E-01  0.4733E-01  0.2605E+00
      1.694  0.1538E-01  0.6343E-01  0.2172E+00
      1.795  0.2703E-01  0.1065E+00  0.2097E+00
      1.896  0.3760E-01  0.1380E+00  0.2316E+00
      1.997  0.3609E-01  0.1227E+00  0.2279E+00
      2.097  0.2393E-01  0.7795E-01  0.1776E+00
      2.198  0.1176E-01  0.5213E-01  0.1351E+00
      2.299  0.5670E-02  0.6942E-01  0.1528E+00
      2.399  0.4122E-02  0.1066E+00  0.2020E+00
      2.500  0.4257E-02  0.1169E+00  0.2109E+00
      2.601  0.8354E-02  0.8727E-01  0.1651E+00
      2.701  0.2625E-01  0.5333E-01  0.1229E+00
      2.802  0.6801E-01  0.5080E-01  0.1301E+00
      2.903  0.1231E+00  0.7969E-01  0.1603E+00
      3.003  0.1528E+00  0.1046E+00  0.1561E+00
      3.104  0.1280E+00  0.9102E-01  0.1065E+00
      3.205  0.7069E-01  0.5030E-01  0.4945E-01
      3.305  0.2516E-01  0.1746E-01  0.1533E-01
      3.406  0.5667E-02  0.3782E-02  0.3106E-02
      3.507  0.7982E-03  0.5098E-03  0.4035E-03
      3.608  0.6976E-04  0.4259E-04  0.3310E-04
      3.708  0.3762E-05  0.2199E-05  0.1697E-05
      3.809  0.1247E-06  0.7002E-07  0.5397E-07
      3.910  0.2534E-08  0.1371E-08  0.1059E-08
      4.010  0.3148E-10  0.1648E-10  0.1278E-10
      4.111  0.2388E-12  0.1213E-12  0.9460E-13
      4.212  0.1097E-14  0.5374E-15  0.4236E-15
      4.312  0.0000E+00  0.0000E+00  0.0000E+00
      4.413  0.0000E+00  0.0000E+00  0.0000E+00
      4.514  0.0000E+00  0.0000E+00  0.0000E+00
      4.614  0.0000E+00  0.0000E+00  0.0000E+00
      4.715  0.0000E+00  0.0000E+00  0.0000E+00
      4.816  0.0000E+00  0.0000E+00  0.0000E+00
      4.916  0.0000E+00  0.0000E+00  0.0000E+00
      5.017  0.0000E+00  0.0000E+00  0.0000E+00
      5.01711821    -25.18875076  301      0.16333211      1.00000000
    -25.189  0.0000E+00  0.0000E+00  0.0000E+00
    -25.088  0.0000E+00  0.0000E+00  0.0000E+00
    -24.987  0.0000E+00  0.0000E+00  0.0000E+00
    -24.887  0.0000E+00  0.0000E+00  0.0000E+00
    -24.786  0.0000E+00  0.0000E+00  0.0000E+00
    -24.685  0.0000E+00  0.0000E+00  0.0000E+00
    -24.585  0.0000E+00  0.0000E+00  0.0000E+00
    -24.484  0.0000E+00  0.0000E+00  0.0000E+00
    -24.383  0.0000E+00  0.0000E+00  0.0000E+00
    -24.283  0.1159E-20  0.1196E-20  0.4519E-21
    -24.182  0.2407E-18  0.2484E-18  0.9388E-19
    -24.081  0.3062E-16  0.3160E-16  0.1194E-16
    -23.981  0.2368E-14  0.2444E-14  0.9235E-15
    -23.880  0.1115E-12  0.1150E-12  0.4347E-13
    -23.779  0.3199E-11  0.3301E-11  0.1247E-11
    -23.678  0.5606E-10  0.5785E-10  0.2186E-10
    -23.578  0.6008E-09  0.6200E-09  0.2343E-09
    -23.477  0.3944E-08  0.4070E-08  0.1538E-08
    -23.376  0.1589E-07  0.1640E-07  0.6195E-08
    -23.276  0.3931E-07  0.4057E-07  0.1533E-07
    -23.175  0.5981E-07  0.6173E-07  0.2332E-07
    -23.074  0.5598E-07  0.5777E-07  0.2183E-07
    -22.974  0.3223E-07  0.3326E-07  0.1257E-07
    -22.873  0.1140E-07  0.1177E-07  0.4447E-08
    -22.772  0.2479E-08  0.2558E-08  0.9666E-09
    -22.672  0.3304E-09  0.3409E-09  0.1288E-09
    -22.571  0.2696E-10  0.2783E-10  0.1051E-10
    -22.470  0.1345E-11  0.1388E-11  0.5247E-12
    -22.370  0.4097E-13  0.4228E-13  0.1598E-13
    -22.269  0.7603E-15  0.7846E-15  0.2965E-15
    -22.168  0.8586E-17  0.8860E-17  0.3348E-17
    -22.067  0.5892E-19  0.6081E-19  0.2298E-19
    -21.967  0.2465E-21  0.2544E-21  0.9614E-22
    -21.866  0.0000E+00  0.0000E+00  0.0000E+00
    -21.765  0.0000E+00  0.0000E+00  0.0000E+00
    -21.665  0.0000E+00  0.0000E+00  0.0000E+00
    -21.564  0.0000E+00  0.0000E+00  0.0000E+00
    -21.463  0.0000E+00  0.0000E+00  0.0000E+00
    -21.363  0.0000E+00  0.0000E+00  0.0000E+00
    -21.262  0.0000E+00  0.0000E+00  0.0000E+00
    -21.161  0.0000E+00  0.0000E+00  0.0000E+00
    -21.061  0.0000E+00  0.0000E+00  0.0000E+00
    -20.960  0.0000E+00  0.0000E+00  0.0000E+00
    -20.859  0.0000E+00  0.0000E+00  0.0000E+00
    -20.759  0.0000E+00  0.0000E+00  0.0000E+00
    -20.658  0.0000E+00  0.0000E+00  0.0000E+00
    -20.557  0.0000E+00  0.0000E+00  0.0000E+00
    -20.456  0.0000E+00  0.0000E+00  0.0000E+00
    -20.356  0.0000E+00  0.0000E+00  0.0000E+00
    -20.255  0.0000E+00  0.0000E+00  0.0000E+00
    -20.154  0.2429E-17  0.2104E-17  0.8832E-18
    -20.054  0.4837E-15  0.4189E-15  0.1759E-15
    -19.953  0.5857E-13  0.5073E-13  0.2130E-13
    -19.852  0.4313E-11  0.3735E-11  0.1568E-11
    -19.752  0.1933E-09  0.1674E-09  0.7031E-10
    -19.651  0.5284E-08  0.4578E-08  0.1922E-08
    -19.550  0.8823E-07  0.7643E-07  0.3210E-07
    -19.450  0.9012E-06  0.7808E-06  0.3280E-06
    -19.349  0.5642E-05  0.4888E-05  0.2054E-05
    -19.248  0.2168E-04  0.1879E-04  0.7897E-05
    -19.148  0.5123E-04  0.4439E-04  0.1866E-04
    -19.047  0.7451E-04  0.6457E-04  0.2715E-04
    -18.946  0.6676E-04  0.5784E-04  0.2433E-04
    -18.846  0.3688E-04  0.3194E-04  0.1344E-04
    -18.745  0.1257E-04  0.1088E-04  0.4577E-05
    -18.644  0.2645E-05  0.2286E-05  0.9613E-06
    -18.543  0.3443E-06  0.2968E-06  0.1246E-06
    -18.443  0.2778E-07  0.2386E-07  0.9982E-08
    -18.342  0.1396E-08  0.1191E-08  0.4954E-09
    -18.241  0.4393E-10  0.3714E-10  0.1529E-10
    -18.141  0.8724E-12  0.7282E-12  0.2953E-12
    -18.040  0.1102E-13  0.9044E-14  0.3590E-14
    -17.939  0.8894E-16  0.7161E-16  0.2764E-16
    -17.839  0.4709E-18  0.3723E-18  0.1396E-18
    -17.738  0.1003E-20  0.6962E-21  0.2085E-21
    -17.637  0.0000E+00  0.0000E+00  0.0000E+00
    -17.537  0.0000E+00  0.0000E+00  0.0000E+00
    -17.436  0.0000E+00  0.0000E+00  0.0000E+00
    -17.335  0.0000E+00  0.0000E+00  0.0000E+00
    -17.235  0.0000E+00  0.0000E+00  0.0000E+00
    -17.134  0.0000E+00  0.0000E+00  0.0000E+00
    -17.033  0.2298E-20  0.1580E-20  0.6543E-21
    -16.932  0.5761E-18  0.3960E-18  0.1640E-18
    -16.832  0.9993E-16  0.6869E-16  0.2845E-16
    -16.731  0.1052E-13  0.7231E-14  0.2995E-14
    -16.630  0.6737E-12  0.4630E-12  0.1918E-12
    -16.530  0.2627E-10  0.1806E-10  0.7479E-11
    -16.429  0.6251E-09  0.4296E-09  0.1779E-09
    -16.328  0.9085E-08  0.6245E-08  0.2586E-08
    -16.228  0.8082E-07  0.5555E-07  0.2301E-07