       N       E                     dE             d eps       ncg     rms          rms(c)
DAV:   1     0.603967289119E+04    0.60397E+04   -0.33118E+05   780   0.208E+03
DAV:   2     0.379637297504E+03   -0.56600E+04   -0.54766E+04   780   0.458E+02
DAV:   3    -0.297664821881E+03   -0.67730E+03   -0.60227E+03   837   0.195E+02
DAV:   4    -0.402057303238E+03   -0.10439E+03   -0.92682E+02  1407   0.573E+01
DAV:   5    -0.413321491714E+03   -0.11264E+02   -0.10557E+02  1110   0.174E+01    0.289E+01
RMM:   6    -0.621354144312E+03   -0.20803E+03   -0.17595E+02   811   0.290E+01    0.140E+02
RMM:   7    -0.451009022196E+03    0.17035E+03   -0.13487E+02   782   0.334E+01    0.836E+01
RMM:   8    -0.416126147631E+03    0.34883E+02   -0.25068E+01   786   0.125E+01    0.361E+01
RMM:   9    -0.412611022688E+03    0.35151E+01   -0.59218E+00   822   0.440E+00    0.247E+01
RMM:  10    -0.411631995281E+03    0.97903E+00   -0.10191E+00   897   0.164E+00    0.189E+01
RMM:  11    -0.411761517483E+03   -0.12952E+00   -0.82258E-01   789   0.207E+00    0.205E+01
RMM:  12    -0.412632110724E+03   -0.87059E+00   -0.21930E+00   785   0.376E+00    0.261E+01
RMM:  13    -0.417298486685E+03   -0.46664E+01   -0.64581E+00   785   0.636E+00    0.388E+01
RMM:  14    -0.417051869089E+03    0.24662E+00   -0.62730E+00   786   0.666E+00    0.388E+01
RMM:  15    -0.412750862364E+03    0.43010E+01   -0.34822E+00   786   0.530E+00    0.238E+01
RMM:  16    -0.411338660709E+03    0.14122E+01   -0.15706E+00   784   0.328E+00    0.153E+01
RMM:  17    -0.411868250021E+03   -0.52959E+00   -0.10984E+00   785   0.261E+00    0.208E+01
RMM:  18    -0.411165923420E+03    0.70233E+00   -0.89565E-01   787   0.250E+00    0.130E+01
RMM:  19    -0.410722856548E+03    0.44307E+00   -0.39938E-01   787   0.174E+00    0.784E+00
RMM:  20    -0.410622834946E+03    0.10002E+00   -0.16023E-01   788   0.100E+00    0.539E+00
RMM:  21    -0.410654885051E+03   -0.32050E-01   -0.12938E-01   788   0.892E-01    0.638E+00
RMM:  22    -0.410588389711E+03    0.66495E-01   -0.79058E-02   790   0.757E-01    0.432E+00
RMM:  23    -0.410556848350E+03    0.31541E-01   -0.47548E-02   783   0.575E-01    0.274E+00
RMM:  24    -0.410576087662E+03   -0.19239E-01   -0.40593E-02   786   0.518E-01    0.358E+00
RMM:  25    -0.410558960979E+03    0.17127E-01   -0.33147E-02   789   0.499E-01    0.267E+00
RMM:  26    -0.410544582372E+03    0.14379E-01   -0.23519E-02   789   0.409E-01    0.167E+00
RMM:  27    -0.410549939798E+03   -0.53574E-02   -0.13853E-02   790   0.302E-01    0.227E+00
RMM:  28    -0.410539218371E+03    0.10721E-01   -0.98554E-03   791   0.272E-01    0.121E+00
RMM:  29    -0.410535198545E+03    0.40198E-02   -0.43811E-03   788   0.177E-01    0.672E-01
RMM:  30    -0.410535562358E+03   -0.36381E-03   -0.25913E-03   785   0.128E-01    0.767E-01
RMM:  31    -0.410535437958E+03    0.12440E-03   -0.23670E-03   787   0.127E-01    0.724E-01
RMM:  32    -0.410534923808E+03    0.51415E-03   -0.16204E-03   787   0.107E-01    0.569E-01
RMM:  33    -0.410534370628E+03    0.55318E-03   -0.10779E-03   786   0.867E-02    0.440E-01
RMM:  34    -0.410533938428E+03    0.43220E-03   -0.48980E-04   785   0.617E-02    0.235E-01
RMM:  35    -0.410533908637E+03    0.29791E-04   -0.27391E-04   787   0.432E-02    0.229E-01
RMM:  36    -0.410533967814E+03   -0.59177E-04   -0.19490E-04   783   0.364E-02    0.255E-01
RMM:  37    -0.410533832510E+03    0.13530E-03   -0.14434E-04   783   0.332E-02    0.138E-01
RMM:  38    -0.410533810179E+03    0.22331E-04   -0.54852E-05   778   0.195E-02    0.103E-01
RMM:  39    -0.410533826342E+03   -0.16162E-04   -0.46102E-05   777   0.175E-02    0.112E-01
RMM:  40    -0.410533798503E+03    0.27839E-04   -0.30849E-05   776   0.149E-02    0.430E-02
RMM:  41    -0.410533799372E+03   -0.86960E-06   -0.11800E-05   753   0.863E-03    0.325E-02
RMM:  42    -0.410533809491E+03   -0.10119E-04   -0.66571E-06   670   0.647E-03    0.498E-02
RMM:  43    -0.410533808780E+03    0.71029E-06   -0.43298E-06   559   0.628E-03
   1 F= -.42754393E+03 E0= -.42595473E+03  d E =-.317840E+01
       N       E                     dE             d eps       ncg     rms          rms(c)
DAV:   1    -0.410525902572E+03    0.79069E-02   -0.12320E+00   804   0.147E+00    0.257E-01
RMM:   2    -0.410529652764E+03   -0.37502E-02   -0.28477E-02   894   0.260E-01    0.685E-01
RMM:   3    -0.410529831222E+03   -0.17846E-03   -0.39012E-03   799   0.119E-01    0.925E-01
RMM:   4    -0.410530252780E+03   -0.42156E-03   -0.17574E-03   796   0.103E-01    0.978E-01
RMM:   5    -0.410529409857E+03    0.84292E-03   -0.24982E-03   785   0.130E-01    0.758E-01
RMM:   6    -0.410529345915E+03    0.63943E-04   -0.17270E-03   786   0.107E-01    0.754E-01
RMM:   7    -0.410528358737E+03    0.98718E-03   -0.10825E-03   788   0.896E-02    0.493E-01
RMM:   8    -0.410527953243E+03    0.40549E-03   -0.56882E-04   786   0.623E-02    0.325E-01
RMM:   9    -0.410528462241E+03   -0.50900E-03   -0.70181E-04   785   0.673E-02    0.509E-01
RMM:  10    -0.410528325729E+03    0.13651E-03   -0.57731E-04   783   0.643E-02    0.439E-01
RMM:  11    -0.410527834988E+03    0.49074E-03   -0.38708E-04   783   0.553E-02    0.205E-01
RMM:  12    -0.410527756760E+03    0.78228E-04   -0.13632E-04   785   0.300E-02    0.125E-01
RMM:  13    -0.410527846027E+03   -0.89267E-04   -0.13062E-04   785   0.287E-02    0.210E-01
RMM:  14    -0.410527793032E+03    0.52995E-04   -0.75039E-05   780   0.231E-02    0.166E-01
RMM:  15    -0.410527716636E+03    0.76395E-04   -0.39549E-05   781   0.177E-02    0.377E-02
RMM:  16    -0.410527713520E+03    0.31160E-05   -0.75464E-06   721   0.656E-03    0.287E-02
RMM:  17    -0.410527716766E+03   -0.32457E-05   -0.59015E-06   657   0.610E-03    0.387E-02
RMM:  18    -0.410527716647E+03    0.11897E-06   -0.45754E-06   564   0.615E-03
   2 F= -.42753780E+03 E0= -.42594834E+03  d E =-.317891E+01
       N       E                     dE             d eps       ncg     rms          rms(c)
DAV:   1    -0.410530040465E+03   -0.23237E-02   -0.49037E+00   786   0.294E+00    0.519E-01
RMM:   2    -0.410543151617E+03   -0.13111E-01   -0.11151E-01   883   0.510E-01    0.129E+00
RMM:   3    -0.410546699520E+03   -0.35479E-02   -0.15945E-02   802   0.233E-01    0.192E+00
RMM:   4    -0.410549993997E+03   -0.32945E-02   -0.84274E-03   798   0.225E-01    0.217E+00
RMM:   5    -0.410544238832E+03    0.57552E-02   -0.10502E-02   785   0.270E-01    0.163E+00
RMM:   6    -0.410541832509E+03    0.24063E-02   -0.62145E-03   787   0.204E-01    0.135E+00
RMM:   7    -0.410539205505E+03    0.26270E-02   -0.39108E-03   789   0.166E-01    0.929E-01
RMM:   8    -0.410538171874E+03    0.10336E-02   -0.23791E-03   787   0.127E-01    0.697E-01
RMM:   9    -0.410540220551E+03   -0.20487E-02   -0.28309E-03   784   0.136E-01    0.105E+00
RMM:  10    -0.410538685030E+03    0.15355E-02   -0.21620E-03   784   0.127E-01    0.724E-01
RMM:  11    -0.410537336455E+03    0.13486E-02   -0.13146E-03   785   0.101E-01    0.379E-01
RMM:  12    -0.410537138428E+03    0.19803E-03   -0.54296E-04   787   0.593E-02    0.260E-01
RMM:  13    -0.410537493343E+03   -0.35492E-03   -0.54949E-04   787   0.599E-02    0.415E-01
RMM:  14    -0.410537143905E+03    0.34944E-03   -0.28676E-04   786   0.472E-02    0.279E-01
RMM:  15    -0.410536936096E+03    0.20781E-03   -0.11201E-04   785   0.289E-02    0.718E-02
RMM:  16    -0.410536933415E+03    0.26805E-05   -0.26485E-05   779   0.121E-02    0.690E-02
RMM:  17    -0.410536941165E+03   -0.77493E-05   -0.22822E-05   778   0.117E-02    0.658E-02
RMM:  18    -0.410536936564E+03    0.46003E-05   -0.15410E-05   779   0.107E-02    0.449E-02
RMM:  19    -0.410536936184E+03    0.38052E-06   -0.86022E-06   748   0.775E-03
   3 F= -.42754709E+03 E0= -.42595808E+03  d E =-.317803E+01
       N       E                     dE             d eps       ncg     rms          rms(c)
DAV:   1    -0.410526018647E+03    0.10918E-01   -0.24333E+00   786   0.203E+00    0.427E-01
RMM:   2    -0.410541985329E+03   -0.15967E-01   -0.64654E-02   854   0.400E-01    0.180E+00
RMM:   3    -0.410534247995E+03    0.77373E-02   -0.10023E-02   798   0.217E-01    0.154E+00
RMM:   4    -0.410534302155E+03   -0.54160E-04   -0.50219E-03   801   0.171E-01    0.144E+00
RMM:   5    -0.410534663611E+03   -0.36146E-03   -0.63748E-03   785   0.208E-01    0.144E+00
RMM:   6    -0.410533213337E+03    0.14503E-02   -0.54705E-03   786   0.193E-01    0.122E+00
RMM:   7    -0.410532263347E+03    0.94999E-03   -0.36760E-03   787   0.160E-01    0.112E+00
RMM:   8    -0.410529753554E+03    0.25098E-02   -0.20511E-03   788   0.122E-01    0.587E-01
RMM:   9    -0.410530073383E+03   -0.31983E-03   -0.17997E-03   783   0.109E-01    0.644E-01
RMM:  10    -0.410530746424E+03   -0.67304E-03   -0.18137E-03   783   0.110E-01    0.769E-01
RMM:  11    -0.410529210044E+03    0.15364E-02   -0.12202E-03   784   0.977E-02    0.365E-01
RMM:  12    -0.410528883001E+03    0.32704E-03   -0.40704E-04   784   0.535E-02    0.192E-01
RMM:  13    -0.410528965644E+03   -0.82643E-04   -0.25348E-04   786   0.400E-02    0.252E-01
RMM:  14    -0.410529037447E+03   -0.71804E-04   -0.20449E-04   785   0.365E-02    0.293E-01
RMM:  15    -0.410528812400E+03    0.22505E-03   -0.13322E-04   783   0.326E-02    0.115E-01
RMM:  16    -0.410528776304E+03    0.36096E-04   -0.30561E-05   783   0.143E-02    0.525E-02
RMM:  17    -0.410528777200E+03   -0.89544E-06   -0.14728E-05   766   0.929E-03    0.528E-02
RMM:  18    -0.410528782874E+03   -0.56741E-05   -0.13913E-05   779   0.951E-03    0.634E-02
RMM:  19    -0.410528774513E+03    0.83608E-05   -0.97615E-06   776   0.869E-03    0.347E-02
RMM:  20    -0.410528774759E+03   -0.24580E-06   -0.60065E-06   674   0.651E-03
   4 F= -.42753887E+03 E0= -.42594913E+03  d E =-.317949E+01
       N       E                     dE             d eps       ncg     rms          rms(c)
DAV:   1    -0.410529926147E+03   -0.11516E-02   -0.49297E+00   780   0.291E+00    0.465E-01
RMM:   2    -0.410548556019E+03   -0.18630E-01   -0.10196E-01   878   0.507E-01    0.182E+00
RMM:   3    -0.410542222258E+03    0.63338E-02   -0.15174E-02   801   0.244E-01    0.147E+00
RMM:   4    -0.410546156829E+03   -0.39346E-02   -0.66172E-03   799   0.192E-01    0.180E+00
RMM:   5    -0.410546105843E+03    0.50986E-04   -0.76719E-03   783   0.229E-01    0.180E+00
RMM:   6    -0.410540168740E+03    0.59371E-02   -0.58964E-03   786   0.204E-01    0.101E+00
RMM:   7    -0.410539975029E+03    0.19371E-03   -0.33455E-03   787   0.151E-01    0.103E+00
RMM:   8    -0.410538547120E+03    0.14279E-02   -0.21557E-03   787   0.122E-01    0.673E-01
RMM:   9    -0.410539212718E+03   -0.66560E-03   -0.21166E-03   785   0.119E-01    0.787E-01
RMM:  10    -0.410539223845E+03   -0.11128E-04   -0.20544E-03   785   0.120E-01    0.758E-01
RMM:  11    -0.410537701490E+03    0.15224E-02   -0.13649E-03   787   0.103E-01    0.385E-01
RMM:  12    -0.410537494859E+03    0.20663E-03   -0.48270E-04   786   0.575E-02    0.276E-01
RMM:  13    -0.410537662500E+03   -0.16764E-03   -0.47597E-04   787   0.557E-02    0.327E-01
RMM:  14    -0.410537497382E+03    0.16512E-03   -0.27634E-04   787   0.464E-02    0.253E-01
RMM:  15    -0.410537295154E+03    0.20223E-03   -0.12608E-04   782   0.319E-02    0.811E-02
RMM:  16    -0.410537284054E+03    0.11100E-04   -0.24052E-05   778   0.117E-02    0.591E-02
RMM:  17    -0.410537288807E+03   -0.47525E-05   -0.16056E-05   775   0.975E-03    0.635E-02
RMM:  18    -0.410537290232E+03   -0.14255E-05   -0.12220E-05   777   0.927E-03    0.621E-02
RMM:  19    -0.410537283644E+03    0.65886E-05   -0.83380E-06   754   0.795E-03    0.306E-02
RMM:  20    -0.410537288961E+03   -0.53170E-05   -0.79663E-06   738   0.731E-03    0.426E-02
RMM:  21    -0.410537292994E+03   -0.40328E-05   -0.64670E-06   696   0.687E-03    0.474E-02
RMM:  22    -0.410537288858E+03    0.41352E-05   -0.35819E-06   519   0.575E-03    0.164E-02
RMM:  23    -0.410537289240E+03   -0.38126E-06   -0.15899E-06   414   0.369E-03
   5 F= -.42754743E+03 E0= -.42595880E+03  d E =-.317727E+01
       N       E                     dE             d eps       ncg     rms          rms(c)
DAV:   1    -0.410521915282E+03    0.15374E-01   -0.24125E+00   786   0.196E+00    0.462E-01
RMM:   2    -0.410541556213E+03   -0.19641E-01   -0.77208E-02   812   0.408E-01    0.169E+00
RMM:   3    -0.410542198973E+03   -0.64276E-03   -0.16509E-02   803   0.249E-01    0.254E+00
RMM:   4    -0.410530728476E+03    0.11470E-01   -0.63045E-03   802   0.202E-01    0.132E+00
RMM:   5    -0.410528089464E+03    0.26390E-02   -0.49452E-03   790   0.182E-01    0.936E-01
RMM:   6    -0.410529237835E+03   -0.11484E-02   -0.37351E-03   787   0.149E-01    0.113E+00
RMM:   7    -0.410527457642E+03    0.17802E-02   -0.30150E-03   787   0.144E-01    0.857E-01
RMM:   8    -0.410526638904E+03    0.81874E-03   -0.17570E-03   787   0.109E-01    0.645E-01
RMM:   9    -0.410528748467E+03   -0.21096E-02   -0.28058E-03   785   0.134E-01    0.988E-01
RMM:  10    -0.410528561640E+03    0.18683E-03   -0.25348E-03   785   0.133E-01    0.928E-01
RMM:  11    -0.410526210164E+03    0.23515E-02   -0.17500E-03   782   0.118E-01    0.422E-01
RMM:  12    -0.410526000475E+03    0.20969E-03   -0.71394E-04   784   0.682E-02    0.340E-01
RMM:  13    -0.410526488458E+03   -0.48798E-03   -0.79117E-04   787   0.712E-02    0.507E-01
RMM:  14    -0.410525994535E+03    0.49392E-03   -0.43842E-04   784   0.586E-02    0.340E-01
RMM:  15    -0.410525664618E+03    0.32992E-03   -0.18327E-04   783   0.374E-02    0.105E-01
RMM:  16    -0.410525640199E+03    0.24419E-04   -0.36837E-05   783   0.140E-02    0.631E-02
RMM:  17    -0.410525649451E+03   -0.92517E-05   -0.28368E-05   776   0.128E-02    0.739E-02
RMM:  18    -0.410525647051E+03    0.24005E-05   -0.20097E-05   779   0.118E-02    0.694E-02
RMM:  19    -0.410525635756E+03    0.11294E-04   -0.11077E-05   769   0.913E-03    0.365E-02
RMM:  20    -0.410525635855E+03   -0.98582E-07   -0.64031E-06   677   0.646E-03
   6 F= -.42753561E+03 E0= -.42594570E+03  d E =-.317984E+01
       N       E                     dE             d eps       ncg     rms          rms(c)
DAV:   1    -0.410526654829E+03   -0.10191E-02   -0.48730E+00   795   0.293E+00    0.644E-01
RMM:   2    -0.410552718209E+03   -0.26063E-01   -0.16856E-01   783   0.716E-01    0.160E+00
RMM:   3    -0.410560261964E+03   -0.75438E-02   -0.28107E-02   798   0.348E-01    0.301E+00
RMM:   4    -0.410542271387E+03    0.17991E-01   -0.87789E-03   806   0.237E-01    0.125E+00
RMM:   5    -0.410543659391E+03   -0.13880E-02   -0.53061E-03   786   0.185E-01    0.155E+00
RMM:   6    -0.410542105283E+03    0.15541E-02   -0.51290E-03   789   0.178E-01    0.122E+00
RMM:   7    -0.410539776498E+03    0.23288E-02   -0.49624E-03   789   0.192E-01    0.913E-01
RMM:   8    -0.410543903328E+03   -0.41268E-02   -0.53824E-03   787   0.187E-01    0.147E+00
RMM:   9    -0.410549354985E+03   -0.54517E-02   -0.79462E-03   786   0.227E-01    0.198E+00
RMM:  10    -0.410541400182E+03    0.79548E-02   -0.56833E-03   787   0.210E-01    0.103E+00
RMM:  11    -0.410538471165E+03    0.29290E-02   -0.33035E-03   785   0.154E-01    0.485E-01
RMM:  12    -0.410539072592E+03   -0.60143E-03   -0.14685E-03   785   0.935E-02    0.699E-01
RMM:  13    -0.410539250147E+03   -0.17756E-03   -0.12960E-03   787   0.907E-02    0.689E-01
RMM:  14    -0.410538059405E+03    0.11907E-02   -0.74697E-04   785   0.780E-02    0.321E-01
RMM:  15    -0.410537766169E+03    0.29324E-03   -0.19055E-04   782   0.362E-02    0.928E-02
RMM:  16    -0.410537766654E+03   -0.48462E-06   -0.54813E-05   782   0.170E-02    0.909E-02
RMM:  17    -0.410537787300E+03   -0.20646E-04   -0.52458E-05   783   0.178E-02    0.114E-01
RMM:  18    -0.410537759963E+03    0.27336E-04   -0.32809E-05   783   0.157E-02    0.772E-02
RMM:  19    -0.410537748683E+03    0.11281E-04   -0.15293E-05   775   0.103E-02    0.405E-02
RMM:  20    -0.410537757093E+03   -0.84099E-05   -0.14949E-05   780   0.971E-03    0.604E-02
RMM:  21    -0.410537752515E+03    0.45771E-05   -0.93473E-06   769   0.824E-03    0.445E-02
RMM:  22    -0.410537747963E+03    0.45526E-05   -0.48908E-06   614   0.616E-03    0.181E-02
RMM:  23    -0.410537749950E+03   -0.19875E-05   -0.30663E-06   489   0.486E-03    0.245E-02
RMM:  24    -0.410537750406E+03   -0.45549E-06   -0.20991E-06   457   0.468E-03
   7 F= -.42754802E+03 E0= -.42595954E+03  d E =-.317697E+01
       N       E                     dE             d eps       ncg     rms          rms(c)
DAV:   1    -0.410530555402E+03    0.71945E-02   -0.23365E+00   780   0.206E+00    0.539E-01
RMM:   2    -0.410605803056E+03   -0.75248E-01   -0.10714E-01   796   0.556E-01    0.437E+00
RMM:   3    -0.410549392239E+03    0.56411E-01   -0.27652E-02   789   0.424E-01    0.260E+00
RMM:   4    -0.410538348528E+03    0.11044E-01   -0.85806E-03   798   0.221E-01    0.107E+00
RMM:   5    -0.410539494575E+03   -0.11460E-02   -0.51702E-03   787   0.183E-01    0.121E+00
RMM:   6    -0.410537596970E+03    0.18976E-02   -0.35494E-03   788   0.154E-01    0.866E-01
RMM:   7    -0.410537581526E+03    0.15444E-04   -0.24870E-03   786   0.127E-01    0.906E-01
RMM:   8    -0.410537100456E+03    0.48107E-03   -0.20043E-03   789   0.115E-01    0.792E-01
RMM:   9    -0.410537294750E+03   -0.19429E-03   -0.22894E-03   786   0.126E-01    0.775E-01
RMM:  10    -0.410538903827E+03   -0.16091E-02   -0.32950E-03   784   0.148E-01    0.101E+00
RMM:  11    -0.410537449003E+03    0.14548E-02   -0.26066E-03   788   0.141E-01    0.808E-01
RMM:  12    -0.410535997837E+03    0.14512E-02   -0.12210E-03   785   0.965E-02    0.389E-01
RMM:  13    -0.410536242572E+03   -0.24474E-03   -0.93557E-04   785   0.788E-02    0.475E-01
RMM:  14    -0.410536440907E+03   -0.19834E-03   -0.65163E-04   785   0.662E-02    0.561E-01
RMM:  15    -0.410535645093E+03    0.79581E-03   -0.39610E-04   786   0.570E-02    0.190E-01
RMM:  16    -0.410535546740E+03    0.98353E-04   -0.83318E-05   779   0.235E-02    0.843E-02
RMM:  17    -0.410535541402E+03    0.53382E-05   -0.37816E-05   778   0.148E-02    0.684E-02
RMM:  18    -0.410535553833E+03   -0.12431E-04   -0.29086E-05   785   0.135E-02    0.893E-02
RMM:  19    -0.410535535226E+03    0.18606E-04   -0.17351E-05   778   0.115E-02    0.474E-02
RMM:  20    -0.410535532526E+03    0.27000E-05   -0.81810E-06   741   0.744E-03    0.330E-02
RMM:  21    -0.410535537037E+03   -0.45103E-05   -0.68946E-06   702   0.670E-03    0.451E-02
RMM:  22    -0.410535534943E+03    0.20940E-05   -0.47663E-06   585   0.625E-03    0.276E-02
RMM:  23    -0.410535533638E+03    0.13047E-05   -0.25219E-06   460   0.484E-03    0.124E-02
RMM:  24    -0.410535535925E+03   -0.22867E-05   -0.16791E-06   433   0.378E-03    0.239E-02
RMM:  25    -0.410535536604E+03   -0.67888E-06   -0.13707E-06   424   0.382E-03
   8 F= -.42754556E+03 E0= -.42595665E+03  d E =-.317782E+01
       N       E                     dE             d eps       ncg     rms          rms(c)
DAV:   1    -0.410524883577E+03    0.10652E-01   -0.49976E+00   780   0.283E+00    0.116E+00
RMM:   2    -0.410831157491E+03   -0.30627E+00   -0.34878E-01   810   0.897E-01    0.701E+00
RMM:   3    -0.410749051941E+03    0.82106E-01   -0.12175E-01   783   0.886E-01    0.862E+00
RMM:   4    -0.410567755984E+03    0.18130E+00   -0.73368E-02   785   0.672E-01    0.351E+00
RMM:   5    -0.410538702611E+03    0.29053E-01   -0.36517E-02   783   0.494E-01    0.225E+00
RMM:   6    -0.410529844966E+03    0.88576E-02   -0.12856E-02   790   0.282E-01    0.133E+00
RMM:   7    -0.410534774825E+03   -0.49299E-02   -0.95561E-03   786   0.240E-01    0.184E+00
RMM:   8    -0.410534582559E+03    0.19227E-03   -0.84222E-03   788   0.231E-01    0.172E+00
RMM:   9    -0.410529421510E+03    0.51610E-02   -0.62447E-03   785   0.212E-01    0.102E+00
RMM:  10    -0.410528418230E+03    0.10033E-02   -0.38436E-03   789   0.157E-01    0.826E-01
RMM:  11    -0.410530963188E+03   -0.25450E-02   -0.39832E-03   788   0.162E-01    0.126E+00
RMM:  12    -0.410527651292E+03    0.33119E-02   -0.26964E-03   789   0.145E-01    0.627E-01
RMM:  13    -0.410526887556E+03    0.76374E-03   -0.15696E-03   789   0.107E-01    0.449E-01
RMM:  14    -0.410527170961E+03   -0.28341E-03   -0.83687E-04   788   0.731E-02    0.564E-01
RMM:  15    -0.410526573572E+03    0.59739E-03   -0.53206E-04   788   0.636E-02    0.333E-01
RMM:  16    -0.410526301763E+03    0.27181E-03   -0.17467E-04   783   0.370E-02    0.156E-01
RMM:  17    -0.410526263370E+03    0.38393E-04   -0.79008E-05   784   0.225E-02    0.100E-01
RMM:  18    -0.410526296927E+03   -0.33557E-04   -0.65977E-05   783   0.201E-02    0.137E-01
RMM:  19    -0.410526269471E+03    0.27456E-04   -0.43818E-05   782   0.181E-02    0.831E-02
RMM:  20    -0.410526263955E+03    0.55164E-05   -0.24871E-05   778   0.133E-02    0.578E-02
RMM:  21    -0.410526282394E+03   -0.18440E-04   -0.24991E-05   776   0.127E-02    0.912E-02
RMM:  22    -0.410526273095E+03    0.92993E-05   -0.18159E-05   777   0.116E-02    0.629E-02
RMM:  23    -0.410526262636E+03    0.10459E-04   -0.94212E-06   762   0.859E-03    0.192E-02
RMM:  24    -0.410526264042E+03   -0.14062E-05   -0.22948E-06   468   0.403E-03    0.233E-02
RMM:  25    -0.410526268216E+03   -0.41733E-05   -0.27869E-06   489   0.487E-03    0.240E-02
RMM:  26    -0.410526269163E+03   -0.94702E-06   -0.15800E-06   433   0.421E-03
   9 F= -.42753649E+03 E0= -.42594703E+03  d E =-.317893E+01
       N       E                     dE             d eps       ncg     rms          rms(c)
DAV:   1    -0.410537704962E+03   -0.11437E-01   -0.24651E+00   786   0.194E+00    0.836E-01
RMM:   2    -0.410757147510E+03   -0.21944E+00   -0.15324E-01   797   0.631E-01    0.717E+00
RMM:   3    -0.410612661072E+03    0.14449E+00   -0.79110E-02   785   0.714E-01    0.547E+00
RMM:   4    -0.410550921167E+03    0.61740E-01   -0.30294E-02   789   0.421E-01    0.222E+00
RMM:   5    -0.410542580413E+03    0.83408E-02   -0.14596E-02   788   0.312E-01    0.138E+00
RMM:   6    -0.410539223184E+03    0.33572E-02   -0.56865E-03   790   0.190E-01    0.856E-01
RMM:   7    -0.410542585406E+03   -0.33622E-02   -0.49479E-03   785   0.174E-01    0.141E+00
RMM:   8    -0.410542506911E+03    0.78495E-04   -0.46205E-03   789   0.175E-01    0.133E+00
RMM:   9    -0.410538515485E+03    0.39914E-02   -0.31178E-03   787   0.156E-01    0.663E-01
RMM:  10    -0.410537974520E+03    0.54096E-03   -0.18557E-03   787   0.111E-01    0.510E-01
RMM:  11    -0.410539570386E+03   -0.15959E-02   -0.19083E-03   787   0.113E-01    0.889E-01
RMM:  12    -0.410537860465E+03    0.17099E-02   -0.12093E-03   787   0.979E-02    0.447E-01
RMM:  13    -0.410537336850E+03    0.52362E-03   -0.59034E-04   784   0.666E-02    0.251E-01
RMM:  14    -0.410537394456E+03   -0.57606E-04   -0.26772E-04   781   0.406E-02    0.290E-01
RMM:  15    -0.410537336168E+03    0.58288E-04   -0.20557E-04   790   0.380E-02    0.230E-01
RMM:  16    -0.410537206666E+03    0.12950E-03   -0.91351E-05   786   0.272E-02    0.113E-01
RMM:  17    -0.410537181421E+03    0.25245E-04   -0.41901E-05   782   0.169E-02    0.600E-02
RMM:  18    -0.410537206022E+03   -0.24601E-04   -0.34059E-05   785   0.147E-02    0.969E-02
RMM:  19    -0.410537195209E+03    0.10812E-04   -0.22313E-05   782   0.130E-02    0.700E-02
RMM:  20    -0.410537186318E+03    0.88919E-05   -0.11612E-05   775   0.934E-03    0.342E-02
RMM:  21    -0.410537192637E+03   -0.63190E-05   -0.83144E-06   735   0.733E-03    0.454E-02
RMM:  22    -0.410537196169E+03   -0.35329E-05   -0.61385E-06   650   0.668E-03    0.381E-02
RMM:  23    -0.410537194426E+03    0.17432E-05   -0.33623E-06   503   0.563E-03    0.125E-02
RMM:  24    -0.410537195798E+03   -0.13720E-05   -0.11040E-06   415   0.302E-03    0.143E-02
RMM:  25    -0.410537200328E+03   -0.45296E-05   -0.12969E-06   429   0.330E-03    0.171E-02
RMM:  26    -0.410537202565E+03   -0.22372E-05   -0.83637E-07   406   0.302E-03    0.944E-03
RMM:  27    -0.410537203219E+03   -0.65405E-06   -0.26587E-07   401   0.157E-03
  10 F= -.42754728E+03 E0= -.42595854E+03  d E =-.317747E+01
       N       E                     dE             d eps       ncg     rms          rms(c)
DAV:   1    -0.410522103858E+03    0.15099E-01   -0.50785E+00   780   0.298E+00    0.877E-01
RMM:   2    -0.410697895330E+03   -0.17579E+00   -0.24355E-01   798   0.750E-01    0.549E+00
RMM:   3    -0.410631194013E+03    0.66701E-01   -0.67999E-02   784   0.651E-01    0.604E+00
RMM:   4    -0.410546684190E+03    0.84510E-01   -0.35730E-02   785   0.466E-01    0.247E+00
RMM:   5    -0.410534315237E+03    0.12369E-01   -0.18974E-02   784   0.356E-01    0.163E+00
RMM:   6    -0.410530761437E+03    0.35538E-02   -0.79918E-03   787   0.225E-01    0.110E+00
RMM:   7    -0.410535986842E+03   -0.52254E-02   -0.77200E-03   784   0.219E-01    0.170E+00
RMM:   8    -0.410533914784E+03    0.20721E-02   -0.58689E-03   789   0.201E-01    0.144E+00
RMM:   9    -0.410529760075E+03    0.41547E-02   -0.38570E-03   785   0.169E-01    0.767E-01
RMM:  10    -0.410529478890E+03    0.28119E-03   -0.24914E-03   785   0.126E-01    0.669E-01
RMM:  11    -0.410531840255E+03   -0.23614E-02   -0.29068E-03   788   0.139E-01    0.111E+00
RMM:  12    -0.410529165865E+03    0.26744E-02   -0.19035E-03   790   0.123E-01    0.537E-01
RMM:  13    -0.410528456128E+03    0.70974E-03   -0.98603E-04   788   0.853E-02    0.334E-01
RMM:  14    -0.410528537276E+03   -0.81148E-04   -0.44825E-04   790   0.529E-02    0.389E-01
RMM:  15    -0.410528275576E+03    0.26170E-03   -0.28881E-04   791   0.459E-02    0.240E-01
RMM:  16    -0.410528134864E+03    0.14071E-03   -0.10298E-04   782   0.283E-02    0.112E-01
RMM:  17    -0.410528118833E+03    0.16031E-04   -0.52204E-05   782   0.184E-02    0.753E-02
RMM:  18    -0.410528155881E+03   -0.37048E-04   -0.51473E-05   780   0.180E-02    0.124E-01
RMM:  19    -0.410528127313E+03    0.28567E-04   -0.32977E-05   780   0.161E-02    0.772E-02
RMM:  20    -0.410528115174E+03    0.12139E-04   -0.15599E-05   775   0.106E-02    0.431E-02
RMM:  21    -0.410528121241E+03   -0.60672E-05   -0.12986E-05   770   0.903E-03    0.605E-02
RMM:  22    -0.410528119536E+03    0.17055E-05   -0.10163E-05   763   0.835E-03    0.508E-02
RMM:  23    -0.410528113115E+03    0.64210E-05   -0.57152E-06   668   0.686E-03    0.164E-02
RMM:  24    -0.410528113866E+03   -0.75170E-06   -0.15620E-06   434   0.353E-03
  11 F= -.42753828E+03 E0= -.42594868E+03  d E =-.317920E+01
       N       E                     dE             d eps       ncg     rms          rms(c)
DAV:   1    -0.410528812307E+03   -0.69919E-03   -0.24456E+00   780   0.199E+00    0.519E-01
RMM:   2    -0.410593955932E+03   -0.65144E-01   -0.80359E-02   794   0.444E-01    0.407E+00
RMM:   3    -0.410545719196E+03    0.48237E-01   -0.22683E-02   790   0.378E-01    0.265E+00
RMM:   4    -0.410534920929E+03    0.10798E-01   -0.88934E-03   792   0.225E-01    0.123E+00
RMM:   5    -0.410535332298E+03   -0.41137E-03   -0.67199E-03   787   0.207E-01    0.121E+00
RMM:   6    -0.410534770941E+03    0.56136E-03   -0.52075E-03   786   0.184E-01    0.109E+00
RMM:   7    -0.410536254047E+03   -0.14831E-02   -0.46096E-03   787   0.173E-01    0.135E+00
RMM:   8    -0.410533272884E+03    0.29812E-02   -0.30496E-03   787   0.148E-01    0.843E-01
RMM:   9    -0.410532215388E+03    0.10575E-02   -0.19327E-03   785   0.116E-01    0.570E-01
RMM:  10    -0.410532942930E+03   -0.72754E-03   -0.18838E-03   785   0.110E-01    0.711E-01
RMM:  11    -0.410532354590E+03    0.58834E-03   -0.13244E-03   785   0.996E-02    0.608E-01
RMM:  12    -0.410531389779E+03    0.96481E-03   -0.59023E-04   784   0.683E-02    0.224E-01
RMM:  13    -0.410531380855E+03    0.89236E-05   -0.31424E-04   784   0.453E-02    0.226E-01
RMM:  14    -0.410531580554E+03   -0.19970E-03   -0.24938E-04   785   0.393E-02    0.347E-01
RMM:  15    -0.410531324043E+03    0.25651E-03   -0.16497E-04   786   0.362E-02    0.161E-01
RMM:  16    -0.410531259653E+03    0.64390E-04   -0.50192E-05   776   0.191E-02    0.743E-02
RMM:  17    -0.410531256179E+03    0.34741E-05   -0.26678E-05   775   0.127E-02    0.556E-02
RMM:  18    -0.410531269013E+03   -0.12834E-04   -0.20928E-05   782   0.115E-02    0.724E-02
RMM:  19    -0.410531261418E+03    0.75949E-05   -0.13037E-05   777   0.993E-03    0.460E-02
RMM:  20    -0.410531261870E+03   -0.45187E-06   -0.80123E-06   739   0.739E-03
  12 F= -.42754113E+03 E0= -.42595185E+03  d E =-.317856E+01
       N       E                     dE             d eps       ncg     rms          rms(c)
DAV:   1    -0.410523679800E+03    0.75816E-02   -0.49303E+00   780   0.283E+00    0.613E-01
RMM:   2    -0.410538725073E+03   -0.15045E-01   -0.11145E-01   815   0.463E-01    0.160E+00
RMM:   3    -0.410541179427E+03   -0.24544E-02   -0.14474E-02   795   0.264E-01    0.207E+00
RMM:   4    -0.410554362963E+03   -0.13184E-01   -0.14264E-02   789   0.290E-01    0.299E+00
RMM:   5    -0.410545355884E+03    0.90071E-02   -0.13982E-02   786   0.319E-01    0.242E+00
RMM:   6    -0.410531231657E+03    0.14124E-01   -0.75498E-03   784   0.244E-01    0.834E-01
RMM:   7    -0.410532208532E+03   -0.97687E-03   -0.36846E-03   784   0.157E-01    0.972E-01
RMM:   8    -0.410534425674E+03   -0.22171E-02   -0.40476E-03   785   0.163E-01    0.127E+00
RMM:   9    -0.410532573333E+03    0.18523E-02   -0.30462E-03   785   0.152E-01    0.979E-01
RMM:  10    -0.410530218443E+03    0.23549E-02   -0.17358E-03   783   0.114E-01    0.448E-01
RMM:  11    -0.410529925282E+03    0.29316E-03   -0.80167E-04   785   0.729E-02    0.359E-01
RMM:  12    -0.410529839523E+03    0.85759E-04   -0.47669E-04   784   0.558E-02    0.281E-01
RMM:  13    -0.410529921163E+03   -0.81641E-04   -0.45371E-04   785   0.561E-02    0.319E-01
RMM:  14    -0.410529780879E+03    0.14028E-03   -0.27318E-04   786   0.444E-02    0.251E-01
RMM:  15    -0.410529628093E+03    0.15279E-03   -0.14762E-04   785   0.329E-02    0.139E-01
RMM:  16    -0.410529589665E+03    0.38427E-04   -0.39989E-05   783   0.161E-02    0.686E-02
RMM:  17    -0.410529594329E+03   -0.46637E-05   -0.27163E-05   778   0.130E-02    0.732E-02
RMM:  18    -0.410529588875E+03    0.54540E-05   -0.17325E-05   783   0.108E-02    0.613E-02
RMM:  19    -0.410529580855E+03    0.80206E-05   -0.95703E-06   768   0.846E-03    0.322E-02
RMM:  20    -0.410529585901E+03   -0.50464E-05   -0.84420E-06   744   0.733E-03    0.478E-02
RMM:  21    -0.410529589250E+03   -0.33489E-05   -0.77302E-06   698   0.728E-03    0.520E-02
RMM:  22    -0.410529582754E+03    0.64963E-05   -0.45092E-06   588   0.635E-03    0.172E-02
RMM:  23    -0.410529583328E+03   -0.57407E-06   -0.19496E-06   434   0.401E-03
  13 F= -.42753996E+03 E0= -.42595090E+03  d E =-.317811E+01
       N       E                     dE             d eps       ncg     rms          rms(c)
DAV:   1    -0.410529632710E+03   -0.49957E-04   -0.14088E+00   780   0.149E+00    0.416E-01
RMM:   2    -0.410537714433E+03   -0.80817E-02   -0.42163E-02   877   0.265E-01    0.112E+00
RMM:   3    -0.410541775128E+03   -0.40607E-02   -0.95050E-03   797   0.210E-01    0.198E+00
RMM:   4    -0.410539631641E+03    0.21435E-02   -0.56118E-03   796   0.186E-01    0.169E+00
RMM:   5    -0.410535236469E+03    0.43952E-02   -0.59537E-03   784   0.204E-01    0.116E+00
RMM:   6    -0.410533979800E+03    0.12567E-02   -0.34797E-03   784   0.151E-01    0.950E-01
RMM:   7    -0.410532409783E+03    0.15700E-02   -0.21734E-03   788   0.125E-01    0.635E-01
RMM:   8    -0.410531733739E+03    0.67604E-03   -0.92938E-04   787   0.806E-02    0.405E-01
RMM:   9    -0.410532262047E+03   -0.52831E-03   -0.94582E-04   786   0.775E-02    0.557E-01
RMM:  10    -0.410532694426E+03   -0.43238E-03   -0.10764E-03   783   0.854E-02    0.645E-01
RMM:  11    -0.410531613978E+03    0.10804E-02   -0.72546E-04   784   0.773E-02    0.297E-01
RMM:  12    -0.410531388629E+03    0.22535E-03   -0.21526E-04   782   0.384E-02    0.136E-01
RMM:  13    -0.410531453638E+03   -0.65009E-04   -0.15341E-04   782   0.310E-02    0.198E-01
RMM:  14    -0.410531456205E+03   -0.25666E-05   -0.10106E-04   786   0.259E-02    0.202E-01
RMM:  15    -0.410531353180E+03    0.10302E-03   -0.66190E-05   782   0.228E-02    0.760E-02
RMM:  16    -0.410531348401E+03    0.47795E-05   -0.19775E-05   773   0.112E-02    0.615E-02
RMM:  17    -0.410531350173E+03   -0.17727E-05   -0.17377E-05   776   0.104E-02    0.525E-02
RMM:  18    -0.410531343705E+03    0.64685E-05   -0.10135E-05   771   0.884E-03    0.329E-02
RMM:  19    -0.410531342161E+03    0.15443E-05   -0.28502E-06   491   0.476E-03    0.224E-02
RMM:  20    -0.410531345145E+03   -0.29839E-05   -0.42448E-06   581   0.561E-03    0.304E-02
RMM:  21    -0.410531347274E+03   -0.21293E-05   -0.34033E-06   503   0.546E-03    0.350E-02
RMM:  22    -0.410531344784E+03    0.24899E-05   -0.19773E-06   451   0.472E-03    0.119E-02
RMM:  23    -0.410531345063E+03   -0.27887E-06   -0.71029E-07   405   0.249E-03
  14 F= -.42754153E+03 E0= -.42595231E+03  d E =-.317845E+01
       N       E                     dE             d eps       ncg     rms          rms(c)
DAV:   1    -0.410533038933E+03   -0.16941E-02   -0.27755E-01   780   0.539E-01    0.421E-01
RMM:   2    -0.410582904960E+03   -0.49866E-01   -0.32263E-02   795   0.304E-01    0.355E+00
RMM:   3    -0.410546074762E+03    0.36830E-01   -0.19796E-02   786   0.356E-01    0.263E+00
RMM:   4    -0.410535812251E+03    0.10263E-01   -0.73354E-03   788   0.207E-01    0.109E+00
RMM:   5    -0.410534004750E+03    0.18075E-02   -0.36928E-03   790   0.159E-01    0.706E-01
RMM:   6    -0.410533310476E+03    0.69427E-03   -0.15301E-03   790   0.995E-02    0.491E-01
RMM:   7    -0.410534381519E+03   -0.10710E-02   -0.14673E-03   783   0.969E-02    0.790E-01
RMM:   8    -0.410533814906E+03    0.56661E-03   -0.11386E-03   786   0.903E-02    0.634E-01
RMM:   9    -0.410532881696E+03    0.93321E-03   -0.68520E-04   784   0.732E-02    0.293E-01
RMM:  10    -0.410532785262E+03    0.96433E-04   -0.35389E-04   785   0.479E-02    0.227E-01
RMM:  11    -0.410533095793E+03   -0.31053E-03   -0.39112E-04   785   0.508E-02    0.386E-01
RMM:  12    -0.410532789293E+03    0.30650E-03   -0.25816E-04   787   0.449E-02    0.215E-01
RMM:  13    -0.410532675292E+03    0.11400E-03   -0.14324E-04   782   0.328E-02    0.122E-01
RMM:  14    -0.410532709251E+03   -0.33959E-04   -0.72252E-05   779   0.212E-02    0.165E-01
RMM:  15    -0.410532671971E+03    0.37280E-04   -0.50058E-05   786   0.189E-02    0.111E-01
RMM:  16    -0.410532640997E+03    0.30974E-04   -0.19834E-05   776   0.127E-02    0.483E-02
RMM:  17    -0.410532635638E+03    0.53588E-05   -0.70462E-06   714   0.686E-03    0.203E-02
RMM:  18    -0.410532639784E+03   -0.41465E-05   -0.46767E-06   609   0.559E-03    0.373E-02
RMM:  19    -0.410532639255E+03    0.52914E-06   -0.32680E-06   502   0.551E-03
  15 F= -.42754269E+03 E0= -.42595351E+03  d E =-.317837E+01
       N       E                     dE             d eps       ncg     rms          rms(c)
DAV:   1    -0.410532113703E+03    0.52608E-03   -0.14049E-01   795   0.382E-01    0.363E-01
RMM:   2    -0.410567638039E+03   -0.35524E-01   -0.25423E-02   802   0.266E-01    0.276E+00
RMM:   3    -0.410547060021E+03    0.20578E-01   -0.14323E-02   783   0.305E-01    0.254E+00
RMM:   4    -0.410534366114E+03    0.12694E-01   -0.63057E-03   791   0.193E-01    0.997E-01
RMM:   5    -0.410532763808E+03    0.16023E-02   -0.30198E-03   788   0.143E-01    0.622E-01
RMM:   6    -0.410532087171E+03    0.67664E-03   -0.10702E-03   791   0.824E-02    0.353E-01
RMM:   7    -0.410532635969E+03   -0.54880E-03   -0.83506E-04   783   0.726E-02    0.557E-01
RMM:   8    -0.410532463103E+03    0.17287E-03   -0.63126E-04   787   0.666E-02    0.495E-01
RMM:   9    -0.410531916055E+03    0.54705E-03   -0.40569E-04   787   0.561E-02    0.245E-01
RMM:  10    -0.410531835554E+03    0.80500E-04   -0.21727E-04   782   0.375E-02    0.177E-01
RMM:  11    -0.410532085778E+03   -0.25022E-03   -0.26836E-04   784   0.418E-02    0.332E-01
RMM:  12    -0.410531879038E+03    0.20674E-03   -0.18997E-04   784   0.384E-02    0.196E-01
RMM:  13    -0.410531778499E+03    0.10054E-03   -0.10479E-04   782   0.285E-02    0.114E-01
RMM:  14    -0.410531773157E+03    0.53425E-05   -0.41752E-05   779   0.160E-02    0.101E-01
RMM:  15    -0.410531771193E+03    0.19632E-05   -0.31858E-05   781   0.147E-02    0.918E-02
RMM:  16    -0.410531749756E+03    0.21437E-04   -0.14716E-05   774   0.110E-02    0.440E-02
RMM:  17    -0.410531744870E+03    0.48857E-05   -0.54773E-06   655   0.628E-03    0.170E-02
RMM:  18    -0.410531746753E+03   -0.18825E-05   -0.31214E-06   487   0.483E-03    0.271E-02
RMM:  19    -0.410531745755E+03    0.99787E-06   -0.21051E-06   448   0.477E-03
  16 F= -.42754188E+03 E0= -.42595252E+03  d E =-.317871E+01
       N       E                     dE             d eps       ncg     rms          rms(c)
DAV:   1    -0.410534309723E+03   -0.25630E-02   -0.26569E-01   798   0.509E-01    0.295E-01
RMM:   2    -0.410555606774E+03   -0.21297E-01   -0.15157E-02   797   0.209E-01    0.232E+00
RMM:   3    -0.410539742877E+03    0.15864E-01   -0.86176E-03   785   0.237E-01    0.176E+00
RMM:   4    -0.410535832354E+03    0.39105E-02   -0.32759E-03   791   0.139E-01    0.733E-01
RMM:   5    -0.410535106946E+03    0.72541E-03   -0.18109E-03   789   0.111E-01    0.518E-01
RMM:   6    -0.410534865482E+03    0.24146E-03   -0.94852E-04   787   0.790E-02    0.411E-01
RMM:   7    -0.410535732026E+03   -0.86654E-03   -0.11131E-03   783   0.851E-02    0.677E-01
RMM:   8    -0.410535174592E+03    0.55743E-03   -0.79406E-04   784   0.767E-02    0.519E-01
RMM:   9    -0.410534551425E+03    0.62317E-03   -0.42647E-04   785   0.572E-02    0.232E-01
RMM:  10    -0.410534491481E+03    0.59944E-04   -0.21413E-04   783   0.368E-02    0.176E-01
RMM:  11    -0.410534673692E+03   -0.18221E-03   -0.22052E-04   785   0.380E-02    0.296E-01
RMM:  12    -0.410534498329E+03    0.17536E-03   -0.13986E-04   786   0.331E-02    0.166E-01
RMM:  13    -0.410534426647E+03    0.71683E-04   -0.71309E-05   781   0.233E-02    0.896E-02
RMM:  14    -0.410534426898E+03   -0.25174E-06   -0.28570E-05   775   0.132E-02    0.879E-02
RMM:  15    -0.410534423460E+03    0.34378E-05   -0.21124E-05   781   0.120E-02    0.739E-02
RMM:  16    -0.410534409741E+03    0.13719E-04   -0.98388E-06   770   0.901E-03    0.355E-02
RMM:  17    -0.410534407024E+03    0.27178E-05   -0.36091E-06   528   0.522E-03    0.156E-02
RMM:  18    -0.410534409664E+03   -0.26403E-05   -0.31439E-06   485   0.488E-03    0.272E-02
RMM:  19    -0.410534409173E+03    0.49047E-06   -0.23097E-06   455   0.488E-03
  17 F= -.42754451E+03 E0= -.42595551E+03  d E =-.317801E+01
       N       E                     dE             d eps       ncg     rms          rms(c)
DAV:   1    -0.410534532665E+03   -0.12300E-03   -0.13283E-01   780   0.337E-01    0.104E-01
RMM:   2    -0.410534953987E+03   -0.42132E-03   -0.19193E-03   793   0.640E-02    0.248E-01
RMM:   3    -0.410534959244E+03   -0.52571E-05   -0.47388E-04   799   0.481E-02    0.311E-01
RMM:   4    -0.410535087922E+03   -0.12868E-03   -0.34809E-04   788   0.451E-02    0.339E-01
RMM:   5    -0.410535133066E+03   -0.45143E-04   -0.45864E-04   782   0.551E-02    0.369E-01
RMM:   6    -0.410535228891E+03   -0.95825E-04   -0.25303E-04   778   0.407E-02    0.408E-01
RMM:   7    -0.410534909296E+03    0.31960E-03   -0.22996E-04   784   0.397E-02    0.224E-01
RMM:   8    -0.410534833440E+03    0.75855E-04   -0.10685E-04   781   0.272E-02    0.151E-01
RMM:   9    -0.410534800933E+03    0.32507E-04   -0.68869E-05   782   0.208E-02    0.102E-01
RMM:  10    -0.410534847306E+03   -0.46373E-04   -0.62206E-05   780   0.202E-02    0.161E-01
RMM:  11    -0.410534797381E+03    0.49925E-04   -0.44896E-05   780   0.187E-02    0.892E-02
RMM:  12    -0.410534775321E+03    0.22059E-04   -0.19729E-05   777   0.123E-02    0.411E-02
RMM:  13    -0.410534775755E+03   -0.43328E-06   -0.73968E-06   707   0.694E-03
  18 F= -.42754450E+03 E0= -.42595560E+03  d E =-.317782E+01
       N       E                     dE             d eps       ncg     rms          rms(c)
DAV:   1    -0.410530124053E+03    0.46513E-02   -0.27048E-01   780   0.499E-01    0.357E-01
RMM:   2    -0.410559714351E+03   -0.29590E-01   -0.23122E-02   796   0.261E-01    0.255E+00
RMM:   3    -0.410541549599E+03    0.18165E-01   -0.13464E-02   782   0.296E-01    0.227E+00
RMM:   4    -0.410532778172E+03    0.87714E-02   -0.52156E-03   788   0.178E-01    0.102E+00
RMM:   5    -0.410531358394E+03    0.14198E-02   -0.28486E-03   786   0.138E-01    0.749E-01
RMM:   6    -0.410530354318E+03    0.10041E-02   -0.12422E-03   792   0.885E-02    0.381E-01
RMM:   7    -0.410531169459E+03   -0.81514E-03   -0.10808E-03   786   0.828E-02    0.647E-01
RMM:   8    -0.410530742711E+03    0.42675E-03   -0.84266E-04   784   0.778E-02    0.493E-01
RMM:   9    -0.410530108662E+03    0.63405E-03   -0.57099E-04   784   0.668E-02    0.231E-01
RMM:  10    -0.410530082489E+03    0.26173E-04   -0.24643E-04   785   0.397E-02    0.215E-01
RMM:  11    -0.410530279255E+03   -0.19677E-03   -0.29371E-04   785   0.439E-02    0.322E-01
RMM:  12    -0.410530082366E+03    0.19689E-03   -0.20181E-04   785   0.396E-02    0.207E-01
RMM:  13    -0.410529982963E+03    0.99402E-04   -0.11449E-04   783   0.294E-02    0.119E-01
RMM:  14    -0.410530001119E+03   -0.18155E-04   -0.56792E-05   778   0.187E-02    0.144E-01
RMM:  15    -0.410529980360E+03    0.20759E-04   -0.41227E-05   785   0.171E-02    0.109E-01
RMM:  16    -0.410529949730E+03    0.30630E-04   -0.18899E-05   779   0.124E-02    0.455E-02
RMM:  17    -0.410529944967E+03    0.47631E-05   -0.68012E-06   709   0.684E-03    0.183E-02
RMM:  18    -0.410529948616E+03   -0.36495E-05   -0.38098E-06   543   0.518E-03    0.349E-02
RMM:  19    -0.410529948056E+03    0.56070E-06   -0.27168E-06   488   0.525E-03
  19 F= -.42754042E+03 E0= -.42595101E+03  d E =-.317882E+01
