 vasp.5.4.4.18Apr17-6-g9f103f2a35 (build Dec 15 2018 21:27:54) gamma-only       
  
 executed on             LinuxIFC date 2022.03.01  19:45:03
 running on   72 total cores
 distrk:  each k-point on   72 cores,    1 groups
 distr:  one band on NCORES_PER_BAND=  24 cores,    3 groups


--------------------------------------------------------------------------------------------------------


 INCAR:
 POTCAR:    PAW_PBE Ni 02Aug2007                  
 POTCAR:    PAW_PBE Fe 06Sep2000                  
 POTCAR:    PAW_PBE O 08Apr2002                   
 POTCAR:    PAW_PBE H 15Jun2001                   

 ----------------------------------------------------------------------------- 
|                                                                             |
|           W    W    AA    RRRRR   N    N  II  N    N   GGGG   !!!           |
|           W    W   A  A   R    R  NN   N  II  NN   N  G    G  !!!           |
|           W    W  A    A  R    R  N N  N  II  N N  N  G       !!!           |
|           W WW W  AAAAAA  RRRRR   N  N N  II  N  N N  G  GGG   !            |
|           WW  WW  A    A  R   R   N   NN  II  N   NN  G    G                |
|           W    W  A    A  R    R  N    N  II  N    N   GGGG   !!!           |
|                                                                             |
|      For optimal performance we recommend to set                            |
|        NCORE= 4 - approx SQRT( number of cores)                             |
|      NCORE specifies how many cores store one orbital (NPAR=cpu/NCORE).     |
|      This setting can  greatly improve the performance of VASP for DFT.     |
|      The default,   NCORE=1            might be grossly inefficient         |
|      on modern multi-core architectures or massively parallel machines.     |
|      Do your own testing !!!!                                               |
|      Unfortunately you need to use the default for GW and RPA calculations. |
|      (for HF NCORE is supported but not extensively tested yet)             |
|                                                                             |
 ----------------------------------------------------------------------------- 

 POTCAR:    PAW_PBE Ni 02Aug2007                  
   VRHFIN =Ni:                                                                  
   LEXCH  = PE                                                                  
   EATOM  =  1077.6739 eV,   79.2068 Ry                                         
                                                                                
   TITEL  = PAW_PBE Ni 02Aug2007                                                
   LULTRA =        F    use ultrasoft PP ?                                      
   IUNSCR =        1    unscreen: 0-lin 1-nonlin 2-no                           
   RPACOR =    2.000    partial core radius                                     
   POMASS =   58.690; ZVAL   =   10.000    mass and valenz                      
   RCORE  =    2.300    outmost cutoff radius                                   
   RWIGS  =    2.430; RWIGS  =    1.286    wigner-seitz radius (au A)           
   ENMAX  =  269.532; ENMIN  =  202.149 eV                                      
   RCLOC  =    1.201    cutoff for local pot                                    
   LCOR   =        T    correct aug charges                                     
   LPAW   =        T    paw PP                                                  
   EAUG   =  544.565                                                            
   DEXC   =    0.000                                                            
   RMAX   =    2.357    core radius for proj-oper                               
   RAUG   =    1.300    factor for augmentation sphere                          
   RDEP   =    2.390    radius for radial grids                                 
   RDEPT  =    1.838    core radius for aug-charge                              
                                                                                
   Atomic configuration                                                         
    9 entries                                                                   
     n  l   j            E        occ.                                          
     1  0  0.50     -8206.4253   2.0000                                         
     2  0  0.50      -976.1748   2.0000                                         
     2  1  1.50      -839.0571   6.0000                                         
     3  0  0.50      -105.9991   2.0000                                         
     3  1  1.50       -66.4603   6.0000                                         
     3  2  2.50        -4.6458   9.0000                                         
     4  0  0.50        -4.4926   1.0000                                         
     4  1  1.50        -4.0817   0.0000                                         
     4  3  2.50        -1.3606   0.0000                                         
   Description                                                                  
     l       E           TYP  RCUT    TYP  RCUT                                 
     2     -4.6457903     23  2.300                                             
     2     -6.0063729     23  2.300                                             
     0     -4.4925590     23  2.300                                             
     0      5.0102601     23  2.300                                             
     1     -2.7211652     23  2.300                                             
     1     16.5183231     23  2.300                                             
  local pseudopotential read in
  partial core-charges read in
  partial kinetic energy density read in
  atomic valenz-charges read in
  non local Contribution for L=           2  read in
    real space projection operators read in
  non local Contribution for L=           2  read in
    real space projection operators read in
  non local Contribution for L=           0  read in
    real space projection operators read in
  non local Contribution for L=           0  read in
    real space projection operators read in
  non local Contribution for L=           1  read in
    real space projection operators read in
  non local Contribution for L=           1  read in
    real space projection operators read in
    PAW grid and wavefunctions read in
 
   number of l-projection  operators is LMAX  =           6
   number of lm-projection operators is LMMAX =          18
 
 POTCAR:    PAW_PBE Fe 06Sep2000                  
   VRHFIN =Fe:  d7 s1                                                           
   LEXCH  = PE                                                                  
   EATOM  =   594.3153 eV,   43.6809 Ry                                         
                                                                                
   TITEL  = PAW_PBE Fe 06Sep2000                                                
   LULTRA =        F    use ultrasoft PP ?                                      
   IUNSCR =        1    unscreen: 0-lin 1-nonlin 2-no                           
   RPACOR =    2.000    partial core radius                                     
   POMASS =   55.847; ZVAL   =    8.000    mass and valenz                      
   RCORE  =    2.300    outmost cutoff radius                                   
   RWIGS  =    2.460; RWIGS  =    1.302    wigner-seitz radius (au A)           
   ENMAX  =  267.882; ENMIN  =  200.911 eV                                      
   RCLOC  =    1.701    cutoff for local pot                                    
   LCOR   =        T    correct aug charges                                     
   LPAW   =        T    paw PP                                                  
   EAUG   =  511.368                                                            
   DEXC   =    0.000                                                            
   RMAX   =    2.356    core radius for proj-oper                               
   RAUG   =    1.300    factor for augmentation sphere                          
   RDEP   =    2.442    radius for radial grids                                 
   RDEPT  =    1.890    core radius for aug-charge                              
                                                                                
   Atomic configuration                                                         
    9 entries                                                                   
     n  l   j            E        occ.                                          
     1  0  0.50     -6993.8440   2.0000                                         
     2  0  0.50      -814.6047   2.0000                                         
     2  1  1.50      -693.3689   6.0000                                         
     3  0  0.50       -89.4732   2.0000                                         
     3  1  1.50       -55.6373   6.0000                                         
     3  2  2.50        -3.8151   7.0000                                         
     4  0  0.50        -4.2551   1.0000                                         
     4  1  1.50        -3.4015   0.0000                                         
     4  3  2.50        -1.3606   0.0000                                         
   Description                                                                  
     l       E           TYP  RCUT    TYP  RCUT                                 
     2     -3.8151135     23  2.300                                             
     2     -5.1756961     23  2.300                                             
     0     -4.2550963     23  2.300                                             
     0      7.2035603     23  2.300                                             
     1     -2.7211652     23  2.300                                             
     1     18.4316424     23  2.300                                             
  local pseudopotential read in
  partial core-charges read in
  partial kinetic energy density read in
  atomic valenz-charges read in
  non local Contribution for L=           2  read in
    real space projection operators read in
  non local Contribution for L=           2  read in
    real space projection operators read in
  non local Contribution for L=           0  read in
    real space projection operators read in
  non local Contribution for L=           0  read in
    real space projection operators read in
  non local Contribution for L=           1  read in
    real space projection operators read in
  non local Contribution for L=           1  read in
    real space projection operators read in
    PAW grid and wavefunctions read in
 
   number of l-projection  operators is LMAX  =           6
   number of lm-projection operators is LMMAX =          18
 
 POTCAR:    PAW_PBE O 08Apr2002                   
   VRHFIN =O: s2p4                                                              
   LEXCH  = PE                                                                  
   EATOM  =   432.3788 eV,   31.7789 Ry                                         
                                                                                
   TITEL  = PAW_PBE O 08Apr2002                                                 
   LULTRA =        F    use ultrasoft PP ?                                      
   IUNSCR =        1    unscreen: 0-lin 1-nonlin 2-no                           
   RPACOR =    1.200    partial core radius                                     
   POMASS =   16.000; ZVAL   =    6.000    mass and valenz                      
   RCORE  =    1.520    outmost cutoff radius                                   
   RWIGS  =    1.550; RWIGS  =    0.820    wigner-seitz radius (au A)           
   ENMAX  =  400.000; ENMIN  =  300.000 eV                                      
   ICORE  =        2    local potential                                         
   LCOR   =        T    correct aug charges                                     
   LPAW   =        T    paw PP                                                  
   EAUG   =  605.392                                                            
   DEXC   =    0.000                                                            
   RMAX   =    1.553    core radius for proj-oper                               
   RAUG   =    1.300    factor for augmentation sphere                          
   RDEP   =    1.550    radius for radial grids                                 
   RDEPT  =    1.329    core radius for aug-charge                              
                                                                                
   Atomic configuration                                                         
    4 entries                                                                   
     n  l   j            E        occ.                                          
     1  0  0.50      -514.6923   2.0000                                         
     2  0  0.50       -23.9615   2.0000                                         
     2  1  0.50        -9.0305   4.0000                                         
     3  2  1.50        -9.5241   0.0000                                         
   Description                                                                  
     l       E           TYP  RCUT    TYP  RCUT                                 
     0    -23.9615318     23  1.200                                             
     0     -9.5240782     23  1.200                                             
     1     -9.0304911     23  1.520                                             
     1      8.1634956     23  1.520                                             
     2     -9.5240782      7  1.500                                             
  local pseudopotential read in
  partial core-charges read in
  partial kinetic energy density read in
  kinetic energy density of atom read in
  atomic valenz-charges read in
  non local Contribution for L=           0  read in
    real space projection operators read in
  non local Contribution for L=           0  read in
    real space projection operators read in
  non local Contribution for L=           1  read in
    real space projection operators read in
  non local Contribution for L=           1  read in
    real space projection operators read in
    PAW grid and wavefunctions read in
 
   number of l-projection  operators is LMAX  =           4
   number of lm-projection operators is LMMAX =           8
 
 POTCAR:    PAW_PBE H 15Jun2001                   
   VRHFIN =H: ultrasoft test                                                    
   LEXCH  = PE                                                                  
   EATOM  =    12.4884 eV,    0.9179 Ry                                         
                                                                                
   TITEL  = PAW_PBE H 15Jun2001                                                 
   LULTRA =        F    use ultrasoft PP ?                                      
   IUNSCR =        0    unscreen: 0-lin 1-nonlin 2-no                           
   RPACOR =    0.000    partial core radius                                     
   POMASS =    1.000; ZVAL   =    1.000    mass and valenz                      
   RCORE  =    1.100    outmost cutoff radius                                   
   RWIGS  =    0.700; RWIGS  =    0.370    wigner-seitz radius (au A)           
   ENMAX  =  250.000; ENMIN  =  200.000 eV                                      
   RCLOC  =    0.701    cutoff for local pot                                    
   LCOR   =        T    correct aug charges                                     
   LPAW   =        T    paw PP                                                  
   EAUG   =  400.000                                                            
   RMAX   =    1.123    core radius for proj-oper                               
   RAUG   =    1.200    factor for augmentation sphere                          
   RDEP   =    1.112    radius for radial grids                                 
   RDEPT  =    0.926    core radius for aug-charge                              
                                                                                
   Atomic configuration                                                         
    2 entries                                                                   
     n  l   j            E        occ.                                          
     1  0  0.50        -6.4927   1.0000                                         
     2  1  0.50        -3.4015   0.0000                                         
   Description                                                                  
     l       E           TYP  RCUT    TYP  RCUT                                 
     0     -6.4927494     23  1.100                                             
     0      6.8029130     23  1.100                                             
     1     -4.0817478     23  1.100                                             
  local pseudopotential read in
  atomic valenz-charges read in
  non local Contribution for L=           0  read in
    real space projection operators read in
  non local Contribution for L=           0  read in
    real space projection operators read in
  non local Contribution for L=           1  read in
    real space projection operators read in
    PAW grid and wavefunctions read in
 
   number of l-projection  operators is LMAX  =           3
   number of lm-projection operators is LMMAX =           5
 
 Optimization of the real space projectors (new method)

 maximal supplied QI-value         = 16.25
 optimisation between [QCUT,QGAM] = [ 11.54, 23.24] = [ 37.28,151.24] Ry 
 Optimized for a Real-space Cutoff    1.45 Angstroem

   l    n(q)    QCUT    max X(q) W(low)/X(q) W(high)/X(q)  e(spline) 
   2      9    11.539    60.317    0.19E-03    0.47E-04    0.16E-06
   2      9    11.539    55.921    0.19E-03    0.48E-04    0.16E-06
   0     10    11.539    51.690    0.80E-04    0.50E-04    0.24E-06
   0     10    11.539    30.015    0.73E-04    0.45E-04    0.22E-06
   1     10    11.539    18.849    0.87E-04    0.16E-03    0.71E-07
   1     10    11.539    14.624    0.73E-04    0.13E-03    0.64E-07
 Optimization of the real space projectors (new method)

 maximal supplied QI-value         = 16.25
 optimisation between [QCUT,QGAM] = [ 11.54, 23.24] = [ 37.28,151.24] Ry 
 Optimized for a Real-space Cutoff    1.53 Angstroem

   l    n(q)    QCUT    max X(q) W(low)/X(q) W(high)/X(q)  e(spline) 
   2     10    11.539    80.901    0.11E-03    0.14E-03    0.21E-06
   2     10    11.539    75.754    0.11E-03    0.14E-03    0.22E-06
   0     11    11.539    58.752    0.52E-04    0.18E-04    0.33E-06
   0     11    11.539    30.679    0.44E-04    0.16E-04    0.30E-06
   1     10    11.539    17.977    0.53E-04    0.29E-04    0.13E-06
   1     10    11.539    13.559    0.44E-04    0.25E-04    0.11E-06
 Optimization of the real space projectors (new method)

 maximal supplied QI-value         = 24.76
 optimisation between [QCUT,QGAM] = [ 11.64, 23.27] = [ 37.91,151.63] Ry 
 Optimized for a Real-space Cutoff    1.14 Angstroem

   l    n(q)    QCUT    max X(q) W(low)/X(q) W(high)/X(q)  e(spline) 
   0      8    11.635    20.381    0.10E-03    0.33E-03    0.24E-06
   0      8    11.635    15.268    0.11E-03    0.35E-03    0.26E-06
   1      7    11.635     5.964    0.24E-03    0.31E-03    0.30E-06
   1      7    11.635     5.382    0.22E-03    0.25E-03    0.26E-06
 Optimization of the real space projectors (new method)

 maximal supplied QI-value         = 34.20
 optimisation between [QCUT,QGAM] = [ 11.63, 23.26] = [ 37.87,151.49] Ry 
 Optimized for a Real-space Cutoff    1.21 Angstroem

   l    n(q)    QCUT    max X(q) W(low)/X(q) W(high)/X(q)  e(spline) 
   0      8    11.629    19.460    0.17E-03    0.34E-03    0.21E-06
   0      8    11.629    12.209    0.16E-03    0.33E-03    0.21E-06
   1      8    11.629     4.655    0.18E-03    0.16E-03    0.26E-06
  PAW_PBE Ni 02Aug2007                  :
 energy of atom  1       EATOM=-1077.6739
 kinetic energy error for atom=    0.0030 (will be added to EATOM!!)
  PAW_PBE Fe 06Sep2000                  :
 energy of atom  2       EATOM= -594.3153
 kinetic energy error for atom=    0.0026 (will be added to EATOM!!)
  PAW_PBE O 08Apr2002                   :
 energy of atom  3       EATOM= -432.3788
 kinetic energy error for atom=    0.0208 (will be added to EATOM!!)
  PAW_PBE H 15Jun2001                   :
 energy of atom  4       EATOM=  -12.4884
 kinetic energy error for atom=    0.0014 (will be added to EATOM!!)
 
 
 POSCAR: POSCAR                                  
  positions in direct lattice
  velocities in cartesian coordinates
 exchange correlation table for  LEXCH =        8
   RHO(1)=    0.500       N(1)  =     2000
   RHO(2)=  100.500       N(2)  =     4000

 VTST: version 3.2, (02/03/18)

 CHAIN: initializing optimizer
 
 OPT: Using VASP Dynamics algorithm
 CHAIN: Read ICHAIN            0
 
 POSCAR: POSCAR                                  
  positions in direct lattice
  velocities in cartesian coordinates
 


--------------------------------------------------------------------------------------------------------


 ion  position               nearest neighbor table
   1  0.999  0.001  0.287-  41 2.45  18 2.47  50 2.47  47 2.48  49 2.48   5 2.49   8 2.49  33 2.50
                             2 2.51   4 2.51  26 2.51   6 2.53
   2  0.249  0.001  0.285-  51 2.45  44 2.45  11 2.45  50 2.47  41 2.50   9 2.50   1 2.51  26 2.51
                             3 2.51   6 2.51  27 2.52  43 2.55
   3  0.498  0.999  0.287-  64 2.46  14 2.46  43 2.46  51 2.46  17 2.48  45 2.49  27 2.50   4 2.51
                             2 2.51   9 2.51  30 2.52  12 2.53
   4  0.748  0.999  0.286-  16 2.44  48 2.45  17 2.46  18 2.48  30 2.49  64 2.50   3 2.51   1 2.51
                             5 2.51  47 2.52  33 2.53  12 2.53
   5  0.999  0.249  0.287-  60 2.43  16 2.43  22 2.48  18 2.48   1 2.49  52 2.51   6 2.51  19 2.51
                             4 2.51  21 2.52  12 2.52   8 2.53
   6  0.252  0.253  0.287-  11 2.41  56 2.47  52 2.48  22 2.48   9 2.50   5 2.51   2 2.51  50 2.52
                             1 2.53  53 2.53   8 2.54  55 2.55
   7  0.083  0.166  0.096-  50 2.47  15 2.50  40 2.50  18 2.50  54 2.50  10 2.50  46 2.51  22 2.51
                            20 2.51
   8  0.080  0.161  0.385-  67 1.85  47 2.42  41 2.43   1 2.49  11 2.50  16 2.51   5 2.53   6 2.54
                            21 2.56  55 2.57
   9  0.499  0.250  0.286-  59 2.44  11 2.44  56 2.45   6 2.50  53 2.50  51 2.50   2 2.50  12 2.50
                             3 2.51  14 2.53  23 2.54  25 2.54
  10  0.333  0.167  0.096-  13 2.50  56 2.50   7 2.50  24 2.51  40 2.51  42 2.51  50 2.51  54 2.52
                            51 2.52
  11  0.332  0.166  0.379-   6 2.41   9 2.44   2 2.45  41 2.48  55 2.49  25 2.49   8 2.50  14 2.51
                            43 2.52
  12  0.750  0.252  0.288-  16 2.43  59 2.44  60 2.46  58 2.47  23 2.50  17 2.50   9 2.50  19 2.51
                            14 2.51   5 2.52   3 2.53   4 2.53
  13  0.582  0.167  0.097-  51 2.48  24 2.49  42 2.50  17 2.50  10 2.50  63 2.52  59 2.52  57 2.52
                            15 2.53
  14  0.578  0.159  0.384-  65 1.84  43 2.42  64 2.42   3 2.46  11 2.51  12 2.51  16 2.52   9 2.53
                            58 2.58  25 2.59
  15  0.834  0.167  0.096-  20 2.49  60 2.49  18 2.49  46 2.49   7 2.50  17 2.51  63 2.51  57 2.53
                            13 2.53
  16  0.832  0.164  0.379-  12 2.43   5 2.43   4 2.44  47 2.48  58 2.49  64 2.50   8 2.51  21 2.52
                            14 2.52
  17  0.666  0.083  0.193-   4 2.46  60 2.47  51 2.48   3 2.48  59 2.49  13 2.50  12 2.50  45 2.50
                            48 2.51  15 2.51  63 2.51  18 2.52
  18  0.916  0.082  0.192-  50 2.46   1 2.47  60 2.47   4 2.48   5 2.48  46 2.48  15 2.49  49 2.50
                            48 2.50   7 2.50  22 2.51  17 2.52
  19  0.002  0.501  0.286-  29 2.46  60 2.47  39 2.49  27 2.49  52 2.49  21 2.50  61 2.51  23 2.51
                            12 2.51   5 2.51  58 2.52  26 2.52
  20  0.081  0.416  0.096-  61 2.48  15 2.49  57 2.49  22 2.50  54 2.51  28 2.51   7 2.51  31 2.52
                            60 2.53
  21  0.080  0.417  0.384-  67 1.85  58 2.43  29 2.45  19 2.50  32 2.51  52 2.51  16 2.52   5 2.52
                             8 2.56  55 2.57
  22  0.166  0.334  0.192-  52 2.48   5 2.48   6 2.48  60 2.49  54 2.49  36 2.50  20 2.50  50 2.50
                             7 2.51  18 2.51  56 2.52  61 2.54
  23  0.753  0.503  0.289-  33 2.46  53 2.47  26 2.48  59 2.49  12 2.50  58 2.51  19 2.51  39 2.52
                             9 2.54  25 2.54  62 2.56  38 2.57
  24  0.584  0.416  0.096-  13 2.49  62 2.49  57 2.50  10 2.51  56 2.51  34 2.51  37 2.52  54 2.53
                            59 2.54
  25  0.578  0.417  0.385-  65 1.88  55 2.42  53 2.45  35 2.46  11 2.49   9 2.54  23 2.54  38 2.55
                            14 2.59  58 2.60
  26  1.000  0.751  0.287-  33 2.46  49 2.46  23 2.48  44 2.49  41 2.49  29 2.49  39 2.50   2 2.51
                            27 2.51   1 2.51  19 2.52  38 2.60
  27  0.249  0.750  0.285-  45 2.45  32 2.46  61 2.46  44 2.46  29 2.49  19 2.49   3 2.50  26 2.51
                            52 2.52   2 2.52  30 2.53  43 2.54
  28  0.084  0.668  0.095-  61 2.47  39 2.50  40 2.50  37 2.50  31 2.50  42 2.50  57 2.51  44 2.51
                            20 2.51
  29  0.084  0.663  0.381-  66 1.87  21 2.45  19 2.46  32 2.47  27 2.49  58 2.49  26 2.49  38 2.52
                            43 2.54  41 2.59
  30  0.501  0.749  0.287-  32 2.44  48 2.46  45 2.47   4 2.49  53 2.50  36 2.50  64 2.50   3 2.52
                            52 2.52  35 2.53  27 2.53  33 2.53
  31  0.333  0.667  0.094-  61 2.47  42 2.50  54 2.50  28 2.50  63 2.50  34 2.51  36 2.52  45 2.52
                            20 2.52
  32  0.332  0.665  0.378-  52 2.41  30 2.44  27 2.46  29 2.47  35 2.49  21 2.51  64 2.51  43 2.51
                            55 2.52
  33  0.753  0.749  0.288-  26 2.46  53 2.46  23 2.46  49 2.48  62 2.50   1 2.50  47 2.51  48 2.51
                            30 2.53   4 2.53  35 2.55  38 2.57
  34  0.583  0.667  0.095-  62 2.47  36 2.50  63 2.50  46 2.51  31 2.51  37 2.51  54 2.51  24 2.51
                            48 2.53
  35  0.578  0.661  0.385-  68 1.88  55 2.44  53 2.45  25 2.46  32 2.49  30 2.53  33 2.55  38 2.55
                            64 2.56  47 2.60
  36  0.417  0.582  0.191-  54 2.47  30 2.50  22 2.50  34 2.50  62 2.50  45 2.51  56 2.51  48 2.51
                            52 2.51  61 2.51  31 2.52  53 2.55
  37  0.834  0.668  0.095-  62 2.47  40 2.50  57 2.50  39 2.50  28 2.50  46 2.51  49 2.51  34 2.51
                            24 2.52
  38  0.836  0.668  0.389-  69 1.84  41 2.52  29 2.52  47 2.52  58 2.54  35 2.55  25 2.55  23 2.57
                            33 2.57  26 2.60
  39  0.917  0.583  0.191-  19 2.49  57 2.49  28 2.50  37 2.50  26 2.50  61 2.50  49 2.51  59 2.51
                            62 2.51  44 2.51  23 2.52  60 2.56
  40  0.083  0.917  0.095-  50 2.49  44 2.49  37 2.50  28 2.50   7 2.50  10 2.51  49 2.51  46 2.51
                            42 2.52
  41  0.083  0.921  0.381-  66 1.87   8 2.43   1 2.45  47 2.46  11 2.48  26 2.49   2 2.50  38 2.52
                            43 2.55  29 2.59
  42  0.334  0.917  0.095-  51 2.48  13 2.50  63 2.50  31 2.50  44 2.50  28 2.50  10 2.51  45 2.51
                            40 2.52
  43  0.336  0.918  0.383-  66 1.86  14 2.42  64 2.44   3 2.46  32 2.51  11 2.52  27 2.54  29 2.54
                             2 2.55  41 2.55
  44  0.167  0.835  0.191-   2 2.45  27 2.46  51 2.47  26 2.49  61 2.49  49 2.49  40 2.49  42 2.50
                            50 2.50  28 2.51  39 2.51  45 2.53
  45  0.417  0.832  0.192-  27 2.45  61 2.47  51 2.47  30 2.47   3 2.49  48 2.49  63 2.50  17 2.50
                            36 2.51  42 2.51  31 2.52  44 2.53
  46  0.832  0.917  0.096-  18 2.48  48 2.49  15 2.49  63 2.50  49 2.50   7 2.51  34 2.51  37 2.51
                            40 2.51
  47  0.838  0.920  0.383-  68 1.86   8 2.42  41 2.46   1 2.48  16 2.48  33 2.51   4 2.52  38 2.52
                            64 2.57  35 2.60
  48  0.666  0.833  0.192-   4 2.45  30 2.46  62 2.47  45 2.49  46 2.49  18 2.50  63 2.50  17 2.51
                            36 2.51  33 2.51  49 2.52  34 2.53
  49  0.917  0.833  0.192-  26 2.46  62 2.46  50 2.47  33 2.48   1 2.48  44 2.49  18 2.50  46 2.50
                            39 2.51  40 2.51  37 2.51  48 2.52
  50  0.162  0.082  0.191-  18 2.46   2 2.47   1 2.47   7 2.47  49 2.47  40 2.49  44 2.50  22 2.50
                            10 2.51   6 2.52  56 2.53  51 2.57
  51  0.416  0.078  0.192-   2 2.45   3 2.46  44 2.47  45 2.47  42 2.48  17 2.48  13 2.48   9 2.50
                            10 2.52  59 2.54  56 2.54  50 2.57
  52  0.249  0.499  0.288-  32 2.41   6 2.48  22 2.48  19 2.49   5 2.51  21 2.51  36 2.51  27 2.52
                            30 2.52  61 2.55  53 2.56  55 2.57
  53  0.507  0.503  0.289-  35 2.45  25 2.45  33 2.46  23 2.47  30 2.50   9 2.50   6 2.53  56 2.54
                            62 2.54  55 2.54  36 2.55  52 2.56
  54  0.331  0.417  0.096-  36 2.47  22 2.49  31 2.50   7 2.50  20 2.51  34 2.51  10 2.52  56 2.53
                            24 2.53
  55  0.337  0.417  0.387-  67 1.84  25 2.42  35 2.44  11 2.49  32 2.52  53 2.54   6 2.55   8 2.57
                            52 2.57  21 2.57
  56  0.416  0.331  0.193-   9 2.45   6 2.47  10 2.50  24 2.51  36 2.51  59 2.51  22 2.52  50 2.53
                            54 2.53  53 2.54  51 2.54  62 2.56
  57  0.834  0.418  0.094-  20 2.49  39 2.49  24 2.50  37 2.50  28 2.51  13 2.52  15 2.53  59 2.56
                            60 2.59
  58  0.837  0.415  0.384-  65 1.83  21 2.43  12 2.47  29 2.49  16 2.49  23 2.51  19 2.52  38 2.54
                            14 2.58  25 2.60
  59  0.667  0.332  0.194-   9 2.44  12 2.44  23 2.49  17 2.49  60 2.51  39 2.51  56 2.51  13 2.52
                            51 2.54  24 2.54  57 2.56  62 2.57
  60  0.914  0.327  0.194-   5 2.43  12 2.46  19 2.47  18 2.47  17 2.47  22 2.49  15 2.49  59 2.51
                            20 2.53  39 2.56  57 2.59  61 2.59
  61  0.169  0.588  0.189-  27 2.46  45 2.47  28 2.47  31 2.47  20 2.48  44 2.49  39 2.50  19 2.51
                            36 2.51  22 2.54  52 2.55  60 2.59
  62  0.670  0.589  0.190-  49 2.46  48 2.47  37 2.47  34 2.47  24 2.49  33 2.50  36 2.50  39 2.51
                            53 2.54  23 2.56  56 2.56  59 2.57
  63  0.583  0.917  0.096-  46 2.50  45 2.50  42 2.50  48 2.50  31 2.50  34 2.50  17 2.51  15 2.51
                            13 2.52
  64  0.580  0.918  0.382-  68 1.82  14 2.42  43 2.44   3 2.46  16 2.50  30 2.50   4 2.50  32 2.51
                            35 2.56  47 2.57
  65  0.668  0.328  0.436-  58 1.83  14 1.84  25 1.88
  66  0.164  0.832  0.435-  43 1.86  29 1.87  41 1.87
  67  0.163  0.332  0.437-  55 1.84   8 1.85  21 1.85
  68  0.666  0.839  0.435-  64 1.82  47 1.86  35 1.88
  69  0.823  0.656  0.476-  70 1.39  38 1.84
  70  0.943  0.729  0.519-  71 1.02  69 1.39
  71  0.040  0.777  0.492-  70 1.02
 

IMPORTANT INFORMATION: All symmetrisations will be switched off!
NOSYMM: (Re-)initialisation of all symmetry stuff for point group C_1.

 
 

Automatic generation of k-mesh.
 generate k-points for:    1    1    1
Space group operators:
 irot       det(A)        alpha          n_x          n_y          n_z        tau_x        tau_y        tau_z
    1     1.000000     0.000000     1.000000     0.000000     0.000000     0.000000     0.000000     0.000000
 
 Subroutine IBZKPT returns following result:
 ===========================================
 
 Found      1 irreducible k-points:
 
 Following reciprocal coordinates:
            Coordinates               Weight
  0.000000  0.000000  0.000000      1.000000
 
 Following cartesian coordinates:
            Coordinates               Weight
  0.000000  0.000000  0.000000      1.000000
 
 
 Subroutine IBZKPT_HF returns following result:
 ==============================================
 
 Found      1 k-points in 1st BZ
 the following      1 k-points will be used (e.g. in the exchange kernel)
 Following reciprocal coordinates:   # in IRBZ
  0.000000  0.000000  0.000000    1.00000000   1 t-inv F


--------------------------------------------------------------------------------------------------------




 Dimension of arrays:
   k-points           NKPTS =      1   k-points in BZ     NKDIM =      1   number of bands    NBANDS=    390
   number of dos      NEDOS =    301   number of ions     NIONS =     71
   non local maximal  LDIM  =      6   non local SUM 2l+1 LMDIM =     18
   total plane-waves  NPLWV = ******
   max r-space proj   IRMAX =   8439   max aug-charges    IRDMAX=  19969
   dimension x,y,z NGX =    80 NGY =   80 NGZ =  160
   dimension x,y,z NGXF=   160 NGYF=  160 NGZF=  320
   support grid    NGXF=   160 NGYF=  160 NGZF=  320
   ions per type =              49  15   6   1
   NGX,Y,Z   is equivalent  to a cutoff of  13.26, 13.26, 12.55 a.u.
   NGXF,Y,Z  is equivalent  to a cutoff of  26.53, 26.53, 25.11 a.u.

 SYSTEM =  SQS-NiFe                                
 POSCAR =  POSCAR                                  

 Startparameter for this run:
   NWRITE =      2    write-flag & timer
   PREC   = accura    normal or accurate (medium, high low for compatibility)
   ISTART =      0    job   : 0-new  1-cont  2-samecut
   ICHARG =      1    charge: 1-file 2-atom 10-const
   ISPIN  =      1    spin polarized calculation?
   LNONCOLLINEAR =      F non collinear calculations
   LSORBIT =      F    spin-orbit coupling
   INIWAV =      1    electr: 0-lowe 1-rand  2-diag
   LASPH  =      F    aspherical Exc in radial PAW
   METAGGA=      F    non-selfconsistent MetaGGA calc.

 Electronic Relaxation 1
   ENCUT  =  520.0 eV  38.22 Ry    6.18 a.u.  18.64 18.64 39.40*2*pi/ulx,y,z
   ENINI  =  520.0     initial cutoff
   ENAUG  =  605.4 eV  augmentation charge cutoff
   NELM   =    200;   NELMIN=  2; NELMDL= -5     # of ELM steps 
   EDIFF  = 0.1E-05   stopping-criterion for ELM
   LREAL  =      T    real-space projection
   NLSPLINE    = F    spline interpolate recip. space projectors
   LCOMPAT=      F    compatible to vasp.4.4
   GGA_COMPAT  = T    GGA compatible to vasp.4.4-vasp.4.6
   LMAXPAW     = -100 max onsite density
   LMAXMIX     =    2 max onsite mixed and CHGCAR
   VOSKOWN=      0    Vosko Wilk Nusair interpolation
   ROPT   =   -0.00025  -0.00025  -0.00025  -0.00025
 Ionic relaxation
   EDIFFG = -.2E-01   stopping-criterion for IOM
   NSW    =    889    number of steps for IOM
   NBLOCK =      1;   KBLOCK =    889    inner block; outer block 
   IBRION =      5    ionic relax: 0-MD 1-quasi-New 2-CG
   NFREE  =      2    steps in history (QN), initial steepest desc. (CG)
   ISIF   =      2    stress and relaxation
   IWAVPR =     11    prediction:  0-non 1-charg 2-wave 3-comb
   ISYM   =      0    0-nonsym 1-usesym 2-fastsym
   LCORR  =      T    Harris-Foulkes like correction to forces

   POTIM  = 0.0150    time-step for ionic-motion
   TEIN   =    0.0    initial temperature
   TEBEG  =    0.0;   TEEND  =   0.0 temperature during run
   SMASS  =  -3.00    Nose mass-parameter (am)
   estimated Nose-frequenzy (Omega)   =  0.10E-29 period in steps =****** mass=  -0.230E-26a.u.
   SCALEE = 1.0000    scale energy and forces
   NPACO  =    256;   APACO  = 16.0  distance and # of slots for P.C.
   PSTRESS=    0.0 pullay stress

  Mass of Ions in am
   POMASS =  58.69 55.85 16.00  1.00
  Ionic Valenz
   ZVAL   =  10.00  8.00  6.00  1.00
  Atomic Wigner-Seitz radii
   RWIGS  =  -1.00 -1.00 -1.00 -1.00
  virtual crystal weights 
   VCA    =   1.00  1.00  1.00  1.00
   NELECT =     647.0000    total number of electrons
   NUPDOWN=      -1.0000    fix difference up-down

 DOS related values:
   EMIN   =  10.00;   EMAX   =-10.00  energy-range for DOS
   EFERMI =   0.00
   ISMEAR =     0;   SIGMA  =   0.20  broadening in eV -4-tet -1-fermi 0-gaus

 Electronic relaxation 2 (details)
   IALGO  =     68    algorithm
   LDIAG  =      T    sub-space diagonalisation (order eigenvalues)
   LSUBROT=      F    optimize rotation matrix (better conditioning)
   TURBO    =      0    0=normal 1=particle mesh
   IRESTART =      0    0=no restart 2=restart with 2 vectors
   NREBOOT  =      0    no. of reboots
   NMIN     =      0    reboot dimension
   EREF     =   0.00    reference energy to select bands
   IMIX   =      4    mixing-type and parameters
     AMIX     =   0.40;   BMIX     =  1.00
     AMIX_MAG =   1.60;   BMIX_MAG =  1.00
     AMIN     =   0.10
     WC   =   100.;   INIMIX=   1;  MIXPRE=   1;  MAXMIX= -45

 Intra band minimization:
   WEIMIN = 0.0010     energy-eigenvalue tresh-hold
   EBREAK =  0.64E-09  absolut break condition
   DEPER  =   0.30     relativ break condition  

   TIME   =   0.40     timestep for ELM

  volume/ion in A,a.u.               =      25.98       175.35
  Fermi-wavevector in a.u.,A,eV,Ry     =   1.154482  2.181655 18.134246  1.332829
  Thomas-Fermi vector in A             =   2.291118
 
 Write flags
   LWAVE        =      F    write WAVECAR
   LDOWNSAMPLE  =      F    k-point downsampling of WAVECAR
   LCHARG       =      F    write CHGCAR
   LVTOT        =      F    write LOCPOT, total local potential
   LVHAR        =      F    write LOCPOT, Hartree potential only
   LELF         =      F    write electronic localiz. function (ELF)
   LORBIT       =     10    0 simple, 1 ext, 2 COOP (PROOUT), +10 PAW based schemes


 Dipole corrections
   LMONO  =      F    monopole corrections only (constant potential shift)
   LDIPOL =      F    correct potential (dipole corrections)
   IDIPOL =      0    1-x, 2-y, 3-z, 4-all directions 
   EPSILON=  1.0000000 bulk dielectric constant

 Exchange correlation treatment:
   GGA     =    --    GGA type
   LEXCH   =     8    internal setting for exchange type
   VOSKOWN=      0    Vosko Wilk Nusair interpolation
   LHFCALC =     F    Hartree Fock is set to
   LHFONE  =     F    Hartree Fock one center treatment
   AEXX    =    0.0000 exact exchange contribution

 Linear response parameters
   LEPSILON=     F    determine dielectric tensor
   LRPA    =     F    only Hartree local field effects (RPA)
   LNABLA  =     F    use nabla operator in PAW spheres
   LVEL    =     F    velocity operator in full k-point grid
   LINTERFAST=   F  fast interpolation
   KINTER  =     0    interpolate to denser k-point grid
   CSHIFT  =0.1000    complex shift for real part using Kramers Kronig
   OMEGAMAX=  -1.0    maximum frequency
   DEG_THRESHOLD= 0.2000000E-02 threshold for treating states as degnerate
   RTIME   =   -0.100 relaxation time in fs
  (WPLASMAI=    0.000 imaginary part of plasma frequency in eV, 0.658/RTIME)
   DFIELD  = 0.0000000 0.0000000 0.0000000 field for delta impulse in time
 
 Orbital magnetization related:
   ORBITALMAG=     F  switch on orbital magnetization
   LCHIMAG   =     F  perturbation theory with respect to B field
   DQ        =  0.001000  dq finite difference perturbation B field
   LLRAUG    =     F  two centre corrections for induced B field



--------------------------------------------------------------------------------------------------------


 finite differences
   using selective dynamics as specified on POSCAR
 charge density and potential will be updated during run
 non-spin polarized calculation
 RMM-DIIS sequential band-by-band and
  variant of blocked Davidson during initial phase
 perform sub-space diagonalisation
    before iterative eigenvector-optimisation
 modified Broyden-mixing scheme, WC =      100.0
 initial mixing is a Kerker type mixing with AMIX =  0.4000 and BMIX =      1.0000
 Hartree-type preconditioning will be used
 using additional bands           66
 real space projection scheme for non local part
 use partial core corrections
 calculate Harris-corrections to forces 
   (improved forces if not selfconsistent)
 use gradient corrections 
 use of overlap-Matrix (Vanderbilt PP)
 Gauss-broadening in eV      SIGMA  =   0.20


--------------------------------------------------------------------------------------------------------


  energy-cutoff  :      520.00
  volume of cell :     1844.87
      direct lattice vectors                 reciprocal lattice vectors
    10.026770000  0.000000000  0.000000000     0.099733015  0.057580883  0.000000000
    -5.013385000  8.683437540  0.000000000     0.000000000  0.115161766  0.000000000
     0.000000000  0.000000000 21.189180000     0.000000000  0.000000000  0.047193898

  length of vectors
    10.026770000 10.026770002 21.189180000     0.115161766  0.115161766  0.047193898


 
 k-points in units of 2pi/SCALE and weight: read from INCAR                         
   0.00000000  0.00000000  0.00000000       1.000
 
 k-points in reciprocal lattice and weights: read from INCAR                         
   0.00000000  0.00000000  0.00000000       1.000
 
 position of ions in fractional coordinates (direct lattice) 
   0.99933243  0.00092129  0.28703888
   0.24921865  0.00105239  0.28489020
   0.49833683  0.99925155  0.28745305
   0.74800881  0.99853103  0.28634840
   0.99935971  0.24882335  0.28699956
   0.25174264  0.25289562  0.28736660
   0.08288200  0.16633200  0.09567600
   0.07995570  0.16116711  0.38461620
   0.49938930  0.25027320  0.28646283
   0.33293900  0.16685800  0.09574200
   0.33158986  0.16645047  0.37866850
   0.74997785  0.25201048  0.28815376
   0.58230700  0.16720100  0.09670300
   0.57795097  0.15853867  0.38353365
   0.83403200  0.16672400  0.09645100
   0.83190934  0.16426436  0.37909899
   0.66558100  0.08305500  0.19258300
   0.91639700  0.08203100  0.19204900
   0.00189746  0.50073172  0.28597696
   0.08092200  0.41609700  0.09594800
   0.08033596  0.41710515  0.38365840
   0.16611800  0.33395200  0.19207500
   0.75271186  0.50276002  0.28859096
   0.58357300  0.41617200  0.09593300
   0.57828751  0.41654606  0.38498616
   0.99966241  0.75085315  0.28676701
   0.24931718  0.74980407  0.28492439
   0.08375800  0.66810400  0.09479700
   0.08442364  0.66326148  0.38082864
   0.50118622  0.74941730  0.28669529
   0.33297400  0.66727700  0.09438800
   0.33198778  0.66534174  0.37838623
   0.75289106  0.74863937  0.28799070
   0.58298100  0.66668200  0.09450900
   0.57831234  0.66149592  0.38481887
   0.41661000  0.58200200  0.19081700
   0.83395900  0.66770600  0.09497900
   0.83586580  0.66792731  0.38926325
   0.91708300  0.58323900  0.19079400
   0.08291700  0.91685800  0.09518600
   0.08340581  0.92102949  0.38126085
   0.33420600  0.91705400  0.09538200
   0.33629625  0.91796348  0.38284542
   0.16670900  0.83524200  0.19136500
   0.41703500  0.83214900  0.19205900
   0.83233100  0.91715000  0.09633700
   0.83806298  0.92048112  0.38339274
   0.66623900  0.83337000  0.19234100
   0.91705900  0.83319500  0.19216200
   0.16168500  0.08211500  0.19130600
   0.41607500  0.07807100  0.19177300
   0.24935542  0.49861898  0.28756932
   0.50671988  0.50331912  0.28939115
   0.33134100  0.41714300  0.09577600
   0.33677523  0.41677577  0.38710555
   0.41638400  0.33144300  0.19252200
   0.83354800  0.41839000  0.09448800
   0.83662126  0.41516599  0.38367793
   0.66732400  0.33240600  0.19435500
   0.91446400  0.32695500  0.19396500
   0.16914200  0.58833400  0.18947800
   0.66961600  0.58928900  0.18986000
   0.58310400  0.91651500  0.09583500
   0.58001327  0.91777124  0.38240707
   0.66797121  0.32836849  0.43554373
   0.16448783  0.83224413  0.43531327
   0.16347123  0.33159387  0.43728142
   0.66609138  0.83913607  0.43535677
   0.82267571  0.65571868  0.47592804
   0.94258494  0.72923095  0.51879686
   0.03980258  0.77721353  0.49182970
 
 position of ions in cartesian coordinates  (Angst):
  10.01545765  0.00800000  6.08211858
   2.49358203  0.00913840  6.03658963
  -0.01292398  8.67693843  6.09089445
   2.49409182  8.67068184  6.06748785
   8.77290278  2.16064198  6.08128544
   1.25630246  2.19600328  6.08906270
  -0.00284760  1.44433353  2.02729599
  -0.00629535  1.39948457  8.14970186
   3.75254579  2.17323168  6.06991249
   2.50177938  1.44890102  2.02869447
   2.49029497  1.44536222  8.02367504
   6.25642988  2.18831725  6.10574180
   5.00041537  1.45187944  2.04905727
   5.00016607  1.37666063  8.12676360
   7.52679544  1.44773744  2.04371760
   7.51784310  1.42637933  8.03279676
   6.25724091  0.72120290  4.08067585
   8.77724896  0.71231106  4.06936083
  -2.49133554  4.34807265  6.05961732
  -1.27466818  3.61315231  2.03305944
  -1.28559848  3.62190654  8.12940698
  -0.00860297  2.89985133  4.06991175
   5.02673914  4.36568523  6.11500577
   3.76492179  3.61380357  2.03274160
   3.71005011  3.61705169  8.15754101
   6.25906914  6.51998645  6.07635780
  -1.25921048  6.51087677  6.03731416
  -2.50964037  5.80143935  2.00867070
  -2.47868872  5.75938966  8.06944660
   1.26816155  6.50751828  6.07483810
  -0.00666279  5.79425815  2.00000432
  -0.00684924  5.77745346  8.01769402
   3.79584810  6.50076322  6.10228687
   2.50308286  5.78909151  2.00256821
   2.48227107  5.74405853  8.15399626
   1.25945255  5.05377802  4.04325576
   5.01444784  5.79798335  2.01252713
   5.03245737  5.79990507  8.24816904
   6.27137866  5.06451943  4.04276841
  -3.76517246  7.96147918  2.01691329
  -3.78118459  7.99770208  8.07860472
  -1.24653807  7.96318113  2.02106637
  -1.23013913  7.97107850  8.11218049
  -2.51583691  7.25277174  4.05486743
   0.00963071  7.22591387  4.06957272
   3.74756545  7.96401474  2.04130203
   3.78833857  7.99294028  8.12377782
   2.50222056  7.23651634  4.07554807
   5.01801235  7.23499674  4.07175521
   1.20950420  0.71304047  4.05361727
   3.78048835  0.67792465  4.06351262
   0.00046058  4.32972674  6.09335811
   2.55743120  4.37054016  6.13196120
   1.23098154  3.62223519  2.02941490
   1.28731034  3.61904639  8.20244913
   2.51333524  2.87806459  4.07938331
   6.26024393  3.63306343  2.00212324
   6.30722200  3.60506794  8.12982065
   5.02462501  2.88642674  4.11822308
   7.52996891  2.83909332  4.10995930
  -1.25359692  5.10876154  4.01488345
   3.75975299  5.11705422  4.02297771
   1.25180714  7.95850076  2.03066507
   1.21451911  7.96940925  8.10289217
   5.05135597  2.85136730  9.22881447
  -2.52307862  7.22673994  9.22393116
  -0.02331927  2.87937467  9.26563470
   2.47183292  7.28658562  9.22485298
   4.96140991  5.69389222 10.08452490
   5.79516692  6.33223141 10.99288013
  -3.49737928  6.74888510 10.42146815
 


--------------------------------------------------------------------------------------------------------


 use parallel FFT for orbitals z direction half grid
 k-point  1 :   0.0000 0.0000 0.0000  plane waves:   24871

 maximum and minimum number of plane-waves per node :      1041     1030

 maximum number of plane-waves:     24871
 maximum index in each direction: 
   IXMAX=   18   IYMAX=   18   IZMAX=   39
   IXMIN=  -18   IYMIN=  -18   IZMIN=    0


 real space projection operators:
  total allocation   :      65527.51 KBytes
  max/ min on nodes  :       3314.80       2407.34


 parallel 3D FFT for wavefunctions:
    minimum data exchange during FFTs selected (reduces bandwidth)
 parallel 3D FFT for charge:
    minimum data exchange during FFTs selected (reduces bandwidth)


 total amount of memory used by VASP MPI-rank0    55381. kBytes
=======================================================================

   base      :      30000. kBytes
   nonlr-proj:       4006. kBytes
   fftplans  :       5965. kBytes
   grid      :      13166. kBytes
   one-center:         23. kBytes
   wavefun   :       2221. kBytes
 
     INWAV:  cpu time    0.0000: real time    0.0001
 Broyden mixing: mesh for mixing (old mesh)
   NGX = 37   NGY = 37   NGZ = 79
  (NGX  =160   NGY  =160   NGZ  =320)
  gives a total of 108151 points

 initial charge density was supplied:
 number of electron     647.0000031 magnetization 
 keeping initial charge density in first step


--------------------------------------------------------------------------------------------------------


 Maximum index for non-local projection operator          764
 Maximum index for augmentation-charges         1117 (set IRDMAX)


--------------------------------------------------------------------------------------------------------


 First call to EWALD:  gamma=   0.145
 Maximum number of real-space cells 4x 4x 2
 Maximum number of reciprocal cells 2x 2x 4

    FEWALD:  cpu time    0.0080: real time    0.0080


--------------------------------------- Iteration      1(   1)  ---------------------------------------


    POTLOK:  cpu time    0.1917: real time    0.2195
    SETDIJ:  cpu time    0.0244: real time    0.0244
     EDDAV:  cpu time    2.4463: real time    2.4574
       DOS:  cpu time    0.0070: real time    0.0070
    --------------------------------------------
      LOOP:  cpu time    2.6694: real time    2.7084

 eigenvalue-minimisations  :   780
 total energy-change (2. order) : 0.6039673E+04  (-0.3311753E+05)
 number of electron     647.0000031 magnetization 
 augmentation part      647.0000031 magnetization 

 Free energy of the ion-electron system (eV)
  ---------------------------------------------------
  alpha Z        PSCENC =      1380.44614253
  Ewald energy   TEWEN  =    220073.00583205
  -Hartree energ DENC   =   -282856.45787626
  -exchange      EXHF   =         0.00000000
  -V(xc)+E(xc)   XCENC  =      1709.65238767
  PAW double counting   =     68996.51183361   -72503.54982128
  entropy T*S    EENTRO =        -0.31017736
  eigenvalues    EBANDS =      4913.17441895
  atomic energy  EATOM  =     64327.20015129
  Solvation  Ediel_sol  =         0.00000000
  ---------------------------------------------------
  free energy    TOTEN  =      6039.67289119 eV

  energy without entropy =     6039.98306856  energy(sigma->0) =     6039.82797987


--------------------------------------------------------------------------------------------------------




--------------------------------------- Iteration      1(   2)  ---------------------------------------


     EDDAV:  cpu time    2.3562: real time    2.3716
       DOS:  cpu time    0.0023: real time    0.0023
    --------------------------------------------
      LOOP:  cpu time    2.3585: real time    2.3739

 eigenvalue-minimisations  :   780
 total energy-change (2. order) :-0.5660036E+04  (-0.5476563E+04)
 number of electron     647.0000031 magnetization 
 augmentation part      647.0000031 magnetization 

 Free energy of the ion-electron system (eV)
  ---------------------------------------------------
  alpha Z        PSCENC =      1380.44614253
  Ewald energy   TEWEN  =    220073.00583205
  -Hartree energ DENC   =   -282856.45787626
  -exchange      EXHF   =         0.00000000
  -V(xc)+E(xc)   XCENC  =      1709.65238767
  PAW double counting   =     68996.51183361   -72503.54982128
  entropy T*S    EENTRO =        -0.78648339
  eigenvalues    EBANDS =      -746.38486871
  atomic energy  EATOM  =     64327.20015129
  Solvation  Ediel_sol  =         0.00000000
  ---------------------------------------------------
  free energy    TOTEN  =       379.63729750 eV

  energy without entropy =      380.42378089  energy(sigma->0) =      380.03053920


--------------------------------------------------------------------------------------------------------




--------------------------------------- Iteration      1(   3)  ---------------------------------------


     EDDAV:  cpu time    2.4614: real time    2.4776
       DOS:  cpu time    0.0045: real time    0.0045
    --------------------------------------------
      LOOP:  cpu time    2.4660: real time    2.4822

 eigenvalue-minimisations  :   837
 total energy-change (2. order) :-0.6773021E+03  (-0.6022656E+03)
 number of electron     647.0000031 magnetization 
 augmentation part      647.0000031 magnetization 

 Free energy of the ion-electron system (eV)
  ---------------------------------------------------
  alpha Z        PSCENC =      1380.44614253
  Ewald energy   TEWEN  =    220073.00583205
  -Hartree energ DENC   =   -282856.45787626
  -exchange      EXHF   =         0.00000000
  -V(xc)+E(xc)   XCENC  =      1709.65238767
  PAW double counting   =     68996.51183361   -72503.54982128
  entropy T*S    EENTRO =        -2.71999992
  eigenvalues    EBANDS =     -1421.75347157
  atomic energy  EATOM  =     64327.20015129
  Solvation  Ediel_sol  =         0.00000000
  ---------------------------------------------------
  free energy    TOTEN  =      -297.66482188 eV

  energy without entropy =     -294.94482196  energy(sigma->0) =     -296.30482192


--------------------------------------------------------------------------------------------------------




--------------------------------------- Iteration      1(   4)  ---------------------------------------


     EDDAV:  cpu time    3.7244: real time    3.7386
       DOS:  cpu time    0.0049: real time    0.0049
    --------------------------------------------
      LOOP:  cpu time    3.7293: real time    3.7435

 eigenvalue-minimisations  :  1407
 total energy-change (2. order) :-0.1043925E+03  (-0.9268167E+02)
 number of electron     647.0000031 magnetization 
 augmentation part      647.0000031 magnetization 

 Free energy of the ion-electron system (eV)
  ---------------------------------------------------
  alpha Z        PSCENC =      1380.44614253
  Ewald energy   TEWEN  =    220073.00583205
  -Hartree energ DENC   =   -282856.45787626
  -exchange      EXHF   =         0.00000000
  -V(xc)+E(xc)   XCENC  =      1709.65238767
  PAW double counting   =     68996.51183361   -72503.54982128
  entropy T*S    EENTRO =        -2.83648697
  eigenvalues    EBANDS =     -1526.02946588
  atomic energy  EATOM  =     64327.20015129
  Solvation  Ediel_sol  =         0.00000000
  ---------------------------------------------------
  free energy    TOTEN  =      -402.05730324 eV

  energy without entropy =     -399.22081627  energy(sigma->0) =     -400.63905975


--------------------------------------------------------------------------------------------------------




--------------------------------------- Iteration      1(   5)  ---------------------------------------


     EDDAV:  cpu time    3.0610: real time    3.0765
       DOS:  cpu time    0.0065: real time    0.0065
    CHARGE:  cpu time    0.1166: real time    0.1166
    MIXING:  cpu time    0.0103: real time    0.0103
    --------------------------------------------
      LOOP:  cpu time    3.1945: real time    3.2100

 eigenvalue-minimisations  :  1110
 total energy-change (2. order) :-0.1126419E+02  (-0.1055698E+02)
 number of electron     647.0000028 magnetization 
 augmentation part      368.4604943 magnetization 

 Broyden mixing:
  rms(total) = 0.28888E+01    rms(broyden)= 0.28885E+01
  rms(prec ) = 0.32580E+01
  weight for this iteration     100.00

 Free energy of the ion-electron system (eV)
  ---------------------------------------------------
  alpha Z        PSCENC =      1380.44614253
  Ewald energy   TEWEN  =    220073.00583205
  -Hartree energ DENC   =   -282856.45787626
  -exchange      EXHF   =         0.00000000
  -V(xc)+E(xc)   XCENC  =      1709.65238767
  PAW double counting   =     68996.51183361   -72503.54982128
  entropy T*S    EENTRO =        -2.97782163
  eigenvalues    EBANDS =     -1537.15231969
  atomic energy  EATOM  =     64327.20015129
  Solvation  Ediel_sol  =         0.00000000
  ---------------------------------------------------
  free energy    TOTEN  =      -413.32149171 eV

  energy without entropy =     -410.34367008  energy(sigma->0) =     -411.83258090


--------------------------------------------------------------------------------------------------------




--------------------------------------- Iteration      1(   6)  ---------------------------------------


    POTLOK:  cpu time    0.1877: real time    0.2036
    SETDIJ:  cpu time    0.0107: real time    0.0107
    EDDIAG:  cpu time    0.3439: real time    0.3440
  RMM-DIIS:  cpu time    1.7428: real time    1.7441
    ORTHCH:  cpu time    0.0722: real time    0.0722
       DOS:  cpu time    0.0019: real time    0.0019
    CHARGE:  cpu time    0.1072: real time    0.1072
    MIXING:  cpu time    0.0050: real time    0.0050
    --------------------------------------------
      LOOP:  cpu time    2.4714: real time    2.4887

 eigenvalue-minimisations  :   811
 total energy-change (2. order) :-0.2080327E+03  (-0.1759460E+02)
 number of electron     647.0000048 magnetization 
 augmentation part      371.7949659 magnetization 

 Broyden mixing:
  rms(total) = 0.13970E+02    rms(broyden)= 0.13969E+02
  rms(prec ) = 0.16187E+02
  weight for this iteration     100.00

 eigenvalues of (default mixing * dielectric matrix)
  average eigenvalue GAMMA=   0.1533
  0.1533

 Free energy of the ion-electron system (eV)
  ---------------------------------------------------
  alpha Z        PSCENC =      1380.44614253
  Ewald energy   TEWEN  =    220073.00583205
  -Hartree energ DENC   =   -282820.78618020
  -exchange      EXHF   =         0.00000000
  -V(xc)+E(xc)   XCENC  =      1705.08725246
  PAW double counting   =     68702.91985890   -72173.69895337
  entropy T*S    EENTRO =        -1.26329835
  eigenvalues    EBANDS =     -1814.26494964
  atomic energy  EATOM  =     64327.20015129
  Solvation  Ediel_sol  =         0.00000000
  ---------------------------------------------------
  free energy    TOTEN  =      -621.35414431 eV

  energy without entropy =     -620.09084596  energy(sigma->0) =     -620.72249514


--------------------------------------------------------------------------------------------------------




--------------------------------------- Iteration      1(   7)  ---------------------------------------


    POTLOK:  cpu time    0.1865: real time    0.1998
    SETDIJ:  cpu time    0.0106: real time    0.0106
    EDDIAG:  cpu time    0.3234: real time    0.3235
  RMM-DIIS:  cpu time    1.7031: real time    1.7038
    ORTHCH:  cpu time    0.0720: real time    0.0720
       DOS:  cpu time    0.0029: real time    0.0029
    CHARGE:  cpu time    0.1109: real time    0.1111
    MIXING:  cpu time    0.0036: real time    0.0036
    --------------------------------------------
      LOOP:  cpu time    2.4131: real time    2.4273

 eigenvalue-minimisations  :   782
 total energy-change (2. order) : 0.1703451E+03  (-0.1348661E+02)
 number of electron     647.0000033 magnetization 
 augmentation part      367.9746755 magnetization 

 Broyden mixing:
  rms(total) = 0.83642E+01    rms(broyden)= 0.83640E+01
  rms(prec ) = 0.97925E+01
  weight for this iteration     100.00

 eigenvalues of (default mixing * dielectric matrix)
  average eigenvalue GAMMA=   0.1178
  0.1443  0.0912

 Free energy of the ion-electron system (eV)
  ---------------------------------------------------
  alpha Z        PSCENC =      1380.44614253
  Ewald energy   TEWEN  =    220073.00583205
  -Hartree energ DENC   =   -282943.70493528
  -exchange      EXHF   =         0.00000000
  -V(xc)+E(xc)   XCENC  =      1708.65526817
  PAW double counting   =     68893.94744724   -72395.34490326
  entropy T*S    EENTRO =        -1.91440084
  eigenvalues    EBANDS =     -1493.29962410
  atomic energy  EATOM  =     64327.20015129
  Solvation  Ediel_sol  =         0.00000000
  ---------------------------------------------------
  free energy    TOTEN  =      -451.00902220 eV

  energy without entropy =     -449.09462136  energy(sigma->0) =     -450.05182178


--------------------------------------------------------------------------------------------------------




--------------------------------------- Iteration      1(   8)  ---------------------------------------


    POTLOK:  cpu time    0.1893: real time    0.2057
    SETDIJ:  cpu time    0.0106: real time    0.0106
    EDDIAG:  cpu time    0.3357: real time    0.3357
  RMM-DIIS:  cpu time    1.7133: real time    1.7136
    ORTHCH:  cpu time    0.0719: real time    0.0719
       DOS:  cpu time    0.0033: real time    0.0033
    CHARGE:  cpu time    0.1114: real time    0.1114
    MIXING:  cpu time    0.0041: real time    0.0041
    --------------------------------------------
      LOOP:  cpu time    2.4396: real time    2.4564

 eigenvalue-minimisations  :   786
 total energy-change (2. order) : 0.3488287E+02  (-0.2506784E+01)
 number of electron     647.0000035 magnetization 
 augmentation part      367.4219756 magnetization 

 Broyden mixing:
  rms(total) = 0.36139E+01    rms(broyden)= 0.36136E+01
  rms(prec ) = 0.40650E+01
  weight for this iteration     100.00

 eigenvalues of (default mixing * dielectric matrix)
  average eigenvalue GAMMA=   0.1054
  0.1278  0.1278  0.0606

 Free energy of the ion-electron system (eV)
  ---------------------------------------------------
  alpha Z        PSCENC =      1380.44614253
  Ewald energy   TEWEN  =    220073.00583205
  -Hartree energ DENC   =   -282903.71821849
  -exchange      EXHF   =         0.00000000
  -V(xc)+E(xc)   XCENC  =      1709.28345047
  PAW double counting   =     68897.40367011   -72402.03075832
  entropy T*S    EENTRO =        -2.72115320
  eigenvalues    EBANDS =     -1494.99526408
  atomic energy  EATOM  =     64327.20015129
  Solvation  Ediel_sol  =         0.00000000
  ---------------------------------------------------
  free energy    TOTEN  =      -416.12614763 eV

  energy without entropy =     -413.40499444  energy(sigma->0) =     -414.76557103


--------------------------------------------------------------------------------------------------------




--------------------------------------- Iteration      1(   9)  ---------------------------------------


    POTLOK:  cpu time    0.1874: real time    0.2021
    SETDIJ:  cpu time    0.0107: real time    0.0107
    EDDIAG:  cpu time    0.3432: real time    0.3433
  RMM-DIIS:  cpu time    1.7627: real time    1.7629
    ORTHCH:  cpu time    0.0718: real time    0.0719
       DOS:  cpu time    0.0026: real time    0.0026
    CHARGE:  cpu time    0.1115: real time    0.1115
    MIXING:  cpu time    0.0038: real time    0.0038
    --------------------------------------------
      LOOP:  cpu time    2.4939: real time    2.5088

 eigenvalue-minimisations  :   822
 total energy-change (2. order) : 0.3515125E+01  (-0.5921764E+00)
 number of electron     647.0000034 magnetization 
 augmentation part      367.7545810 magnetization 

 Broyden mixing:
  rms(total) = 0.24653E+01    rms(broyden)= 0.24652E+01
  rms(prec ) = 0.29958E+01
  weight for this iteration     100.00

 eigenvalues of (default mixing * dielectric matrix)
  average eigenvalue GAMMA=   0.0961
  0.1278  0.1278  0.0644  0.0644

 Free energy of the ion-electron system (eV)
  ---------------------------------------------------
  alpha Z        PSCENC =      1380.44614253
  Ewald energy   TEWEN  =    220073.00583205
  -Hartree energ DENC   =   -282886.75675112
  -exchange      EXHF   =         0.00000000
  -V(xc)+E(xc)   XCENC  =      1709.30977668
  PAW double counting   =     68869.75789202   -72373.13572864
  entropy T*S    EENTRO =        -2.85171746
  eigenvalues    EBANDS =     -1509.58662005
  atomic energy  EATOM  =     64327.20015129
  Solvation  Ediel_sol  =         0.00000000
  ---------------------------------------------------
  free energy    TOTEN  =      -412.61102269 eV

  energy without entropy =     -409.75930523  energy(sigma->0) =     -411.18516396


--------------------------------------------------------------------------------------------------------




--------------------------------------- Iteration      1(  10)  ---------------------------------------


    POTLOK:  cpu time    0.1891: real time    0.2050
    SETDIJ:  cpu time    0.0106: real time    0.0106
    EDDIAG:  cpu time    0.3308: real time    0.3308
  RMM-DIIS:  cpu time    1.9498: real time    1.9553
    ORTHCH:  cpu time    0.0723: real time    0.0723
       DOS:  cpu time    0.0022: real time    0.0022
    CHARGE:  cpu time    0.1121: real time    0.1121
    MIXING:  cpu time    0.0040: real time    0.0040
    --------------------------------------------
      LOOP:  cpu time    2.6709: real time    2.6924

 eigenvalue-minimisations  :   897
 total energy-change (2. order) : 0.9790274E+00  (-0.1019094E+00)
 number of electron     647.0000033 magnetization 
 augmentation part      368.1301035 magnetization 

 Broyden mixing:
  rms(total) = 0.18914E+01    rms(broyden)= 0.18913E+01
  rms(prec ) = 0.20506E+01
  weight for this iteration     100.00

 eigenvalues of (default mixing * dielectric matrix)
  average eigenvalue GAMMA=   0.1140
  0.1594  0.1594  0.1282  0.0818  0.0411

 Free energy of the ion-electron system (eV)
  ---------------------------------------------------
  alpha Z        PSCENC =      1380.44614253
  Ewald energy   TEWEN  =    220073.00583205
  -Hartree energ DENC   =   -282876.72174340
  -exchange      EXHF   =         0.00000000
  -V(xc)+E(xc)   XCENC  =      1709.23401881
  PAW double counting   =     68846.05876095   -72347.87175090
  entropy T*S    EENTRO =        -2.88698909
  eigenvalues    EBANDS =     -1520.09641751
  atomic energy  EATOM  =     64327.20015129
  Solvation  Ediel_sol  =         0.00000000
  ---------------------------------------------------
  free energy    TOTEN  =      -411.63199528 eV

  energy without entropy =     -408.74500619  energy(sigma->0) =     -410.18850073


--------------------------------------------------------------------------------------------------------




--------------------------------------- Iteration      1(  11)  ---------------------------------------


    POTLOK:  cpu time    0.1895: real time    0.2039
    SETDIJ:  cpu time    0.0107: real time    0.0107
    EDDIAG:  cpu time    0.3295: real time    0.3296
  RMM-DIIS:  cpu time    1.7142: real time    1.7150
    ORTHCH:  cpu time    0.0727: real time    0.0727
       DOS:  cpu time    0.0021: real time    0.0021
    CHARGE:  cpu time    0.1109: real time    0.1109
    MIXING:  cpu time    0.0041: real time    0.0041
    --------------------------------------------
      LOOP:  cpu time    2.4336: real time    2.4491

 eigenvalue-minimisations  :   789
 total energy-change (2. order) :-0.1295222E+00  (-0.8225842E-01)
 number of electron     647.0000033 magnetization 
 augmentation part      368.0029122 magnetization 

 Broyden mixing:
  rms(total) = 0.20523E+01    rms(broyden)= 0.20522E+01
  rms(prec ) = 0.25002E+01
  weight for this iteration     100.00

 eigenvalues of (default mixing * dielectric matrix)
  average eigenvalue GAMMA=   0.1568
  0.2720  0.2720  0.1984  0.0981  0.0636  0.0365

 Free energy of the ion-electron system (eV)
  ---------------------------------------------------
  alpha Z        PSCENC =      1380.44614253
  Ewald energy   TEWEN  =    220073.00583205
  -Hartree energ DENC   =   -282878.10127034
  -exchange      EXHF   =         0.00000000
  -V(xc)+E(xc)   XCENC  =      1709.32187477
  PAW double counting   =     68803.18211297   -72303.24233073
  entropy T*S    EENTRO =        -2.99689146
  eigenvalues    EBANDS =     -1520.57713857
  atomic energy  EATOM  =     64327.20015129
  Solvation  Ediel_sol  =         0.00000000
  ---------------------------------------------------
  free energy    TOTEN  =      -411.76151748 eV

  energy without entropy =     -408.76462602  energy(sigma->0) =     -410.26307175


--------------------------------------------------------------------------------------------------------




--------------------------------------- Iteration      1(  12)  ---------------------------------------


    POTLOK:  cpu time    0.1911: real time    0.2057
    SETDIJ:  cpu time    0.0107: real time    0.0107
    EDDIAG:  cpu time    0.3312: real time    0.3312
  RMM-DIIS:  cpu time    1.7072: real time    1.7076
    ORTHCH:  cpu time    0.0725: real time    0.0725
       DOS:  cpu time    0.0026: real time    0.0026
    CHARGE:  cpu time    0.1108: real time    0.1108
    MIXING:  cpu time    0.0045: real time    0.0044
    --------------------------------------------
      LOOP:  cpu time    2.4304: real time    2.4455

 eigenvalue-minimisations  :   785
 total energy-change (2. order) :-0.8705932E+00  (-0.2193001E+00)
 number of electron     647.0000033 magnetization 
 augmentation part      368.3719779 magnetization 

 Broyden mixing:
  rms(total) = 0.26114E+01    rms(broyden)= 0.26113E+01
  rms(prec ) = 0.29719E+01
  weight for this iteration     100.00

 eigenvalues of (default mixing * dielectric matrix)
  average eigenvalue GAMMA=   0.2188
  0.5656  0.4308  0.2323  0.1319  0.0780  0.0570  0.0360

 Free energy of the ion-electron system (eV)
  ---------------------------------------------------
  alpha Z        PSCENC =      1380.44614253
  Ewald energy   TEWEN  =    220073.00583205
  -Hartree energ DENC   =   -282865.68615733
  -exchange      EXHF   =         0.00000000
  -V(xc)+E(xc)   XCENC  =      1709.49443907
  PAW double counting   =     68723.76577992   -72221.00917406
  entropy T*S    EENTRO =        -2.99271233
  eigenvalues    EBANDS =     -1536.85641186
  atomic energy  EATOM  =     64327.20015129
  Solvation  Ediel_sol  =         0.00000000
  ---------------------------------------------------
  free energy    TOTEN  =      -412.63211072 eV

  energy without entropy =     -409.63939839  energy(sigma->0) =     -411.13575456


--------------------------------------------------------------------------------------------------------




--------------------------------------- Iteration      1(  13)  ---------------------------------------


    POTLOK:  cpu time    0.1911: real time    0.2077
    SETDIJ:  cpu time    0.0106: real time    0.0106
    EDDIAG:  cpu time    0.3252: real time    0.3252
  RMM-DIIS:  cpu time    1.7040: real time    1.7044
    ORTHCH:  cpu time    0.0722: real time    0.0722
       DOS:  cpu time    0.0022: real time    0.0022
    CHARGE:  cpu time    0.1115: real time    0.1117
    MIXING:  cpu time    0.0044: real time    0.0044
    --------------------------------------------
      LOOP:  cpu time    2.4212: real time    2.4385

 eigenvalue-minimisations  :   785
 total energy-change (2. order) :-0.4666376E+01  (-0.6458116E+00)
 number of electron     647.0000030 magnetization 
 augmentation part      369.0717064 magnetization 

 Broyden mixing:
  rms(total) = 0.38825E+01    rms(broyden)= 0.38823E+01
  rms(prec ) = 0.44830E+01
  weight for this iteration     100.00

 eigenvalues of (default mixing * dielectric matrix)
  average eigenvalue GAMMA=   0.3125
  1.4902  0.3842  0.1860  0.1860  0.0949  0.0686  0.0543  0.0361

 Free energy of the ion-electron system (eV)
  ---------------------------------------------------
  alpha Z        PSCENC =      1380.44614253
  Ewald energy   TEWEN  =    220073.00583205
  -Hartree energ DENC   =   -282844.19859549
  -exchange      EXHF   =         0.00000000
  -V(xc)+E(xc)   XCENC  =      1709.63591565
  PAW double counting   =     68587.77962041   -72080.23901658
  entropy T*S    EENTRO =        -2.61461665
  eigenvalues    EBANDS =     -1568.31391990
  atomic energy  EATOM  =     64327.20015129
  Solvation  Ediel_sol  =         0.00000000
  ---------------------------------------------------
  free energy    TOTEN  =      -417.29848669 eV

  energy without entropy =     -414.68387003  energy(sigma->0) =     -415.99117836


--------------------------------------------------------------------------------------------------------




--------------------------------------- Iteration      1(  14)  ---------------------------------------


    POTLOK:  cpu time    0.1893: real time    0.2037
    SETDIJ:  cpu time    0.0107: real time    0.0107
    EDDIAG:  cpu time    0.3291: real time    0.3291
  RMM-DIIS:  cpu time    1.7125: real time    1.7142
    ORTHCH:  cpu time    0.0733: real time    0.0733
       DOS:  cpu time    0.0021: real time    0.0021
    CHARGE:  cpu time    0.1109: real time    0.1109
    MIXING:  cpu time    0.0046: real time    0.0046
    --------------------------------------------
      LOOP:  cpu time    2.4324: real time    2.4486

 eigenvalue-minimisations  :   786
 total energy-change (2. order) : 0.2466176E+00  (-0.6273012E+00)
 number of electron     647.0000036 magnetization 
 augmentation part      368.4857769 magnetization 

 Broyden mixing:
  rms(total) = 0.38800E+01    rms(broyden)= 0.38799E+01
  rms(prec ) = 0.44892E+01
  weight for this iteration     100.00

 eigenvalues of (default mixing * dielectric matrix)
  average eigenvalue GAMMA=   0.3310
  1.8714  0.3843  0.1914  0.1914  0.0979  0.0859  0.0361  0.0678  0.0529

 Free energy of the ion-electron system (eV)
  ---------------------------------------------------
  alpha Z        PSCENC =      1380.44614253
  Ewald energy   TEWEN  =    220073.00583205
  -Hartree energ DENC   =   -282856.87269127
  -exchange      EXHF   =         0.00000000
  -V(xc)+E(xc)   XCENC  =      1710.43582804
  PAW double counting   =     68444.74415875   -71936.87425904
  entropy T*S    EENTRO =        -2.72730228
  eigenvalues    EBANDS =     -1556.40972916
  atomic energy  EATOM  =     64327.20015129
  Solvation  Ediel_sol  =         0.00000000
  ---------------------------------------------------
  free energy    TOTEN  =      -417.05186909 eV

  energy without entropy =     -414.32456681  energy(sigma->0) =     -415.68821795


--------------------------------------------------------------------------------------------------------




--------------------------------------- Iteration      1(  15)  ---------------------------------------


    POTLOK:  cpu time    0.1899: real time    0.2044
    SETDIJ:  cpu time    0.0106: real time    0.0106
    EDDIAG:  cpu time    0.3295: real time    0.3295
  RMM-DIIS:  cpu time    1.7239: real time    1.7243
    ORTHCH:  cpu time    0.0718: real time    0.0718
       DOS:  cpu time    0.0029: real time    0.0029
    CHARGE:  cpu time    0.1108: real time    0.1109
    MIXING:  cpu time    0.0047: real time    0.0047
    --------------------------------------------
      LOOP:  cpu time    2.4442: real time    2.4592

 eigenvalue-minimisations  :   786
 total energy-change (2. order) : 0.4301007E+01  (-0.3482237E+00)
 number of electron     647.0000033 magnetization 
 augmentation part      368.1991347 magnetization 

 Broyden mixing:
  rms(total) = 0.23784E+01    rms(broyden)= 0.23782E+01
  rms(prec ) = 0.27426E+01
  weight for this iteration     100.00

 eigenvalues of (default mixing * dielectric matrix)
  average eigenvalue GAMMA=   0.3198
  1.9871  0.3681  0.1926  0.1926  0.1214  0.1214  0.0711  0.0361  0.0562  0.0515

 Free energy of the ion-electron system (eV)
  ---------------------------------------------------
  alpha Z        PSCENC =      1380.44614253
  Ewald energy   TEWEN  =    220073.00583205
  -Hartree energ DENC   =   -282866.47153878
  -exchange      EXHF   =         0.00000000
  -V(xc)+E(xc)   XCENC  =      1710.70250230
  PAW double counting   =     68376.90918850   -71868.78632067
  entropy T*S    EENTRO =        -2.98451289
  eigenvalues    EBANDS =     -1542.77230670
  atomic energy  EATOM  =     64327.20015129
  Solvation  Ediel_sol  =         0.00000000
  ---------------------------------------------------
  free energy    TOTEN  =      -412.75086236 eV

  energy without entropy =     -409.76634948  energy(sigma->0) =     -411.25860592


--------------------------------------------------------------------------------------------------------




--------------------------------------- Iteration      1(  16)  ---------------------------------------


    POTLOK:  cpu time    0.1893: real time    0.2046
    SETDIJ:  cpu time    0.0111: real time    0.0111
    EDDIAG:  cpu time    0.3290: real time    0.3290
  RMM-DIIS:  cpu time    1.6626: real time    1.6630
    ORTHCH:  cpu time    0.0729: real time    0.0729
       DOS:  cpu time    0.0022: real time    0.0022
    CHARGE:  cpu time    0.1109: real time    0.1109
    MIXING:  cpu time    0.0050: real time    0.0050
    --------------------------------------------
      LOOP:  cpu time    2.3830: real time    2.3988

 eigenvalue-minimisations  :   784
 total energy-change (2. order) : 0.1412202E+01  (-0.1570593E+00)
 number of electron     647.0000031 magnetization 
 augmentation part      368.0981077 magnetization 

 Broyden mixing:
  rms(total) = 0.15269E+01    rms(broyden)= 0.15268E+01
  rms(prec ) = 0.17522E+01
  weight for this iteration     100.00

 eigenvalues of (default mixing * dielectric matrix)
  average eigenvalue GAMMA=   0.3209
  2.0720  0.3392  0.3392  0.1813  0.1813  0.1249  0.0790  0.0361  0.0662  0.0592
  0.0510

 Free energy of the ion-electron system (eV)
  ---------------------------------------------------
  alpha Z        PSCENC =      1380.44614253
  Ewald energy   TEWEN  =    220073.00583205
  -Hartree energ DENC   =   -282865.32438699
  -exchange      EXHF   =         0.00000000
  -V(xc)+E(xc)   XCENC  =      1710.67656080
  PAW double counting   =     68354.24569853   -71845.43729913
  entropy T*S    EENTRO =        -3.05076561
  eigenvalues    EBANDS =     -1543.10059417
  atomic energy  EATOM  =     64327.20015129
  Solvation  Ediel_sol  =         0.00000000
  ---------------------------------------------------
  free energy    TOTEN  =      -411.33866071 eV

  energy without entropy =     -408.28789510  energy(sigma->0) =     -409.81327790


--------------------------------------------------------------------------------------------------------




--------------------------------------- Iteration      1(  17)  ---------------------------------------


    POTLOK:  cpu time    0.1904: real time    0.2064
    SETDIJ:  cpu time    0.0111: real time    0.0111
    EDDIAG:  cpu time    0.3346: real time    0.3346
  RMM-DIIS:  cpu time    1.6475: real time    1.6477
    ORTHCH:  cpu time    0.0727: real time    0.0727
       DOS:  cpu time    0.0020: real time    0.0020
    CHARGE:  cpu time    0.1111: real time    0.1111
    MIXING:  cpu time    0.0051: real time    0.0051
    --------------------------------------------
      LOOP:  cpu time    2.3745: real time    2.3908

 eigenvalue-minimisations  :   785
 total energy-change (2. order) :-0.5295893E+00  (-0.1098433E+00)
 number of electron     647.0000031 magnetization 
 augmentation part      368.4296295 magnetization 

 Broyden mixing:
  rms(total) = 0.20845E+01    rms(broyden)= 0.20844E+01
  rms(prec ) = 0.24480E+01
  weight for this iteration     100.00

 eigenvalues of (default mixing * dielectric matrix)
  average eigenvalue GAMMA=   0.3395
  2.2374  0.5157  0.4421  0.1932  0.1932  0.1300  0.0919  0.0710  0.0361  0.0618
  0.0531  0.0484

 Free energy of the ion-electron system (eV)
  ---------------------------------------------------
  alpha Z        PSCENC =      1380.44614253
  Ewald energy   TEWEN  =    220073.00583205
  -Hartree energ DENC   =   -282858.85756991
  -exchange      EXHF   =         0.00000000
  -V(xc)+E(xc)   XCENC  =      1710.43042253
  PAW double counting   =     68326.01849978   -71815.04295226
  entropy T*S    EENTRO =        -2.99514921
  eigenvalues    EBANDS =     -1552.07362681
  atomic energy  EATOM  =     64327.20015129
  Solvation  Ediel_sol  =         0.00000000
  ---------------------------------------------------
  free energy    TOTEN  =      -411.86825002 eV

  energy without entropy =     -408.87310081  energy(sigma->0) =     -410.37067541


--------------------------------------------------------------------------------------------------------




--------------------------------------- Iteration      1(  18)  ---------------------------------------


    POTLOK:  cpu time    0.1891: real time    0.2048
[...]
     -0.006295  1.399485  8.149702            0           0           0  
      3.752546  2.173232  6.069912            0           0           0  
      2.501779  1.448901  2.028694            0           0           0  
      2.490295  1.445362  8.023675            0           0           0  
      6.256430  2.188317  6.105742            0           0           0  
      5.000415  1.451879  2.049057            0           0           0  
      5.000166  1.376661  8.126764            0           0           0  
      7.526795  1.447737  2.043718            0           0           0  
      7.517843  1.426379  8.032797            0           0           0  
      6.257241  0.721203  4.080676            0           0           0  
      8.777249  0.712311  4.069361            0           0           0  
     -2.491336  4.348073  6.059617            0           0           0  
     -1.274668  3.613152  2.033059            0           0           0  
     -1.285598  3.621907  8.129407            0           0           0  
     -0.008603  2.899851  4.069912            0           0           0  
      5.026739  4.365685  6.115006            0           0           0  
      3.764922  3.613804  2.032742            0           0           0  
      3.710050  3.617052  8.157541            0           0           0  
      6.259069  6.519986  6.076358            0           0           0  
     -1.259210  6.510877  6.037314            0           0           0  
     -2.509640  5.801439  2.008671            0           0           0  
     -2.478689  5.759390  8.069447            0           0           0  
      1.268162  6.507518  6.074838            0           0           0  
     -0.006663  5.794258  2.000004            0           0           0  
     -0.006849  5.777453  8.017694            0           0           0  
      3.795848  6.500763  6.102287            0           0           0  
      2.503083  5.789092  2.002568            0           0           0  
      2.482271  5.744059  8.153996            0           0           0  
      1.259453  5.053778  4.043256            0           0           0  
      5.014448  5.797983  2.012527            0           0           0  
      5.032457  5.799905  8.248169            0           0           0  
      6.271379  5.064519  4.042768            0           0           0  
     -3.765172  7.961479  2.016913            0           0           0  
     -3.781185  7.997702  8.078605            0           0           0  
     -1.246538  7.963181  2.021066            0           0           0  
     -1.230139  7.971079  8.112180            0           0           0  
     -2.515837  7.252772  4.054867            0           0           0  
      0.009631  7.225914  4.069573            0           0           0  
      3.747565  7.964015  2.041302            0           0           0  
      3.788339  7.992940  8.123778            0           0           0  
      2.502221  7.236516  4.075548            0           0           0  
      5.018012  7.234997  4.071755            0           0           0  
      1.209504  0.713040  4.053617            0           0           0  
      3.780488  0.677925  4.063513            0           0           0  
      0.000461  4.329727  6.093358            0           0           0  
      2.557431  4.370540  6.131961            0           0           0  
      1.230982  3.622235  2.029415            0           0           0  
      1.287310  3.619046  8.202449            0           0           0  
      2.513335  2.878065  4.079383            0           0           0  
      6.260244  3.633063  2.002123            0           0           0  
      6.307222  3.605068  8.129821            0           0           0  
      5.024625  2.886427  4.118223            0           0           0  
      7.529969  2.839093  4.109959            0           0           0  
     -1.253597  5.108762  4.014883            0           0           0  
      3.759753  5.117054  4.022978            0           0           0  
      1.251807  7.958501  2.030665            0           0           0  
      1.214519  7.969409  8.102892            0           0           0  
      5.051356  2.851367  9.228814            0           0           0  
     -2.523079  7.226740  9.223931            0           0           0  
     -0.023319  2.879375  9.265635            0           0           0  
      2.471833  7.286586  9.224853            0           0           0  
      4.961410  5.693892 10.084525     0.534972    0.351980    0.112677  
      5.795167  6.332231 10.992880     0.618630    0.397975   -0.054058  
     -3.497379  6.748885 10.421468     0.153555    0.085982   -0.047299  
 
   8 f  =    2.435183 THz    15.300709 2PiTHz   81.228975 cm-1    10.071113 meV
             X         Y         Z           dx          dy          dz
     10.015458  0.008000  6.082119            0           0           0  
      2.493582  0.009138  6.036590            0           0           0  
     -0.012924  8.676938  6.090894            0           0           0  
      2.494092  8.670682  6.067488            0           0           0  
      8.772903  2.160642  6.081285            0           0           0  
      1.256302  2.196003  6.089063            0           0           0  
     -0.002848  1.444334  2.027296            0           0           0  
     -0.006295  1.399485  8.149702            0           0           0  
      3.752546  2.173232  6.069912            0           0           0  
      2.501779  1.448901  2.028694            0           0           0  
      2.490295  1.445362  8.023675            0           0           0  
      6.256430  2.188317  6.105742            0           0           0  
      5.000415  1.451879  2.049057            0           0           0  
      5.000166  1.376661  8.126764            0           0           0  
      7.526795  1.447737  2.043718            0           0           0  
      7.517843  1.426379  8.032797            0           0           0  
      6.257241  0.721203  4.080676            0           0           0  
      8.777249  0.712311  4.069361            0           0           0  
     -2.491336  4.348073  6.059617            0           0           0  
     -1.274668  3.613152  2.033059            0           0           0  
     -1.285598  3.621907  8.129407            0           0           0  
     -0.008603  2.899851  4.069912            0           0           0  
      5.026739  4.365685  6.115006            0           0           0  
      3.764922  3.613804  2.032742            0           0           0  
      3.710050  3.617052  8.157541            0           0           0  
      6.259069  6.519986  6.076358            0           0           0  
     -1.259210  6.510877  6.037314            0           0           0  
     -2.509640  5.801439  2.008671            0           0           0  
     -2.478689  5.759390  8.069447            0           0           0  
      1.268162  6.507518  6.074838            0           0           0  
     -0.006663  5.794258  2.000004            0           0           0  
     -0.006849  5.777453  8.017694            0           0           0  
      3.795848  6.500763  6.102287            0           0           0  
      2.503083  5.789092  2.002568            0           0           0  
      2.482271  5.744059  8.153996            0           0           0  
      1.259453  5.053778  4.043256            0           0           0  
      5.014448  5.797983  2.012527            0           0           0  
      5.032457  5.799905  8.248169            0           0           0  
      6.271379  5.064519  4.042768            0           0           0  
     -3.765172  7.961479  2.016913            0           0           0  
     -3.781185  7.997702  8.078605            0           0           0  
     -1.246538  7.963181  2.021066            0           0           0  
     -1.230139  7.971079  8.112180            0           0           0  
     -2.515837  7.252772  4.054867            0           0           0  
      0.009631  7.225914  4.069573            0           0           0  
      3.747565  7.964015  2.041302            0           0           0  
      3.788339  7.992940  8.123778            0           0           0  
      2.502221  7.236516  4.075548            0           0           0  
      5.018012  7.234997  4.071755            0           0           0  
      1.209504  0.713040  4.053617            0           0           0  
      3.780488  0.677925  4.063513            0           0           0  
      0.000461  4.329727  6.093358            0           0           0  
      2.557431  4.370540  6.131961            0           0           0  
      1.230982  3.622235  2.029415            0           0           0  
      1.287310  3.619046  8.202449            0           0           0  
      2.513335  2.878065  4.079383            0           0           0  
      6.260244  3.633063  2.002123            0           0           0  
      6.307222  3.605068  8.129821            0           0           0  
      5.024625  2.886427  4.118223            0           0           0  
      7.529969  2.839093  4.109959            0           0           0  
     -1.253597  5.108762  4.014883            0           0           0  
      3.759753  5.117054  4.022978            0           0           0  
      1.251807  7.958501  2.030665            0           0           0  
      1.214519  7.969409  8.102892            0           0           0  
      5.051356  2.851367  9.228814            0           0           0  
     -2.523079  7.226740  9.223931            0           0           0  
     -0.023319  2.879375  9.265635            0           0           0  
      2.471833  7.286586  9.224853            0           0           0  
      4.961410  5.693892 10.084525     0.411353   -0.595300   -0.017066  
      5.795167  6.332231 10.992880     0.359996   -0.581079    0.020583  
     -3.497379  6.748885 10.421468     0.051009   -0.076280    0.004569  
 
   9 f/i=    4.512046 THz    28.350019 2PiTHz  150.505637 cm-1    18.660327 meV
             X         Y         Z           dx          dy          dz
     10.015458  0.008000  6.082119            0           0           0  
      2.493582  0.009138  6.036590            0           0           0  
     -0.012924  8.676938  6.090894            0           0           0  
      2.494092  8.670682  6.067488            0           0           0  
      8.772903  2.160642  6.081285            0           0           0  
      1.256302  2.196003  6.089063            0           0           0  
     -0.002848  1.444334  2.027296            0           0           0  
     -0.006295  1.399485  8.149702            0           0           0  
      3.752546  2.173232  6.069912            0           0           0  
      2.501779  1.448901  2.028694            0           0           0  
      2.490295  1.445362  8.023675            0           0           0  
      6.256430  2.188317  6.105742            0           0           0  
      5.000415  1.451879  2.049057            0           0           0  
      5.000166  1.376661  8.126764            0           0           0  
      7.526795  1.447737  2.043718            0           0           0  
      7.517843  1.426379  8.032797            0           0           0  
      6.257241  0.721203  4.080676            0           0           0  
      8.777249  0.712311  4.069361            0           0           0  
     -2.491336  4.348073  6.059617            0           0           0  
     -1.274668  3.613152  2.033059            0           0           0  
     -1.285598  3.621907  8.129407            0           0           0  
     -0.008603  2.899851  4.069912            0           0           0  
      5.026739  4.365685  6.115006            0           0           0  
      3.764922  3.613804  2.032742            0           0           0  
      3.710050  3.617052  8.157541            0           0           0  
      6.259069  6.519986  6.076358            0           0           0  
     -1.259210  6.510877  6.037314            0           0           0  
     -2.509640  5.801439  2.008671            0           0           0  
     -2.478689  5.759390  8.069447            0           0           0  
      1.268162  6.507518  6.074838            0           0           0  
     -0.006663  5.794258  2.000004            0           0           0  
     -0.006849  5.777453  8.017694            0           0           0  
      3.795848  6.500763  6.102287            0           0           0  
      2.503083  5.789092  2.002568            0           0           0  
      2.482271  5.744059  8.153996            0           0           0  
      1.259453  5.053778  4.043256            0           0           0  
      5.014448  5.797983  2.012527            0           0           0  
      5.032457  5.799905  8.248169            0           0           0  
      6.271379  5.064519  4.042768            0           0           0  
     -3.765172  7.961479  2.016913            0           0           0  
     -3.781185  7.997702  8.078605            0           0           0  
     -1.246538  7.963181  2.021066            0           0           0  
     -1.230139  7.971079  8.112180            0           0           0  
     -2.515837  7.252772  4.054867            0           0           0  
      0.009631  7.225914  4.069573            0           0           0  
      3.747565  7.964015  2.041302            0           0           0  
      3.788339  7.992940  8.123778            0           0           0  
      2.502221  7.236516  4.075548            0           0           0  
      5.018012  7.234997  4.071755            0           0           0  
      1.209504  0.713040  4.053617            0           0           0  
      3.780488  0.677925  4.063513            0           0           0  
      0.000461  4.329727  6.093358            0           0           0  
      2.557431  4.370540  6.131961            0           0           0  
      1.230982  3.622235  2.029415            0           0           0  
      1.287310  3.619046  8.202449            0           0           0  
      2.513335  2.878065  4.079383            0           0           0  
      6.260244  3.633063  2.002123            0           0           0  
      6.307222  3.605068  8.129821            0           0           0  
      5.024625  2.886427  4.118223            0           0           0  
      7.529969  2.839093  4.109959            0           0           0  
     -1.253597  5.108762  4.014883            0           0           0  
      3.759753  5.117054  4.022978            0           0           0  
      1.251807  7.958501  2.030665            0           0           0  
      1.214519  7.969409  8.102892            0           0           0  
      5.051356  2.851367  9.228814            0           0           0  
     -2.523079  7.226740  9.223931            0           0           0  
     -0.023319  2.879375  9.265635            0           0           0  
      2.471833  7.286586  9.224853            0           0           0  
      4.961410  5.693892 10.084525     0.405597   -0.556524   -0.011251  
      5.795167  6.332231 10.992880    -0.413868    0.588959   -0.056582  
     -3.497379  6.748885 10.421468    -0.036383    0.054025    0.006495  
 
 Finite differences POTIM=  1.500000000000000E-002
     LOOP+:  cpu time   49.0112: real time   49.3411
    4ORBIT:  cpu time    0.0000: real time    0.0000
 


 total charge     
 
# of ion       s       p       d       tot
------------------------------------------
    1        0.501   0.497   8.329   9.327
    2        0.498   0.486   8.339   9.323
    3        0.504   0.504   8.328   9.336
    4        0.489   0.482   8.339   9.310
    5        0.494   0.486   8.341   9.322
    6        0.502   0.501   8.317   9.319
    7        0.490   0.363   8.323   9.177
    8        0.484   0.481   8.345   9.310
    9        0.502   0.496   8.334   9.332
   10        0.495   0.366   8.313   9.174
   11        0.480   0.363   8.381   9.224
   12        0.500   0.503   8.328   9.331
   13        0.498   0.377   8.309   9.184
   14        0.497   0.501   8.331   9.328
   15        0.494   0.370   8.315   9.179
   16        0.485   0.367   8.376   9.228
   17        0.508   0.500   8.326   9.334
   18        0.499   0.495   8.336   9.330
   19        0.508   0.509   8.318   9.334
   20        0.500   0.376   8.310   9.186
   21        0.495   0.499   8.326   9.320
   22        0.506   0.509   8.312   9.328
   23        0.495   0.487   8.318   9.301
   24        0.500   0.377   8.305   9.181
   25        0.489   0.483   8.322   9.294
   26        0.481   0.465   8.347   9.293
   27        0.494   0.487   8.340   9.322
   28        0.491   0.365   8.324   9.180
   29        0.488   0.491   8.336   9.315
   30        0.496   0.491   8.329   9.316
   31        0.497   0.369   8.315   9.181
   32        0.490   0.375   8.366   9.231
   33        0.491   0.478   8.329   9.298
   34        0.495   0.367   8.313   9.176
   35        0.486   0.483   8.326   9.295
   36        0.502   0.502   8.308   9.313
   37        0.491   0.363   8.323   9.177
   38        0.472   0.467   8.324   9.264
   39        0.499   0.493   8.315   9.307
   40        0.483   0.354   8.329   9.165
   41        0.488   0.485   8.343   9.316
   42        0.493   0.363   8.320   9.176
   43        0.492   0.491   8.325   9.307
   44        0.500   0.499   8.332   9.330
   45        0.501   0.500   8.327   9.328
   46        0.486   0.359   8.327   9.172
   47        0.484   0.478   8.344   9.306
   48        0.493   0.490   8.328   9.311
   49        0.496   0.490   8.336   9.323
   50        0.462   0.480   6.274   7.217
   51        0.464   0.489   6.272   7.226
   52        0.458   0.480   6.263   7.200
   53        0.469   0.493   6.263   7.225
   54        0.442   0.347   6.259   7.048
   55        0.460   0.480   6.281   7.222
   56        0.466   0.488   6.262   7.216
   57        0.442   0.344   6.249   7.035
   58        0.451   0.476   6.292   7.219
   59        0.466   0.491   6.261   7.218
   60        0.463   0.486   6.266   7.215
   61        0.460   0.476   6.272   7.208
   62        0.460   0.474   6.270   7.204
   63        0.441   0.347   6.253   7.041
   64        0.463   0.500   6.301   7.263
   65        1.585   3.331   0.000   4.916
   66        1.574   3.369   0.000   4.944
   67        1.584   3.332   0.000   4.915
   68        1.585   3.329   0.000   4.914
   69        1.592   3.279   0.000   4.870
   70        1.587   3.389   0.000   4.976
   71        0.555   0.107   0.000   0.662
--------------------------------------------------
tot         41.133  49.067 502.167 592.367
 

 total amount of memory used by VASP MPI-rank0    55381. kBytes
=======================================================================

   base      :      30000. kBytes
   nonlr-proj:       4006. kBytes
   fftplans  :       5965. kBytes
   grid      :      13166. kBytes
   one-center:         23. kBytes
   wavefun   :       2221. kBytes
 
  
  
 General timing and accounting informations for this job:
 ========================================================
  
                  Total CPU time used (sec):     1099.335
                            User time (sec):     1091.059
                          System time (sec):        8.276
                         Elapsed time (sec):     1111.177
  
                   Maximum memory used (kb):      298352.
                   Average memory used (kb):           0.
  
                          Minor page faults:      2230037
                          Major page faults:            0
                 Voluntary context switches:         1842
