  70  70   1   0
  0.2690107E+02  0.1011163E-08  0.1011163E-08  0.2126643E-08  0.5000000E-15
  1.000000000000000E-004
  CAR 
 SQS-NiFe                                
      5.43843423    -22.75738016  301     -0.13459400      1.00000000
    -22.757  0.0000E+00  0.0000E+00  0.0000E+00  0.0000E+00
    -22.663  0.0000E+00  0.0000E+00  0.0000E+00  0.0000E+00
    -22.569  0.0000E+00  0.0000E+00  0.0000E+00  0.0000E+00
    -22.475  0.0000E+00  0.0000E+00  0.0000E+00  0.0000E+00
    -22.381 -0.5670E-29  0.0000E+00 -0.5329E-30  0.0000E+00
    -22.287 -0.8832E-26  0.0000E+00 -0.8307E-27  0.0000E+00
    -22.193 -0.8815E-23 -0.4090E-30 -0.8293E-24 -0.3844E-31
    -22.099 -0.5631E-20 -0.7424E-27 -0.5301E-21 -0.6981E-28
    -22.005 -0.2301E-17 -0.8636E-24 -0.2168E-18 -0.8123E-25
    -21.912 -0.5828E-15 -0.6431E-21 -0.5499E-16 -0.6053E-22
    -21.818 -0.9659E-13 -0.3064E-18 -0.9133E-14 -0.2886E-19
    -21.724 -0.1018E-10 -0.9333E-16 -0.9658E-12 -0.8801E-17
    -21.630 -0.6801E-09 -0.1755E-13 -0.6488E-10 -0.1658E-14
    -21.536 -0.2867E-07 -0.2161E-11 -0.2760E-08 -0.2048E-12
    -21.442 -0.7572E-06 -0.1690E-09 -0.7392E-07 -0.1609E-10
    -21.348 -0.1237E-04 -0.8351E-08 -0.1236E-05 -0.8009E-09
    -21.254 -0.1221E-03 -0.2593E-06 -0.1271E-04 -0.2517E-07
    -21.160 -0.6930E-03 -0.5005E-05 -0.7785E-04 -0.4956E-06
    -21.066 -0.1942E-02 -0.5897E-04 -0.2604E-03 -0.6038E-05
    -20.972 -0.5658E-03 -0.4085E-03 -0.3135E-03 -0.4443E-04
    -20.878  0.1186E-01 -0.1507E-02  0.8011E-03 -0.1861E-03
    -20.784  0.3336E-01 -0.1830E-02  0.3937E-02 -0.3581E-03
    -20.690  0.4076E-01  0.5962E-02  0.7767E-02  0.2023E-03
    -20.596  0.2398E-01  0.2615E-01  0.1002E-01  0.2661E-02
    -20.502  0.4612E-02  0.4124E-01  0.1046E-01  0.6536E-02
    -20.408 -0.1993E-02  0.3147E-01  0.1027E-01  0.9494E-02
    -20.314 -0.1374E-02  0.1005E-01  0.1014E-01  0.1044E-01
    -20.220 -0.3477E-03 -0.1043E-02  0.1011E-01  0.1034E-01
    -20.126 -0.5015E-04 -0.1833E-02  0.1010E-01  0.1017E-01
    -20.032 -0.4023E-04 -0.6022E-03  0.1010E-01  0.1011E-01
    -19.938 -0.3087E-03 -0.1014E-03  0.1007E-01  0.1010E-01
    -19.844 -0.1506E-02 -0.2814E-04  0.9927E-02  0.1010E-01
    -19.750 -0.3529E-02 -0.1771E-03  0.9595E-02  0.1008E-01
    -19.656  0.5592E-03 -0.9895E-03  0.9648E-02  0.9990E-02
    -19.562  0.2450E-01 -0.2882E-02  0.1195E-01  0.9719E-02
    -19.468  0.6155E-01 -0.1845E-02  0.1774E-01  0.9545E-02
    -19.374  0.7359E-01  0.1407E-01  0.2465E-01  0.1087E-01
    -19.280  0.5339E-01  0.4749E-01  0.2967E-01  0.1533E-01
    -19.186  0.4788E-01  0.7194E-01  0.3417E-01  0.2209E-01
    -19.092  0.6894E-01  0.6894E-01  0.4065E-01  0.2857E-01
    -18.998  0.6956E-01  0.6489E-01  0.4719E-01  0.3467E-01
    -18.904  0.3611E-01  0.7386E-01  0.5058E-01  0.4161E-01
    -18.810  0.5498E-02  0.6514E-01  0.5110E-01  0.4774E-01
    -18.716 -0.3521E-02  0.3142E-01  0.5077E-01  0.5069E-01
    -18.622 -0.2163E-02  0.3984E-02  0.5056E-01  0.5106E-01
    -18.528 -0.5414E-03 -0.3430E-02  0.5051E-01  0.5074E-01
    -18.434 -0.7548E-04 -0.1957E-02  0.5051E-01  0.5056E-01
    -18.340 -0.6317E-05 -0.4770E-03  0.5051E-01  0.5051E-01
    -18.246 -0.3268E-06 -0.6526E-04  0.5051E-01  0.5051E-01
    -18.152 -0.1060E-07 -0.5369E-05  0.5051E-01  0.5051E-01
    -18.058 -0.2171E-09 -0.2731E-06  0.5051E-01  0.5051E-01
    -17.964 -0.2823E-11 -0.8700E-08  0.5051E-01  0.5051E-01
    -17.870 -0.2336E-13 -0.1749E-09  0.5051E-01  0.5051E-01
    -17.776 -0.1193E-15 -0.2230E-11  0.5051E-01  0.5051E-01
    -17.682  0.0000E+00 -0.1808E-13  0.5051E-01  0.5051E-01
    -17.588  0.0000E+00 -0.9546E-16  0.5051E-01  0.5051E-01
    -17.494  0.0000E+00  0.0000E+00  0.5051E-01  0.5051E-01
    -17.400  0.0000E+00  0.0000E+00  0.5051E-01  0.5051E-01
    -17.306  0.0000E+00  0.0000E+00  0.5051E-01  0.5051E-01
    -17.212  0.0000E+00  0.0000E+00  0.5051E-01  0.5051E-01
    -17.118  0.0000E+00  0.0000E+00  0.5051E-01  0.5051E-01
    -17.024  0.0000E+00  0.0000E+00  0.5051E-01  0.5051E-01
    -16.930  0.0000E+00  0.0000E+00  0.5051E-01  0.5051E-01
    -16.836  0.0000E+00  0.0000E+00  0.5051E-01  0.5051E-01
    -16.742  0.0000E+00  0.0000E+00  0.5051E-01  0.5051E-01
    -16.648  0.0000E+00  0.0000E+00  0.5051E-01  0.5051E-01
    -16.554  0.0000E+00  0.0000E+00  0.5051E-01  0.5051E-01
    -16.460  0.0000E+00  0.0000E+00  0.5051E-01  0.5051E-01
    -16.366  0.0000E+00  0.0000E+00  0.5051E-01  0.5051E-01
    -16.272  0.0000E+00  0.0000E+00  0.5051E-01  0.5051E-01
    -16.178  0.0000E+00  0.0000E+00  0.5051E-01  0.5051E-01
    -16.084  0.0000E+00  0.0000E+00  0.5051E-01  0.5051E-01
    -15.990  0.0000E+00  0.0000E+00  0.5051E-01  0.5051E-01
    -15.896  0.0000E+00  0.0000E+00  0.5051E-01  0.5051E-01
    -15.802  0.0000E+00  0.0000E+00  0.5051E-01  0.5051E-01
    -15.708  0.0000E+00  0.0000E+00  0.5051E-01  0.5051E-01
    -15.614  0.0000E+00  0.0000E+00  0.5051E-01  0.5051E-01
    -15.520  0.0000E+00  0.0000E+00  0.5051E-01  0.5051E-01
    -15.426  0.0000E+00  0.0000E+00  0.5051E-01  0.5051E-01
    -15.332  0.0000E+00  0.0000E+00  0.5051E-01  0.5051E-01
    -15.238  0.0000E+00  0.0000E+00  0.5051E-01  0.5051E-01
    -15.145  0.0000E+00  0.0000E+00  0.5051E-01  0.5051E-01
    -15.051  0.0000E+00  0.0000E+00  0.5051E-01  0.5051E-01
    -14.957  0.0000E+00  0.0000E+00  0.5051E-01  0.5051E-01
    -14.863  0.0000E+00  0.0000E+00  0.5051E-01  0.5051E-01
    -14.769  0.0000E+00  0.0000E+00  0.5051E-01  0.5051E-01
    -14.675  0.0000E+00  0.0000E+00  0.5051E-01  0.5051E-01
    -14.581  0.0000E+00  0.0000E+00  0.5051E-01  0.5051E-01
    -14.487  0.0000E+00  0.0000E+00  0.5051E-01  0.5051E-01
    -14.393  0.0000E+00  0.0000E+00  0.5051E-01  0.5051E-01
    -14.299  0.0000E+00  0.0000E+00  0.5051E-01  0.5051E-01
    -14.205  0.0000E+00  0.0000E+00  0.5051E-01  0.5051E-01
    -14.111  0.0000E+00  0.0000E+00  0.5051E-01  0.5051E-01
    -14.017  0.0000E+00  0.0000E+00  0.5051E-01  0.5051E-01
    -13.923  0.0000E+00  0.0000E+00  0.5051E-01  0.5051E-01
    -13.829  0.0000E+00  0.0000E+00  0.5051E-01  0.5051E-01
    -13.735  0.0000E+00  0.0000E+00  0.5051E-01  0.5051E-01
    -13.641  0.0000E+00  0.0000E+00  0.5051E-01  0.5051E-01
    -13.547  0.0000E+00  0.0000E+00  0.5051E-01  0.5051E-01
    -13.453  0.0000E+00  0.0000E+00  0.5051E-01  0.5051E-01
    -13.359  0.0000E+00  0.0000E+00  0.5051E-01  0.5051E-01
    -13.265  0.0000E+00  0.0000E+00  0.5051E-01  0.5051E-01
    -13.171  0.0000E+00  0.0000E+00  0.5051E-01  0.5051E-01
    -13.077  0.0000E+00  0.0000E+00  0.5051E-01  0.5051E-01
    -12.983  0.0000E+00  0.0000E+00  0.5051E-01  0.5051E-01
    -12.889  0.0000E+00  0.0000E+00  0.5051E-01  0.5051E-01
    -12.795  0.0000E+00  0.0000E+00  0.5051E-01  0.5051E-01
    -12.701  0.0000E+00  0.0000E+00  0.5051E-01  0.5051E-01
    -12.607  0.0000E+00  0.0000E+00  0.5051E-01  0.5051E-01
    -12.513  0.0000E+00  0.0000E+00  0.5051E-01  0.5051E-01
    -12.419  0.0000E+00  0.0000E+00  0.5051E-01  0.5051E-01
    -12.325  0.0000E+00  0.0000E+00  0.5051E-01  0.5051E-01
    -12.231  0.0000E+00  0.0000E+00  0.5051E-01  0.5051E-01
    -12.137  0.0000E+00  0.0000E+00  0.5051E-01  0.5051E-01
    -12.043  0.0000E+00  0.0000E+00  0.5051E-01  0.5051E-01
    -11.949  0.0000E+00  0.0000E+00  0.5051E-01  0.5051E-01
    -11.855  0.0000E+00  0.0000E+00  0.5051E-01  0.5051E-01
    -11.761  0.0000E+00  0.0000E+00  0.5051E-01  0.5051E-01
    -11.667  0.0000E+00  0.0000E+00  0.5051E-01  0.5051E-01
    -11.573  0.0000E+00  0.0000E+00  0.5051E-01  0.5051E-01
    -11.479  0.0000E+00  0.0000E+00  0.5051E-01  0.5051E-01
    -11.385  0.0000E+00  0.0000E+00  0.5051E-01  0.5051E-01
    -11.291  0.0000E+00  0.0000E+00  0.5051E-01  0.5051E-01
    -11.197  0.0000E+00  0.0000E+00  0.5051E-01  0.5051E-01
    -11.103  0.0000E+00  0.0000E+00  0.5051E-01  0.5051E-01
    -11.009  0.0000E+00  0.0000E+00  0.5051E-01  0.5051E-01
    -10.915 -0.6676E-30  0.0000E+00  0.5051E-01  0.5051E-01
    -10.821 -0.1178E-26  0.0000E+00  0.5051E-01  0.5051E-01
    -10.727 -0.1331E-23 -0.5807E-30  0.5051E-01  0.5051E-01
    -10.633 -0.9633E-21 -0.1033E-26  0.5051E-01  0.5051E-01
    -10.539 -0.4460E-18 -0.1177E-23  0.5051E-01  0.5051E-01
    -10.445 -0.1260E-15 -0.8585E-21  0.5051E-01  0.5051E-01
    -10.351 -0.2411E-13 -0.4007E-18  0.5051E-01  0.5051E-01
    -10.257 -0.2885E-11 -0.1136E-15  0.5051E-01  0.5051E-01
    -10.163 -0.2191E-09 -0.2202E-13  0.5051E-01  0.5051E-01
    -10.069 -0.1052E-07 -0.2656E-11  0.5051E-01  0.5051E-01
     -9.975 -0.3169E-06 -0.2034E-09  0.5051E-01  0.5051E-01
     -9.881 -0.5933E-05 -0.9843E-08  0.5050E-01  0.5051E-01
     -9.787 -0.6769E-04 -0.2992E-06  0.5050E-01  0.5051E-01
     -9.693 -0.4524E-03 -0.5650E-05  0.5046E-01  0.5050E-01
     -9.599 -0.1593E-02 -0.6507E-04  0.5031E-01  0.5050E-01
     -9.505 -0.1683E-02 -0.4394E-03  0.5015E-01  0.5046E-01
     -9.411  0.6917E-02 -0.1568E-02  0.5080E-01  0.5031E-01
     -9.317  0.2755E-01 -0.1728E-02  0.5339E-01  0.5015E-01
     -9.223  0.4140E-01  0.6635E-02  0.5728E-01  0.5077E-01
     -9.129  0.3017E-01  0.2715E-01  0.6011E-01  0.5332E-01
     -9.035  0.8932E-02  0.4137E-01  0.6095E-01  0.5721E-01
     -8.941 -0.1298E-02  0.3055E-01  0.6083E-01  0.6008E-01
     -8.847 -0.1764E-02  0.9250E-02  0.6067E-01  0.6095E-01
     -8.753 -0.6064E-03 -0.1230E-02  0.6061E-01  0.6084E-01
     -8.659 -0.3018E-03 -0.1802E-02  0.6058E-01  0.6067E-01
     -8.565 -0.3693E-03 -0.6836E-03  0.6055E-01  0.6060E-01
     -8.472  0.6691E-04 -0.4040E-03  0.6055E-01  0.6056E-01
     -8.378  0.1847E-02 -0.2740E-03  0.6073E-01  0.6054E-01
     -8.284  0.6908E-02  0.7184E-03  0.6137E-01  0.6061E-01
     -8.190  0.1769E-01  0.3717E-02  0.6304E-01  0.6095E-01
     -8.096  0.2707E-01  0.1158E-01  0.6558E-01  0.6204E-01
     -8.002  0.2209E-01  0.2342E-01  0.6766E-01  0.6424E-01
     -7.908  0.9195E-02  0.2670E-01  0.6852E-01  0.6675E-01
     -7.814  0.6942E-02  0.1585E-01  0.6917E-01  0.6824E-01
     -7.720  0.1662E-01  0.6772E-02  0.7074E-01  0.6888E-01
     -7.626  0.2751E-01  0.1019E-01  0.7332E-01  0.6984E-01
     -7.532  0.3487E-01  0.1877E-01  0.7660E-01  0.7160E-01
     -7.438  0.3370E-01  0.2747E-01  0.7977E-01  0.7418E-01
     -7.344  0.1958E-01  0.3513E-01  0.8161E-01  0.7749E-01
     -7.250  0.2753E-02  0.3177E-01  0.8187E-01  0.8047E-01
     -7.156 -0.2528E-02  0.1522E-01  0.8163E-01  0.8190E-01
     -7.062  0.1206E-01  0.4672E-05  0.8276E-01  0.8190E-01
     -6.968  0.4661E-01 -0.3534E-02  0.8714E-01  0.8157E-01
     -6.874  0.7597E-01  0.8955E-02  0.9428E-01  0.8241E-01
     -6.780  0.7098E-01  0.3954E-01  0.1010E+00  0.8613E-01
     -6.686  0.4870E-01  0.6973E-01  0.1055E+00  0.9268E-01
     -6.592  0.4508E-01  0.7065E-01  0.1098E+00  0.9932E-01
     -6.498  0.5792E-01  0.4747E-01  0.1152E+00  0.1038E+00
     -6.404  0.6679E-01  0.3336E-01  0.1215E+00  0.1069E+00
     -6.310  0.7369E-01  0.3945E-01  0.1284E+00  0.1106E+00
     -6.216  0.9490E-01  0.4928E-01  0.1373E+00  0.1153E+00
     -6.122  0.1389E+00  0.4640E-01  0.1504E+00  0.1196E+00
     -6.028  0.1908E+00  0.3583E-01  0.1683E+00  0.1230E+00
     -5.934  0.2173E+00  0.4480E-01  0.1887E+00  0.1272E+00
     -5.840  0.2059E+00  0.7923E-01  0.2081E+00  0.1346E+00
     -5.746  0.1778E+00  0.1102E+00  0.2248E+00  0.1450E+00
     -5.652  0.1580E+00  0.1214E+00  0.2397E+00  0.1564E+00
     -5.558  0.1555E+00  0.1304E+00  0.2543E+00  0.1687E+00
     -5.464  0.1660E+00  0.1627E+00  0.2699E+00  0.1840E+00
     -5.370  0.1714E+00  0.2072E+00  0.2860E+00  0.2034E+00
     -5.276  0.1523E+00  0.2210E+00  0.3003E+00  0.2242E+00
     -5.182  0.1258E+00  0.1926E+00  0.3121E+00  0.2423E+00
     -5.088  0.1471E+00  0.1546E+00  0.3259E+00  0.2568E+00
     -4.994  0.2354E+00  0.1380E+00  0.3481E+00  0.2698E+00
     -4.900  0.3227E+00  0.1408E+00  0.3784E+00  0.2830E+00
     -4.806  0.3430E+00  0.1348E+00  0.4106E+00  0.2957E+00
     -4.712  0.3127E+00  0.1098E+00  0.4400E+00  0.3060E+00
     -4.618  0.2904E+00  0.9881E-01  0.4673E+00  0.3153E+00
     -4.524  0.3127E+00  0.1219E+00  0.4967E+00  0.3268E+00
     -4.430  0.3777E+00  0.1515E+00  0.5322E+00  0.3410E+00
     -4.336  0.4684E+00  0.1656E+00  0.5762E+00  0.3566E+00
     -4.242  0.5580E+00  0.1588E+00  0.6287E+00  0.3715E+00
     -4.148  0.6092E+00  0.1389E+00  0.6859E+00  0.3846E+00
     -4.054  0.6076E+00  0.1429E+00  0.7430E+00  0.3980E+00
     -3.960  0.5809E+00  0.1827E+00  0.7976E+00  0.4152E+00
     -3.866  0.5675E+00  0.2227E+00  0.8510E+00  0.4361E+00
     -3.772  0.5592E+00  0.2450E+00  0.9035E+00  0.4591E+00
     -3.678  0.5328E+00  0.2608E+00  0.9536E+00  0.4836E+00
     -3.584  0.5086E+00  0.2644E+00  0.1001E+01  0.5085E+00
     -3.490  0.5205E+00  0.2452E+00  0.1050E+01  0.5315E+00
     -3.396  0.5678E+00  0.2315E+00  0.1104E+01  0.5533E+00
     -3.302  0.6083E+00  0.2614E+00  0.1161E+01  0.5778E+00
     -3.208  0.6063E+00  0.3285E+00  0.1218E+01  0.6087E+00
     -3.114  0.5802E+00  0.3927E+00  0.1272E+01  0.6456E+00
     -3.020  0.5812E+00  0.4269E+00  0.1327E+01  0.6857E+00
     -2.926  0.6439E+00  0.4343E+00  0.1388E+01  0.7266E+00
     -2.832  0.7539E+00  0.4301E+00  0.1458E+01  0.7670E+00
     -2.738  0.8632E+00  0.4224E+00  0.1539E+01  0.8067E+00
     -2.644  0.9403E+00  0.4168E+00  0.1628E+01  0.8459E+00
     -2.550  0.9785E+00  0.4245E+00  0.1720E+01  0.8858E+00
     -2.456  0.9841E+00  0.4433E+00  0.1812E+01  0.9274E+00
     -2.362  0.9743E+00  0.4511E+00  0.1904E+01  0.9698E+00
     -2.268  0.9380E+00  0.4487E+00  0.1992E+01  0.1012E+01
     -2.174  0.8584E+00  0.4641E+00  0.2073E+01  0.1056E+01
     -2.080  0.7891E+00  0.4978E+00  0.2147E+01  0.1102E+01
     -1.986  0.7826E+00  0.5230E+00  0.2220E+01  0.1152E+01
     -1.892  0.8035E+00  0.5274E+00  0.2296E+01  0.1201E+01
     -1.798  0.8120E+00  0.5211E+00  0.2372E+01  0.1250E+01
     -1.705  0.8227E+00  0.5187E+00  0.2450E+01  0.1299E+01
     -1.611  0.8464E+00  0.5341E+00  0.2529E+01  0.1349E+01
     -1.517  0.8632E+00  0.5739E+00  0.2610E+01  0.1403E+01
     -1.423  0.8546E+00  0.6245E+00  0.2691E+01  0.1462E+01
     -1.329  0.8295E+00  0.6620E+00  0.2769E+01  0.1524E+01
     -1.235  0.8115E+00  0.6812E+00  0.2845E+01  0.1588E+01
     -1.141  0.8150E+00  0.6919E+00  0.2921E+01  0.1653E+01
     -1.047  0.8281E+00  0.6882E+00  0.2999E+01  0.1718E+01
     -0.953  0.8133E+00  0.6608E+00  0.3076E+01  0.1780E+01
     -0.859  0.7592E+00  0.6293E+00  0.3147E+01  0.1839E+01
     -0.765  0.6969E+00  0.6153E+00  0.3213E+01  0.1897E+01
     -0.671  0.6433E+00  0.6099E+00  0.3273E+01  0.1954E+01
     -0.577  0.5879E+00  0.6072E+00  0.3328E+01  0.2011E+01
     -0.483  0.5263E+00  0.6239E+00  0.3378E+01  0.2070E+01
     -0.389  0.4646E+00  0.6547E+00  0.3421E+01  0.2131E+01
     -0.295  0.4158E+00  0.6563E+00  0.3460E+01  0.2193E+01
     -0.201  0.3853E+00  0.6117E+00  0.3497E+01  0.2250E+01
     -0.107  0.3508E+00  0.5567E+00  0.3530E+01  0.2303E+01
     -0.013  0.2919E+00  0.5227E+00  0.3557E+01  0.2352E+01
      0.081  0.2303E+00  0.5125E+00  0.3579E+01  0.2400E+01
      0.175  0.1972E+00  0.5234E+00  0.3597E+01  0.2449E+01
      0.269  0.1918E+00  0.5410E+00  0.3615E+01  0.2500E+01
      0.363  0.1874E+00  0.5464E+00  0.3633E+01  0.2551E+01
      0.457  0.1593E+00  0.5363E+00  0.3648E+01  0.2602E+01
      0.551  0.1214E+00  0.5283E+00  0.3659E+01  0.2652E+01
      0.645  0.1069E+00  0.5437E+00  0.3669E+01  0.2703E+01
      0.739  0.1070E+00  0.5763E+00  0.3679E+01  0.2757E+01
      0.833  0.9474E-01  0.6025E+00  0.3688E+01  0.2813E+01
      0.927  0.8673E-01  0.6180E+00  0.3696E+01  0.2871E+01
      1.021  0.1089E+00  0.6371E+00  0.3707E+01  0.2931E+01
      1.115  0.1406E+00  0.6610E+00  0.3720E+01  0.2993E+01
      1.209  0.1491E+00  0.6784E+00  0.3734E+01  0.3057E+01
      1.303  0.1330E+00  0.6889E+00  0.3746E+01  0.3122E+01
      1.397  0.1050E+00  0.7010E+00  0.3756E+01  0.3188E+01
      1.491  0.7678E-01  0.7198E+00  0.3764E+01  0.3256E+01
      1.585  0.5923E-01  0.7414E+00  0.3769E+01  0.3325E+01
      1.679  0.6490E-01  0.7407E+00  0.3775E+01  0.3395E+01
      1.773  0.1015E+00  0.6945E+00  0.3785E+01  0.3460E+01
      1.867  0.1415E+00  0.6225E+00  0.3798E+01  0.3519E+01
      1.961  0.1418E+00  0.5503E+00  0.3811E+01  0.3570E+01
      2.055  0.1152E+00  0.4644E+00  0.3822E+01  0.3614E+01
      2.149  0.1035E+00  0.3557E+00  0.3832E+01  0.3647E+01
      2.243  0.9450E-01  0.2519E+00  0.3841E+01  0.3671E+01
      2.337  0.6167E-01  0.1824E+00  0.3847E+01  0.3688E+01
      2.431  0.2290E-01  0.1541E+00  0.3849E+01  0.3703E+01
      2.525  0.2039E-02  0.1521E+00  0.3849E+01  0.3717E+01
      2.619 -0.2596E-02  0.1496E+00  0.3849E+01  0.3731E+01
      2.713 -0.1600E-02  0.1361E+00  0.3849E+01  0.3744E+01
      2.807 -0.4828E-03  0.1238E+00  0.3848E+01  0.3755E+01
      2.901 -0.8732E-04  0.1256E+00  0.3848E+01  0.3767E+01
      2.995 -0.9830E-05  0.1429E+00  0.3848E+01  0.3781E+01
      3.089 -0.6959E-06  0.1628E+00  0.3848E+01  0.3796E+01
      3.183 -0.3113E-07  0.1696E+00  0.3848E+01  0.3812E+01
      3.277 -0.8828E-09  0.1562E+00  0.3848E+01  0.3827E+01
      3.371 -0.1591E-10  0.1240E+00  0.3848E+01  0.3838E+01
      3.465 -0.1825E-12  0.7899E-01  0.3848E+01  0.3846E+01
      3.559 -0.1336E-14  0.3297E-01  0.3848E+01  0.3849E+01
      3.653 -0.5303E-17  0.3756E-02  0.3848E+01  0.3849E+01
      3.747  0.0000E+00 -0.4070E-02  0.3848E+01  0.3849E+01
      3.841  0.0000E+00 -0.2428E-02  0.3848E+01  0.3849E+01
      3.935  0.0000E+00 -0.6373E-03  0.3848E+01  0.3848E+01
      4.029  0.0000E+00 -0.9473E-04  0.3848E+01  0.3848E+01
      4.123  0.0000E+00 -0.8519E-05  0.3848E+01  0.3848E+01
      4.217  0.0000E+00 -0.4763E-06  0.3848E+01  0.3848E+01
      4.311  0.0000E+00 -0.1678E-07  0.3848E+01  0.3848E+01
      4.405  0.0000E+00 -0.3755E-09  0.3848E+01  0.3848E+01
      4.499  0.0000E+00 -0.5356E-11  0.3848E+01  0.3848E+01
      4.593  0.0000E+00 -0.4885E-13  0.3848E+01  0.3848E+01
      4.687  0.0000E+00 -0.2758E-15  0.3848E+01  0.3848E+01
      4.781  0.0000E+00  0.0000E+00  0.3848E+01  0.3848E+01
      4.875  0.0000E+00  0.0000E+00  0.3848E+01  0.3848E+01
      4.969  0.0000E+00  0.0000E+00  0.3848E+01  0.3848E+01
      5.062  0.0000E+00  0.0000E+00  0.3848E+01  0.3848E+01
      5.156  0.0000E+00  0.0000E+00  0.3848E+01  0.3848E+01
      5.250  0.0000E+00  0.0000E+00  0.3848E+01  0.3848E+01
      5.344  0.0000E+00  0.0000E+00  0.3848E+01  0.3848E+01
      5.438  0.0000E+00  0.0000E+00  0.3848E+01  0.3848E+01
      5.43843423    -22.75738016  301     -0.13459400      1.00000000
    -22.757  0.0000E+00  0.0000E+00  0.0000E+00  0.0000E+00  0.0000E+00  0.0000E+00
    -22.663  0.0000E+00  0.0000E+00  0.0000E+00  0.0000E+00  0.0000E+00  0.0000E+00
    -22.569  0.0000E+00  0.0000E+00  0.0000E+00  0.0000E+00  0.0000E+00  0.0000E+00
    -22.475  0.0000E+00  0.0000E+00  0.0000E+00  0.0000E+00  0.0000E+00  0.0000E+00
    -22.381 -0.4393E-40  0.0000E+00 -0.3604E-40  0.0000E+00 -0.2701E-38  0.0000E+00
    -22.287 -0.6843E-37  0.0000E+00 -0.5613E-37  0.0000E+00 -0.4208E-35  0.0000E+00
    -22.193 -0.6829E-34 -0.3332E-41 -0.5602E-34 -0.2982E-41 -0.4200E-32 -0.1857E-39
    -22.099 -0.4362E-31 -0.6048E-38 -0.3579E-31 -0.5413E-38 -0.2683E-29 -0.3371E-36
    -22.005 -0.1782E-28 -0.7035E-35 -0.1462E-28 -0.6297E-35 -0.1096E-26 -0.3922E-33
    -21.912 -0.4515E-26 -0.5239E-32 -0.3704E-26 -0.4690E-32 -0.2777E-24 -0.2921E-30
    -21.818 -0.7482E-24 -0.2496E-29 -0.6138E-24 -0.2234E-29 -0.4602E-22 -0.1392E-27
    -21.724 -0.7884E-22 -0.7602E-27 -0.6468E-22 -0.6805E-27 -0.4849E-20 -0.4238E-25
    -21.630 -0.5267E-20 -0.1429E-24 -0.4322E-20 -0.1279E-24 -0.3240E-18 -0.7968E-23
    -21.536 -0.2221E-18 -0.1760E-22 -0.1822E-18 -0.1576E-22 -0.1366E-16 -0.9815E-21
    -21.442 -0.5864E-17 -0.1376E-20 -0.4811E-17 -0.1232E-20 -0.3607E-15 -0.7673E-19
    -21.348 -0.9579E-16 -0.6801E-19 -0.7859E-16 -0.6088E-19 -0.5893E-14 -0.3792E-17
    -21.254 -0.9458E-15 -0.2111E-17 -0.7760E-15 -0.1890E-17 -0.5819E-13 -0.1177E-15
    -21.160 -0.5366E-14 -0.4076E-16 -0.4403E-14 -0.3649E-16 -0.3302E-12 -0.2273E-14
    -21.066 -0.1504E-13 -0.4802E-15 -0.1234E-13 -0.4299E-15 -0.9252E-12 -0.2678E-13
    -20.972 -0.4377E-14 -0.3326E-14 -0.3593E-14 -0.2978E-14 -0.2696E-12 -0.1855E-12
    -20.878  0.9184E-13 -0.1227E-13  0.7536E-13 -0.1099E-13  0.5651E-11 -0.6845E-12
    -20.784  0.2583E-12 -0.1489E-13  0.2120E-12 -0.1334E-13  0.1589E-10 -0.8310E-12
    -20.690  0.3156E-12  0.4855E-13  0.2590E-12  0.4347E-13  0.1942E-10  0.2708E-11
    -20.596  0.1857E-12  0.2129E-12  0.1524E-12  0.1907E-12  0.1143E-10  0.1188E-10
    -20.502  0.3570E-13  0.3357E-12  0.2930E-13  0.3006E-12  0.2197E-11  0.1873E-10
    -20.408 -0.1543E-13  0.2562E-12 -0.1267E-13  0.2294E-12 -0.9497E-12  0.1429E-10
    -20.314 -0.1064E-13  0.8178E-13 -0.8734E-14  0.7323E-13 -0.6548E-12  0.4563E-11
    -20.220 -0.2800E-14 -0.8491E-14 -0.2306E-14 -0.7601E-14 -0.1657E-12 -0.4734E-12
    -20.126 -0.2806E-14 -0.1492E-13 -0.2471E-14 -0.1336E-13 -0.2470E-13 -0.8324E-12
    -20.032 -0.3343E-13 -0.4952E-14 -0.2978E-13 -0.4434E-14 -0.2993E-13 -0.2735E-12
    -19.938 -0.2755E-12 -0.2079E-14 -0.2459E-12 -0.1857E-14 -0.2333E-12 -0.4645E-13
    -19.844 -0.1285E-11 -0.1957E-13 -0.1151E-11 -0.1746E-13 -0.1100E-11 -0.1888E-13
    -19.750 -0.2730E-11 -0.1822E-12 -0.2463E-11 -0.1627E-12 -0.2392E-11 -0.1364E-12
    -19.656  0.1491E-11 -0.9831E-12  0.1270E-11 -0.8792E-12  0.1098E-11 -0.7412E-12
    -19.562  0.2096E-10 -0.2640E-11  0.1877E-10 -0.2369E-11  0.1817E-10 -0.2027E-11
    -19.468  0.4577E-10 -0.8110E-12  0.4144E-10 -0.7571E-12  0.4155E-10 -0.7532E-12
    -19.374  0.4813E-10  0.1468E-10  0.4402E-10  0.1314E-10  0.4584E-10  0.1124E-10
    -19.280  0.4032E-10  0.4088E-10  0.3622E-10  0.3691E-10  0.3311E-10  0.3301E-10
    -19.186  0.7098E-10  0.5384E-10  0.6132E-10  0.4884E-10  0.3786E-10  0.4514E-10
    -19.092  0.1236E-09  0.5784E-10  0.1068E-09  0.5143E-10  0.5968E-10  0.4197E-10
    -18.998  0.1214E-09  0.9153E-10  0.1058E-09  0.7902E-10  0.5865E-10  0.4644E-10
    -18.904  0.6009E-10  0.1361E-09  0.5299E-10  0.1175E-09  0.2918E-10  0.5958E-10
    -18.810  0.8186E-11  0.1229E-09  0.7471E-11  0.1073E-09  0.3963E-11  0.5245E-10
    -18.716 -0.6088E-11  0.5739E-10 -0.5285E-11  0.5080E-10 -0.2985E-11  0.2430E-10
    -18.622 -0.3550E-11  0.6657E-11 -0.3130E-11  0.6191E-11 -0.1737E-11  0.2690E-11
    -18.528 -0.8702E-12 -0.6290E-11 -0.7721E-12 -0.5470E-11 -0.4257E-12 -0.2748E-11
    -18.434 -0.1197E-12 -0.3473E-11 -0.1067E-12 -0.3071E-11 -0.5857E-13 -0.1497E-11
    -18.340 -0.9934E-14 -0.8345E-12 -0.8873E-14 -0.7428E-12 -0.4859E-14 -0.3580E-12
    -18.246 -0.5108E-15 -0.1132E-12 -0.4571E-15 -0.1011E-12 -0.2498E-15 -0.4844E-13
    -18.152 -0.1650E-16 -0.9262E-14 -0.1478E-16 -0.8295E-14 -0.8068E-17 -0.3958E-14
    -18.058 -0.3369E-18 -0.4694E-15 -0.3022E-18 -0.4211E-15 -0.1648E-18 -0.2004E-15
    -17.964 -0.4371E-20 -0.1492E-16 -0.3922E-20 -0.1340E-16 -0.2138E-20 -0.6366E-17
    -17.870 -0.3612E-22 -0.2996E-18 -0.3243E-22 -0.2692E-18 -0.1767E-22 -0.1278E-18
    -17.776 -0.1840E-24 -0.3816E-20 -0.1653E-24 -0.3430E-20 -0.8993E-25 -0.1627E-20
    -17.682  0.0000E+00 -0.3092E-22  0.0000E+00 -0.2780E-22  0.0000E+00 -0.1318E-22
    -17.588  0.0000E+00 -0.1631E-24  0.0000E+00 -0.1467E-24  0.0000E+00 -0.6946E-25
    -17.494  0.0000E+00  0.0000E+00  0.0000E+00  0.0000E+00  0.0000E+00  0.0000E+00
    -17.400  0.0000E+00  0.0000E+00  0.0000E+00  0.0000E+00  0.0000E+00  0.0000E+00
    -17.306  0.0000E+00  0.0000E+00  0.0000E+00  0.0000E+00  0.0000E+00  0.0000E+00
    -17.212  0.0000E+00  0.0000E+00  0.0000E+00  0.0000E+00  0.0000E+00  0.0000E+00
    -17.118  0.0000E+00  0.0000E+00  0.0000E+00  0.0000E+00  0.0000E+00  0.0000E+00
    -17.024  0.0000E+00  0.0000E+00  0.0000E+00  0.0000E+00  0.0000E+00  0.0000E+00
    -16.930  0.0000E+00  0.0000E+00  0.0000E+00  0.0000E+00  0.0000E+00  0.0000E+00
    -16.836  0.0000E+00  0.0000E+00  0.0000E+00  0.0000E+00  0.0000E+00  0.0000E+00
    -16.742  0.0000E+00  0.0000E+00  0.0000E+00  0.0000E+00  0.0000E+00  0.0000E+00
    -16.648  0.0000E+00  0.0000E+00  0.0000E+00  0.0000E+00  0.0000E+00  0.0000E+00
    -16.554  0.0000E+00  0.0000E+00  0.0000E+00  0.0000E+00  0.0000E+00  0.0000E+00
    -16.460  0.0000E+00  0.0000E+00  0.0000E+00  0.0000E+00  0.0000E+00  0.0000E+00
    -16.366  0.0000E+00  0.0000E+00  0.0000E+00  0.0000E+00  0.0000E+00  0.0000E+00
    -16.272  0.0000E+00  0.0000E+00  0.0000E+00  0.0000E+00  0.0000E+00  0.0000E+00
    -16.178  0.0000E+00  0.0000E+00  0.0000E+00  0.0000E+00  0.0000E+00  0.0000E+00
    -16.084  0.0000E+00  0.0000E+00  0.0000E+00  0.0000E+00  0.0000E+00  0.0000E+00
    -15.990  0.0000E+00  0.0000E+00  0.0000E+00  0.0000E+00  0.0000E+00  0.0000E+00
    -15.896  0.0000E+00  0.0000E+00  0.0000E+00  0.0000E+00  0.0000E+00  0.0000E+00
    -15.802  0.0000E+00  0.0000E+00  0.0000E+00  0.0000E+00  0.0000E+00  0.0000E+00
    -15.708  0.0000E+00  0.0000E+00  0.0000E+00  0.0000E+00  0.0000E+00  0.0000E+00
    -15.614  0.0000E+00  0.0000E+00  0.0000E+00  0.0000E+00  0.0000E+00  0.0000E+00
    -15.520  0.0000E+00  0.0000E+00  0.0000E+00  0.0000E+00  0.0000E+00  0.0000E+00
    -15.426  0.0000E+00  0.0000E+00  0.0000E+00  0.0000E+00  0.0000E+00  0.0000E+00
    -15.332  0.0000E+00  0.0000E+00  0.0000E+00  0.0000E+00  0.0000E+00  0.0000E+00
    -15.238  0.0000E+00  0.0000E+00  0.0000E+00  0.0000E+00  0.0000E+00  0.0000E+00
    -15.145  0.0000E+00  0.0000E+00  0.0000E+00  0.0000E+00  0.0000E+00  0.0000E+00
    -15.051  0.0000E+00  0.0000E+00  0.0000E+00  0.0000E+00  0.0000E+00  0.0000E+00
    -14.957  0.0000E+00  0.0000E+00  0.0000E+00  0.0000E+00  0.0000E+00  0.0000E+00
    -14.863  0.0000E+00  0.0000E+00  0.0000E+00  0.0000E+00  0.0000E+00  0.0000E+00
    -14.769  0.0000E+00  0.0000E+00  0.0000E+00  0.0000E+00  0.0000E+00  0.0000E+00
    -14.675  0.0000E+00  0.0000E+00  0.0000E+00  0.0000E+00  0.0000E+00  0.0000E+00
    -14.581  0.0000E+00  0.0000E+00  0.0000E+00  0.0000E+00  0.0000E+00  0.0000E+00
    -14.487  0.0000E+00  0.0000E+00  0.0000E+00  0.0000E+00  0.0000E+00  0.0000E+00
    -14.393  0.0000E+00  0.0000E+00  0.0000E+00  0.0000E+00  0.0000E+00  0.0000E+00
    -14.299  0.0000E+00  0.0000E+00  0.0000E+00  0.0000E+00  0.0000E+00  0.0000E+00
    -14.205  0.0000E+00  0.0000E+00  0.0000E+00  0.0000E+00  0.0000E+00  0.0000E+00
    -14.111  0.0000E+00  0.0000E+00  0.0000E+00  0.0000E+00  0.0000E+00  0.0000E+00
    -14.017  0.0000E+00  0.0000E+00  0.0000E+00  0.0000E+00  0.0000E+00  0.0000E+00
    -13.923  0.0000E+00  0.0000E+00  0.0000E+00  0.0000E+00  0.0000E+00  0.0000E+00
    -13.829  0.0000E+00  0.0000E+00  0.0000E+00  0.0000E+00  0.0000E+00  0.0000E+00
    -13.735  0.0000E+00  0.0000E+00  0.0000E+00  0.0000E+00  0.0000E+00  0.0000E+00
    -13.641  0.0000E+00  0.0000E+00  0.0000E+00  0.0000E+00  0.0000E+00  0.0000E+00
    -13.547  0.0000E+00  0.0000E+00  0.0000E+00  0.0000E+00  0.0000E+00  0.0000E+00
    -13.453  0.0000E+00  0.0000E+00  0.0000E+00  0.0000E+00  0.0000E+00  0.0000E+00
    -13.359  0.0000E+00  0.0000E+00  0.0000E+00  0.0000E+00  0.0000E+00  0.0000E+00
    -13.265  0.0000E+00  0.0000E+00  0.0000E+00  0.0000E+00  0.0000E+00  0.0000E+00
    -13.171  0.0000E+00  0.0000E+00  0.0000E+00  0.0000E+00  0.0000E+00  0.0000E+00
    -13.077  0.0000E+00  0.0000E+00  0.0000E+00  0.0000E+00  0.0000E+00  0.0000E+00
    -12.983  0.0000E+00  0.0000E+00  0.0000E+00  0.0000E+00  0.0000E+00  0.0000E+00
    -12.889  0.0000E+00  0.0000E+00  0.0000E+00  0.0000E+00  0.0000E+00  0.0000E+00
    -12.795  0.0000E+00  0.0000E+00  0.0000E+00  0.0000E+00  0.0000E+00  0.0000E+00
    -12.701  0.0000E+00  0.0000E+00  0.0000E+00  0.0000E+00  0.0000E+00  0.0000E+00
    -12.607  0.0000E+00  0.0000E+00  0.0000E+00  0.0000E+00  0.0000E+00  0.0000E+00
    -12.513  0.0000E+00  0.0000E+00  0.0000E+00  0.0000E+00  0.0000E+00  0.0000E+00
    -12.419  0.0000E+00  0.0000E+00  0.0000E+00  0.0000E+00  0.0000E+00  0.0000E+00
    -12.325  0.0000E+00  0.0000E+00  0.0000E+00  0.0000E+00  0.0000E+00  0.0000E+00
    -12.231  0.0000E+00  0.0000E+00  0.0000E+00  0.0000E+00  0.0000E+00  0.0000E+00
    -12.137  0.0000E+00  0.0000E+00  0.0000E+00  0.0000E+00  0.0000E+00  0.0000E+00
    -12.043  0.0000E+00  0.0000E+00  0.0000E+00  0.0000E+00  0.0000E+00  0.0000E+00
    -11.949  0.0000E+00  0.0000E+00  0.0000E+00  0.0000E+00  0.0000E+00  0.0000E+00
    -11.855  0.0000E+00  0.0000E+00  0.0000E+00  0.0000E+00  0.0000E+00  0.0000E+00
    -11.761  0.0000E+00  0.0000E+00  0.0000E+00  0.0000E+00  0.0000E+00  0.0000E+00
    -11.667  0.0000E+00  0.0000E+00  0.0000E+00  0.0000E+00  0.0000E+00  0.0000E+00
    -11.573  0.0000E+00  0.0000E+00  0.0000E+00  0.0000E+00  0.0000E+00  0.0000E+00
    -11.479  0.0000E+00  0.0000E+00  0.0000E+00  0.0000E+00  0.0000E+00  0.0000E+00
    -11.385  0.0000E+00  0.0000E+00  0.0000E+00  0.0000E+00  0.0000E+00  0.0000E+00
    -11.291  0.0000E+00  0.0000E+00  0.0000E+00  0.0000E+00  0.0000E+00  0.0000E+00
    -11.197  0.0000E+00  0.0000E+00  0.0000E+00  0.0000E+00  0.0000E+00  0.0000E+00
    -11.103  0.0000E+00  0.0000E+00  0.0000E+00  0.0000E+00  0.0000E+00  0.0000E+00
    -11.009  0.0000E+00  0.0000E+00  0.0000E+00  0.0000E+00  0.0000E+00  0.0000E+00
    -10.915 -0.2607E-33  0.0000E+00 -0.5532E-34  0.0000E+00 -0.6686E-35  0.0000E+00
    -10.821 -0.4568E-30  0.0000E+00 -0.9715E-31  0.0000E+00 -0.1182E-31  0.0000E+00
    -10.727 -0.5130E-27 -0.2790E-33 -0.1093E-27 -0.6305E-34 -0.1339E-28 -0.4947E-35
    -10.633 -0.3688E-24 -0.4928E-30 -0.7877E-25 -0.1116E-30 -0.9710E-26 -0.8815E-32
    -10.539 -0.1696E-21 -0.5577E-27 -0.3631E-22 -0.1265E-27 -0.4505E-23 -0.1006E-28
    -10.445 -0.4779E-19 -0.4041E-24 -0.1024E-19 -0.9185E-25 -0.1274E-20 -0.7357E-26
    -10.351 -0.9049E-17 -0.1873E-21 -0.1946E-17 -0.4266E-22 -0.2446E-18 -0.3441E-23
    -10.257 -0.1076E-14 -0.5296E-19 -0.2317E-15 -0.1207E-19 -0.2932E-16 -0.9762E-21
    -10.163 -0.8113E-13 -0.1015E-16 -0.1752E-13 -0.2322E-17 -0.2231E-14 -0.1898E-18
    -10.069 -0.3868E-11 -0.1216E-14 -0.8371E-12 -0.2787E-15 -0.1073E-12 -0.2294E-16
     -9.975 -0.1158E-09 -0.9250E-13 -0.2511E-10 -0.2124E-13 -0.3240E-11 -0.1760E-14
     -9.881 -0.2152E-08 -0.4445E-11 -0.4680E-09 -0.1023E-11 -0.6078E-10 -0.8533E-13