       N       E                     dE             d eps       ncg     rms          rms(c)
DAV:   1    -0.483152915642E+03   -0.48315E+03   -0.15809E+03  7953   0.486E+01    0.835E+00
RMM:   2    -0.496355005576E+03   -0.13202E+02   -0.12341E+02  7744   0.250E+01    0.192E+01
RMM:   3    -0.502249813513E+03   -0.58948E+01   -0.20253E+01  8157   0.794E+00    0.333E+01
RMM:   4    -0.498760079615E+03    0.34897E+01   -0.36027E+00  8008   0.390E+00    0.204E+01
RMM:   5    -0.496763251689E+03    0.19968E+01   -0.14256E+00  7962   0.246E+00    0.726E+00
RMM:   6    -0.496801842534E+03   -0.38591E-01   -0.73879E-01  7860   0.179E+00    0.845E+00
RMM:   7    -0.496764504823E+03    0.37338E-01   -0.33265E-01  7862   0.127E+00    0.827E+00
RMM:   8    -0.496604647338E+03    0.15986E+00   -0.14376E-01  7783   0.882E-01    0.314E+00
RMM:   9    -0.496619481295E+03   -0.14834E-01   -0.66646E-02  7870   0.501E-01    0.346E+00
RMM:  10    -0.496608794720E+03    0.10687E-01   -0.28538E-02  7785   0.368E-01    0.246E+00
RMM:  11    -0.496611196221E+03   -0.24015E-02   -0.15385E-02  7732   0.297E-01    0.236E+00
RMM:  12    -0.496613281215E+03   -0.20850E-02   -0.35579E-03  9915   0.548E-02    0.237E+00
RMM:  13    -0.496606308022E+03    0.69732E-02   -0.34114E-03  7676   0.139E-01    0.230E+00
RMM:  14    -0.496599094255E+03    0.72138E-02   -0.78180E-03  7690   0.223E-01    0.214E+00
RMM:  15    -0.496589236811E+03    0.98574E-02   -0.82457E-03  7718   0.232E-01    0.181E+00
RMM:  16    -0.496576953338E+03    0.12283E-01   -0.72504E-03  7773   0.203E-01    0.158E+00
RMM:  17    -0.496570398691E+03    0.65546E-02   -0.35152E-03  7728   0.143E-01    0.139E+00
RMM:  18    -0.496566333915E+03    0.40648E-02   -0.49592E-03  7734   0.164E-01    0.144E+00
RMM:  19    -0.496560620350E+03    0.57136E-02   -0.34865E-03  7720   0.146E-01    0.135E+00
RMM:  20    -0.496560538287E+03    0.82063E-04   -0.15133E-03  7801   0.790E-02    0.151E+00
RMM:  21    -0.496561039383E+03   -0.50110E-03   -0.33200E-04  9436   0.260E-02    0.156E+00
RMM:  22    -0.496554092211E+03    0.69472E-02   -0.21081E-03  7676   0.115E-01    0.126E+00
RMM:  23    -0.496544101015E+03    0.99912E-02   -0.27001E-03  7700   0.132E-01    0.883E-01
RMM:  24    -0.496535047531E+03    0.90535E-02   -0.25215E-03  7676   0.113E-01    0.754E-01
RMM:  25    -0.496527018906E+03    0.80286E-02   -0.19960E-03  7675   0.110E-01    0.501E-01
RMM:  26    -0.496531441251E+03   -0.44223E-02   -0.29428E-03  7661   0.126E-01    0.614E-01
RMM:  27    -0.496538437270E+03   -0.69960E-02   -0.21074E-03  7674   0.116E-01    0.371E-01
RMM:  28    -0.496554976601E+03   -0.16539E-01   -0.17834E-03  7641   0.923E-02    0.470E-01
RMM:  29    -0.496579673317E+03   -0.24697E-01   -0.15617E-03  7674   0.795E-02    0.344E-01
RMM:  30    -0.496594355434E+03   -0.14682E-01   -0.89201E-04  7708   0.570E-02    0.343E-01
RMM:  31    -0.496615242189E+03   -0.20887E-01   -0.99710E-04  7616   0.486E-02    0.243E-01
RMM:  32    -0.496623073430E+03   -0.78312E-02   -0.47111E-04  7641   0.387E-02    0.219E-01
RMM:  33    -0.496639098900E+03   -0.16025E-01   -0.12471E-03  7617   0.431E-02    0.148E-01
RMM:  34    -0.496642862615E+03   -0.37637E-02   -0.47144E-04  7642   0.349E-02    0.139E-01
RMM:  35    -0.496648213574E+03   -0.53510E-02   -0.72974E-04  7581   0.339E-02    0.120E-01
RMM:  36    -0.496649191086E+03   -0.97751E-03   -0.22340E-04  7861   0.234E-02    0.107E-01
RMM:  37    -0.496649759899E+03   -0.56881E-03   -0.16938E-04  7324   0.163E-02    0.537E-02
RMM:  38    -0.496649818353E+03   -0.58454E-04   -0.73132E-05  6435   0.151E-02    0.634E-02
RMM:  39    -0.496649894432E+03   -0.76078E-04   -0.42226E-05  5357   0.121E-02    0.487E-02
RMM:  40    -0.496649976773E+03   -0.82342E-04   -0.14609E-05  4707   0.928E-03    0.442E-02
RMM:  41    -0.496650228624E+03   -0.25185E-03   -0.13967E-05  4815   0.748E-03    0.260E-02
RMM:  42    -0.496650359160E+03   -0.13054E-03   -0.68635E-06  4345   0.583E-03    0.218E-02
RMM:  43    -0.496650581652E+03   -0.22249E-03   -0.81225E-06  4623   0.520E-03    0.136E-02
RMM:  44    -0.496650718168E+03   -0.13652E-03   -0.50047E-06  4306   0.428E-03    0.139E-02
RMM:  45    -0.496650910208E+03   -0.19204E-03   -0.66473E-06  4586   0.419E-03    0.111E-02
RMM:  46    -0.496651051879E+03   -0.14167E-03   -0.46951E-06  4281   0.334E-03    0.116E-02
RMM:  47    -0.496651203006E+03   -0.15113E-03   -0.55314E-06  4477   0.348E-03    0.832E-03
RMM:  48    -0.496651349702E+03   -0.14670E-03   -0.54045E-06  4412   0.283E-03    0.940E-03
RMM:  49    -0.496651443442E+03   -0.93740E-04   -0.37489E-06  4075   0.296E-03    0.639E-03
RMM:  50    -0.496651564629E+03   -0.12119E-03   -0.64443E-06  3988   0.226E-03    0.542E-03
RMM:  51    -0.496651615163E+03   -0.50534E-04   -0.26629E-06  3473   0.233E-03    0.405E-03
RMM:  52    -0.496651657818E+03   -0.42655E-04   -0.25469E-06  3058   0.193E-03    0.446E-03
RMM:  53    -0.496651700800E+03   -0.42982E-04   -0.24525E-06  3293   0.193E-03    0.375E-03
RMM:  54    -0.496651713234E+03   -0.12434E-04   -0.16600E-06  2685   0.185E-03    0.282E-03
RMM:  55    -0.496651717653E+03   -0.44187E-05   -0.10176E-06  2262   0.160E-03
   1 F= -.51144243E+03 E0= -.51144494E+03  d E =-.511442E+03  mag=   122.0371
       N       E                     dE             d eps       ncg     rms          rms(c)
DAV:   1    -0.496649391500E+03    0.23217E-02   -0.51510E-01  7722   0.118E+00    0.382E-01
RMM:   2    -0.496654448703E+03   -0.50572E-02   -0.20376E-02  8040   0.327E-01    0.784E-01
RMM:   3    -0.496659966429E+03   -0.55177E-02   -0.86316E-03  7717   0.240E-01    0.150E+00
RMM:   4    -0.496656803424E+03    0.31630E-02   -0.48793E-03  7650   0.178E-01    0.951E-01
RMM:   5    -0.496654237787E+03    0.25656E-02   -0.22133E-03  7663   0.128E-01    0.747E-01
RMM:   6    -0.496652176461E+03    0.20613E-02   -0.69401E-04  7589   0.709E-02    0.167E-01
RMM:   7    -0.496652260852E+03   -0.84391E-04   -0.34989E-04  7594   0.464E-02    0.252E-01
RMM:   8    -0.496652423125E+03   -0.16227E-03   -0.34930E-04  7618   0.458E-02    0.320E-01
RMM:   9    -0.496652051665E+03    0.37146E-03   -0.24920E-04  7620   0.427E-02    0.221E-01
RMM:  10    -0.496651979390E+03    0.72275E-04   -0.22218E-04  7582   0.375E-02    0.191E-01
RMM:  11    -0.496651885170E+03    0.94220E-04   -0.18224E-04  7601   0.342E-02    0.179E-01
RMM:  12    -0.496651770383E+03    0.11479E-03   -0.67776E-05  7138   0.238E-02    0.139E-01
RMM:  13    -0.496651771062E+03   -0.67807E-06   -0.53439E-06  4163   0.339E-03
   2 F= -.51144349E+03 E0= -.51144614E+03  d E =-.105415E-02  mag=   122.0477
       N       E                     dE             d eps       ncg     rms          rms(c)
DAV:   1    -0.496651500730E+03    0.26965E-03   -0.17230E-02  7773   0.219E-01    0.134E-01
RMM:   2    -0.496656718771E+03   -0.52180E-02   -0.40231E-03  7694   0.154E-01    0.128E+00
RMM:   3    -0.496651859143E+03    0.48596E-02   -0.21659E-03  7624   0.129E-01    0.321E-01
RMM:   4    -0.496651859783E+03   -0.63954E-06   -0.44876E-04  7682   0.469E-02    0.321E-01
RMM:   5    -0.496651635218E+03    0.22457E-03   -0.12862E-04  7480   0.257E-02    0.198E-01
RMM:   6    -0.496651655714E+03   -0.20496E-04   -0.65237E-05  7089   0.218E-02    0.250E-01
RMM:   7    -0.496651642822E+03    0.12892E-04   -0.94692E-06  4192   0.710E-03    0.242E-01
RMM:   8    -0.496651653835E+03   -0.11013E-04   -0.30804E-05  4982   0.141E-02    0.235E-01
RMM:   9    -0.496651573258E+03    0.80577E-04   -0.79264E-05  7132   0.233E-02    0.165E-01
RMM:  10    -0.496651532014E+03    0.41244E-04   -0.46720E-05  5668   0.165E-02    0.125E-01
RMM:  11    -0.496651513689E+03    0.18326E-04   -0.57020E-05  6690   0.174E-02    0.994E-02
RMM:  12    -0.496651479317E+03    0.34371E-04   -0.34960E-05  5071   0.162E-02    0.609E-02
RMM:  13    -0.496651468653E+03    0.10664E-04   -0.43068E-05  5943   0.166E-02    0.640E-02
RMM:  14    -0.496651446988E+03    0.21665E-04   -0.28371E-05  4628   0.164E-02    0.228E-02
RMM:  15    -0.496651465672E+03   -0.18684E-04   -0.11742E-05  3933   0.946E-03    0.335E-02
RMM:  16    -0.496651477810E+03   -0.12138E-04   -0.70101E-06  3858   0.884E-03    0.151E-02
RMM:  17    -0.496651505064E+03   -0.27254E-04   -0.24778E-06  3849   0.398E-03    0.166E-02
RMM:  18    -0.496651546081E+03   -0.41017E-04   -0.21056E-06  3891   0.432E-03    0.116E-02
RMM:  19    -0.496651591693E+03   -0.45612E-04   -0.16403E-06  3897   0.283E-03    0.147E-02
RMM:  20    -0.496651650712E+03   -0.59018E-04   -0.18636E-06  3924   0.316E-03    0.150E-02
RMM:  21    -0.496651700042E+03   -0.49330E-04   -0.17038E-06  3902   0.241E-03    0.191E-02
RMM:  22    -0.496651738099E+03   -0.38056E-04   -0.12910E-06  3832   0.244E-03    0.223E-02
RMM:  23    -0.496651740391E+03   -0.22923E-05   -0.33863E-07  2233   0.138E-03
   3 F= -.51144364E+03 E0= -.51144632E+03  d E =-.120728E-02  mag=   122.0746
       N       E                     dE             d eps       ncg     rms          rms(c)
DAV:   1    -0.496650205991E+03    0.15321E-02   -0.30645E-01  7632   0.882E-01    0.289E-01
RMM:   2    -0.496653732757E+03   -0.35268E-02   -0.98186E-03  7981   0.237E-01    0.742E-01
RMM:   3    -0.496657022939E+03   -0.32902E-02   -0.43891E-03  7718   0.168E-01    0.113E+00
RMM:   4    -0.496654776387E+03    0.22466E-02   -0.31400E-03  7641   0.141E-01    0.797E-01
RMM:   5    -0.496652887746E+03    0.18886E-02   -0.14538E-03  7595   0.102E-01    0.653E-01
RMM:   6    -0.496651645319E+03    0.12424E-02   -0.61234E-04  7580   0.691E-02    0.131E-01
RMM:   7    -0.496651638295E+03    0.70239E-05   -0.13947E-04  7472   0.276E-02    0.109E-01
RMM:   8    -0.496651681870E+03   -0.43575E-04   -0.12017E-04  7527   0.268E-02    0.180E-01
RMM:   9    -0.496651598429E+03    0.83441E-04   -0.50165E-05  6001   0.193E-02    0.106E-01
RMM:  10    -0.496651593429E+03    0.49994E-05   -0.61345E-05  6701   0.210E-02
   4 F= -.51144414E+03 E0= -.51144694E+03  d E =-.498371E-03  mag=   122.0786
       N       E                     dE             d eps       ncg     rms          rms(c)
DAV:   1    -0.496651689672E+03   -0.91243E-04   -0.96849E-03  7671   0.173E-01    0.159E-01
RMM:   2    -0.496661156554E+03   -0.94669E-02   -0.66779E-03  7669   0.198E-01    0.182E+00
RMM:   3    -0.496652243490E+03    0.89131E-02   -0.36356E-03  7613   0.170E-01    0.433E-01
RMM:   4    -0.496651894091E+03    0.34940E-03   -0.64059E-04  7688   0.564E-02    0.265E-01
RMM:   5    -0.496651713033E+03    0.18106E-03   -0.15948E-04  7498   0.269E-02    0.195E-01
RMM:   6    -0.496651696254E+03    0.16780E-04   -0.58841E-05  6469   0.180E-02    0.234E-01
RMM:   7    -0.496651682057E+03    0.14196E-04   -0.15821E-05  4229   0.110E-02    0.232E-01
RMM:   8    -0.496651720788E+03   -0.38731E-04   -0.17702E-05  4434   0.103E-02    0.238E-01
RMM:   9    -0.496651793788E+03   -0.73000E-04   -0.84554E-05  7045   0.226E-02    0.226E-01
RMM:  10    -0.496651710195E+03    0.83593E-04   -0.91770E-05  7316   0.238E-02    0.106E-01
RMM:  11    -0.496651725646E+03   -0.15452E-04   -0.63803E-05  6852   0.178E-02    0.825E-02
RMM:  12    -0.496651729550E+03   -0.39033E-05   -0.30708E-05  4753   0.135E-02
   5 F= -.51144416E+03 E0= -.51144692E+03  d E =-.520865E-03  mag=   122.0883
       N       E                     dE             d eps       ncg     rms          rms(c)
DAV:   1    -0.496650761523E+03    0.96412E-03   -0.23176E-01  7620   0.784E-01    0.276E-01
RMM:   2    -0.496657861084E+03   -0.70996E-02   -0.77565E-03  7848   0.227E-01    0.112E+00
RMM:   3    -0.496654821590E+03    0.30395E-02   -0.31699E-03  7695   0.145E-01    0.755E-01
RMM:   4    -0.496655152083E+03   -0.33049E-03   -0.33865E-03  7622   0.146E-01    0.959E-01
RMM:   5    -0.496653190360E+03    0.19617E-02   -0.16750E-03  7577   0.107E-01    0.622E-01
RMM:   6    -0.496652064551E+03    0.11258E-02   -0.73046E-04  7583   0.786E-02    0.129E-01
RMM:   7    -0.496652079178E+03   -0.14627E-04   -0.14159E-04  7515   0.274E-02    0.112E-01
RMM:   8    -0.496652165692E+03   -0.86514E-04   -0.11158E-04  7443   0.254E-02    0.190E-01
RMM:   9    -0.496652096699E+03    0.68994E-04   -0.63487E-05  6555   0.220E-02    0.113E-01
RMM:  10    -0.496652091673E+03    0.50254E-05   -0.35118E-05  5173   0.162E-02
   6 F= -.51144496E+03 E0= -.51144783E+03  d E =-.797224E-03  mag=   122.0880
       N       E                     dE             d eps       ncg     rms          rms(c)
DAV:   1    -0.496652051530E+03    0.45169E-04   -0.61720E-03  7692   0.145E-01    0.121E-01
RMM:   2    -0.496656724423E+03   -0.46729E-02   -0.35167E-03  7674   0.144E-01    0.133E+00
RMM:   3    -0.496652460398E+03    0.42640E-02   -0.19738E-03  7587   0.123E-01    0.380E-01
RMM:   4    -0.496652173476E+03    0.28692E-03   -0.38955E-04  7619   0.472E-02    0.188E-01
RMM:   5    -0.496652115868E+03    0.57608E-04   -0.10896E-04  7411   0.223E-02    0.168E-01
RMM:   6    -0.496652068499E+03    0.47369E-04   -0.55322E-05  6508   0.185E-02    0.186E-01
RMM:   7    -0.496652051323E+03    0.17176E-04   -0.21484E-05  4268   0.138E-02    0.181E-01
RMM:   8    -0.496652047986E+03    0.33367E-05   -0.38056E-06  3935   0.404E-03
   7 F= -.51144499E+03 E0= -.51144794E+03  d E =-.824989E-03  mag=   122.0851
