 vasp.5.4.4.18Apr17-6-g9f103f2a35 (build Dec 15 2018 21:27:11) complex          
  
 executed on             LinuxIFC date 2022.03.06  06:02:01
 running on   72 total cores
 distrk:  each k-point on   72 cores,    1 groups
 distr:  one band on NCORES_PER_BAND=  24 cores,    3 groups


--------------------------------------------------------------------------------------------------------


 INCAR:
 POTCAR:    PAW_PBE Fe 06Sep2000                  
 POTCAR:    PAW_PBE Ni 02Aug2007                  
 POTCAR:    PAW_PBE O 08Apr2002                   
 POTCAR:    PAW_PBE H 15Jun2001                   

 ----------------------------------------------------------------------------- 
|                                                                             |
|           W    W    AA    RRRRR   N    N  II  N    N   GGGG   !!!           |
|           W    W   A  A   R    R  NN   N  II  NN   N  G    G  !!!           |
|           W    W  A    A  R    R  N N  N  II  N N  N  G       !!!           |
|           W WW W  AAAAAA  RRRRR   N  N N  II  N  N N  G  GGG   !            |
|           WW  WW  A    A  R   R   N   NN  II  N   NN  G    G                |
|           W    W  A    A  R    R  N    N  II  N    N   GGGG   !!!           |
|                                                                             |
|      For optimal performance we recommend to set                            |
|        NCORE= 4 - approx SQRT( number of cores)                             |
|      NCORE specifies how many cores store one orbital (NPAR=cpu/NCORE).     |
|      This setting can  greatly improve the performance of VASP for DFT.     |
|      The default,   NCORE=1            might be grossly inefficient         |
|      on modern multi-core architectures or massively parallel machines.     |
|      Do your own testing !!!!                                               |
|      Unfortunately you need to use the default for GW and RPA calculations. |
|      (for HF NCORE is supported but not extensively tested yet)             |
|                                                                             |
 ----------------------------------------------------------------------------- 

 POTCAR:    PAW_PBE Fe 06Sep2000                  
   VRHFIN =Fe:  d7 s1                                                           
   LEXCH  = PE                                                                  
   EATOM  =   594.3153 eV,   43.6809 Ry                                         
                                                                                
   TITEL  = PAW_PBE Fe 06Sep2000                                                
   LULTRA =        F    use ultrasoft PP ?                                      
   IUNSCR =        1    unscreen: 0-lin 1-nonlin 2-no                           
   RPACOR =    2.000    partial core radius                                     
   POMASS =   55.847; ZVAL   =    8.000    mass and valenz                      
   RCORE  =    2.300    outmost cutoff radius                                   
   RWIGS  =    2.460; RWIGS  =    1.302    wigner-seitz radius (au A)           
   ENMAX  =  267.882; ENMIN  =  200.911 eV                                      
   RCLOC  =    1.701    cutoff for local pot                                    
   LCOR   =        T    correct aug charges                                     
   LPAW   =        T    paw PP                                                  
   EAUG   =  511.368                                                            
   DEXC   =    0.000                                                            
   RMAX   =    2.356    core radius for proj-oper                               
   RAUG   =    1.300    factor for augmentation sphere                          
   RDEP   =    2.442    radius for radial grids                                 
   RDEPT  =    1.890    core radius for aug-charge                              
                                                                                
   Atomic configuration                                                         
    9 entries                                                                   
     n  l   j            E        occ.                                          
     1  0  0.50     -6993.8440   2.0000                                         
     2  0  0.50      -814.6047   2.0000                                         
     2  1  1.50      -693.3689   6.0000                                         
     3  0  0.50       -89.4732   2.0000                                         
     3  1  1.50       -55.6373   6.0000                                         
     3  2  2.50        -3.8151   7.0000                                         
     4  0  0.50        -4.2551   1.0000                                         
     4  1  1.50        -3.4015   0.0000                                         
     4  3  2.50        -1.3606   0.0000                                         
   Description                                                                  
     l       E           TYP  RCUT    TYP  RCUT                                 
     2     -3.8151135     23  2.300                                             
     2     -5.1756961     23  2.300                                             
     0     -4.2550963     23  2.300                                             
     0      7.2035603     23  2.300                                             
     1     -2.7211652     23  2.300                                             
     1     18.4316424     23  2.300                                             
  local pseudopotential read in
  partial core-charges read in
  partial kinetic energy density read in
  atomic valenz-charges read in
  non local Contribution for L=           2  read in
    real space projection operators read in
  non local Contribution for L=           2  read in
    real space projection operators read in
  non local Contribution for L=           0  read in
    real space projection operators read in
  non local Contribution for L=           0  read in
    real space projection operators read in
  non local Contribution for L=           1  read in
    real space projection operators read in
  non local Contribution for L=           1  read in
    real space projection operators read in
    PAW grid and wavefunctions read in
 
   number of l-projection  operators is LMAX  =           6
   number of lm-projection operators is LMMAX =          18
 
 POTCAR:    PAW_PBE Ni 02Aug2007                  
   VRHFIN =Ni:                                                                  
   LEXCH  = PE                                                                  
   EATOM  =  1077.6739 eV,   79.2068 Ry                                         
                                                                                
   TITEL  = PAW_PBE Ni 02Aug2007                                                
   LULTRA =        F    use ultrasoft PP ?                                      
   IUNSCR =        1    unscreen: 0-lin 1-nonlin 2-no                           
   RPACOR =    2.000    partial core radius                                     
   POMASS =   58.690; ZVAL   =   10.000    mass and valenz                      
   RCORE  =    2.300    outmost cutoff radius                                   
   RWIGS  =    2.430; RWIGS  =    1.286    wigner-seitz radius (au A)           
   ENMAX  =  269.532; ENMIN  =  202.149 eV                                      
   RCLOC  =    1.201    cutoff for local pot                                    
   LCOR   =        T    correct aug charges                                     
   LPAW   =        T    paw PP                                                  
   EAUG   =  544.565                                                            
   DEXC   =    0.000                                                            
   RMAX   =    2.357    core radius for proj-oper                               
   RAUG   =    1.300    factor for augmentation sphere                          
   RDEP   =    2.390    radius for radial grids                                 
   RDEPT  =    1.838    core radius for aug-charge                              
                                                                                
   Atomic configuration                                                         
    9 entries                                                                   
     n  l   j            E        occ.                                          
     1  0  0.50     -8206.4253   2.0000                                         
     2  0  0.50      -976.1748   2.0000                                         
     2  1  1.50      -839.0571   6.0000                                         
     3  0  0.50      -105.9991   2.0000                                         
     3  1  1.50       -66.4603   6.0000                                         
     3  2  2.50        -4.6458   9.0000                                         
     4  0  0.50        -4.4926   1.0000                                         
     4  1  1.50        -4.0817   0.0000                                         
     4  3  2.50        -1.3606   0.0000                                         
   Description                                                                  
     l       E           TYP  RCUT    TYP  RCUT                                 
     2     -4.6457903     23  2.300                                             
     2     -6.0063729     23  2.300                                             
     0     -4.4925590     23  2.300                                             
     0      5.0102601     23  2.300                                             
     1     -2.7211652     23  2.300                                             
     1     16.5183231     23  2.300                                             
  local pseudopotential read in
  partial core-charges read in
  partial kinetic energy density read in
  atomic valenz-charges read in
  non local Contribution for L=           2  read in
    real space projection operators read in
  non local Contribution for L=           2  read in
    real space projection operators read in
  non local Contribution for L=           0  read in
    real space projection operators read in
  non local Contribution for L=           0  read in
    real space projection operators read in
  non local Contribution for L=           1  read in
    real space projection operators read in
  non local Contribution for L=           1  read in
    real space projection operators read in
    PAW grid and wavefunctions read in
 
   number of l-projection  operators is LMAX  =           6
   number of lm-projection operators is LMMAX =          18
 
 POTCAR:    PAW_PBE O 08Apr2002                   
   VRHFIN =O: s2p4                                                              
   LEXCH  = PE                                                                  
   EATOM  =   432.3788 eV,   31.7789 Ry                                         
                                                                                
   TITEL  = PAW_PBE O 08Apr2002                                                 
   LULTRA =        F    use ultrasoft PP ?                                      
   IUNSCR =        1    unscreen: 0-lin 1-nonlin 2-no                           
   RPACOR =    1.200    partial core radius                                     
   POMASS =   16.000; ZVAL   =    6.000    mass and valenz                      
   RCORE  =    1.520    outmost cutoff radius                                   
   RWIGS  =    1.550; RWIGS  =    0.820    wigner-seitz radius (au A)           
   ENMAX  =  400.000; ENMIN  =  300.000 eV                                      
   ICORE  =        2    local potential                                         
   LCOR   =        T    correct aug charges                                     
   LPAW   =        T    paw PP                                                  
   EAUG   =  605.392                                                            
   DEXC   =    0.000                                                            
   RMAX   =    1.553    core radius for proj-oper                               
   RAUG   =    1.300    factor for augmentation sphere                          
   RDEP   =    1.550    radius for radial grids                                 
   RDEPT  =    1.329    core radius for aug-charge                              
                                                                                
   Atomic configuration                                                         
    4 entries                                                                   
     n  l   j            E        occ.                                          
     1  0  0.50      -514.6923   2.0000                                         
     2  0  0.50       -23.9615   2.0000                                         
     2  1  0.50        -9.0305   4.0000                                         
     3  2  1.50        -9.5241   0.0000                                         
   Description                                                                  
     l       E           TYP  RCUT    TYP  RCUT                                 
     0    -23.9615318     23  1.200                                             
     0     -9.5240782     23  1.200                                             
     1     -9.0304911     23  1.520                                             
     1      8.1634956     23  1.520                                             
     2     -9.5240782      7  1.500                                             
  local pseudopotential read in
  partial core-charges read in
  partial kinetic energy density read in
  kinetic energy density of atom read in
  atomic valenz-charges read in
  non local Contribution for L=           0  read in
    real space projection operators read in
  non local Contribution for L=           0  read in
    real space projection operators read in
  non local Contribution for L=           1  read in
    real space projection operators read in
  non local Contribution for L=           1  read in
    real space projection operators read in
    PAW grid and wavefunctions read in
 
   number of l-projection  operators is LMAX  =           4
   number of lm-projection operators is LMMAX =           8
 
 POTCAR:    PAW_PBE H 15Jun2001                   
   VRHFIN =H: ultrasoft test                                                    
   LEXCH  = PE                                                                  
   EATOM  =    12.4884 eV,    0.9179 Ry                                         
                                                                                
   TITEL  = PAW_PBE H 15Jun2001                                                 
   LULTRA =        F    use ultrasoft PP ?                                      
   IUNSCR =        0    unscreen: 0-lin 1-nonlin 2-no                           
   RPACOR =    0.000    partial core radius                                     
   POMASS =    1.000; ZVAL   =    1.000    mass and valenz                      
   RCORE  =    1.100    outmost cutoff radius                                   
   RWIGS  =    0.700; RWIGS  =    0.370    wigner-seitz radius (au A)           
   ENMAX  =  250.000; ENMIN  =  200.000 eV                                      
   RCLOC  =    0.701    cutoff for local pot                                    
   LCOR   =        T    correct aug charges                                     
   LPAW   =        T    paw PP                                                  
   EAUG   =  400.000                                                            
   RMAX   =    1.123    core radius for proj-oper                               
   RAUG   =    1.200    factor for augmentation sphere                          
   RDEP   =    1.112    radius for radial grids                                 
   RDEPT  =    0.926    core radius for aug-charge                              
                                                                                
   Atomic configuration                                                         
    2 entries                                                                   
     n  l   j            E        occ.                                          
     1  0  0.50        -6.4927   1.0000                                         
     2  1  0.50        -3.4015   0.0000                                         
   Description                                                                  
     l       E           TYP  RCUT    TYP  RCUT                                 
     0     -6.4927494     23  1.100                                             
     0      6.8029130     23  1.100                                             
     1     -4.0817478     23  1.100                                             
  local pseudopotential read in
  atomic valenz-charges read in
  non local Contribution for L=           0  read in
    real space projection operators read in
  non local Contribution for L=           0  read in
    real space projection operators read in
  non local Contribution for L=           1  read in
    real space projection operators read in
    PAW grid and wavefunctions read in
 
   number of l-projection  operators is LMAX  =           3
   number of lm-projection operators is LMMAX =           5
 
 Optimization of the real space projectors (new method)

 maximal supplied QI-value         = 16.25
 optimisation between [QCUT,QGAM] = [ 11.54, 23.24] = [ 37.28,151.24] Ry 
 Optimized for a Real-space Cutoff    1.53 Angstroem

   l    n(q)    QCUT    max X(q) W(low)/X(q) W(high)/X(q)  e(spline) 
   2     10    11.539    80.901    0.11E-03    0.14E-03    0.21E-06
   2     10    11.539    75.754    0.11E-03    0.14E-03    0.22E-06
   0     11    11.539    58.752    0.52E-04    0.18E-04    0.33E-06
   0     11    11.539    30.679    0.44E-04    0.16E-04    0.30E-06
   1     10    11.539    17.977    0.53E-04    0.29E-04    0.13E-06
   1     10    11.539    13.559    0.44E-04    0.25E-04    0.11E-06
 Optimization of the real space projectors (new method)

 maximal supplied QI-value         = 16.25
 optimisation between [QCUT,QGAM] = [ 11.54, 23.24] = [ 37.28,151.24] Ry 
 Optimized for a Real-space Cutoff    1.45 Angstroem

   l    n(q)    QCUT    max X(q) W(low)/X(q) W(high)/X(q)  e(spline) 
   2      9    11.539    60.317    0.19E-03    0.47E-04    0.16E-06
   2      9    11.539    55.921    0.19E-03    0.48E-04    0.16E-06
   0     10    11.539    51.690    0.80E-04    0.50E-04    0.24E-06
   0     10    11.539    30.015    0.73E-04    0.45E-04    0.22E-06
   1     10    11.539    18.849    0.87E-04    0.16E-03    0.71E-07
   1     10    11.539    14.624    0.73E-04    0.13E-03    0.64E-07
 Optimization of the real space projectors (new method)

 maximal supplied QI-value         = 24.76
 optimisation between [QCUT,QGAM] = [ 11.64, 23.27] = [ 37.91,151.63] Ry 
 Optimized for a Real-space Cutoff    1.14 Angstroem

   l    n(q)    QCUT    max X(q) W(low)/X(q) W(high)/X(q)  e(spline) 
   0      8    11.635    20.381    0.10E-03    0.33E-03    0.24E-06
   0      8    11.635    15.268    0.11E-03    0.35E-03    0.26E-06
   1      7    11.635     5.964    0.24E-03    0.31E-03    0.30E-06
   1      7    11.635     5.382    0.22E-03    0.25E-03    0.26E-06
 Optimization of the real space projectors (new method)

 maximal supplied QI-value         = 34.20
 optimisation between [QCUT,QGAM] = [ 11.63, 23.26] = [ 37.87,151.49] Ry 
 Optimized for a Real-space Cutoff    1.21 Angstroem

   l    n(q)    QCUT    max X(q) W(low)/X(q) W(high)/X(q)  e(spline) 
   0      8    11.629    19.460    0.17E-03    0.34E-03    0.21E-06
   0      8    11.629    12.209    0.16E-03    0.33E-03    0.21E-06
   1      8    11.629     4.655    0.18E-03    0.16E-03    0.26E-06
  PAW_PBE Fe 06Sep2000                  :
 energy of atom  1       EATOM= -594.3153
 kinetic energy error for atom=    0.0026 (will be added to EATOM!!)
  PAW_PBE Ni 02Aug2007                  :
 energy of atom  2       EATOM=-1077.6739
 kinetic energy error for atom=    0.0030 (will be added to EATOM!!)
  PAW_PBE O 08Apr2002                   :
 energy of atom  3       EATOM= -432.3788
 kinetic energy error for atom=    0.0208 (will be added to EATOM!!)
  PAW_PBE H 15Jun2001                   :
 energy of atom  4       EATOM=  -12.4884
 kinetic energy error for atom=    0.0014 (will be added to EATOM!!)
 
 
 POSCAR: POSCAR                                  
  positions in direct lattice
  velocities in cartesian coordinates
 exchange correlation table for  LEXCH =        8
   RHO(1)=    0.500       N(1)  =     2000
   RHO(2)=  100.500       N(2)  =     4000

 VTST: version 3.2, (02/03/18)

 CHAIN: initializing optimizer
 
 OPT: Using VASP Conjugate-Gradient optimizer
 CHAIN: Read ICHAIN            0
 
 POSCAR: POSCAR                                  
  positions in direct lattice
  velocities in cartesian coordinates
 


--------------------------------------------------------------------------------------------------------


 ion  position               nearest neighbor table
   1  0.002  0.999  0.097-   9 2.45  29 2.50  49 2.51  64 2.51  44 2.53   7 2.53  51 2.54  38 2.55
                             5 2.60
   2  0.002  0.997  0.381-  11 2.43  48 2.47   6 2.49  30 2.50  57 2.51  39 2.51   8 2.51  52 2.53
                            50 2.56
   3  0.499  0.996  0.096-   5 2.47  62 2.50  34 2.52  31 2.52  49 2.53  45 2.55  55 2.55  12 2.56
                            53 2.58
   4  0.504  0.993  0.380-  15 2.40  13 2.44  63 2.46  35 2.50  32 2.51   6 2.53  50 2.55  56 2.56
                            54 2.59
   5  0.743  0.996  0.094-   3 2.47  34 2.47  62 2.52  38 2.53  55 2.54  64 2.58  14 2.58  51 2.59
                             1 2.60
   6  0.755  0.995  0.386-  68 1.80  39 2.44   2 2.49  56 2.52  35 2.52  47 2.53   4 2.53  15 2.54
                            57 2.56  52 2.59
   7  0.249  0.253  0.097-  22 2.43   9 2.44  51 2.49  18 2.52  20 2.53   1 2.53  53 2.54  10 2.55
                            49 2.58
   8  0.252  0.245  0.382-  66 1.79  11 2.46  52 2.47  19 2.48  54 2.51   2 2.51  59 2.53  26 2.53
                            50 2.55  21 2.55
   9  0.089  0.161  0.191-  10 2.41   7 2.44   1 2.45  44 2.47  11 2.51  57 2.51  51 2.52  59 2.53
                            64 2.54  22 2.55  58 2.62  14 2.68
  10  0.330  0.166  0.195-  26 2.41   9 2.41  11 2.46  22 2.48  45 2.48  44 2.49  13 2.54   7 2.55
                            12 2.57  49 2.58  53 2.59  25 2.59
  11  0.165  0.079  0.289-   2 2.43   8 2.46  10 2.46  44 2.48  48 2.49  57 2.50   9 2.51  13 2.52
                            59 2.54  46 2.54  26 2.56  50 2.61
  12  0.583  0.166  0.194-  14 2.45  27 2.50  15 2.51  62 2.52  45 2.54  13 2.55  55 2.55   3 2.56
                            10 2.57  28 2.58  53 2.58  25 2.58
  13  0.415  0.082  0.292-   4 2.44  50 2.50  11 2.52  54 2.52  46 2.54  10 2.54  12 2.55  45 2.55
                            26 2.55  28 2.56  15 2.57  63 2.58
  14  0.827  0.167  0.193-  60 2.45  12 2.45  15 2.48  57 2.51  62 2.51  55 2.51  27 2.53  58 2.56
                            51 2.56   5 2.58  64 2.59   9 2.68
  15  0.669  0.082  0.290-   4 2.40  14 2.48  60 2.50  12 2.51  47 2.52  62 2.53  57 2.54   6 2.54
                            56 2.55  28 2.55  63 2.56  13 2.57
  16  0.003  0.511  0.095-  31 2.44  29 2.45  23 2.48  33 2.51  58 2.57  18 2.58  27 2.59  55 2.60
                            51 2.63
  17  0.005  0.501  0.377-  43 2.38  37 2.42  60 2.44  32 2.52  19 2.54  52 2.55  24 2.55  30 2.55
                            56 2.56
  18  0.256  0.506  0.097-  36 2.40  31 2.45  34 2.47  22 2.47  20 2.48   7 2.52  58 2.53  51 2.58
                            16 2.58
  19  0.250  0.489  0.385-  67 1.87  52 2.41   8 2.48  59 2.51  17 2.54  21 2.54  61 2.56  37 2.58
                            35 2.59  32 2.61
  20  0.500  0.503  0.098-  22 2.41  40 2.43  34 2.48  18 2.48  38 2.50  25 2.53   7 2.53  53 2.54
                            23 2.58
  21  0.504  0.496  0.376-  42 2.38  26 2.40  61 2.43  35 2.53  54 2.54  19 2.54   8 2.55  24 2.55
                            39 2.56
  22  0.339  0.416  0.189-  20 2.41   7 2.43  26 2.46  40 2.46  18 2.47  25 2.48  10 2.48  61 2.51
                            36 2.53  59 2.54   9 2.55  58 2.60
  23  0.757  0.508  0.096-  29 2.40  41 2.46  16 2.48  27 2.48  38 2.48  25 2.56  55 2.57  20 2.58
                            53 2.60
  24  0.753  0.495  0.394-  65 1.89  69 1.95  54 2.54  56 2.55  17 2.55  28 2.55  21 2.55  30 2.61
                            39 2.61  43 2.66  42 2.70
  25  0.586  0.422  0.194-  26 2.43  40 2.45  42 2.45  41 2.46  27 2.46  22 2.48  20 2.53  23 2.56
                            53 2.58  12 2.58  10 2.59  28 2.60
  26  0.416  0.335  0.285-  21 2.40  10 2.41  25 2.43  22 2.46  59 2.48  61 2.49   8 2.53  13 2.55
                            42 2.56  11 2.56  28 2.57  54 2.69
  27  0.827  0.417  0.192-  41 2.45  25 2.46  23 2.48  12 2.50  55 2.51  43 2.53  14 2.53  60 2.53
                            28 2.57  58 2.59  16 2.59  33 2.60
  28  0.670  0.334  0.294-  60 2.51  43 2.51  42 2.52  54 2.52  56 2.54  15 2.55  24 2.55  13 2.56
                            27 2.57  26 2.57  12 2.58  25 2.60
  29  0.992  0.747  0.096-  23 2.40  16 2.45  38 2.48  41 2.50   1 2.50  33 2.54  44 2.56  49 2.57
                            31 2.63
  30  0.009  0.754  0.388-  65 1.85  50 2.45  46 2.47  32 2.49   2 2.50  17 2.55  43 2.59  39 2.59
                            24 2.61  48 2.64
  31  0.251  0.746  0.097-  16 2.44  36 2.44  18 2.45  33 2.49  34 2.52   3 2.52  45 2.55  49 2.56
                            29 2.63
  32  0.253  0.749  0.389-  67 1.87  50 2.48  30 2.49   4 2.51  17 2.52  46 2.52  35 2.56  63 2.60
                            19 2.61  37 2.65
  33  0.086  0.671  0.192-  45 2.48  44 2.48  31 2.49  16 2.51  36 2.52  37 2.52  41 2.52  46 2.53
                            43 2.53  29 2.54  58 2.55  27 2.60
  34  0.502  0.749  0.098-  18 2.47   5 2.47  40 2.48  36 2.48  20 2.48  62 2.49  38 2.49  31 2.52
                             3 2.52
  35  0.506  0.747  0.385-  67 1.87  39 2.46  47 2.49   4 2.50   6 2.52  21 2.53  61 2.56  32 2.56
                            63 2.58  19 2.59
  36  0.330  0.661  0.190-  18 2.40  31 2.44  37 2.47  34 2.48  58 2.49  61 2.51  63 2.51  33 2.52
                            22 2.53  40 2.53  62 2.56  45 2.62
  37  0.170  0.578  0.286-  17 2.42  58 2.44  36 2.47  61 2.47  59 2.49  63 2.50  33 2.52  60 2.55
                            46 2.55  43 2.57  19 2.58  32 2.65
  38  0.748  0.749  0.094-  29 2.48  23 2.48  34 2.49  20 2.50   5 2.53  40 2.54  64 2.55   1 2.55
                            41 2.58
  39  0.752  0.752  0.388-  65 1.84   6 2.44  35 2.46   2 2.51  21 2.56  47 2.56  42 2.57  30 2.59
                            48 2.60  24 2.61
  40  0.580  0.661  0.192-  20 2.43  25 2.45  22 2.46  61 2.47  34 2.48  36 2.53  42 2.54  47 2.54
                            38 2.54  41 2.54  62 2.56  64 2.57
  41  0.832  0.662  0.193-  27 2.45  25 2.46  42 2.46  23 2.46  48 2.49  29 2.50  43 2.51  33 2.52
                            40 2.54  64 2.54  44 2.57  38 2.58
  42  0.673  0.584  0.288-  21 2.38  25 2.45  41 2.46  43 2.49  48 2.50  28 2.52  47 2.53  40 2.54
                            26 2.56  39 2.57  61 2.58  24 2.70
  43  0.918  0.583  0.289-  17 2.38  42 2.49  46 2.50  41 2.51  28 2.51  27 2.53  33 2.53  48 2.54
                            60 2.55  37 2.57  30 2.59  24 2.66
  44  0.086  0.916  0.194-  45 2.43  48 2.46   9 2.47  11 2.48  33 2.48  10 2.49   1 2.53  49 2.53
                            64 2.54  46 2.56  29 2.56  41 2.57
  45  0.327  0.919  0.193-  44 2.43  33 2.48  10 2.48  49 2.49  46 2.53  63 2.54  12 2.54  31 2.55
                            13 2.55   3 2.55  62 2.59  36 2.62
  46  0.167  0.829  0.292-  30 2.47  43 2.50  50 2.52  32 2.52  63 2.52  33 2.53  45 2.53  13 2.54
                            48 2.54  11 2.54  37 2.55  44 2.56
  47  0.665  0.830  0.288-  35 2.49  63 2.51  62 2.51  64 2.52  15 2.52  61 2.52   6 2.53  42 2.53
                            40 2.54  48 2.54  39 2.56  57 2.57
  48  0.918  0.834  0.286-  44 2.46  64 2.47   2 2.47  11 2.49  41 2.49  42 2.50  57 2.52  43 2.54
                            46 2.54  47 2.54  39 2.60  30 2.64
  49  0.249  0.998  0.096-  45 2.49   1 2.51  44 2.53   3 2.53  53 2.55  31 2.56  29 2.57  10 2.58
                             7 2.58
  50  0.254  0.994  0.389-  66 1.87  30 2.45  32 2.48  13 2.50  54 2.51  46 2.52   4 2.55   8 2.55
                             2 2.56  11 2.61
  51  0.001  0.250  0.097-   7 2.49  58 2.51   9 2.52   1 2.54  55 2.55  14 2.56  18 2.58   5 2.59
                            16 2.63
  52  0.011  0.251  0.381-  68 1.87  19 2.41  59 2.46   8 2.47  57 2.50  60 2.53   2 2.53  56 2.54
                            17 2.55   6 2.59
  53  0.499  0.252  0.095-  55 2.53   7 2.54  20 2.54  49 2.55   3 2.58  25 2.58  12 2.58  10 2.59
                            23 2.60
  54  0.499  0.245  0.390-  66 1.95  69 2.05   8 2.51  50 2.51  13 2.52  28 2.52  21 2.54  24 2.54
                             4 2.59  56 2.60  26 2.69
  55  0.749  0.251  0.096-  14 2.51  27 2.51  53 2.53   5 2.54  51 2.55   3 2.55  12 2.55  23 2.57
                            16 2.60
  56  0.757  0.245  0.389-  68 1.95  69 2.02   6 2.52  52 2.54  28 2.54  15 2.55  24 2.55   4 2.56
                            17 2.56  60 2.58  54 2.60
  57  0.921  0.084  0.286-  64 2.49  11 2.50  52 2.50   2 2.51  14 2.51  60 2.51   9 2.51  59 2.51
                            48 2.52  15 2.54   6 2.56  47 2.57
  58  0.083  0.417  0.192-  37 2.44  36 2.49  60 2.49  59 2.50  51 2.51  18 2.53  33 2.55  14 2.56
                            16 2.57  27 2.59  22 2.60   9 2.62
  59  0.170  0.332  0.286-  52 2.46  26 2.48  37 2.49  61 2.50  58 2.50  19 2.51  57 2.51   8 2.53
                             9 2.53  11 2.54  22 2.54  60 2.56
  60  0.915  0.329  0.287-  17 2.44  14 2.45  58 2.49  15 2.50  28 2.51  57 2.51  52 2.53  27 2.53
                            43 2.55  37 2.55  59 2.56  56 2.58
  61  0.416  0.581  0.286-  21 2.43  40 2.47  37 2.47  26 2.49  63 2.50  59 2.50  36 2.51  22 2.51
                            47 2.52  19 2.56  35 2.56  42 2.58
  62  0.582  0.915  0.192-  63 2.47  34 2.49   3 2.50  14 2.51  47 2.51   5 2.52  12 2.52  15 2.53
                            64 2.55  36 2.56  40 2.56  45 2.59
  63  0.416  0.828  0.286-   4 2.46  62 2.47  61 2.50  37 2.50  47 2.51  36 2.51  46 2.52  45 2.54
                            15 2.56  13 2.58  35 2.58  32 2.60
  64  0.834  0.915  0.192-  48 2.47  57 2.49   1 2.51  47 2.52   9 2.54  44 2.54  41 2.54  38 2.55
                            62 2.55  40 2.57   5 2.58  14 2.59
  65  0.842  0.677  0.441-  39 1.84  30 1.85  24 1.89
  66  0.316  0.163  0.441-   8 1.79  50 1.87  54 1.95
  67  0.337  0.658  0.439-  32 1.87  35 1.87  19 1.87
  68  0.851  0.153  0.439-   6 1.80  52 1.87  56 1.95
  69  0.672  0.327  0.455-  70 0.97  24 1.95  56 2.02  54 2.05
  70  0.675  0.327  0.500-  69 0.97
 

IMPORTANT INFORMATION: All symmetrisations will be switched off!
NOSYMM: (Re-)initialisation of all symmetry stuff for point group C_1.

 
 

Automatic generation of k-mesh.
 generate k-points for:    3    3    1
Space group operators:
 irot       det(A)        alpha          n_x          n_y          n_z        tau_x        tau_y        tau_z
    1     1.000000     0.000000     1.000000     0.000000     0.000000     0.000000     0.000000     0.000000
 
 Subroutine IBZKPT returns following result:
 ===========================================
 
 Found      5 irreducible k-points:
 
 Following reciprocal coordinates:
            Coordinates               Weight
  0.000000  0.000000  0.000000      1.000000
  0.333333  0.000000  0.000000      2.000000
  0.000000  0.333333  0.000000      2.000000
  0.333333  0.333333  0.000000      2.000000
 -0.333333  0.333333  0.000000      2.000000
 
 Following cartesian coordinates:
            Coordinates               Weight
  0.000000  0.000000  0.000000      1.000000
  0.032965  0.019033  0.000000      2.000000
  0.000000  0.038065  0.000000      2.000000
  0.032965  0.057098  0.000000      2.000000
 -0.032965  0.019033  0.000000      2.000000
 


--------------------------------------------------------------------------------------------------------




 Dimension of arrays:
   k-points           NKPTS =      5   k-points in BZ     NKDIM =      5   number of bands    NBANDS=    381
   number of dos      NEDOS =    301   number of ions     NIONS =     70
   non local maximal  LDIM  =      6   non local SUM 2l+1 LMDIM =     18
   total plane-waves  NPLWV = ******
   max r-space proj   IRMAX =   8269   max aug-charges    IRDMAX=  19568
   dimension x,y,z NGX =    80 NGY =   80 NGZ =  160
   dimension x,y,z NGXF=   160 NGYF=  160 NGZF=  320
   support grid    NGXF=   160 NGYF=  160 NGZF=  320
   ions per type =              48  16   5   1
   NGX,Y,Z   is equivalent  to a cutoff of  13.15, 13.15, 12.51 a.u.
   NGXF,Y,Z  is equivalent  to a cutoff of  26.31, 26.31, 25.02 a.u.

 SYSTEM =  SQS-NiFe                                
 POSCAR =  POSCAR                                  

 Startparameter for this run:
   NWRITE =      2    write-flag & timer
   PREC   = accura    normal or accurate (medium, high low for compatibility)
   ISTART =      1    job   : 0-new  1-cont  2-samecut
   ICHARG =      1    charge: 1-file 2-atom 10-const
   ISPIN  =      2    spin polarized calculation?
   LNONCOLLINEAR =      F non collinear calculations
   LSORBIT =      F    spin-orbit coupling
   INIWAV =      1    electr: 0-lowe 1-rand  2-diag
   LASPH  =      F    aspherical Exc in radial PAW
   METAGGA=      F    non-selfconsistent MetaGGA calc.

 Electronic Relaxation 1
   ENCUT  =  520.0 eV  38.22 Ry    6.18 a.u.  18.80 18.80 39.54*2*pi/ulx,y,z
   ENINI  =  520.0     initial cutoff
   ENAUG  =  605.4 eV  augmentation charge cutoff
   NELM   =    200;   NELMIN=  2; NELMDL=  0     # of ELM steps 
   EDIFF  = 0.1E-04   stopping-criterion for ELM
   LREAL  =      T    real-space projection
   NLSPLINE    = F    spline interpolate recip. space projectors
   LCOMPAT=      F    compatible to vasp.4.4
   GGA_COMPAT  = T    GGA compatible to vasp.4.4-vasp.4.6
   LMAXPAW     = -100 max onsite density
   LMAXMIX     =    2 max onsite mixed and CHGCAR
   VOSKOWN=      0    Vosko Wilk Nusair interpolation
   ROPT   =   -0.00025  -0.00025  -0.00025  -0.00025
 Ionic relaxation
   EDIFFG = -.5E-01   stopping-criterion for IOM
   NSW    =     99    number of steps for IOM
   NBLOCK =      1;   KBLOCK =     99    inner block; outer block 
   IBRION =      2    ionic relax: 0-MD 1-quasi-New 2-CG
   NFREE  =      1    steps in history (QN), initial steepest desc. (CG)
   ISIF   =      2    stress and relaxation
   IWAVPR =     11    prediction:  0-non 1-charg 2-wave 3-comb
   ISYM   =      0    0-nonsym 1-usesym 2-fastsym
   LCORR  =      T    Harris-Foulkes like correction to forces

   POTIM  = 0.5000    time-step for ionic-motion
   TEIN   =    0.0    initial temperature
   TEBEG  =    0.0;   TEEND  =   0.0 temperature during run
   SMASS  =  -3.00    Nose mass-parameter (am)
   estimated Nose-frequenzy (Omega)   =  0.10E-29 period in steps =****** mass=  -0.234E-26a.u.
   SCALEE = 1.0000    scale energy and forces
   NPACO  =    256;   APACO  = 16.0  distance and # of slots for P.C.
   PSTRESS=    0.0 pullay stress

  Mass of Ions in am
   POMASS =  55.85 58.69 16.00  1.00
  Ionic Valenz
   ZVAL   =   8.00 10.00  6.00  1.00
  Atomic Wigner-Seitz radii
   RWIGS  =  -1.00 -1.00 -1.00 -1.00
  virtual crystal weights 
   VCA    =   1.00  1.00  1.00  1.00
   NELECT =     575.0000    total number of electrons
   NUPDOWN=      -1.0000    fix difference up-down

 DOS related values:
   EMIN   =  10.00;   EMAX   =-10.00  energy-range for DOS
   EFERMI =   0.00
   ISMEAR =     1;   SIGMA  =   0.20  broadening in eV -4-tet -1-fermi 0-gaus

 Electronic relaxation 2 (details)
   IALGO  =     68    algorithm
   LDIAG  =      T    sub-space diagonalisation (order eigenvalues)
   LSUBROT=      F    optimize rotation matrix (better conditioning)
   TURBO    =      0    0=normal 1=particle mesh
   IRESTART =      0    0=no restart 2=restart with 2 vectors
   NREBOOT  =      0    no. of reboots
   NMIN     =      0    reboot dimension
   EREF     =   0.00    reference energy to select bands
   IMIX   =      4    mixing-type and parameters
     AMIX     =   0.40;   BMIX     =  1.00
     AMIX_MAG =   1.60;   BMIX_MAG =  1.00
     AMIN     =   0.10
     WC   =   100.;   INIMIX=   1;  MIXPRE=   1;  MAXMIX= -45

 Intra band minimization:
   WEIMIN = 0.0010     energy-eigenvalue tresh-hold
   EBREAK =  0.66E-08  absolut break condition
   DEPER  =   0.30     relativ break condition  

   TIME   =   0.40     timestep for ELM

  volume/ion in A,a.u.               =      26.90       181.54
  Fermi-wavevector in a.u.,A,eV,Ry     =   1.102406  2.083245 16.535148  1.215299
  Thomas-Fermi vector in A             =   2.238848
 
 Write flags
   LWAVE        =      T    write WAVECAR
   LDOWNSAMPLE  =      F    k-point downsampling of WAVECAR
   LCHARG       =      T    write CHGCAR
   LVTOT        =      F    write LOCPOT, total local potential
   LVHAR        =      F    write LOCPOT, Hartree potential only
   LELF         =      F    write electronic localiz. function (ELF)
   LORBIT       =     10    0 simple, 1 ext, 2 COOP (PROOUT), +10 PAW based schemes


 Dipole corrections
   LMONO  =      F    monopole corrections only (constant potential shift)
   LDIPOL =      T    correct potential (dipole corrections)
   IDIPOL =      3    1-x, 2-y, 3-z, 4-all directions 
   EPSILON=  1.0000000 bulk dielectric constant

 Exchange correlation treatment:
   GGA     =    --    GGA type
   LEXCH   =     8    internal setting for exchange type
   VOSKOWN=      0    Vosko Wilk Nusair interpolation
   LHFCALC =     F    Hartree Fock is set to
   LHFONE  =     F    Hartree Fock one center treatment
   AEXX    =    0.0000 exact exchange contribution

 Linear response parameters
   LEPSILON=     F    determine dielectric tensor
   LRPA    =     F    only Hartree local field effects (RPA)
   LNABLA  =     F    use nabla operator in PAW spheres
   LVEL    =     F    velocity operator in full k-point grid
   LINTERFAST=   F  fast interpolation
   KINTER  =     0    interpolate to denser k-point grid
   CSHIFT  =0.1000    complex shift for real part using Kramers Kronig
   OMEGAMAX=  -1.0    maximum frequency
   DEG_THRESHOLD= 0.2000000E-02 threshold for treating states as degnerate
   RTIME   =   -0.100 relaxation time in fs
  (WPLASMAI=    0.000 imaginary part of plasma frequency in eV, 0.658/RTIME)
   DFIELD  = 0.0000000 0.0000000 0.0000000 field for delta impulse in time
 
 Orbital magnetization related:
   ORBITALMAG=     F  switch on orbital magnetization
   LCHIMAG   =     F  perturbation theory with respect to B field
   DQ        =  0.001000  dq finite difference perturbation B field
   LLRAUG    =     F  two centre corrections for induced B field



--------------------------------------------------------------------------------------------------------


 conjugate gradient relaxation of ions
   using selective dynamics as specified on POSCAR
 charge density and potential will be updated during run
 spin polarized calculation
 RMM-DIIS sequential band-by-band and
  variant of blocked Davidson during initial phase
 perform sub-space diagonalisation
    before iterative eigenvector-optimisation
 modified Broyden-mixing scheme, WC =      100.0
 initial mixing is a Kerker type mixing with AMIX =  0.4000 and BMIX =      1.0000
 Hartree-type preconditioning will be used
 using additional bands           93
 real space projection scheme for non local part
 use partial core corrections
 calculate Harris-corrections to forces 
   (improved forces if not selfconsistent)
 use gradient corrections 
 use of overlap-Matrix (Vanderbilt PP)
 Methfessel and Paxton  Order N= 1 SIGMA  =   0.20


--------------------------------------------------------------------------------------------------------


  energy-cutoff  :      520.00
  volume of cell :     1883.07
      direct lattice vectors                 reciprocal lattice vectors
    10.111630000  0.000000000  0.000000000     0.098896024  0.057097646  0.000000000
    -5.055815000  8.756928450  0.000000000     0.000000000  0.114195292  0.000000000
     0.000000000  0.000000000 21.266430000     0.000000000  0.000000000  0.047022467

  length of vectors
    10.111630000 10.111629997 21.266430000     0.114195292  0.114195292  0.047022467


 
 old parameters found on file WAVECAR:
  energy-cutoff  :      520.00
  volume of cell :     1883.07
      direct lattice vectors                 reciprocal lattice vectors
    10.111630000  0.000000000  0.000000000     0.098896024  0.057097646  0.000000000
    -5.055815000  8.756928450  0.000000000     0.000000000  0.114195292  0.000000000
     0.000000000  0.000000000 21.266430000     0.000000000  0.000000000  0.047022467

  length of vectors

 
 k-points in units of 2pi/SCALE and weight: read from INCAR                         
   0.00000000  0.00000000  0.00000000       0.111
   0.03296534  0.01903255  0.00000000       0.222
   0.00000000  0.03806510  0.00000000       0.222
   0.03296534  0.05709765  0.00000000       0.222
  -0.03296534  0.01903255  0.00000000       0.222
 
 k-points in reciprocal lattice and weights: read from INCAR                         
   0.00000000  0.00000000  0.00000000       0.111
   0.33333333  0.00000000  0.00000000       0.222
   0.00000000  0.33333333  0.00000000       0.222
   0.33333333  0.33333333  0.00000000       0.222
  -0.33333333  0.33333333  0.00000000       0.222
 
 position of ions in fractional coordinates (direct lattice) 
   0.00194700  0.99920000  0.09682900
   0.00227311  0.99709538  0.38129213
   0.49880600  0.99647600  0.09614500
   0.50414384  0.99252514  0.37999284
   0.74316000  0.99645900  0.09443100
   0.75546763  0.99531605  0.38560086
   0.24913600  0.25322600  0.09681000
   0.25172966  0.24482287  0.38232330
   0.08873200  0.16149400  0.19059200
   0.32962600  0.16609800  0.19506300
   0.16494569  0.07928406  0.28886139
   0.58333000  0.16550300  0.19443700
   0.41524402  0.08247018  0.29206495
   0.82651500  0.16651000  0.19326300
   0.66854974  0.08161618  0.28989356
   0.00320800  0.51090900  0.09451300
   0.00526121  0.50060649  0.37693601
   0.25586900  0.50577700  0.09734600
   0.25004627  0.48928626  0.38521464
   0.49960200  0.50304900  0.09754100
   0.50404966  0.49640753  0.37564292
   0.33859900  0.41583700  0.18939300
   0.75679100  0.50804300  0.09630900
   0.75270969  0.49452075  0.39407015
   0.58633600  0.42229400  0.19423600
   0.41641691  0.33470881  0.28473685
   0.82677100  0.41676200  0.19199500
   0.66974777  0.33402817  0.29394281
   0.99180600  0.74702800  0.09571300
   0.00907436  0.75357921  0.38834875
   0.25104600  0.74563900  0.09703600
   0.25333341  0.74878535  0.38877208
   0.08604600  0.67086900  0.19220200
   0.50153700  0.74905700  0.09752900
   0.50572640  0.74653429  0.38539426
   0.33005900  0.66135600  0.19018600
   0.17013553  0.57840680  0.28583921
   0.74777500  0.74863100  0.09404500
   0.75185997  0.75185566  0.38757152
   0.58008200  0.66096300  0.19152700
   0.83213700  0.66199500  0.19303500
   0.67278393  0.58437456  0.28817303
   0.91808025  0.58263621  0.28919436
   0.08603600  0.91635500  0.19371200
   0.32743000  0.91932200  0.19293700
   0.16695874  0.82880804  0.29196157
   0.66511458  0.83049938  0.28822758
   0.91828912  0.83367450  0.28637317
   0.24916500  0.99813100  0.09559800
   0.25383848  0.99426383  0.38870195
   0.00129700  0.24974200  0.09658600
   0.01065810  0.25144763  0.38144743
   0.49933100  0.25162700  0.09537300
   0.49944235  0.24509332  0.38962431
   0.74944200  0.25071300  0.09573100
   0.75656462  0.24471426  0.38895112
   0.92055302  0.08420234  0.28609870
   0.08260800  0.41708000  0.19225300
   0.16972148  0.33230827  0.28626092
   0.91487309  0.32938513  0.28670541
   0.41593079  0.58075099  0.28610767
   0.58190700  0.91526900  0.19241300
   0.41575633  0.82756952  0.28636420
   0.83399900  0.91457100  0.19240400
   0.84189458  0.67748195  0.44141132
   0.31575010  0.16332005  0.44123389
   0.33683168  0.65792983  0.43913055
   0.85074243  0.15322532  0.43919838
   0.67176808  0.32691398  0.45466939
   0.67510861  0.32650383  0.50037725
 
 position of ions in cartesian coordinates  (Angst):
  -5.03208300  8.74992291  2.05920715
  -5.01814496  8.73149292  8.10872232
   0.00574341  8.72606903  2.04466091
   0.07969246  8.69147167  8.08109114
   2.47664659  8.72592017  2.00821025
   2.60687539  8.71591142  8.20035376
   1.23890724  2.21748196  2.05880309
   1.30761799  2.14389638  8.13065179
   0.08074137  1.41419140  4.05321143
   2.49329539  1.45450830  4.14829364
   1.26702429  0.69428486  6.14305056
   5.06166458  1.44929793  4.13498085
   3.78183989  0.72218544  6.21117890
   7.51557011  1.45811616  4.11001406
   6.34749133  0.71470704  6.16500105
  -2.55062328  4.47399356  2.00995410
  -2.47777440  4.38377525  8.01608337
   0.03013771  4.42905300  2.07020189
   0.05463457  4.28464478  8.19214028
   2.50846789  4.40516410  2.07434885
   2.58701904  4.34700523  7.98858393
   1.32139286  3.64145486  4.02771298
   5.08381916  4.44889620  2.04814861
   5.11091644  4.33048285  8.38046522
   3.79377235  3.69799834  4.13070630
   2.51842789  2.93102114  6.05533630
   6.25293088  3.64955501  4.08304823
   5.08345702  2.92506081  6.25111421
   6.25193994  6.54167075  2.03547381
  -3.71820047  6.59903924  8.25879154
  -1.23132858  6.52950737  2.06360930
  -1.22410649  6.55705970  8.26779424
  -2.52172424  5.87475183  4.08745038
   1.28426296  6.55943855  2.07409365
   1.33937904  6.53734733  8.19596002
  -0.00625910  5.79144717  4.04457726
  -1.20397025  5.06506699  6.07877955
   3.77628428  6.55570810  2.00000141
   3.80128668  6.58394624  8.24226254
   2.52386790  5.78800570  4.07309554
   5.06733720  5.79704285  4.10516532
   3.84845252  5.11732623  6.12841148
   6.33758691  5.10210361  6.15013158
  -3.76295716  8.02445517  4.11956269
  -1.33707095  8.05043698  4.10308120
  -2.50207506  7.25781267  6.20898025
   2.52654128  7.27262366  6.12957157
   5.07049575  7.30042793  6.09013497
  -2.52690139  8.74056175  2.03302818
  -2.46009326  8.70669726  8.26630280
  -1.24953457  2.18697282  2.05403941
  -1.16350194  2.20190895  8.11202497
   3.77687076  2.20347964  2.02824323
   3.81102979  2.14626469  8.28591805
   6.31052166  2.19547580  2.03585661
   6.41287144  2.14294529  8.27160171
   8.88258009  0.73735383  6.08429800
  -1.27337779  3.65233972  4.08853497
   0.03607170  2.90999978  6.08774782
   7.58554786  2.88440204  6.09720055
   1.26956870  5.08559489  6.08448882
   1.25659754  8.01494515  4.09193760
   0.01993577  7.24696708  6.08994420
   3.80918753  8.00883281  4.09174620
   5.08770305  5.93266097  9.38724292
   2.36703225  1.43018196  9.38346964
   0.07954577  5.76144449  9.33873909
   7.82771384  1.34178315  9.34018167
   5.13985370  2.86276231  9.66919475
   5.17570550  2.85917071 10.64123786
 


--------------------------------------------------------------------------------------------------------


 k-point  1 :   0.0000 0.0000 0.0000  plane waves:   50761
 k-point  2 :   0.3333 0.0000 0.0000  plane waves:   50732
 k-point  3 :   0.0000 0.3333 0.0000  plane waves:   50732
 k-point  4 :   0.3333 0.3333 0.0000  plane waves:   50727
 k-point  5 :  -0.3333 0.3333 0.0000  plane waves:   50732

 maximum and minimum number of plane-waves per node :      2133     2094

 maximum number of plane-waves:     50761
 maximum index in each direction: 
   IXMAX=   19   IYMAX=   18   IZMAX=   39
   IXMIN=  -19   IYMIN=  -19   IZMIN=  -39


 real space projection operators:
  total allocation   :      70056.73 KBytes
  max/ min on nodes  :       3501.05       2624.67


 parallel 3D FFT for wavefunctions:
    minimum data exchange during FFTs selected (reduces bandwidth)
 parallel 3D FFT for charge:
    minimum data exchange during FFTs selected (reduces bandwidth)


 total amount of memory used by VASP MPI-rank0   113882. kBytes
=======================================================================

   base      :      30000. kBytes
   nonlr-proj:      14141. kBytes
   fftplans  :       6403. kBytes
   grid      :      18928. kBytes
   one-center:         93. kBytes
   wavefun   :      44317. kBytes
 
     INWAV:  cpu time   10.5157: real time   10.6969
 Broyden mixing: mesh for mixing (old mesh)
   NGX = 37   NGY = 37   NGZ = 79
  (NGX  =160   NGY  =160   NGZ  =320)
  gives a total of 108151 points

 initial charge density was supplied:
 number of electron     575.0000075 magnetization     123.6326040
 keeping initial charge density in first step


--------------------------------------------------------------------------------------------------------


 Maximum index for non-local projection operator          764
 Maximum index for augmentation-charges         1132 (set IRDMAX)


--------------------------------------------------------------------------------------------------------


 First call to EWALD:  gamma=   0.144
 Maximum number of real-space cells 4x 4x 2
 Maximum number of reciprocal cells 2x 2x 4

    FEWALD:  cpu time    0.0034: real time    0.0034


--------------------------------------- Iteration      1(   1)  ---------------------------------------


    POTLOK:  cpu time    0.4186: real time    0.4305
    SETDIJ:  cpu time    0.0253: real time    0.0253
     EDDAV:  cpu time   36.9849: real time   36.9992
       DOS:  cpu time    0.0084: real time    0.0084
    CHARGE:  cpu time    1.2607: real time    1.2609
    MIXING:  cpu time    0.0064: real time    0.0064
    --------------------------------------------
      LOOP:  cpu time   38.7044: real time   38.7308

 eigenvalue-minimisations  :  7953
 total energy-change (2. order) :-0.4831529E+03  (-0.1580882E+03)
 number of electron     575.0000075 magnetization     123.4429323
 augmentation part      303.5087425 magnetization      99.8649744

 DIPCOR: dipole corrections for dipol
 direction  3 min pos   243,
 dipolmoment           0.000000      0.000000      0.036308 electrons x Angstroem
 Tr[quadrupol]    -10015.979441

 energy correction for charged system         0.000000 eV
 dipol+quadrupol energy correction           -0.000063 eV
 added-field ion interaction          0.190350 eV  (added to PSCEN)


 Broyden mixing:
  rms(total) = 0.83490E+00    rms(broyden)= 0.83486E+00
  rms(prec ) = 0.84321E+00
  weight for this iteration     100.00

 Free energy of the ion-electron system (eV)
  ---------------------------------------------------
  alpha Z        PSCENC =      1551.69687857
  Ewald energy   TEWEN  =    174026.76162665
  -Hartree energ DENC   =   -221673.65037487
  -exchange      EXHF   =         0.00000000
  -V(xc)+E(xc)   XCENC  =       842.49521524
  PAW double counting   =     54722.15785980   -56269.67359206
  entropy T*S    EENTRO =         0.01081827
  eigenvalues    EBANDS =     -1626.97163494
  atomic energy  EATOM  =     47944.02028770
  Solvation  Ediel_sol  =         0.00000000
  ---------------------------------------------------
  free energy    TOTEN  =      -483.15291564 eV

  energy without entropy =     -483.16373391  energy(sigma->0) =     -483.15652173


--------------------------------------------------------------------------------------------------------




--------------------------------------- Iteration      1(   2)  ---------------------------------------


    POTLOK:  cpu time    0.4198: real time    0.4330
    SETDIJ:  cpu time    0.0249: real time    0.0249
    EDDIAG:  cpu time    5.2222: real time    5.2236
  RMM-DIIS:  cpu time   18.9733: real time   18.9825
    ORTHCH:  cpu time    1.4152: real time    1.4154
       DOS:  cpu time    0.0085: real time    0.0085
    CHARGE:  cpu time    1.2651: real time    1.2653
    MIXING:  cpu time    0.0065: real time    0.0065
    --------------------------------------------
      LOOP:  cpu time   27.3356: real time   27.3597

 eigenvalue-minimisations  :  7744
 total energy-change (2. order) :-0.1320209E+02  (-0.1234057E+02)
 number of electron     575.0000073 magnetization     123.3214474
 augmentation part      299.5870720 magnetization     100.2901236

 DIPCOR: dipole corrections for dipol
 direction  3 min pos   245,
 dipolmoment           0.000000      0.000000     -0.048181 electrons x Angstroem
 Tr[quadrupol]    -10016.088687

 energy correction for charged system         0.000000 eV
 dipol+quadrupol energy correction           -0.000112 eV
 added-field ion interaction         -0.606455 eV  (added to PSCEN)


 Broyden mixing:
  rms(total) = 0.19157E+01    rms(broyden)= 0.19157E+01
  rms(prec ) = 0.21820E+01
  weight for this iteration     100.00

 eigenvalues of (default mixing * dielectric matrix)
  average eigenvalue GAMMA=   0.2951
  0.2951

 Free energy of the ion-electron system (eV)
  ---------------------------------------------------
  alpha Z        PSCENC =      1550.90002524
  Ewald energy   TEWEN  =    174026.76162665
  -Hartree energ DENC   =   -221707.64712271
  -exchange      EXHF   =         0.00000000
  -V(xc)+E(xc)   XCENC  =       842.60769576
  PAW double counting   =     55072.31989155   -56639.45176899
  entropy T*S    EENTRO =         0.04661890
  eigenvalues    EBANDS =     -1585.91225967
  atomic energy  EATOM  =     47944.02028770
  Solvation  Ediel_sol  =         0.00000000
  ---------------------------------------------------
  free energy    TOTEN  =      -496.35500558 eV

  energy without entropy =     -496.40162447  energy(sigma->0) =     -496.37054521


--------------------------------------------------------------------------------------------------------




--------------------------------------- Iteration      1(   3)  ---------------------------------------


    POTLOK:  cpu time    0.4209: real time    0.4337
    SETDIJ:  cpu time    0.0239: real time    0.0250
    EDDIAG:  cpu time    5.2208: real time    5.2220
  RMM-DIIS:  cpu time   20.2695: real time   20.5924
    ORTHCH:  cpu time    1.4169: real time    1.4172
       DOS:  cpu time    0.0084: real time    0.0083
    CHARGE:  cpu time    1.2656: real time    1.2658
    MIXING:  cpu time    0.0064: real time    0.0065
    --------------------------------------------
      LOOP:  cpu time   28.6324: real time   28.9710

 eigenvalue-minimisations  :  8157
 total energy-change (2. order) :-0.5894808E+01  (-0.2025281E+01)
 number of electron     575.0000077 magnetization     123.2795581
 augmentation part      300.5371017 magnetization      98.5952195

 DIPCOR: dipole corrections for dipol
 direction  3 min pos   245,
 dipolmoment           0.000000      0.000000      0.318080 electrons x Angstroem
 Tr[quadrupol]    -10015.966415

 energy correction for charged system         0.000000 eV
 dipol+quadrupol energy correction           -0.004861 eV
 added-field ion interaction          4.003685 eV  (added to PSCEN)


 Broyden mixing:
  rms(total) = 0.33278E+01    rms(broyden)= 0.33277E+01
  rms(prec ) = 0.42843E+01
  weight for this iteration     100.00

 eigenvalues of (default mixing * dielectric matrix)
  average eigenvalue GAMMA=   0.2014
  0.3304  0.0724

 Free energy of the ion-electron system (eV)
  ---------------------------------------------------
  alpha Z        PSCENC =      1555.50541630
  Ewald energy   TEWEN  =    174026.76162665
  -Hartree energ DENC   =   -221686.38281749
  -exchange      EXHF   =         0.00000000
  -V(xc)+E(xc)   XCENC  =       841.62048116
  PAW double counting   =     55039.51386488   -56601.38219301
  entropy T*S    EENTRO =         0.02236430
  eigenvalues    EBANDS =     -1621.92884400
  atomic energy  EATOM  =     47944.02028770
  Solvation  Ediel_sol  =         0.00000000
  ---------------------------------------------------
  free energy    TOTEN  =      -502.24981351 eV

  energy without entropy =     -502.27217782  energy(sigma->0) =     -502.25726828


--------------------------------------------------------------------------------------------------------




--------------------------------------- Iteration      1(   4)  ---------------------------------------


    POTLOK:  cpu time    0.4255: real time    0.4386
    SETDIJ:  cpu time    0.0249: real time    0.0249
    EDDIAG:  cpu time    5.2161: real time    5.2190
  RMM-DIIS:  cpu time   19.6233: real time   19.6309
    ORTHCH:  cpu time    1.4129: real time    1.4131
       DOS:  cpu time    0.0081: real time    0.0081
    CHARGE:  cpu time    1.2583: real time    1.2585
    MIXING:  cpu time    0.0067: real time    0.0066
    --------------------------------------------
      LOOP:  cpu time   27.9757: real time   27.9997

 eigenvalue-minimisations  :  8008
 total energy-change (2. order) : 0.3489734E+01  (-0.3602707E+00)
 number of electron     575.0000074 magnetization     123.2907833
 augmentation part      301.4756891 magnetization      97.6564271

 DIPCOR: dipole corrections for dipol
 direction  3 min pos   244,
 dipolmoment           0.000000      0.000000     -0.199182 electrons x Angstroem
 Tr[quadrupol]    -10015.759681

 energy correction for charged system         0.000000 eV
 dipol+quadrupol energy correction           -0.001906 eV
 added-field ion interaction         -1.775671 eV  (added to PSCEN)


 Broyden mixing:
  rms(total) = 0.20357E+01    rms(broyden)= 0.20355E+01
  rms(prec ) = 0.26552E+01
  weight for this iteration     100.00

 eigenvalues of (default mixing * dielectric matrix)
  average eigenvalue GAMMA=   0.1644
  0.3136  0.1099  0.0698

 Free energy of the ion-electron system (eV)
  ---------------------------------------------------
  alpha Z        PSCENC =      1549.72901449
  Ewald energy   TEWEN  =    174026.76162665
  -Hartree energ DENC   =   -221673.80246580
  -exchange      EXHF   =         0.00000000
  -V(xc)+E(xc)   XCENC  =       840.88878347
  PAW double counting   =     55007.19933658   -56565.00985285
  entropy T*S    EENTRO =         0.04725659
  eigenvalues    EBANDS =     -1628.59406644
  atomic energy  EATOM  =     47944.02028770
  Solvation  Ediel_sol  =         0.00000000
  ---------------------------------------------------
  free energy    TOTEN  =      -498.76007961 eV

  energy without entropy =     -498.80733620  energy(sigma->0) =     -498.77583181


--------------------------------------------------------------------------------------------------------




--------------------------------------- Iteration      1(   5)  ---------------------------------------


    POTLOK:  cpu time    0.4232: real time    0.4358
    SETDIJ:  cpu time    0.0250: real time    0.0250
    EDDIAG:  cpu time    5.2331: real time    5.2355
  RMM-DIIS:  cpu time   19.4511: real time   19.4588
    ORTHCH:  cpu time    1.4085: real time    1.4088
       DOS:  cpu time    0.0087: real time    0.0087
    CHARGE:  cpu time    1.2576: real time    1.2578
    MIXING:  cpu time    0.0068: real time    0.0068
    --------------------------------------------
      LOOP:  cpu time   27.8140: real time   27.8370

 eigenvalue-minimisations  :  7962
 total energy-change (2. order) : 0.1996828E+01  (-0.1425648E+00)
 number of electron     575.0000075 magnetization     123.2611791
 augmentation part      300.6860868 magnetization      99.2590198

 DIPCOR: dipole corrections for dipol
 direction  3 min pos   243,
 dipolmoment           0.000000      0.000000      0.099490 electrons x Angstroem
 Tr[quadrupol]    -10016.009965

 energy correction for charged system         0.000000 eV
 dipol+quadrupol energy correction           -0.000476 eV
 added-field ion interaction          0.521585 eV  (added to PSCEN)


 Broyden mixing:
  rms(total) = 0.72566E+00    rms(broyden)= 0.72552E+00
  rms(prec ) = 0.88073E+00
  weight for this iteration     100.00

 eigenvalues of (default mixing * dielectric matrix)
  average eigenvalue GAMMA=   0.2051
  0.3399  0.3399  0.0889  0.0518

 Free energy of the ion-electron system (eV)
  ---------------------------------------------------
  alpha Z        PSCENC =      1552.02770143
  Ewald energy   TEWEN  =    174026.76162665
  -Hartree energ DENC   =   -221678.81674711
  -exchange      EXHF   =         0.00000000
  -V(xc)+E(xc)   XCENC  =       841.08867595
  PAW double counting   =     54999.64832044   -56556.67301861
  entropy T*S    EENTRO =        -0.00338468
  eigenvalues    EBANDS =     -1624.81671346
  atomic energy  EATOM  =     47944.02028770
  Solvation  Ediel_sol  =         0.00000000
  ---------------------------------------------------
  free energy    TOTEN  =      -496.76325169 eV

  energy without entropy =     -496.75986701  energy(sigma->0) =     -496.76212346


--------------------------------------------------------------------------------------------------------




--------------------------------------- Iteration      1(   6)  ---------------------------------------


    POTLOK:  cpu time    0.4192: real time    0.4337
    SETDIJ:  cpu time    0.0248: real time    0.0248
    EDDIAG:  cpu time    5.2216: real time    5.2241
  RMM-DIIS:  cpu time   19.1774: real time   19.1844
    ORTHCH:  cpu time    1.4096: real time    1.4106
       DOS:  cpu time    0.0088: real time    0.0088
    CHARGE:  cpu time    1.2574: real time    1.2576
    MIXING:  cpu time    0.0069: real time    0.0069
    --------------------------------------------
      LOOP:  cpu time   27.5257: real time   27.5510

 eigenvalue-minimisations  :  7860
 total energy-change (2. order) :-0.3859085E-01  (-0.7387924E-01)
 number of electron     575.0000074 magnetization     123.2340861
 augmentation part      300.9597455 magnetization      99.0866504

 DIPCOR: dipole corrections for dipol
 direction  3 min pos   235,
 dipolmoment           0.000000      0.000000      0.046674 electrons x Angstroem
 Tr[quadrupol]    -10015.589725

 energy correction for charged system         0.000000 eV
 dipol+quadrupol energy correction           -0.000105 eV
 added-field ion interaction         -1.126485 eV  (added to PSCEN)


 Broyden mixing:
  rms(total) = 0.84541E+00    rms(broyden)= 0.84538E+00
  rms(prec ) = 0.95089E+00
  weight for this iteration     100.00

 eigenvalues of (default mixing * dielectric matrix)
  average eigenvalue GAMMA=   0.2299
  0.4499  0.4499  0.1179  0.0766  0.0553

 Free energy of the ion-electron system (eV)
  ---------------------------------------------------
  alpha Z        PSCENC =      1550.38000207
  Ewald energy   TEWEN  =    174026.76162665
  -Hartree energ DENC   =   -221668.31581425
  -exchange      EXHF   =         0.00000000
  -V(xc)+E(xc)   XCENC  =       841.16717721
  PAW double counting   =     54972.76399449   -56528.77522268
  entropy T*S    EENTRO =         0.00123684
  eigenvalues    EBANDS =     -1634.80513055
  atomic energy  EATOM  =     47944.02028770
  Solvation  Ediel_sol  =         0.00000000
  ---------------------------------------------------
  free energy    TOTEN  =      -496.80184253 eV

  energy without entropy =     -496.80307938  energy(sigma->0) =     -496.80225481


--------------------------------------------------------------------------------------------------------




--------------------------------------- Iteration      1(   7)  ---------------------------------------


    POTLOK:  cpu time    0.4198: real time    0.4328
    SETDIJ:  cpu time    0.0248: real time    0.0248
    EDDIAG:  cpu time    5.2084: real time    5.2098
  RMM-DIIS:  cpu time   19.2256: real time   19.2333
    ORTHCH:  cpu time    1.4048: real time    1.4054
       DOS:  cpu time    0.0087: real time    0.0086
    CHARGE:  cpu time    1.2753: real time    1.2755
    MIXING:  cpu time    0.0073: real time    0.0073
    --------------------------------------------
      LOOP:  cpu time   27.5747: real time   27.5975

 eigenvalue-minimisations  :  7862
 total energy-change (2. order) : 0.3733771E-01  (-0.3326549E-01)
 number of electron     575.0000075 magnetization     123.2251539
 augmentation part      301.0859467 magnetization      99.1195600

 DIPCOR: dipole corrections for dipol
 direction  3 min pos   233,
 dipolmoment           0.000000      0.000000      0.030302 electrons x Angstroem
 Tr[quadrupol]    -10015.692173

 energy correction for charged system         0.000000 eV
 dipol+quadrupol energy correction           -0.000044 eV
 added-field ion interaction         -0.953880 eV  (added to PSCEN)


 Broyden mixing:
  rms(total) = 0.82660E+00    rms(broyden)= 0.82657E+00
  rms(prec ) = 0.92509E+00
  weight for this iteration     100.00

 eigenvalues of (default mixing * dielectric matrix)
  average eigenvalue GAMMA=   0.2147
  0.4701  0.4701  0.1361  0.0873  0.0538  0.0710

 Free energy of the ion-electron system (eV)
  ---------------------------------------------------
  alpha Z        PSCENC =      1550.55266838
  Ewald energy   TEWEN  =    174026.76162665
  -Hartree energ DENC   =   -221668.51532540
  -exchange      EXHF   =         0.00000000
  -V(xc)+E(xc)   XCENC  =       841.26574713
  PAW double counting   =     54935.80893087   -56490.08113315
  entropy T*S    EENTRO =         0.00827059
  eigenvalues    EBANDS =     -1636.58557758
  atomic energy  EATOM  =     47944.02028770
  Solvation  Ediel_sol  =         0.00000000
  ---------------------------------------------------
  free energy    TOTEN  =      -496.76450482 eV

  energy without entropy =     -496.77277541  energy(sigma->0) =     -496.76726169


--------------------------------------------------------------------------------------------------------




--------------------------------------- Iteration      1(   8)  ---------------------------------------


    POTLOK:  cpu time    0.4183: real time    0.4330
    SETDIJ:  cpu time    0.0249: real time    0.0249
    EDDIAG:  cpu time    5.2141: real time    5.2163
  RMM-DIIS:  cpu time   19.0244: real time   19.0323
    ORTHCH:  cpu time    1.4052: real time    1.4054
       DOS:  cpu time    0.0088: real time    0.0088
    CHARGE:  cpu time    1.2730: real time    1.2733
    MIXING:  cpu time    0.0075: real time    0.0074
    --------------------------------------------
      LOOP:  cpu time   27.3762: real time   27.4015

 eigenvalue-minimisations  :  7783
 total energy-change (2. order) : 0.1598575E+00  (-0.1437577E-01)
 number of electron     575.0000074 magnetization     123.2198264
 augmentation part      301.1787503 magnetization      99.0969056

 DIPCOR: dipole corrections for dipol
 direction  3 min pos   236,
 dipolmoment           0.000000      0.000000      0.039122 electrons x Angstroem
 Tr[quadrupol]    -10015.842946

 energy correction for charged system         0.000000 eV
 dipol+quadrupol energy correction           -0.000074 eV
 added-field ion interaction         -0.800556 eV  (added to PSCEN)


 Broyden mixing:
  rms(total) = 0.31361E+00    rms(broyden)= 0.31358E+00
  rms(prec ) = 0.33305E+00
  weight for this iteration     100.00

 eigenvalues of (default mixing * dielectric matrix)
  average eigenvalue GAMMA=   0.2320
  0.5111  0.5111  0.2603  0.1378  0.0880  0.0576  0.0580

 Free energy of the ion-electron system (eV)
  ---------------------------------------------------
  alpha Z        PSCENC =      1550.70596237
  Ewald energy   TEWEN  =    174026.76162665
  -Hartree energ DENC   =   -221670.89363592
  -exchange      EXHF   =         0.00000000
  -V(xc)+E(xc)   XCENC  =       841.24259043
  PAW double counting   =     54919.06196777   -56472.39919529
  entropy T*S    EENTRO =         0.00200088
  eigenvalues    EBANDS =     -1635.10625193
  atomic energy  EATOM  =     47944.02028770
  Solvation  Ediel_sol  =         0.00000000
  ---------------------------------------------------
  free energy    TOTEN  =      -496.60464734 eV

  energy without entropy =     -496.60664822  energy(sigma->0) =     -496.60531430


--------------------------------------------------------------------------------------------------------




--------------------------------------- Iteration      1(   9)  ---------------------------------------


    POTLOK:  cpu time    0.4227: real time    0.4359
    SETDIJ:  cpu time    0.0249: real time    0.0249
    EDDIAG:  cpu time    5.2099: real time    5.2121
  RMM-DIIS:  cpu time   19.2385: real time   19.2488
    ORTHCH:  cpu time    1.4089: real time    1.4092
       DOS:  cpu time    0.0081: real time    0.0081
    CHARGE:  cpu time    1.2706: real time    1.2708
    MIXING:  cpu time    0.0076: real time    0.0076
    --------------------------------------------
      LOOP:  cpu time   27.5912: real time   27.6174

 eigenvalue-minimisations  :  7870
 total energy-change (2. order) :-0.1483396E-01  (-0.6664566E-02)
 number of electron     575.0000075 magnetization     123.1995568
 augmentation part      301.2206002 magnetization      99.2218404

 DIPCOR: dipole corrections for dipol
 direction  3 min pos   240,
 dipolmoment           0.000000      0.000000      0.054733 electrons x Angstroem
 Tr[quadrupol]    -10015.891735

 energy correction for charged system         0.000000 eV
 dipol+quadrupol energy correction           -0.000144 eV
 added-field ion interaction         -0.316029 eV  (added to PSCEN)


 Broyden mixing:
  rms(total) = 0.34574E+00    rms(broyden)= 0.34573E+00
  rms(prec ) = 0.37966E+00
  weight for this iteration     100.00

 eigenvalues of (default mixing * dielectric matrix)
  average eigenvalue GAMMA=   0.2567
  0.6310  0.6310  0.3659  0.1404  0.0980  0.0715  0.0549  0.0609

 Free energy of the ion-electron system (eV)
  ---------------------------------------------------
  alpha Z        PSCENC =      1551.19041876
  Ewald energy   TEWEN  =    174026.76162665
  -Hartree energ DENC   =   -221671.01869935
  -exchange      EXHF   =         0.00000000
  -V(xc)+E(xc)   XCENC  =       841.24641801
  PAW double counting   =     54903.97373834   -56456.67106834
  entropy T*S    EENTRO =         0.00342798
  eigenvalues    EBANDS =     -1636.12563103
  atomic energy  EATOM  =     47944.02028770
  Solvation  Ediel_sol  =         0.00000000
  ---------------------------------------------------
  free energy    TOTEN  =      -496.61948129 eV

  energy without entropy =     -496.62290927  energy(sigma->0) =     -496.62062395


--------------------------------------------------------------------------------------------------------




--------------------------------------- Iteration      1(  10)  ---------------------------------------


    POTLOK:  cpu time    0.4216: real time    0.4359
    SETDIJ:  cpu time    0.0249: real time    0.0249
    EDDIAG:  cpu time    5.2109: real time    5.2141
  RMM-DIIS:  cpu time   19.0555: real time   19.0624
    ORTHCH:  cpu time    1.4066: real time    1.4076
       DOS:  cpu time    0.0088: real time    0.0088
    CHARGE:  cpu time    1.2781: real time    1.2783
    MIXING:  cpu time    0.0077: real time    0.0076
    --------------------------------------------
      LOOP:  cpu time   27.4139: real time   27.4396

 eigenvalue-minimisations  :  7785
 total energy-change (2. order) : 0.1068658E-01  (-0.2853802E-02)
 number of electron     575.0000075 magnetization     123.1905752
 augmentation part      301.3541333 magnetization      98.9784959

 DIPCOR: dipole corrections for dipol
 direction  3 min pos   238,
 dipolmoment           0.000000      0.000000      0.040007 electrons x Angstroem
 Tr[quadrupol]    -10015.853163

 energy correction for charged system         0.000000 eV
 dipol+quadrupol energy correction           -0.000077 eV
 added-field ion interaction         -0.524825 eV  (added to PSCEN)


 Broyden mixing:
  rms(total) = 0.24598E+00    rms(broyden)= 0.24598E+00
  rms(prec ) = 0.25656E+00
  weight for this iteration     100.00

 eigenvalues of (default mixing * dielectric matrix)
  average eigenvalue GAMMA=   0.2651
  0.7172  0.7172  0.3811  0.1406  0.1406  0.0871  0.0871  0.0557  0.0592

 Free energy of the ion-electron system (eV)
  ---------------------------------------------------
  alpha Z        PSCENC =      1550.98168983
  Ewald energy   TEWEN  =    174026.76162665
  -Hartree energ DENC   =   -221669.99379971
  -exchange      EXHF   =         0.00000000
  -V(xc)+E(xc)   XCENC  =       841.32591663
  PAW double counting   =     54878.40757141   -56430.34255538
  entropy T*S    EENTRO =         0.00447642
  eigenvalues    EBANDS =     -1637.77400826
  atomic energy  EATOM  =     47944.02028770
  Solvation  Ediel_sol  =         0.00000000
  ---------------------------------------------------
  free energy    TOTEN  =      -496.60879472 eV

  energy without entropy =     -496.61327114  energy(sigma->0) =     -496.61028686


--------------------------------------------------------------------------------------------------------




--------------------------------------- Iteration      1(  11)  ---------------------------------------


    POTLOK:  cpu time    0.4243: real time    0.4386
    SETDIJ:  cpu time    0.0250: real time    0.0250
    EDDIAG:  cpu time    5.2251: real time    5.2263
  RMM-DIIS:  cpu time   18.9293: real time   18.9383
    ORTHCH:  cpu time    1.4066: real time    1.4068
       DOS:  cpu time    0.0089: real time    0.0089
    CHARGE:  cpu time    1.2732: real time    1.2734
    MIXING:  cpu time    0.0080: real time    0.0080
    --------------------------------------------
      LOOP:  cpu time   27.3005: real time   27.3252

 eigenvalue-minimisations  :  7732
 total energy-change (2. order) :-0.2401501E-02  (-0.1538507E-02)
 number of electron     575.0000075 magnetization     123.1904943
 augmentation part      301.3395939 magnetization      99.0358036

 DIPCOR: dipole corrections for dipol
 direction  3 min pos   241,
 dipolmoment           0.000000      0.000000      0.042042 electrons x Angstroem
 Tr[quadrupol]    -10015.944949

 energy correction for charged system         0.000000 eV
 dipol+quadrupol energy correction           -0.000085 eV
 added-field ion interaction         -0.088366 eV  (added to PSCEN)


 Broyden mixing:
  rms(total) = 0.23602E+00    rms(broyden)= 0.23602E+00
  rms(prec ) = 0.24926E+00
  weight for this iteration     100.00

 eigenvalues of (default mixing * dielectric matrix)
  average eigenvalue GAMMA=   0.2834
  0.6794  0.6794  0.4881  0.4114  0.1522  0.1386  0.0921  0.0773  0.0554  0.0596

 Free energy of the ion-electron system (eV)
  ---------------------------------------------------
  alpha Z        PSCENC =      1551.41814171
  Ewald energy   TEWEN  =    174026.76162665
  -Hartree energ DENC   =   -221672.99637259
  -exchange      EXHF   =         0.00000000
  -V(xc)+E(xc)   XCENC  =       841.47363951
  PAW double counting   =     54857.30763472   -56408.82371651
  entropy T*S    EENTRO =         0.00645474
  eigenvalues    EBANDS =     -1635.77889213
  atomic energy  EATOM  =     47944.02028770
  Solvation  Ediel_sol  =         0.00000000
  ---------------------------------------------------
  free energy    TOTEN  =      -496.61119622 eV

  energy without entropy =     -496.61765096  energy(sigma->0) =     -496.61334780


--------------------------------------------------------------------------------------------------------




--------------------------------------- Iteration      1(  12)  ---------------------------------------


    POTLOK:  cpu time    0.4188: real time    0.4339
    SETDIJ:  cpu time    0.0250: real time    0.0250
    EDDIAG:  cpu time    5.2367: real time    5.2387
  RMM-DIIS:  cpu time   23.7509: real time   23.7603
    ORTHCH:  cpu time    1.4103: real time    1.4113
       DOS:  cpu time    0.0087: real time    0.0087
    CHARGE:  cpu time    1.2662: real time    1.2664
    MIXING:  cpu time    0.0081: real time    0.0081
    --------------------------------------------
      LOOP:  cpu time   32.1247: real time   32.1524

 eigenvalue-minimisations  :  9915
 total energy-change (2. order) :-0.2084994E-02  (-0.3557852E-03)
 number of electron     575.0000075 magnetization     123.1858018
 augmentation part      301.3492317 magnetization      99.0375121

 DIPCOR: dipole corrections for dipol
 direction  3 min pos   240,
 dipolmoment           0.000000      0.000000      0.041902 electrons x Angstroem
 Tr[quadrupol]    -10015.940432

 energy correction for charged system         0.000000 eV
 dipol+quadrupol energy correction           -0.000084 eV
 added-field ion interaction         -0.241945 eV  (added to PSCEN)


 Broyden mixing:
  rms(total) = 0.23670E+00    rms(broyden)= 0.23670E+00
  rms(prec ) = 0.25009E+00
  weight for this iteration     100.00

 eigenvalues of (default mixing * dielectric matrix)
  average eigenvalue GAMMA=   0.3218
  0.9361  0.7158  0.7158  0.4013  0.1795  0.1795  0.1278  0.0924  0.0761  0.0554
  0.0596

 Free energy of the ion-electron system (eV)
  ---------------------------------------------------
  alpha Z        PSCENC =      1551.26456236
  Ewald energy   TEWEN  =    174026.76162665
  -Hartree energ DENC   =   -221673.04429072
  -exchange      EXHF   =         0.00000000
  -V(xc)+E(xc)   XCENC  =       841.48254689
  PAW double counting   =     54855.37497404   -56406.83835071
  entropy T*S    EENTRO =         0.00669588
  eigenvalues    EBANDS =     -1635.64133329
  atomic energy  EATOM  =     47944.02028770
  Solvation  Ediel_sol  =         0.00000000
  ---------------------------------------------------
  free energy    TOTEN  =      -496.61328121 eV

  energy without entropy =     -496.61997709  energy(sigma->0) =     -496.61551317


--------------------------------------------------------------------------------------------------------




--------------------------------------- Iteration      1(  13)  ---------------------------------------


    POTLOK:  cpu time    0.4247: real time    0.4375
    SETDIJ:  cpu time    0.0252: real time    0.0252
    EDDIAG:  cpu time    5.2200: real time    5.2216
  RMM-DIIS:  cpu time   18.7847: real time   18.7919
    ORTHCH:  cpu time    1.4075: real time    1.4077
       DOS:  cpu time    0.0085: real time    0.0085
    CHARGE:  cpu time    1.2643: real time    1.2645
    MIXING:  cpu time    0.0084: real time    0.0083
    --------------------------------------------
      LOOP:  cpu time   27.1434: real time   27.1652

 eigenvalue-minimisations  :  7676
 total energy-change (2. order) : 0.6973192E-02  (-0.3411385E-03)
 number of electron     575.0000075 magnetization     123.1628076
 augmentation part      301.3267436 magnetization      99.0369544

 DIPCOR: dipole corrections for dipol
 direction  3 min pos   242,
 dipolmoment           0.000000      0.000000      0.041276 electrons x Angstroem
 Tr[quadrupol]    -10015.953803

 energy correction for charged system         0.000000 eV
 dipol+quadrupol energy correction           -0.000082 eV
 added-field ion interaction          0.064819 eV  (added to PSCEN)


 Broyden mixing:
  rms(total) = 0.23004E+00    rms(broyden)= 0.23004E+00
  rms(prec ) = 0.24026E+00
  weight for this iteration     100.00

 eigenvalues of (default mixing * dielectric matrix)
  average eigenvalue GAMMA=   0.3672
  1.2058  0.8285  0.8285  0.4134  0.4134  0.1532  0.1399  0.1399  0.0925  0.0763
  0.0554  0.0596

 Free energy of the ion-electron system (eV)
  ---------------------------------------------------
  alpha Z        PSCENC =      1551.57132952
  Ewald energy   TEWEN  =    174026.76162665
  -Hartree energ DENC   =   -221673.09308338
  -exchange      EXHF   =         0.00000000
  -V(xc)+E(xc)   XCENC  =       841.43100620
[...]
   -.952E+02 -.421E+02 -.188E+04   0.972E+02 0.434E+02 0.188E+04   -.198E+01 -.125E+01 0.200E+01   -.159E-01 -.542E-01 -.996E-01
   0.203E+02 -.306E+02 0.874E+03   -.205E+02 0.311E+02 -.873E+03   0.238E+00 0.226E+00 0.221E+00   0.180E+00 -.302E+00 -.727E-01
   0.563E+02 -.785E+02 -.506E+03   -.567E+02 0.789E+02 0.506E+03   0.317E+00 -.388E+00 0.397E+00   0.122E+00 -.853E-01 -.210E+00
   -.833E+01 0.976E+01 0.214E+04   0.852E+01 -.946E+01 -.213E+04   -.153E-01 0.175E+00 -.233E+01   -.538E-01 -.888E-01 0.275E-01
   0.835E+02 -.318E+02 -.184E+04   -.855E+02 0.328E+02 0.184E+04   0.201E+01 -.103E+01 0.252E+01   -.191E-01 -.316E-01 -.749E-01
   -.432E+02 0.546E+01 0.839E+03   0.436E+02 -.503E+01 -.838E+03   0.264E-01 0.238E+00 -.794E-02   -.147E+00 -.361E+00 -.835E-01
   -.175E+02 0.509E+00 0.797E+03   0.177E+02 -.411E+00 -.797E+03   -.150E+00 0.811E+00 -.364E+00   -.990E-01 -.832E-01 -.861E-01
   -.412E+02 -.161E+02 -.519E+03   0.417E+02 0.162E+02 0.519E+03   -.380E+00 0.329E-01 0.336E+00   -.123E+00 -.110E+00 -.272E+00
   0.310E+02 -.538E+02 -.516E+03   -.313E+02 0.540E+02 0.516E+03   0.322E+00 -.213E+00 0.611E+00   -.101E-01 -.348E-01 -.149E+00
   -.186E+02 0.443E+02 0.786E+03   0.185E+02 -.447E+02 -.786E+03   -.153E+00 0.445E-01 -.443E+00   0.333E-02 0.985E-01 -.837E-01
   0.133E+02 0.143E+01 0.796E+03   -.127E+02 -.139E+01 -.795E+03   0.170E+00 -.128E+00 -.164E+00   -.212E-01 0.247E-01 -.857E-01
   0.272E+02 0.247E+02 -.542E+03   -.272E+02 -.249E+02 0.543E+03   -.285E-02 0.176E+00 -.436E+00   0.120E-01 0.121E-01 -.160E+00
   -.394E+02 0.348E+02 -.554E+03   0.395E+02 -.348E+02 0.555E+03   -.903E-01 0.178E+00 -.868E+00   -.208E-01 -.969E-01 -.191E+00
   -.312E+02 0.680E+02 -.515E+03   0.313E+02 -.685E+02 0.516E+03   -.112E+00 0.483E+00 -.271E+00   -.581E-02 0.132E-01 -.169E+00
   0.752E+01 0.322E+02 0.263E+04   -.760E+01 -.323E+02 -.263E+04   0.353E-01 0.155E+00 -.502E+00   -.292E-01 0.124E+00 0.354E-01
   0.947E+01 0.192E+03 -.232E+04   -.921E+01 -.195E+03 0.232E+04   -.262E+00 0.299E+01 0.106E+01   -.335E-02 0.509E-01 -.880E-01
   -.911E+01 0.258E+01 0.266E+04   0.922E+01 -.280E+01 -.266E+04   -.504E+00 0.133E+00 -.121E+01   0.168E+00 0.958E-01 0.808E-01
   -.132E+03 -.779E+02 -.232E+04   0.134E+03 0.793E+02 0.232E+04   -.214E+01 -.142E+01 0.357E+00   0.531E-01 0.513E-01 -.136E+00
   0.106E+02 -.289E+02 0.261E+04   -.106E+02 0.292E+02 -.261E+04   0.199E+00 -.444E+00 -.184E+01   -.172E+00 0.128E+00 0.132E+00
   0.110E+02 -.348E+02 -.222E+04   -.116E+02 0.346E+02 0.222E+04   0.649E+00 0.152E+00 0.257E+01   -.473E-01 0.226E-01 -.111E+00
   0.124E+02 -.196E+02 0.264E+04   -.125E+02 0.195E+02 -.263E+04   0.537E-01 0.334E-01 -.151E+01   -.330E-01 0.364E-01 0.487E-03
   0.302E+02 -.823E+01 -.225E+04   -.296E+02 0.776E+01 0.225E+04   -.620E+00 0.447E+00 0.233E+01   -.351E-02 0.276E-01 -.696E-01
   -.112E+02 0.960E+02 -.593E+03   0.110E+02 -.965E+02 0.592E+03   0.105E+00 0.434E+00 0.689E+00   0.867E-01 0.857E-01 -.226E+00
   0.282E+02 -.429E+02 0.108E+04   -.286E+02 0.428E+02 -.108E+04   -.219E-01 -.242E+00 -.261E+00   0.414E+00 -.183E-02 -.998E-01
   -.696E+02 -.123E+02 -.591E+03   0.695E+02 0.120E+02 0.592E+03   -.731E-01 0.115E+00 -.629E+00   0.236E+00 0.126E+00 -.507E+00
   0.848E+02 -.678E+02 -.572E+03   -.853E+02 0.679E+02 0.572E+03   0.390E+00 -.200E+00 0.561E+00   0.965E-01 0.448E-01 -.203E+00
   -.506E+02 -.272E+02 -.627E+03   0.506E+02 0.277E+02 0.627E+03   -.353E-01 -.184E+00 0.688E+00   0.123E-01 -.277E+00 -.520E+00
   0.285E+02 0.359E+01 0.104E+04   -.285E+02 -.357E+01 -.104E+04   0.156E+00 0.660E-01 -.248E+00   -.457E-02 -.109E+00 -.106E+00
   0.531E+02 -.167E+02 -.630E+03   -.533E+02 0.170E+02 0.630E+03   0.187E+00 -.143E+00 0.493E+00   0.207E-01 -.113E+00 -.218E+00
   -.297E+02 0.554E+02 0.106E+04   0.294E+02 -.555E+02 -.106E+04   -.268E-01 0.270E+00 -.323E-01   0.212E-01 -.831E-02 -.100E+00
   0.475E+01 -.498E+02 -.185E+04   -.478E+01 0.504E+02 0.187E+04   0.233E-01 -.636E+00 -.259E+02   0.482E-02 -.166E-01 0.373E-01
   0.719E+02 -.293E+01 -.192E+04   -.713E+02 0.294E+01 0.195E+04   -.579E+00 -.373E-01 -.278E+02   -.395E-02 0.125E-01 0.692E-02
   -.829E+01 0.337E+01 -.187E+04   0.896E+01 -.416E+01 0.190E+04   -.667E+00 0.798E+00 -.259E+02   0.121E-02 -.164E-01 0.796E-02
   -.486E+02 0.528E+02 -.193E+04   0.497E+02 -.504E+02 0.195E+04   -.114E+01 -.245E+01 -.272E+02   0.775E-02 0.170E-01 0.277E-01
   0.409E+01 -.217E+02 -.186E+04   -.559E+01 0.189E+02 0.184E+04   0.151E+01 0.277E+01 0.198E+02   -.579E-02 0.814E-02 0.311E-01
   -.294E+01 -.134E+01 -.366E+03   0.324E+01 0.128E+01 0.374E+03   -.307E+00 0.432E-01 -.827E+01   -.421E-03 0.509E-03 0.686E-02
 -----------------------------------------------------------------------------------------------
   0.183E+01 -.174E+01 0.986E+02   -.582E-13 0.489E-12 0.171E-12   -.195E+01 0.177E+01 -.929E+02   0.122E+00 -.207E-01 -.567E+01
 
 
 POSITION                                       TOTAL-FORCE (eV/Angst)
 -----------------------------------------------------------------------------------
     -5.03208      8.74992      2.05921        -0.227652     -0.010213     -0.065566
     -5.01862      8.73445      8.10474         0.000619     -0.006843     -0.003049
      0.00574      8.72607      2.04466        -0.256386      0.370114      0.008471
      0.07867      8.69219      8.07852         0.003449     -0.002286     -0.019078
      2.47665      8.72592      2.00821         0.324542      0.178108      0.137512
      2.60839      8.71804      8.19789        -0.001865     -0.001619      0.002824
      1.23891      2.21748      2.05880         0.392630     -0.208426     -0.368740
      1.30976      2.14456      8.12892         0.004008     -0.001414     -0.013067
      0.08074      1.41419      4.05321        -0.770540      0.641201      0.199510
      2.49330      1.45451      4.14829         0.430780      0.155970     -0.772150
      1.26821      0.69047      6.14437        -0.002573      0.010741     -0.009757
      5.06166      1.44930      4.13498        -0.534479      0.239039     -0.437882
      3.77740      0.72477      6.20960         0.004353      0.006675      0.004920
      7.51557      1.45812      4.11001         0.612706     -0.131950     -0.431610
      6.34591      0.71429      6.16032        -0.011379     -0.004973      0.000908
     -2.55062      4.47399      2.00995         0.260912     -0.767597      0.255383
     -2.47950      4.38239      8.01123        -0.011023     -0.000578     -0.017104
      0.03014      4.42905      2.07020        -0.363167     -0.611744     -0.267263
      0.05470      4.28159      8.19356        -0.001029     -0.014377     -0.011790
      2.50847      4.40516      2.07435         0.381466     -0.455966     -0.156372
      2.58741      4.34494      7.98714        -0.001471      0.000393     -0.013552
      1.32139      3.64145      4.02771        -0.120434     -0.094198      0.489759
      5.08382      4.44890      2.04815        -0.527675     -0.844827     -0.125296
      5.10773      4.33141      8.38372        -0.000369     -0.018451      0.014190
      3.79377      3.69800      4.13071        -0.612035     -0.691753     -0.328355
      2.52266      2.93250      6.05344         0.000481     -0.005269      0.003311
      6.25293      3.64956      4.08305         0.689892     -0.102057      0.276785
      5.08613      2.92502      6.25091         0.001554     -0.007572      0.017426
      6.25194      6.54167      2.03547         0.383007      0.513820     -0.046637
     -3.71567      6.60341      8.25791        -0.022369     -0.009410      0.009656
     -1.23133      6.52951      2.06361        -0.331643      0.388645     -0.566285
     -1.22321      6.55834      8.26856         0.005351     -0.009162     -0.004919
     -2.52172      5.87475      4.08745        -0.169243     -0.307354      0.132448
      1.28426      6.55944      2.07409        -0.029731      0.312403     -0.422311
      1.33941      6.53549      8.19694         0.000323      0.002321     -0.009080
     -0.00626      5.79145      4.04458         0.212456      0.455296      0.737789
     -1.20630      5.06451      6.07638        -0.001723     -0.002827      0.003804
      3.77628      6.55571      2.00000         0.124179      0.387151     -0.098589
      3.79678      6.58058      8.24292        -0.005618      0.009567     -0.011189
      2.52387      5.78801      4.07310         0.239875      0.302207      0.338821
      5.06734      5.79704      4.10517        -0.068944      0.819357      0.042724
      3.84900      5.11634      6.12277        -0.004437      0.002775      0.006345
      6.33158      5.10059      6.14916        -0.003959      0.005949      0.005397
     -3.76296      8.02446      4.11956        -0.195690     -0.238460     -0.147576
     -1.33707      8.05044      4.10308         0.721651     -0.056496      0.275615
     -2.50274      7.25854      6.20786         0.003319     -0.012550      0.000529
      2.52725      7.27237      6.12523        -0.002744     -0.002856      0.010644
      5.07084      7.30286      6.08962        -0.009739     -0.011064      0.003515
     -2.52690      8.74056      2.03303        -0.077983      0.096319      0.396795
     -2.45838      8.70575      8.26467         0.002720      0.012487      0.004584
     -1.24953      2.18697      2.05404        -0.204115     -0.003646      0.332324
     -1.16214      2.19764      8.11303         0.008465      0.003954     -0.009871
      3.77687      2.20348      2.02824         0.001030      0.035364      0.667949
      3.81023      2.14749      8.28990         0.004377      0.002104      0.003555
      6.31052      2.19548      2.03586        -0.004871      0.023032      0.217244
      6.41296      2.13728      8.27313        -0.011201     -0.004561      0.001063
      8.87978      0.73604      6.08416        -0.004092      0.000336     -0.006463
     -1.27338      3.65234      4.08853        -0.010333     -0.370889     -0.284433
      0.03728      2.90553      6.08419         0.005183     -0.004343      0.010409
      7.58508      2.88345      6.09463         0.003414     -0.007801      0.003753
      1.27080      5.08677      6.08179        -0.008964     -0.003543      0.010246
      1.25660      8.01495      4.09194         0.090060     -0.020442      0.115704
      0.01952      7.24758      6.08870        -0.004888      0.000061      0.001997
      3.80919      8.00883      4.09175        -0.298402      0.118319     -0.102010
      5.08546      5.93390      9.39027         0.006672      0.020279     -0.005851
      2.36738      1.43096      9.38577        -0.001516     -0.008668      0.005646
      0.07952      5.75860      9.34000        -0.003749     -0.011434      0.004110
      7.82796      1.34534      9.34396        -0.001278     -0.008232      0.001254
      5.13889      2.85682      9.66985         0.002209     -0.008462     -0.030621
      5.17534      2.85475     10.64179        -0.002371     -0.029673      0.031548
 -----------------------------------------------------------------------------------
    total drift:                                0.006198      0.006183     -0.004101


--------------------------------------------------------------------------------------------------------



  FREE ENERGIE OF THE ION-ELECTRON SYSTEM (eV)
  ---------------------------------------------------
  free  energy   TOTEN  =      -511.44498537 eV

  energy  without entropy=     -511.45383542  energy(sigma->0) =     -511.44793539
 
 d Force = 0.4285510E-04[ 0.328E-04, 0.529E-04]  d Energy = 0.2776494E-04 0.151E-04
 d Force =-0.6180276E+00[-0.618E+00,-0.618E+00]  d Ewald  =-0.6180277E+00 0.698E-09


--------------------------------------------------------------------------------------------------------


    POTLOK:  cpu time    0.4413: real time    0.4415


--------------------------------------------------------------------------------------------------------


 stress matrix after NEB project (eV)
    -24.60570     -0.12422      0.12111
     -0.12422    -22.28363      0.63853
      0.12111      0.63853     -0.78171
  FORCES: max atom, RMS     0.043375    0.011743
  FORCE total and by dimension    0.098249    0.031548
  Stress total and by dimension   33.218779   24.605696


--------------------------------------------------------------------------------------------------------


  
 reached required accuracy - stopping structural energy minimisation
 writing wavefunctions
     LOOP+:  cpu time  261.7523: real time  280.3571
    4ORBIT:  cpu time    0.0000: real time    0.0000
 


 total charge     
 
# of ion       s       p       d       tot
------------------------------------------
    1        0.479   0.398   6.173   7.050
    2        0.465   0.406   6.203   7.073
    3        0.473   0.390   6.151   7.014
    4        0.477   0.406   6.191   7.073
    5        0.467   0.384   6.155   7.006
    6        0.496   0.552   6.247   7.295
    7        0.480   0.406   6.181   7.067
    8        0.502   0.552   6.271   7.325
    9        0.485   0.519   6.226   7.231
   10        0.495   0.537   6.246   7.277
   11        0.493   0.541   6.255   7.289
   12        0.476   0.504   6.209   7.188
   13        0.477   0.518   6.213   7.207
   14        0.472   0.491   6.186   7.149
   15        0.480   0.516   6.228   7.224
   16        0.474   0.391   6.171   7.036
   17        0.479   0.413   6.202   7.094
   18        0.493   0.423   6.210   7.126
   19        0.470   0.502   6.211   7.183
   20        0.496   0.431   6.208   7.134
   21        0.482   0.428   6.210   7.120
   22        0.498   0.550   6.286   7.334
   23        0.489   0.417   6.194   7.100
   24        0.431   0.535   6.207   7.173
   25        0.493   0.536   6.307   7.336
   26        0.495   0.539   6.244   7.277
   27        0.483   0.516   6.226   7.225
   28        0.471   0.507   6.188   7.166
   29        0.489   0.426   6.201   7.116
   30        0.475   0.519   6.229   7.223
   31        0.490   0.424   6.201   7.115
   32        0.468   0.502   6.219   7.189
   33        0.490   0.534   6.254   7.277
   34        0.494   0.446   6.216   7.156
   35        0.472   0.515   6.225   7.212
   36        0.493   0.537   6.241   7.271
   37        0.480   0.517   6.220   7.217
   38        0.480   0.416   6.189   7.085
   39        0.484   0.528   6.241   7.253
   40        0.493   0.533   6.248   7.274
   41        0.499   0.550   6.263   7.311
   42        0.494   0.542   6.253   7.288
   43        0.487   0.534   6.241   7.262
   44        0.506   0.564   6.190   7.260
   45        0.484   0.515   6.231   7.230
   46        0.486   0.531   6.222   7.239
   47        0.479   0.515   6.193   7.186
   48        0.488   0.530   6.244   7.261
   49        0.502   0.386   8.314   9.202
   50        0.514   0.519   8.331   9.364
   51        0.494   0.375   8.310   9.179
   52        0.506   0.518   8.332   9.357
   53        0.484   0.358   8.310   9.152
   54        0.448   0.503   8.340   9.292
   55        0.499   0.373   8.311   9.183
   56        0.445   0.507   8.343   9.295
   57        0.509   0.520   8.319   9.348
   58        0.508   0.503   8.321   9.331
   59        0.513   0.527   8.305   9.345
   60        0.511   0.516   8.322   9.348
   61        0.522   0.544   8.324   9.390
   62        0.518   0.528   8.313   9.359
   63        0.511   0.528   8.309   9.347
   64        0.511   0.516   8.308   9.335
   65        1.579   3.385   0.000   4.965
   66        1.583   3.345   0.000   4.928
   67        1.578   3.383   0.000   4.961
   68        1.582   3.346   0.000   4.928
   69        1.543   3.556   0.000   5.099
   70        0.605   0.121   0.000   0.726
--------------------------------------------------
tot         39.663  48.339 431.629 519.631
 


 magnetization (x)
 
# of ion       s       p       d       tot
------------------------------------------
    1        0.007  -0.005   2.646   2.648
    2       -0.000  -0.004   2.852   2.848
    3        0.004  -0.009   2.792   2.786
    4       -0.000  -0.002   2.894   2.892
    5        0.002  -0.010   2.777   2.769
    6       -0.003  -0.014   2.326   2.309
    7        0.000  -0.005   2.644   2.639
    8        0.001  -0.010   2.214   2.206
    9       -0.001  -0.016   2.379   2.361
   10       -0.005  -0.018   2.257   2.234
   11       -0.010  -0.030   2.330   2.289
   12       -0.009  -0.031   2.511   2.471
   13       -0.013  -0.038   2.620   2.570
   14       -0.002  -0.015   2.697   2.680
   15       -0.009  -0.031   2.581   2.540
   16       -0.000  -0.010   2.754   2.743
   17       -0.003  -0.009   2.869   2.857
   18       -0.002  -0.014   2.583   2.567
   19        0.005   0.000   2.570   2.575
   20       -0.001  -0.008   2.531   2.522
   21       -0.003  -0.013   2.850   2.835
   22       -0.031  -0.057  -0.372  -0.460
   23       -0.004  -0.014   2.664   2.647
   24       -0.006   0.003   2.633   2.630
   25       -0.029  -0.056   0.138   0.053
   26       -0.004  -0.027   2.338   2.307
   27       -0.009  -0.034   2.474   2.431
   28       -0.001  -0.027   2.583   2.555
   29       -0.003  -0.019   2.590   2.567
   30        0.003  -0.010   2.446   2.439
   31       -0.011  -0.021   2.661   2.629
   32        0.006  -0.007   2.515   2.514
   33       -0.014  -0.041   2.258   2.204
   34       -0.012  -0.034   2.583   2.537
   35        0.003  -0.011   2.482   2.474
   36       -0.009  -0.030   2.467   2.428
   37       -0.009  -0.034   2.612   2.569
   38       -0.010  -0.027   2.652   2.615
   39       -0.002  -0.021   2.305   2.281
   40       -0.007  -0.029   2.346   2.310
   41       -0.010  -0.032   2.255   2.213
   42       -0.015  -0.044   2.297   2.237
   43       -0.019  -0.052   2.514   2.443
   44       -0.044  -0.074  -2.079  -2.196
   45       -0.004  -0.032   2.376   2.340
   46       -0.003  -0.028   2.369   2.339
   47        0.000  -0.022   2.557   2.536
   48       -0.009  -0.036   2.351   2.306
   49       -0.030  -0.030   0.600   0.540
   50       -0.025  -0.026   0.578   0.527
   51       -0.031  -0.029   0.713   0.653
   52       -0.017  -0.019   0.583   0.548
   53       -0.026  -0.021   0.674   0.627
   54       -0.019  -0.022   0.697   0.656
   55       -0.030  -0.022   0.745   0.693
   56       -0.017  -0.022   0.635   0.596
   57       -0.029  -0.054   0.775   0.692
   58       -0.022  -0.053   0.664   0.589
   59       -0.014  -0.031   0.596   0.552
   60       -0.025  -0.045   0.752   0.682
   61       -0.029  -0.061   0.730   0.640
   62       -0.028  -0.074   0.742   0.639
   63       -0.032  -0.067   0.809   0.710
   64       -0.023  -0.056   0.696   0.618
   65        0.004   0.092   0.000   0.095
   66        0.002   0.083   0.000   0.086
   67        0.004   0.102   0.000   0.106
   68        0.003   0.090   0.000   0.093
   69        0.011   0.114   0.000   0.125
   70        0.003   0.002   0.000   0.005
--------------------------------------------------
tot         -0.663  -1.259 122.682 120.760
 

 total amount of memory used by VASP MPI-rank0   113882. kBytes
=======================================================================

   base      :      30000. kBytes
   nonlr-proj:      14141. kBytes
   fftplans  :       6403. kBytes
   grid      :      18928. kBytes
   one-center:         93. kBytes
   wavefun   :      44317. kBytes
 
  
  
 General timing and accounting informations for this job:
 ========================================================
  
                  Total CPU time used (sec):     3694.508
                            User time (sec):     3553.986
                          System time (sec):      140.522
                         Elapsed time (sec):     3719.938
  
                   Maximum memory used (kb):      351636.
                   Average memory used (kb):           0.
  
                          Minor page faults:     27966791
                          Major page faults:            0
                 Voluntary context switches:         4054
