SQS-NiFe                                
           1
    10.111630    0.000000    0.000000
    -5.055815    8.756928    0.000000
     0.000000    0.000000   21.266430
   Fe   Ni   O    H 
  48  16   5   1
Direct configuration=     1
   0.00194700  0.99920000  0.09682900
   0.00227311  0.99709538  0.38129213
   0.49880600  0.99647600  0.09614500
   0.50414384  0.99252514  0.37999284
   0.74316000  0.99645900  0.09443100
   0.75546763  0.99531605  0.38560086
   0.24913600  0.25322600  0.09681000
   0.25172966  0.24482287  0.38232330
   0.08873200  0.16149400  0.19059200
   0.32962600  0.16609800  0.19506300
   0.16494569  0.07928406  0.28886139
   0.58333000  0.16550300  0.19443700
   0.41524402  0.08247018  0.29206495
   0.82651500  0.16651000  0.19326300
   0.66854974  0.08161618  0.28989356
   0.00320800  0.51090900  0.09451300
   0.00526121  0.50060649  0.37693601
   0.25586900  0.50577700  0.09734600
   0.25004627  0.48928626  0.38521464
   0.49960200  0.50304900  0.09754100
   0.50404966  0.49640753  0.37564292
   0.33859900  0.41583700  0.18939300
   0.75679100  0.50804300  0.09630900
   0.75270969  0.49452075  0.39407015
   0.58633600  0.42229400  0.19423600
   0.41641691  0.33470881  0.28473685
   0.82677100  0.41676200  0.19199500
   0.66974777  0.33402817  0.29394281
   0.99180600  0.74702800  0.09571300
   0.00907436  0.75357921  0.38834875
   0.25104600  0.74563900  0.09703600
   0.25333341  0.74878535  0.38877208
   0.08604600  0.67086900  0.19220200
   0.50153700  0.74905700  0.09752900
   0.50572640  0.74653429  0.38539426
   0.33005900  0.66135600  0.19018600
   0.17013553  0.57840680  0.28583921
   0.74777500  0.74863100  0.09404500
   0.75185997  0.75185566  0.38757152
   0.58008200  0.66096300  0.19152700
   0.83213700  0.66199500  0.19303500
   0.67278393  0.58437456  0.28817303
   0.91808025  0.58263621  0.28919436
   0.08603600  0.91635500  0.19371200
   0.32743000  0.91932200  0.19293700
   0.16695874  0.82880804  0.29196157
   0.66511458  0.83049938  0.28822758
   0.91828912  0.83367450  0.28637317
   0.24916500  0.99813100  0.09559800
   0.25383848  0.99426383  0.38870195
   0.00129700  0.24974200  0.09658600
   0.01065810  0.25144763  0.38144743
   0.49933100  0.25162700  0.09537300
   0.49944235  0.24509332  0.38962431
   0.74944200  0.25071300  0.09573100
   0.75656462  0.24471426  0.38895112
   0.92055302  0.08420234  0.28609870
   0.08260800  0.41708000  0.19225300
   0.16972148  0.33230827  0.28626092
   0.91487309  0.32938513  0.28670541
   0.41593079  0.58075099  0.28610767
   0.58190700  0.91526900  0.19241300
   0.41575633  0.82756952  0.28636420
   0.83399900  0.91457100  0.19240400
   0.84189458  0.67748195  0.44141132
   0.31575010  0.16332005  0.44123389
   0.33683168  0.65792983  0.43913055
   0.85074243  0.15322532  0.43919838
   0.67176808  0.32691398  0.45466939
   0.67510861  0.32650383  0.50037725
Direct configuration=     2
   0.00194700  0.99920000  0.09682900
   0.00231988  0.99722571  0.38122416
   0.49880600  0.99647600  0.09614500
   0.50411523  0.99254831  0.37996642
   0.74316000  0.99645900  0.09443100
   0.75550741  0.99529066  0.38552609
   0.24913600  0.25322600  0.09681000
   0.25174135  0.24493501  0.38225076
   0.08873200  0.16149400  0.19059200
   0.32962600  0.16609800  0.19506300
   0.16490199  0.07910678  0.28889728
   0.58333000  0.16550300  0.19443700
   0.41511809  0.08255459  0.29203354
   0.82651500  0.16651000  0.19326300
   0.66851834  0.08160635  0.28981562
   0.00320800  0.51090900  0.09451300
   0.00519516  0.50056182  0.37687076
   0.25586900  0.50577700  0.09734600
   0.24999029  0.48914801  0.38523882
   0.49960200  0.50304900  0.09754100
   0.50402601  0.49632682  0.37562985
   0.33859900  0.41583700  0.18939300
   0.75679100  0.50804300  0.09630900
   0.75258826  0.49451462  0.39410224
   0.58633600  0.42229400  0.19423600
   0.41660064  0.33477498  0.28471104
   0.82677100  0.41676200  0.19199500
   0.66985100  0.33405165  0.29393016
   0.99180600  0.74702800  0.09571300
   0.00947253  0.75386069  0.38828202
   0.25104600  0.74563900  0.09703600
   0.25334026  0.74888870  0.38877585
   0.08604600  0.67086900  0.19220200
   0.50153700  0.74905700  0.09752900
   0.50574185  0.74647559  0.38540990
   0.33005900  0.66135600  0.19018600
   0.17004916  0.57838968  0.28579666
   0.74777500  0.74863100  0.09404500
   0.75156588  0.75175106  0.38756193
   0.58008200  0.66096300  0.19152700
   0.83213700  0.66199500  0.19303500
   0.67278472  0.58432247  0.28807776
   0.91783810  0.58256353  0.28917466
   0.08603600  0.91635500  0.19371200
   0.32743000  0.91932200  0.19293700
   0.16695335  0.82886727  0.29196333
   0.66514235  0.83049934  0.28815695
   0.91838405  0.83379838  0.28636363
   0.24916500  0.99813100  0.09559800
   0.25380146  0.99407494  0.38864634
   0.00129700  0.24974200  0.09658600
   0.01063844  0.25128283  0.38146582
   0.49933100  0.25162700  0.09537300
   0.49948127  0.24516511  0.38968151
   0.74944200  0.25071300  0.09573100
   0.75646644  0.24451460  0.38897369
   0.92042968  0.08414307  0.28610349
   0.08260800  0.41708000  0.19225300
   0.16966416  0.33213163  0.28620151
   0.91483661  0.32935931  0.28665852
   0.41601914  0.58081060  0.28605704
   0.58190700  0.91526900  0.19241300
   0.41576219  0.82759353  0.28634146
   0.83399900  0.91457100  0.19240400
   0.84176110  0.67745460  0.44153543
   0.31583478  0.16335719  0.44134093
   0.33679487  0.65782727  0.43917085
   0.85086931  0.15344016  0.43929553
   0.67161575  0.32669956  0.45462391
   0.67504061  0.32637260  0.50043760
Direct configuration=     3
   0.00194700  0.99920000  0.09682900
   0.00232845  0.99724958  0.38121171
   0.49880600  0.99647600  0.09614500
   0.50410999  0.99255255  0.37996158
   0.74316000  0.99645900  0.09443100
   0.75551469  0.99528601  0.38551240
   0.24913600  0.25322600  0.09681000
   0.25174349  0.24495555  0.38223747
   0.08873200  0.16149400  0.19059200
   0.32962600  0.16609800  0.19506300
   0.16489398  0.07907431  0.28890385
   0.58333000  0.16550300  0.19443700
   0.41509503  0.08257005  0.29202778
   0.82651500  0.16651000  0.19326300
   0.66851259  0.08160455  0.28980135
   0.00320800  0.51090900  0.09451300
   0.00518306  0.50055363  0.37685881
   0.25586900  0.50577700  0.09734600
   0.24998004  0.48912269  0.38524325
   0.49960200  0.50304900  0.09754100
   0.50402168  0.49631204  0.37562745
   0.33859900  0.41583700  0.18939300
   0.75679100  0.50804300  0.09630900
   0.75256603  0.49451349  0.39410812
   0.58633600  0.42229400  0.19423600
   0.41663429  0.33478710  0.28470631
   0.82677100  0.41676200  0.19199500
   0.66986990  0.33405594  0.29392784
   0.99180600  0.74702800  0.09571300
   0.00954545  0.75391224  0.38826980
   0.25104600  0.74563900  0.09703600
   0.25334152  0.74890763  0.38877654
   0.08604600  0.67086900  0.19220200
   0.50153700  0.74905700  0.09752900
   0.50574468  0.74646483  0.38541276
   0.33005900  0.66135600  0.19018600
   0.17003334  0.57838655  0.28578887
   0.74777500  0.74863100  0.09404500
   0.75151203  0.75173190  0.38756017
   0.58008200  0.66096300  0.19152700
   0.83213700  0.66199500  0.19303500
   0.67278486  0.58431293  0.28806031
   0.91779375  0.58255022  0.28917105
   0.08603600  0.91635500  0.19371200
   0.32743000  0.91932200  0.19293700
   0.16695236  0.82887811  0.29196365
   0.66514744  0.83049933  0.28814401
   0.91840144  0.83382107  0.28636188
   0.24916500  0.99813100  0.09559800
   0.25379468  0.99404034  0.38863616
   0.00129700  0.24974200  0.09658600
   0.01063483  0.25125265  0.38146919
   0.49933100  0.25162700  0.09537300
   0.49948839  0.24517825  0.38969198
   0.74944200  0.25071300  0.09573100
   0.75644846  0.24447803  0.38897782
   0.92040710  0.08413221  0.28610437
   0.08260800  0.41708000  0.19225300
   0.16965367  0.33209928  0.28619063
   0.91482993  0.32935458  0.28664993
   0.41603532  0.58082151  0.28604777
   0.58190700  0.91526900  0.19241300
   0.41576326  0.82759793  0.28633730
   0.83399900  0.91457100  0.19240400
   0.84173665  0.67744959  0.44155815
   0.31585029  0.16336399  0.44136053
   0.33678813  0.65780849  0.43917823
   0.85089254  0.15347950  0.43931332
   0.67158785  0.32666029  0.45461558
   0.67502815  0.32634857  0.50044865
Direct configuration=     4
   0.00194700  0.99920000  0.09682900
   0.00236660  0.99735512  0.38115418
   0.49880600  0.99647600  0.09614500
   0.50409181  0.99257942  0.37992266
   0.74316000  0.99645900  0.09443100
   0.75561701  0.99539483  0.38548497
   0.24913600  0.25322600  0.09681000
   0.25184297  0.24495556  0.38222723
   0.08873200  0.16149400  0.19059200
   0.32962600  0.16609800  0.19506300
   0.16486284  0.07893903  0.28892125
   0.58333000  0.16550300  0.19443700
   0.41500668  0.08266480  0.29200498
   0.82651500  0.16651000  0.19326300
   0.66845339  0.08158986  0.28973228
   0.00320800  0.51090900  0.09451300
   0.00510415  0.50050204  0.37678639
   0.25586900  0.50577700  0.09734600
   0.24993223  0.48902590  0.38526625
   0.49960200  0.50304900  0.09754100
   0.50399660  0.49623840  0.37560542
   0.33859900  0.41583700  0.18939300
   0.75679100  0.50804300  0.09630900
   0.75250258  0.49458335  0.39415445
   0.58633600  0.42229400  0.19423600
   0.41679170  0.33484000  0.28467750
   0.82677100  0.41676200  0.19199500
   0.66995065  0.33405176  0.29392402
   0.99180600  0.74702800  0.09571300
   0.00965155  0.75404446  0.38826926
   0.25104600  0.74563900  0.09703600
   0.25340658  0.74894357  0.38879120
   0.08604600  0.67086900  0.19220200
   0.50153700  0.74905700  0.09752900
   0.50569676  0.74639165  0.38542892
   0.33005900  0.66135600  0.19018600
   0.16995123  0.57836688  0.28575367
   0.74777500  0.74863100  0.09404500
   0.75133108  0.75159670  0.38757757
   0.58008200  0.66096300  0.19152700
   0.83213700  0.66199500  0.19303500
   0.67278427  0.58427898  0.28797725
   0.91758116  0.58249699  0.28915644
   0.08603600  0.91635500  0.19371200
   0.32743000  0.91932200  0.19293700
   0.16694521  0.82890144  0.29194168
   0.66516411  0.83048897  0.28807787
   0.91845250  0.83390595  0.28635411
   0.24916500  0.99813100  0.09559800
   0.25384844  0.99404253  0.38861910
   0.00129700  0.24974200  0.09658600
   0.01059077  0.25109532  0.38148537
   0.49933100  0.25162700  0.09537300
   0.49946402  0.24521151  0.38974972
   0.74944200  0.25071300  0.09573100
   0.75635561  0.24426575  0.38899801
   0.92029790  0.08408677  0.28610171
   0.08260800  0.41708000  0.19225300
   0.16961088  0.33193946  0.28613703
   0.91479878  0.32932014  0.28661251
   0.41609377  0.58086281  0.28600853
   0.58190700  0.91526900  0.19241300
   0.41576096  0.82762010  0.28631924
   0.83399900  0.91457100  0.19240400
   0.84170260  0.67750540  0.44158329
   0.31586098  0.16339413  0.44137376
   0.33673366  0.65770816  0.43919055
   0.85095288  0.15359049  0.43935913
   0.67145527  0.32643558  0.45474856
   0.67492984  0.32619250  0.50034727
Direct configuration=     5
   0.00194700  0.99920000  0.09682900
   0.00235989  0.99733656  0.38116430
   0.49880600  0.99647600  0.09614500
   0.50409500  0.99257469  0.37992950
   0.74316000  0.99645900  0.09443100
   0.75559902  0.99537570  0.38548979
   0.24913600  0.25322600  0.09681000
   0.25182547  0.24495556  0.38222903
   0.08873200  0.16149400  0.19059200
   0.32962600  0.16609800  0.19506300
   0.16486832  0.07896282  0.28891819
   0.58333000  0.16550300  0.19443700
   0.41502221  0.08264814  0.29200899
   0.82651500  0.16651000  0.19326300
   0.66846380  0.08159244  0.28974442
   0.00320800  0.51090900  0.09451300
   0.00511802  0.50051111  0.37679912
   0.25586900  0.50577700  0.09734600
   0.24994064  0.48904292  0.38526221
   0.49960200  0.50304900  0.09754100
   0.50400101  0.49625135  0.37560930
   0.33859900  0.41583700  0.18939300
   0.75679100  0.50804300  0.09630900
   0.75251374  0.49457106  0.39414631
   0.58633600  0.42229400  0.19423600
   0.41676402  0.33483070  0.28468257
   0.82677100  0.41676200  0.19199500
   0.66993646  0.33405250  0.29392469
   0.99180600  0.74702800  0.09571300
   0.00963290  0.75402121  0.38826935
   0.25104600  0.74563900  0.09703600
   0.25339514  0.74893725  0.38878862
   0.08604600  0.67086900  0.19220200
   0.50153700  0.74905700  0.09752900
   0.50570519  0.74640451  0.38542608
   0.33005900  0.66135600  0.19018600
   0.16996567  0.57837034  0.28575986
   0.74777500  0.74863100  0.09404500
   0.75136290  0.75162048  0.38757451
   0.58008200  0.66096300  0.19152700
   0.83213700  0.66199500  0.19303500
   0.67278437  0.58428495  0.28799186
   0.91761854  0.58250635  0.28915901
   0.08603600  0.91635500  0.19371200
   0.32743000  0.91932200  0.19293700
   0.16694646  0.82889734  0.29194554
   0.66516118  0.83049079  0.28808950
   0.91844352  0.83389102  0.28635548
   0.24916500  0.99813100  0.09559800
   0.25383899  0.99404215  0.38862210
   0.00129700  0.24974200  0.09658600
   0.01059852  0.25112299  0.38148252
   0.49933100  0.25162700  0.09537300
   0.49946831  0.24520566  0.38973957
   0.74944200  0.25071300  0.09573100
   0.75637194  0.24430308  0.38899446
   0.92031710  0.08409476  0.28610218
   0.08260800  0.41708000  0.19225300
   0.16961841  0.33196756  0.28614646
   0.91480426  0.32932620  0.28661909
   0.41608349  0.58085555  0.28601543
   0.58190700  0.91526900  0.19241300
   0.41576137  0.82761620  0.28632242
   0.83399900  0.91457100  0.19240400
   0.84170859  0.67749559  0.44157887
   0.31585910  0.16338883  0.44137144
   0.33674324  0.65772580  0.43918839
   0.85094227  0.15357098  0.43935108
   0.67147858  0.32647510  0.45472518
   0.67494713  0.32621994  0.50036510
Direct configuration=     6
   0.00194700  0.99920000  0.09682900
   0.00239023  0.99741996  0.38111308
   0.49880600  0.99647600  0.09614500
   0.50408570  0.99260303  0.37988008
   0.74316000  0.99645900  0.09443100
   0.75571920  0.99553315  0.38548563
   0.24913600  0.25322600  0.09681000
   0.25195800  0.24490684  0.38224009
   0.08873200  0.16149400  0.19059200
   0.32962600  0.16609800  0.19506300
   0.16484834  0.07886492  0.28892256
   0.58333000  0.16550300  0.19443700
   0.41496268  0.08274880  0.29199311
   0.82651500  0.16651000  0.19326300
   0.66838246  0.08157186  0.28968340
   0.00320800  0.51090900  0.09451300
   0.00502676  0.50045761  0.37672045
   0.25586900  0.50577700  0.09734600
   0.24988709  0.48895272  0.38527880
   0.49960200  0.50304900  0.09754100
   0.50397483  0.49618301  0.37557968
   0.33859900  0.41583700  0.18939300
   0.75679100  0.50804300  0.09630900
   0.75245657  0.49461847  0.39421234
   0.58633600  0.42229400  0.19423600
   0.41689788  0.33487091  0.28465277
   0.82677100  0.41676200  0.19199500
   0.66999980  0.33402766  0.29393215
   0.99180600  0.74702800  0.09571300
   0.00958273  0.75407069  0.38830201
   0.25104600  0.74563900  0.09703600
   0.25348087  0.74893211  0.38880536
   0.08604600  0.67086900  0.19220200
   0.50153700  0.74905700  0.09752900
   0.50563508  0.74633330  0.38543827
   0.33005900  0.66135600  0.19018600
   0.16988646  0.57834747  0.28573124
   0.74777500  0.74863100  0.09404500
   0.75124145  0.75149177  0.38759838
   0.58008200  0.66096300  0.19152700
   0.83213700  0.66199500  0.19303500
   0.67278166  0.58426489  0.28791972
   0.91743084  0.58246924  0.28915002
   0.08603600  0.91635500  0.19371200
   0.32743000  0.91932200  0.19293700
   0.16693673  0.82889224  0.29191407
   0.66516845  0.83047294  0.28803280
   0.91845942  0.83394385  0.28634979
   0.24916500  0.99813100  0.09559800
   0.25393779  0.99413952  0.38862460
   0.00129700  0.24974200  0.09658600
   0.01055612  0.25098272  0.38149303
   0.49933100  0.25162700  0.09537300
   0.49943816  0.24522915  0.38980149
   0.74944200  0.25071300  0.09573100
   0.75626732  0.24410081  0.38901880
   0.92021745  0.08405859  0.28609369
   0.08260800  0.41708000  0.19225300
   0.16959008  0.33182126  0.28610089
   0.91477707  0.32928387  0.28658956
   0.41611461  0.58088125  0.28598576
   0.58190700  0.91526900  0.19241300
   0.41575164  0.82763633  0.28630798
   0.83399900  0.91457100  0.19240400
   0.84173847  0.67760587  0.44155718
   0.31583275  0.16340562  0.44134623
   0.33667737  0.65762239  0.43918948
   0.85096577  0.15362286  0.43937245
   0.67135347  0.32626909  0.45470373
   0.67483789  0.32602987  0.50039776
Direct configuration=     7
   0.00194700  0.99920000  0.09682900
   0.00239520  0.99743360  0.38110470
   0.49880600  0.99647600  0.09614500
   0.50408417  0.99260766  0.37987200
   0.74316000  0.99645900  0.09443100
   0.75573886  0.99555891  0.38548495
   0.24913600  0.25322600  0.09681000
   0.25197968  0.24489887  0.38224190
   0.08873200  0.16149400  0.19059200
   0.32962600  0.16609800  0.19506300
   0.16484507  0.07884891  0.28892327
   0.58333000  0.16550300  0.19443700
   0.41495294  0.08276527  0.29199051
   0.82651500  0.16651000  0.19326300
   0.66836916  0.08156849  0.28967341
   0.00320800  0.51090900  0.09451300
   0.00501183  0.50044886  0.37670758
   0.25586900  0.50577700  0.09734600
   0.24987833  0.48893796  0.38528151
   0.49960200  0.50304900  0.09754100
   0.50397055  0.49617182  0.37557483
   0.33859900  0.41583700  0.18939300
   0.75679100  0.50804300  0.09630900
   0.75244721  0.49462623  0.39422314
   0.58633600  0.42229400  0.19423600
   0.41691978  0.33487749  0.28464790
   0.82677100  0.41676200  0.19199500
   0.67001017  0.33402359  0.29393337
   0.99180600  0.74702800  0.09571300
   0.00957453  0.75407878  0.38830735
   0.25104600  0.74563900  0.09703600
   0.25349490  0.74893127  0.38880810
   0.08604600  0.67086900  0.19220200
   0.50153700  0.74905700  0.09752900
   0.50562361  0.74632165  0.38544027
   0.33005900  0.66135600  0.19018600
   0.16987350  0.57834373  0.28572656
   0.74777500  0.74863100  0.09404500
   0.75122158  0.75147071  0.38760229
   0.58008200  0.66096300  0.19152700
   0.83213700  0.66199500  0.19303500
   0.67278122  0.58426161  0.28790791
   0.91740013  0.58246317  0.28914855
   0.08603600  0.91635500  0.19371200
   0.32743000  0.91932200  0.19293700
   0.16693514  0.82889141  0.29190892
   0.66516964  0.83047002  0.28802353
   0.91846202  0.83395249  0.28634886
   0.24916500  0.99813100  0.09559800
   0.25395395  0.99415545  0.38862501
   0.00129700  0.24974200  0.09658600
   0.01054918  0.25095977  0.38149475
   0.49933100  0.25162700  0.09537300
   0.49943323  0.24523300  0.38981162
   0.74944200  0.25071300  0.09573100
   0.75625020  0.24406771  0.38902278
   0.92020115  0.08405267  0.28609230
   0.08260800  0.41708000  0.19225300
   0.16958545  0.33179732  0.28609344
   0.91477262  0.32927695  0.28658473
   0.41611970  0.58088545  0.28598090
   0.58190700  0.91526900  0.19241300
   0.41575005  0.82763962  0.28630562
   0.83399900  0.91457100  0.19240400
   0.84174336  0.67762392  0.44155364
   0.31582843  0.16340837  0.44134211
   0.33666659  0.65760548  0.43918966
   0.85096961  0.15363135  0.43937594
   0.67133300  0.32623539  0.45470022
   0.67482002  0.32599878  0.50040310
