   1   1   1   0
  0.1157646E+02  0.2539200E-09  0.2539200E-09  0.2539200E-09  0.5000000E-15
  1.000000000000000E-004
  CAR 
 SQS-NiFe                                
     37.24491520     -4.71860465  301      5.80267995      1.00000000
     -4.719  0.0000E+00  0.0000E+00  0.0000E+00  0.0000E+00
     -4.579  0.0000E+00  0.0000E+00  0.0000E+00  0.0000E+00
     -4.439  0.0000E+00  0.0000E+00  0.0000E+00  0.0000E+00
     -4.299  0.0000E+00  0.0000E+00  0.0000E+00  0.0000E+00
     -4.159  0.0000E+00  0.0000E+00  0.0000E+00  0.0000E+00
     -4.019  0.0000E+00  0.0000E+00  0.0000E+00  0.0000E+00
     -3.879  0.0000E+00  0.0000E+00  0.0000E+00  0.0000E+00
     -3.739  0.0000E+00  0.0000E+00  0.0000E+00  0.0000E+00
     -3.600  0.0000E+00  0.0000E+00  0.0000E+00  0.0000E+00
     -3.460  0.0000E+00  0.0000E+00  0.0000E+00  0.0000E+00
     -3.320  0.0000E+00  0.0000E+00  0.0000E+00  0.0000E+00
     -3.180  0.0000E+00  0.0000E+00  0.0000E+00  0.0000E+00
     -3.040  0.0000E+00  0.0000E+00  0.0000E+00  0.0000E+00
     -2.900  0.0000E+00  0.0000E+00  0.0000E+00  0.0000E+00
     -2.760  0.0000E+00  0.0000E+00  0.0000E+00  0.0000E+00
     -2.620  0.6170E-02  0.0000E+00  0.2019E-03  0.0000E+00
     -2.481  0.1423E-01  0.3532E-04  0.1888E-02  0.8811E-07
     -2.341  0.2025E-01  0.1369E-01  0.4289E-02  0.6727E-03
     -2.201  0.2477E-01  0.1603E-01  0.7500E-02  0.2607E-02
     -2.061  0.2781E-01  0.2211E-01  0.1114E-01  0.5271E-02
     -1.921  0.3187E-01  0.2492E-01  0.1531E-01  0.8611E-02
     -1.781  0.3588E-01  0.2851E-01  0.2006E-01  0.1234E-01
     -1.641  0.3883E-01  0.3243E-01  0.2528E-01  0.1660E-01
     -1.501  0.4202E-01  0.3564E-01  0.3093E-01  0.2139E-01
     -1.362  0.4567E-01  0.3842E-01  0.3706E-01  0.2657E-01
     -1.222  0.4957E-01  0.4124E-01  0.4372E-01  0.3214E-01
     -1.082  0.5319E-01  0.4449E-01  0.5091E-01  0.3813E-01
     -0.942  0.5703E-01  0.4788E-01  0.5861E-01  0.4459E-01
     -0.802  0.6125E-01  0.5064E-01  0.6688E-01  0.5150E-01
     -0.662  0.6583E-01  0.5356E-01  0.7577E-01  0.5878E-01
     -0.522  0.7087E-01  0.5664E-01  0.8532E-01  0.6649E-01
     -0.382  0.7639E-01  0.5988E-01  0.9561E-01  0.7463E-01
     -0.242  0.8292E-01  0.6333E-01  0.1067E+00  0.8325E-01
     -0.103  0.9079E-01  0.6688E-01  0.1189E+00  0.9236E-01
      0.037  0.9995E-01  0.7043E-01  0.1322E+00  0.1020E+00
      0.177  0.1108E+00  0.7421E-01  0.1469E+00  0.1121E+00
      0.317  0.1239E+00  0.7834E-01  0.1633E+00  0.1227E+00
      0.457  0.1431E+00  0.8270E-01  0.1818E+00  0.1340E+00
      0.597  0.1772E+00  0.8735E-01  0.2040E+00  0.1459E+00
      0.737  0.2315E+00  0.9233E-01  0.2323E+00  0.1584E+00
      0.877  0.5927E+00  0.9818E-01  0.2870E+00  0.1718E+00
      1.016  0.5880E+00  0.1047E+00  0.3677E+00  0.1859E+00
      1.156  0.5973E+00  0.1121E+00  0.4508E+00  0.2011E+00
      1.296  0.6507E+00  0.1205E+00  0.5389E+00  0.2173E+00
      1.436  0.7778E+00  0.1298E+00  0.6369E+00  0.2348E+00
      1.576  0.9023E+00  0.1405E+00  0.7551E+00  0.2537E+00
      1.716  0.1021E+01  0.1542E+00  0.8890E+00  0.2743E+00
      1.856  0.9683E+00  0.1736E+00  0.1026E+01  0.2971E+00
      1.996  0.8185E+00  0.2003E+00  0.1151E+01  0.3232E+00
      2.135  0.6496E+00  0.2410E+00  0.1251E+01  0.3538E+00
      2.275  0.9454E+00  0.3132E+00  0.1374E+01  0.3921E+00
      2.415  0.7882E+00  0.3624E+00  0.1498E+01  0.4367E+00
      2.555  0.6766E+00  0.4082E+00  0.1597E+01  0.4944E+00
      2.695  0.7272E+00  0.4242E+00  0.1697E+01  0.5532E+00
      2.835  0.1044E+01  0.4313E+00  0.1826E+01  0.6128E+00
      2.975  0.1148E+01  0.4235E+00  0.1980E+01  0.6726E+00
      3.115  0.1136E+01  0.4167E+00  0.2135E+01  0.7310E+00
      3.254  0.1323E+01  0.5049E+00  0.2304E+01  0.7917E+00
      3.394  0.1726E+01  0.6253E+00  0.2512E+01  0.8720E+00
      3.534  0.1541E+01  0.7990E+00  0.2734E+01  0.9683E+00
      3.674  0.1022E+01  0.8613E+00  0.2928E+01  0.1090E+01
      3.814  0.1175E+01  0.5370E+00  0.3093E+01  0.1170E+01
      3.954  0.1059E+01  0.6333E+00  0.3241E+01  0.1251E+01
      4.094  0.8785E+00  0.7594E+00  0.3374E+01  0.1350E+01
      4.234  0.1212E+01  0.7307E+00  0.3521E+01  0.1456E+01
      4.373  0.1294E+01  0.6122E+00  0.3703E+01  0.1546E+01
      4.513  0.1163E+01  0.7110E+00  0.3881E+01  0.1633E+01
      4.653  0.1032E+01  0.7638E+00  0.4033E+01  0.1743E+01
      4.793  0.1037E+01  0.9171E+00  0.4180E+01  0.1862E+01
      4.933  0.1016E+01  0.8597E+00  0.4321E+01  0.1990E+01
      5.073  0.1051E+01  0.8279E+00  0.4468E+01  0.2106E+01
      5.213  0.1293E+01  0.8628E+00  0.4633E+01  0.2226E+01
      5.353  0.2288E+01  0.9440E+00  0.4875E+01  0.2354E+01
      5.493  0.1071E+01  0.8529E+00  0.5106E+01  0.2481E+01
      5.632  0.4476E+00  0.7926E+00  0.5229E+01  0.2595E+01
      5.772  0.1566E+00  0.8485E+00  0.5254E+01  0.2712E+01
      5.912  0.1592E+00  0.1196E+01  0.5276E+01  0.2847E+01
      6.052  0.1609E+00  0.9649E+00  0.5299E+01  0.3028E+01
      6.192  0.1591E+00  0.7659E+00  0.5321E+01  0.3148E+01
      6.332  0.1480E+00  0.6490E+00  0.5342E+01  0.3244E+01
      6.472  0.1454E+00  0.6338E+00  0.5363E+01  0.3334E+01
      6.612  0.1457E+00  0.6220E+00  0.5383E+01  0.3421E+01
      6.751  0.1466E+00  0.6829E+00  0.5404E+01  0.3513E+01
      6.891  0.1470E+00  0.1022E+01  0.5424E+01  0.3629E+01
      7.031  0.1463E+00  0.9822E+00  0.5445E+01  0.3773E+01
      7.171  0.1430E+00  0.9771E+00  0.5465E+01  0.3925E+01
      7.311  0.1381E+00  0.9803E+00  0.5485E+01  0.4049E+01
      7.451  0.1363E+00  0.8701E+00  0.5504E+01  0.4178E+01
      7.591  0.1353E+00  0.8691E+00  0.5523E+01  0.4301E+01
      7.731  0.1351E+00  0.9985E+00  0.5542E+01  0.4428E+01
      7.870  0.1349E+00  0.1155E+01  0.5561E+01  0.4579E+01
      8.010  0.1349E+00  0.1606E+01  0.5580E+01  0.4759E+01
      8.150  0.1350E+00  0.1938E+01  0.5598E+01  0.5025E+01
      8.290  0.1338E+00  0.9795E+00  0.5617E+01  0.5227E+01
      8.430  0.1324E+00  0.2751E+00  0.5636E+01  0.5294E+01
      8.570  0.1348E+00  0.2623E+00  0.5655E+01  0.5331E+01
      8.710  0.1303E+00  0.2356E+00  0.5673E+01  0.5367E+01
      8.850  0.1269E+00  0.2172E+00  0.5691E+01  0.5398E+01
      8.989  0.1243E+00  0.2161E+00  0.5709E+01  0.5428E+01
      9.129  0.1222E+00  0.2126E+00  0.5726E+01  0.5458E+01
      9.269  0.1204E+00  0.2083E+00  0.5743E+01  0.5487E+01
      9.409  0.1190E+00  0.2018E+00  0.5760E+01  0.5516E+01
      9.549  0.1155E+00  0.1867E+00  0.5776E+01  0.5543E+01
      9.689  0.1125E+00  0.1814E+00  0.5792E+01  0.5569E+01
      9.829  0.1093E+00  0.1788E+00  0.5808E+01  0.5594E+01
      9.969  0.1059E+00  0.1741E+00  0.5823E+01  0.5619E+01
     10.109  0.1024E+00  0.1699E+00  0.5837E+01  0.5643E+01
     10.248  0.9838E-01  0.1645E+00  0.5851E+01  0.5666E+01
     10.388  0.9321E-01  0.1561E+00  0.5865E+01  0.5688E+01
     10.528  0.8877E-01  0.1510E+00  0.5878E+01  0.5710E+01
     10.668  0.8596E-01  0.1452E+00  0.5890E+01  0.5731E+01
     10.808  0.8436E-01  0.1405E+00  0.5902E+01  0.5751E+01
     10.948  0.7997E-01  0.1361E+00  0.5913E+01  0.5770E+01
     11.088  0.7781E-01  0.1326E+00  0.5924E+01  0.5789E+01
     11.228  0.7597E-01  0.1281E+00  0.5935E+01  0.5807E+01
     11.367  0.7492E-01  0.1228E+00  0.5946E+01  0.5824E+01
     11.507  0.7867E-01  0.1163E+00  0.5956E+01  0.5841E+01
     11.647  0.6037E-01  0.1100E+00  0.5966E+01  0.5857E+01
     11.787  0.4305E-01  0.1038E+00  0.5973E+01  0.5872E+01
     11.927  0.3820E-01  0.9910E-01  0.5979E+01  0.5886E+01
     12.067  0.3429E-01  0.9429E-01  0.5984E+01  0.5900E+01
     12.207  0.3332E-01  0.9057E-01  0.5989E+01  0.5913E+01
     12.347  0.1010E+00  0.8741E-01  0.5998E+01  0.5925E+01
     12.486  0.1312E+00  0.8451E-01  0.6015E+01  0.5937E+01
     12.626  0.1284E+00  0.8302E-01  0.6034E+01  0.5949E+01
     12.766  0.1556E+00  0.8572E-01  0.6053E+01  0.5961E+01
     12.906  0.1612E+00  0.5118E-01  0.6075E+01  0.5970E+01
     13.046  0.1665E+00  0.4450E-01  0.6098E+01  0.5977E+01
     13.186  0.1728E+00  0.3978E-01  0.6122E+01  0.5983E+01
     13.326  0.1708E+00  0.3628E-01  0.6146E+01  0.5988E+01
     13.466  0.1650E+00  0.3199E-01  0.6170E+01  0.5993E+01
     13.605  0.1584E+00  0.1095E-01  0.6192E+01  0.5996E+01
     13.745  0.1502E+00  0.8446E-02  0.6214E+01  0.5997E+01
     13.885  0.1515E+00  0.4226E-01  0.6235E+01  0.5999E+01
     14.025  0.1645E+00  0.2112E+00  0.6257E+01  0.6021E+01
     14.165  0.1321E+00  0.2379E+00  0.6279E+01  0.6055E+01
     14.305  0.1276E+00  0.2386E+00  0.6297E+01  0.6088E+01
     14.445  0.1246E+00  0.2207E+00  0.6314E+01  0.6120E+01
     14.585  0.1225E+00  0.1998E+00  0.6332E+01  0.6150E+01
     14.724  0.1200E+00  0.1813E+00  0.6349E+01  0.6176E+01
     14.864  0.1160E+00  0.1774E+00  0.6365E+01  0.6201E+01
     15.004  0.1146E+00  0.1842E+00  0.6381E+01  0.6227E+01
     15.144  0.1132E+00  0.1663E+00  0.6397E+01  0.6252E+01
     15.284  0.1237E+00  0.1465E+00  0.6413E+01  0.6273E+01
     15.424  0.1265E+00  0.1406E+00  0.6431E+01  0.6293E+01
     15.564  0.1459E+00  0.1364E+00  0.6449E+01  0.6313E+01
     15.704  0.1713E+00  0.1334E+00  0.6474E+01  0.6332E+01
     15.844  0.1405E+00  0.1281E+00  0.6496E+01  0.6350E+01
     15.983  0.1297E+00  0.1255E+00  0.6515E+01  0.6368E+01
     16.123  0.1331E+00  0.1235E+00  0.6533E+01  0.6385E+01
     16.263  0.1713E+00  0.1255E+00  0.6554E+01  0.6402E+01
     16.403  0.1988E+00  0.1273E+00  0.6580E+01  0.6420E+01
     16.543  0.2048E+00  0.1301E+00  0.6608E+01  0.6438E+01
     16.683  0.1833E+00  0.1423E+00  0.6635E+01  0.6458E+01
     16.823  0.1851E+00  0.1263E+00  0.6661E+01  0.6477E+01
     16.963  0.1910E+00  0.1387E+00  0.6687E+01  0.6494E+01
     17.102  0.1900E+00  0.1685E+00  0.6714E+01  0.6517E+01
     17.242  0.1822E+00  0.1454E+00  0.6739E+01  0.6538E+01
     17.382  0.1828E+00  0.1725E+00  0.6765E+01  0.6559E+01
     17.522  0.1875E+00  0.2173E+00  0.6790E+01  0.6587E+01
     17.662  0.1979E+00  0.2363E+00  0.6817E+01  0.6619E+01
     17.802  0.1958E+00  0.2072E+00  0.6845E+01  0.6649E+01
     17.942  0.1973E+00  0.2124E+00  0.6873E+01  0.6678E+01
     18.082  0.1960E+00  0.2168E+00  0.6900E+01  0.6708E+01
     18.221  0.1980E+00  0.2063E+00  0.6928E+01  0.6737E+01
     18.361  0.2022E+00  0.2079E+00  0.6956E+01  0.6766E+01
     18.501  0.2079E+00  0.2188E+00  0.6985E+01  0.6796E+01
     18.641  0.2073E+00  0.2143E+00  0.7014E+01  0.6826E+01
     18.781  0.2069E+00  0.2169E+00  0.7042E+01  0.6856E+01
     18.921  0.2164E+00  0.2119E+00  0.7072E+01  0.6886E+01
     19.061  0.2041E+00  0.2131E+00  0.7100E+01  0.6916E+01
     19.201  0.2014E+00  0.2172E+00  0.7129E+01  0.6946E+01
     19.340  0.2025E+00  0.2248E+00  0.7157E+01  0.6977E+01
     19.480  0.2174E+00  0.2281E+00  0.7186E+01  0.7008E+01
     19.620  0.2135E+00  0.2299E+00  0.7216E+01  0.7040E+01
     19.760  0.2159E+00  0.2180E+00  0.7246E+01  0.7071E+01
     19.900  0.2249E+00  0.2187E+00  0.7277E+01  0.7102E+01
     20.040  0.2371E+00  0.2304E+00  0.7309E+01  0.7133E+01
     20.180  0.2289E+00  0.2238E+00  0.7341E+01  0.7165E+01
     20.320  0.2346E+00  0.2265E+00  0.7374E+01  0.7196E+01
     20.460  0.2433E+00  0.2359E+00  0.7407E+01  0.7228E+01
     20.599  0.2380E+00  0.2498E+00  0.7441E+01  0.7262E+01
     20.739  0.2366E+00  0.2458E+00  0.7474E+01  0.7297E+01
     20.879  0.2360E+00  0.2489E+00  0.7507E+01  0.7332E+01
     21.019  0.2360E+00  0.2543E+00  0.7540E+01  0.7367E+01
     21.159  0.2360E+00  0.2438E+00  0.7574E+01  0.7401E+01
     21.299  0.2299E+00  0.2477E+00  0.7606E+01  0.7436E+01
     21.439  0.2238E+00  0.2440E+00  0.7638E+01  0.7470E+01
     21.579  0.2213E+00  0.2429E+00  0.7669E+01  0.7504E+01
     21.718  0.2202E+00  0.2452E+00  0.7700E+01  0.7538E+01
     21.858  0.2186E+00  0.2399E+00  0.7730E+01  0.7572E+01
     21.998  0.2164E+00  0.2350E+00  0.7761E+01  0.7605E+01
     22.138  0.2147E+00  0.2306E+00  0.7791E+01  0.7638E+01
     22.278  0.2132E+00  0.2291E+00  0.7821E+01  0.7670E+01
     22.418  0.2105E+00  0.2285E+00  0.7851E+01  0.7702E+01
     22.558  0.2086E+00  0.2275E+00  0.7880E+01  0.7734E+01
     22.698  0.2062E+00  0.2252E+00  0.7909E+01  0.7766E+01
     22.837  0.2030E+00  0.2237E+00  0.7937E+01  0.7797E+01
     22.977  0.2003E+00  0.2207E+00  0.7966E+01  0.7828E+01
     23.117  0.1984E+00  0.2200E+00  0.7994E+01  0.7859E+01
     23.257  0.1970E+00  0.2177E+00  0.8021E+01  0.7890E+01
     23.397  0.1952E+00  0.2148E+00  0.8049E+01  0.7920E+01
     23.537  0.1935E+00  0.2118E+00  0.8076E+01  0.7950E+01
     23.677  0.1923E+00  0.2098E+00  0.8103E+01  0.7979E+01
     23.817  0.1918E+00  0.2085E+00  0.8130E+01  0.8008E+01
     23.956  0.1900E+00  0.2078E+00  0.8156E+01  0.8037E+01
     24.096  0.1872E+00  0.2063E+00  0.8183E+01  0.8066E+01
     24.236  0.1845E+00  0.2051E+00  0.8209E+01  0.8095E+01
     24.376  0.1811E+00  0.2047E+00  0.8234E+01  0.8124E+01
     24.516  0.1783E+00  0.2044E+00  0.8259E+01  0.8152E+01
     24.656  0.1758E+00  0.2020E+00  0.8284E+01  0.8181E+01
     24.796  0.1736E+00  0.1999E+00  0.8309E+01  0.8209E+01
     24.936  0.1721E+00  0.1974E+00  0.8333E+01  0.8237E+01
     25.075  0.1711E+00  0.1960E+00  0.8357E+01  0.8264E+01
     25.215  0.1696E+00  0.1947E+00  0.8381E+01  0.8292E+01
     25.355  0.1714E+00  0.1931E+00  0.8404E+01  0.8319E+01
     25.495  0.1755E+00  0.1913E+00  0.8429E+01  0.8346E+01
     25.635  0.1807E+00  0.1894E+00  0.8454E+01  0.8372E+01
     25.775  0.1866E+00  0.1880E+00  0.8479E+01  0.8399E+01
     25.915  0.1908E+00  0.1977E+00  0.8506E+01  0.8425E+01
     26.055  0.2020E+00  0.1944E+00  0.8533E+01  0.8453E+01
     26.195  0.2053E+00  0.1854E+00  0.8561E+01  0.8479E+01
     26.334  0.2033E+00  0.1840E+00  0.8590E+01  0.8505E+01
     26.474  0.2017E+00  0.1879E+00  0.8618E+01  0.8531E+01
     26.614  0.2018E+00  0.1882E+00  0.8647E+01  0.8557E+01
     26.754  0.2067E+00  0.1900E+00  0.8675E+01  0.8584E+01
     26.894  0.2146E+00  0.1924E+00  0.8705E+01  0.8611E+01
     27.034  0.2247E+00  0.1934E+00  0.8735E+01  0.8638E+01
     27.174  0.2340E+00  0.1958E+00  0.8767E+01  0.8665E+01
     27.314  0.2414E+00  0.2026E+00  0.8801E+01  0.8693E+01
     27.453  0.2499E+00  0.2207E+00  0.8835E+01  0.8722E+01
     27.593  0.2573E+00  0.2286E+00  0.8870E+01  0.8753E+01
     27.733  0.2642E+00  0.2436E+00  0.8907E+01  0.8786E+01
     27.873  0.2663E+00  0.2555E+00  0.8944E+01  0.8821E+01
     28.013  0.2684E+00  0.2631E+00  0.8982E+01  0.8858E+01
     28.153  0.2691E+00  0.2689E+00  0.9019E+01  0.8895E+01
     28.293  0.2701E+00  0.2719E+00  0.9057E+01  0.8933E+01
     28.433  0.2716E+00  0.2737E+00  0.9095E+01  0.8971E+01
     28.572  0.2687E+00  0.2733E+00  0.9133E+01  0.9009E+01
     28.712  0.2660E+00  0.2712E+00  0.9170E+01  0.9047E+01
     28.852  0.2671E+00  0.2690E+00  0.9207E+01  0.9085E+01
     28.992  0.2675E+00  0.2680E+00  0.9245E+01  0.9122E+01
     29.132  0.2778E+00  0.2662E+00  0.9283E+01  0.9160E+01
     29.272  0.3068E+00  0.2628E+00  0.9324E+01  0.9197E+01
     29.412  0.2969E+00  0.2633E+00  0.9366E+01  0.9234E+01
     29.552  0.2708E+00  0.2691E+00  0.9406E+01  0.9271E+01
     29.691  0.2640E+00  0.3033E+00  0.9443E+01  0.9311E+01
     29.831  0.2565E+00  0.2952E+00  0.9479E+01  0.9353E+01
     29.971  0.2483E+00  0.2776E+00  0.9515E+01  0.9393E+01
     30.111  0.2394E+00  0.2704E+00  0.9549E+01  0.9431E+01
     30.251  0.2314E+00  0.2647E+00  0.9582E+01  0.9469E+01
     30.391  0.2242E+00  0.2577E+00  0.9614E+01  0.9505E+01
     30.531  0.2162E+00  0.2490E+00  0.9644E+01  0.9541E+01
     30.671  0.2094E+00  0.2398E+00  0.9674E+01  0.9575E+01
     30.811  0.2129E+00  0.2343E+00  0.9704E+01  0.9608E+01
     30.950  0.2046E+00  0.2248E+00  0.9733E+01  0.9640E+01
     31.090  0.1871E+00  0.2207E+00  0.9761E+01  0.9671E+01
     31.230  0.1630E+00  0.2163E+00  0.9785E+01  0.9702E+01
     31.370  0.1535E+00  0.2003E+00  0.9807E+01  0.9731E+01
     31.510  0.1472E+00  0.1820E+00  0.9828E+01  0.9758E+01
     31.650  0.1482E+00  0.1608E+00  0.9849E+01  0.9782E+01
     31.790  0.1564E+00  0.1554E+00  0.9870E+01  0.9804E+01
     31.930  0.1562E+00  0.1546E+00  0.9892E+01  0.9826E+01
     32.069  0.1332E+00  0.1555E+00  0.9913E+01  0.9847E+01
     32.209  0.1158E+00  0.1617E+00  0.9930E+01  0.9869E+01
     32.349  0.1021E+00  0.1657E+00  0.9945E+01  0.9892E+01
     32.489  0.9047E-01  0.1412E+00  0.9959E+01  0.9914E+01
     32.629  0.7944E-01  0.1219E+00  0.9971E+01  0.9933E+01
     32.769  0.5841E-01  0.1045E+00  0.9981E+01  0.9949E+01
     32.909  0.4666E-01  0.8854E-01  0.9988E+01  0.9962E+01
     33.049  0.2473E-01  0.7362E-01  0.9993E+01  0.9973E+01
     33.188  0.1313E-01  0.5964E-01  0.9995E+01  0.9983E+01
     33.328  0.8059E-02  0.3643E-01  0.9997E+01  0.9990E+01
     33.468  0.5120E-02  0.1799E-01  0.9998E+01  0.9994E+01
     33.608  0.3988E-02  0.1170E-01  0.9998E+01  0.9996E+01
     33.748  0.3163E-02  0.7368E-02  0.9999E+01  0.9997E+01
     33.888  0.2433E-02  0.4961E-02  0.9999E+01  0.9998E+01
     34.028  0.1799E-02  0.3905E-02  0.9999E+01  0.9998E+01
     34.168  0.1260E-02  0.3053E-02  0.1000E+02  0.9999E+01
     34.307  0.8173E-03  0.2312E-02  0.1000E+02  0.9999E+01
     34.447  0.4698E-03  0.1673E-02  0.1000E+02  0.1000E+02
     34.587  0.2179E-03  0.1138E-02  0.1000E+02  0.1000E+02
     34.727  0.6162E-04  0.7050E-03  0.1000E+02  0.1000E+02
     34.867  0.8788E-06  0.3754E-03  0.1000E+02  0.1000E+02
     35.007  0.0000E+00  0.1488E-03  0.1000E+02  0.1000E+02
     35.147  0.0000E+00  0.2523E-04  0.1000E+02  0.1000E+02
     35.287  0.0000E+00  0.0000E+00  0.1000E+02  0.1000E+02
     35.426  0.0000E+00  0.0000E+00  0.1000E+02  0.1000E+02
     35.566  0.0000E+00  0.0000E+00  0.1000E+02  0.1000E+02
     35.706  0.0000E+00  0.0000E+00  0.1000E+02  0.1000E+02
     35.846  0.0000E+00  0.0000E+00  0.1000E+02  0.1000E+02
     35.986  0.0000E+00  0.0000E+00  0.1000E+02  0.1000E+02
     36.126  0.0000E+00  0.0000E+00  0.1000E+02  0.1000E+02
     36.266  0.0000E+00  0.0000E+00  0.1000E+02  0.1000E+02
     36.406  0.0000E+00  0.0000E+00  0.1000E+02  0.1000E+02
     36.546  0.0000E+00  0.0000E+00  0.1000E+02  0.1000E+02
     36.685  0.0000E+00  0.0000E+00  0.1000E+02  0.1000E+02
     36.825  0.0000E+00  0.0000E+00  0.1000E+02  0.1000E+02
     36.965  0.0000E+00  0.0000E+00  0.1000E+02  0.1000E+02
     37.105  0.0000E+00  0.0000E+00  0.1000E+02  0.1000E+02
     37.245  0.0000E+00  0.0000E+00  0.1000E+02  0.1000E+02
     37.24491520     -4.71860465  301      5.80267995      1.00000000
     -4.719  0.0000E+00  0.0000E+00  0.0000E+00  0.0000E+00  0.0000E+00  0.0000E+00  0.0000E+00  0.0000E+00  0.0000E+00  0.0000E+00  0.0000E+00  0.0000E+00  0.0000E+00  0.0000E+00  0.0000E+00  0.0000E+00  0.0000E+00  0.0000E+00
     -4.579  0.0000E+00  0.0000E+00  0.0000E+00  0.0000E+00  0.0000E+00  0.0000E+00  0.0000E+00  0.0000E+00  0.0000E+00  0.0000E+00  0.0000E+00  0.0000E+00  0.0000E+00  0.0000E+00  0.0000E+00  0.0000E+00  0.0000E+00  0.0000E+00
     -4.439  0.0000E+00  0.0000E+00  0.0000E+00  0.0000E+00  0.0000E+00  0.0000E+00  0.0000E+00  0.0000E+00  0.0000E+00  0.0000E+00  0.0000E+00  0.0000E+00  0.0000E+00  0.0000E+00  0.0000E+00  0.0000E+00  0.0000E+00  0.0000E+00
     -4.299  0.0000E+00  0.0000E+00  0.0000E+00  0.0000E+00  0.0000E+00  0.0000E+00  0.0000E+00  0.0000E+00  0.0000E+00  0.0000E+00  0.0000E+00  0.0000E+00  0.0000E+00  0.0000E+00  0.0000E+00  0.0000E+00  0.0000E+00  0.0000E+00
     -4.159  0.0000E+00  0.0000E+00  0.0000E+00  0.0000E+00  0.0000E+00  0.0000E+00  0.0000E+00  0.0000E+00  0.0000E+00  0.0000E+00  0.0000E+00  0.0000E+00  0.0000E+00  0.0000E+00  0.0000E+00  0.0000E+00  0.0000E+00  0.0000E+00
     -4.019  0.0000E+00  0.0000E+00  0.0000E+00  0.0000E+00  0.0000E+00  0.0000E+00  0.0000E+00  0.0000E+00  0.0000E+00  0.0000E+00  0.0000E+00  0.0000E+00  0.0000E+00  0.0000E+00  0.0000E+00  0.0000E+00  0.0000E+00  0.0000E+00
     -3.879  0.0000E+00  0.0000E+00  0.0000E+00  0.0000E+00  0.0000E+00  0.0000E+00  0.0000E+00  0.0000E+00  0.0000E+00  0.0000E+00  0.0000E+00  0.0000E+00  0.0000E+00  0.0000E+00  0.0000E+00  0.0000E+00  0.0000E+00  0.0000E+00
     -3.739  0.0000E+00  0.0000E+00  0.0000E+00  0.0000E+00  0.0000E+00  0.0000E+00  0.0000E+00  0.0000E+00  0.0000E+00  0.0000E+00  0.0000E+00  0.0000E+00  0.0000E+00  0.0000E+00  0.0000E+00  0.0000E+00  0.0000E+00  0.0000E+00
     -3.600  0.0000E+00  0.0000E+00  0.0000E+00  0.0000E+00  0.0000E+00  0.0000E+00  0.0000E+00  0.0000E+00  0.0000E+00  0.0000E+00  0.0000E+00  0.0000E+00  0.0000E+00  0.0000E+00  0.0000E+00  0.0000E+00  0.0000E+00  0.0000E+00
     -3.460  0.0000E+00  0.0000E+00  0.0000E+00  0.0000E+00  0.0000E+00  0.0000E+00  0.0000E+00  0.0000E+00  0.0000E+00  0.0000E+00  0.0000E+00  0.0000E+00  0.0000E+00  0.0000E+00  0.0000E+00  0.0000E+00  0.0000E+00  0.0000E+00
     -3.320  0.0000E+00  0.0000E+00  0.0000E+00  0.0000E+00  0.0000E+00  0.0000E+00  0.0000E+00  0.0000E+00  0.0000E+00  0.0000E+00  0.0000E+00  0.0000E+00  0.0000E+00  0.0000E+00  0.0000E+00  0.0000E+00  0.0000E+00  0.0000E+00
     -3.180  0.0000E+00  0.0000E+00  0.0000E+00  0.0000E+00  0.0000E+00  0.0000E+00  0.0000E+00  0.0000E+00  0.0000E+00  0.0000E+00  0.0000E+00  0.0000E+00  0.0000E+00  0.0000E+00  0.0000E+00  0.0000E+00  0.0000E+00  0.0000E+00
     -3.040  0.0000E+00  0.0000E+00  0.0000E+00  0.0000E+00  0.0000E+00  0.0000E+00  0.0000E+00  0.0000E+00  0.0000E+00  0.0000E+00  0.0000E+00  0.0000E+00  0.0000E+00  0.0000E+00  0.0000E+00  0.0000E+00  0.0000E+00  0.0000E+00
     -2.900  0.0000E+00  0.0000E+00  0.0000E+00  0.0000E+00  0.0000E+00  0.0000E+00  0.0000E+00  0.0000E+00  0.0000E+00  0.0000E+00  0.0000E+00  0.0000E+00  0.0000E+00  0.0000E+00  0.0000E+00  0.0000E+00  0.0000E+00  0.0000E+00
     -2.760  0.0000E+00  0.0000E+00  0.0000E+00  0.0000E+00  0.0000E+00  0.0000E+00  0.0000E+00  0.0000E+00  0.0000E+00  0.0000E+00  0.0000E+00  0.0000E+00  0.0000E+00  0.0000E+00  0.0000E+00  0.0000E+00  0.0000E+00  0.0000E+00
     -2.620  0.4375E-02  0.0000E+00  0.1798E-04  0.0000E+00  0.1798E-04  0.0000E+00  0.1798E-04  0.0000E+00  0.1831E-06  0.0000E+00  0.1840E-06  0.0000E+00  0.1823E-06  0.0000E+00  0.1840E-06  0.0000E+00  0.1832E-06  0.0000E+00
     -2.481  0.9926E-02  0.2500E-04  0.9484E-04  0.1034E-06  0.9484E-04  0.1034E-06  0.9484E-04  0.1034E-06  0.2288E-05  0.7091E-09  0.2090E-05  0.7195E-09  0.2487E-05  0.6985E-09  0.2089E-05  0.7197E-09  0.2289E-05  0.7090E-09
     -2.341  0.1398E-01  0.9693E-02  0.1805E-03  0.4009E-04  0.1805E-03  0.4009E-04  0.1805E-03  0.4009E-04  0.5678E-05  0.2749E-06  0.5307E-05  0.2790E-06  0.6050E-05  0.2708E-06  0.5306E-05  0.2790E-06  0.5679E-05  0.2749E-06
     -2.201  0.1685E-01  0.1111E-01  0.3007E-03  0.1218E-03  0.3007E-03  0.1218E-03  0.3007E-03  0.1218E-03  0.1334E-04  0.2180E-05  0.1221E-04  0.2050E-05  0.1448E-04  0.2310E-05  0.1220E-04  0.2050E-05  0.1334E-04  0.2180E-05
     -2.061  0.1855E-01  0.1519E-01  0.4423E-03  0.2125E-03  0.4423E-03  0.2125E-03  0.4423E-03  0.2125E-03  0.2624E-04  0.4652E-05  0.2391E-04  0.4373E-05  0.2857E-04  0.4929E-05  0.2390E-04  0.4374E-05  0.2624E-04  0.4651E-05
     -1.921  0.2100E-01  0.1677E-01  0.5830E-03  0.3487E-03  0.5830E-03  0.3487E-03  0.5830E-03  0.3486E-03  0.4124E-04  0.1118E-04  0.3827E-04  0.1024E-04  0.4423E-04  0.1212E-04  0.3826E-04  0.1024E-04  0.4125E-04  0.1118E-04
     -1.781  0.2333E-01  0.1892E-01  0.7420E-03  0.4811E-03  0.7420E-03  0.4811E-03  0.7420E-03  0.4811E-03  0.6089E-04  0.1907E-04  0.5643E-04  0.1766E-04  0.6536E-04  0.2048E-04  0.5641E-04  0.1767E-04  0.6089E-04  0.1907E-04
     -1.641  0.2469E-01  0.2127E-01  0.9475E-03  0.6210E-03  0.9475E-03  0.6210E-03  0.9475E-03  0.6210E-03  0.9840E-04  0.2840E-04  0.9014E-04  0.2672E-04  0.1067E-03  0.3008E-04  0.9012E-04  0.2672E-04  0.9841E-04  0.2840E-04
     -1.501  0.2617E-01  0.2299E-01  0.1159E-02  0.7937E-03  0.1159E-02  0.7937E-03  0.1159E-02  0.7937E-03  0.1432E-03  0.4310E-04  0.1310E-03  0.4001E-04  0.1555E-03  0.4617E-04  0.1310E-03  0.4002E-04  0.1432E-03  0.4309E-04
     -1.362  0.2797E-01  0.2432E-01  0.1368E-02  0.9872E-03  0.1368E-02  0.9872E-03  0.1368E-02  0.9872E-03  0.1956E-03  0.6445E-04  0.1808E-03  0.5965E-04  0.2104E-03  0.6923E-04  0.1808E-03  0.5966E-04  0.1956E-03  0.6443E-04
     -1.222  0.2990E-01  0.2563E-01  0.1581E-02  0.1189E-02  0.1581E-02  0.1189E-02  0.1581E-02  0.1189E-02  0.2549E-03  0.8961E-04  0.2375E-03  0.8308E-04  0.2725E-03  0.9612E-04  0.2374E-03  0.8310E-04  0.2550E-03  0.8960E-04
     -1.082  0.3134E-01  0.2726E-01  0.1853E-02  0.1385E-02  0.1853E-02  0.1385E-02  0.1853E-02  0.1385E-02  0.3476E-03  0.1173E-03  0.3212E-03  0.1099E-03  0.3741E-03  0.1248E-03  0.3211E-03  0.1099E-03  0.3476E-03  0.1173E-03
     -0.942  0.3270E-01  0.2896E-01  0.2151E-02  0.1588E-02  0.2151E-02  0.1588E-02  0.2151E-02  0.1588E-02  0.4769E-03  0.1479E-03  0.4385E-03  0.1394E-03  0.5155E-03  0.1565E-03  0.4384E-03  0.1394E-03  0.4770E-03  0.1479E-03
     -0.802  0.3422E-01  0.2994E-01  0.2455E-02  0.1850E-02  0.2455E-02  0.1850E-02  0.2455E-02  0.1850E-02  0.6312E-03  0.1977E-03  0.5811E-03  0.1844E-03  0.6813E-03  0.2110E-03  0.5810E-03  0.1844E-03  0.6313E-03  0.1977E-03
     -0.662  0.3587E-01  0.3099E-01  0.2766E-02  0.2117E-02  0.2766E-02  0.2117E-02  0.2766E-02  0.2117E-02  0.8131E-03  0.2578E-03  0.7510E-03  0.2401E-03  0.8754E-03  0.2754E-03  0.7508E-03  0.2402E-03  0.8132E-03  0.2577E-03
     -0.522  0.3771E-01  0.3211E-01  0.3080E-02  0.2388E-02  0.3080E-02  0.2388E-02  0.3080E-02  0.2388E-02  0.1029E-02  0.3260E-03  0.9559E-03  0.3044E-03  0.1101E-02  0.3476E-03  0.9557E-03  0.3045E-03  0.1029E-02  0.3260E-03
     -0.382  0.3948E-01  0.3329E-01  0.3444E-02  0.2662E-02  0.3444E-02  0.2662E-02  0.3444E-02  0.2662E-02  0.1311E-02  0.4020E-03  0.1220E-02  0.3762E-03  0.1403E-02  0.4276E-03  0.1220E-02  0.3763E-03  0.1312E-02  0.4019E-03
     -0.242  0.4110E-01  0.3460E-01  0.3907E-02  0.2934E-02  0.3907E-02  0.2934E-02  0.3907E-02  0.2934E-02  0.1745E-02  0.4864E-03  0.1610E-02  0.4578E-03  0.1880E-02  0.5148E-03  0.1610E-02  0.4579E-03  0.1745E-02  0.4863E-03
     -0.103  0.4311E-01  0.3586E-01  0.4384E-02  0.3225E-02  0.4384E-02  0.3225E-02  0.4384E-02  0.3225E-02  0.2320E-02  0.5856E-03  0.2127E-02  0.5532E-03  0.2513E-02  0.6178E-03  0.2127E-02  0.5534E-03  0.2320E-02  0.5855E-03
      0.037  0.4541E-01  0.3671E-01  0.4884E-02  0.3591E-02  0.4884E-02  0.3591E-02  0.4884E-02  0.3591E-02  0.3036E-02  0.7340E-03  0.2781E-02  0.6890E-03  0.3291E-02  0.7786E-03  0.2780E-02  0.6892E-03  0.3036E-02  0.7338E-03
      0.177  0.4807E-01  0.3760E-01  0.5412E-02  0.3965E-02  0.5411E-02  0.3965E-02  0.5411E-02  0.3965E-02  0.3956E-02  0.9058E-03  0.3632E-02  0.8475E-03  0.4283E-02  0.9637E-03  0.3630E-02  0.8478E-03  0.3957E-02  0.9056E-03
      0.317  0.5115E-01  0.3867E-01  0.5975E-02  0.4329E-02  0.5975E-02  0.4329E-02  0.5975E-02  0.4329E-02  0.5144E-02  0.1101E-02  0.4762E-02  0.1032E-02  0.5527E-02  0.1170E-02  0.4760E-02  0.1032E-02  0.5145E-02  0.1101E-02
      0.457  0.5481E-01  0.3978E-01  0.6816E-02  0.4701E-02  0.6815E-02  0.4701E-02  0.6815E-02  0.4701E-02  0.7135E-02  0.1322E-02  0.6516E-02  0.1241E-02  0.7756E-02  0.1401E-02  0.6513E-02  0.1242E-02  0.7136E-02  0.1321E-02
      0.597  0.6092E-01  0.4097E-01  0.7905E-02  0.5075E-02  0.7905E-02  0.5075E-02  0.7904E-02  0.5075E-02  0.1113E-01  0.1571E-02  0.9851E-02  0.1481E-02  0.1242E-01  0.1661E-02  0.9845E-02  0.1481E-02  0.1114E-01  0.1571E-02
      0.737  0.7014E-01  0.4226E-01  0.9132E-02  0.5451E-02  0.9131E-02  0.5451E-02  0.9130E-02  0.5451E-02  0.1801E-01  0.1854E-02  0.1565E-01  0.1756E-02  0.2040E-01  0.1952E-02  0.1562E-01  0.1757E-02  0.1803E-01  0.1854E-02
      0.877  0.1100E+00  0.4326E-01  0.1266E-01  0.5954E-02  0.1265E-01  0.5954E-02  0.1265E-01  0.5954E-02  0.6654E-01  0.2273E-02  0.8159E-01  0.2141E-02  0.5170E-01  0.2403E-02  0.8136E-01  0.2142E-02  0.6665E-01  0.2272E-02
      1.016  0.9925E-01  0.4436E-01  0.1305E-01  0.6473E-02  0.1305E-01  0.6473E-02  0.1306E-01  0.6473E-02  0.6810E-01  0.2781E-02  0.8373E-01  0.2608E-02  0.5250E-01  0.2952E-02  0.8370E-01  0.2609E-02  0.6813E-01  0.2780E-02
      1.156  0.8856E-01  0.4561E-01  0.1361E-01  0.7001E-02  0.1361E-01  0.7001E-02  0.1361E-01  0.7001E-02  0.7219E-01  0.3396E-02  0.8793E-01  0.3177E-02  0.5647E-01  0.3613E-02  0.8789E-01  0.3178E-02  0.7221E-01  0.3394E-02
      1.296  0.8262E-01  0.4706E-01  0.1441E-01  0.7525E-02  0.1441E-01  0.7525E-02  0.1441E-01  0.7525E-02  0.8276E-01  0.4137E-02  0.9935E-01  0.3867E-02  0.6619E-01  0.4403E-02  0.9933E-01  0.3869E-02  0.8278E-01  0.4135E-02
      1.436  0.7020E-01  0.4866E-01  0.1429E-01  0.8062E-02  0.1429E-01  0.8062E-02  0.1429E-01  0.8062E-02  0.1122E+00  0.5003E-02  0.1165E+00  0.4687E-02  0.1080E+00  0.5315E-02  0.1165E+00  0.4689E-02  0.1122E+00  0.5001E-02
      1.576  0.5866E-01  0.5051E-01  0.1479E-01  0.8598E-02  0.1480E-01  0.8598E-02  0.1480E-01  0.8598E-02  0.1401E+00  0.6059E-02  0.1346E+00  0.5687E-02  0.1457E+00  0.6428E-02  0.1345E+00  0.5690E-02  0.1401E+00  0.6057E-02
      1.716  0.4383E-01  0.5252E-01  0.1700E-01  0.9277E-02  0.1699E-01  0.9277E-02  0.1699E-01  0.9277E-02  0.1630E+00  0.7500E-02  0.1623E+00  0.7036E-02  0.1635E+00  0.7959E-02  0.1624E+00  0.7040E-02  0.1629E+00  0.7497E-02
      1.856  0.3182E-01  0.5499E-01  0.1741E-01  0.1015E-01  0.1741E-01  0.1015E-01  0.1742E-01  0.1015E-01  0.1593E+00  0.9751E-02  0.1461E+00  0.9049E-02  0.1727E+00  0.1045E-01  0.1460E+00  0.9053E-02  0.1594E+00  0.9747E-02
      1.996  0.2130E-01  0.5870E-01  0.1609E-01  0.1099E-01  0.1609E-01  0.1099E-01  0.1609E-01  0.1099E-01  0.1407E+00  0.1310E-01  0.1067E+00  0.1187E-01  0.1747E+00  0.1432E-01  0.1067E+00  0.1188E-01  0.1407E+00  0.1310E-01
      2.135  0.2725E-02  0.6475E-01  0.1359E-01  0.1185E-01  0.1360E-01  0.1185E-01  0.1360E-01  0.1185E-01  0.1159E+00  0.1846E-01  0.8380E-01  0.1636E-01  0.1480E+00  0.2053E-01  0.8373E-01  0.1637E-01  0.1159E+00  0.1845E-01
      2.275  0.6764E-02  0.7619E-01  0.2064E-01  0.1275E-01  0.2064E-01  0.1275E-01  0.2064E-01  0.1275E-01  0.1597E+00  0.2840E-01  0.1477E+00  0.2421E-01  0.1718E+00  0.3258E-01  0.1476E+00  0.2423E-01  0.1598E+00  0.2839E-01