SQS-NiFe                                
           1
     2.539200    0.000000    0.000000
     1.269600    2.199012    0.000000
     1.269600    0.733004    2.073248
   Fe
   1
Direct configuration=     1
   0.00000000  0.00000000  0.00000000
