       N       E                     dE             d eps       ncg     rms          rms(c)
DAV:   1    -0.412836395366E+03   -0.41284E+03   -0.71610E-02  8769   0.237E+00    0.106E+00
RMM:   2    -0.412844183430E+03   -0.77881E-02   -0.12520E-01  8601   0.103E+00    0.524E+00
RMM:   3    -0.412787201050E+03    0.56982E-01   -0.48198E-02  8772   0.578E-01    0.342E+00
RMM:   4    -0.412791511832E+03   -0.43108E-02   -0.35161E-02  8789   0.449E-01    0.337E+00
RMM:   5    -0.412758386912E+03    0.33125E-01   -0.15600E-02  8647   0.326E-01    0.151E+00
RMM:   6    -0.412750666172E+03    0.77207E-02   -0.59661E-03  8722   0.205E-01    0.708E-01
RMM:   7    -0.412750378645E+03    0.28753E-03   -0.21446E-03  8749   0.114E-01    0.696E-01
RMM:   8    -0.412748252199E+03    0.21264E-02   -0.15032E-03  8697   0.969E-02    0.451E-01
RMM:   9    -0.412747922129E+03    0.33007E-03   -0.13099E-03  8706   0.908E-02    0.411E-01
RMM:  10    -0.412748193790E+03   -0.27166E-03   -0.98745E-04  8688   0.757E-02    0.411E-01
RMM:  11    -0.412747966903E+03    0.22689E-03   -0.62831E-04  8778   0.641E-02    0.228E-01
RMM:  12    -0.412748255643E+03   -0.28874E-03   -0.32150E-04  8704   0.441E-02    0.243E-01
RMM:  13    -0.412748725294E+03   -0.46965E-03   -0.23417E-04  8693   0.388E-02    0.144E-01
RMM:  14    -0.412749140301E+03   -0.41501E-03   -0.11694E-04  8703   0.269E-02    0.133E-01
RMM:  15    -0.412750400884E+03   -0.12606E-02   -0.10664E-04  8543   0.241E-02    0.133E-01
RMM:  16    -0.412750956408E+03   -0.55552E-03   -0.71850E-05  8698   0.211E-02    0.937E-02
RMM:  17    -0.412752129069E+03   -0.11727E-02   -0.94896E-05  8614   0.218E-02    0.141E-01
RMM:  18    -0.412753112042E+03   -0.98297E-03   -0.82770E-05  8644   0.207E-02    0.549E-02
RMM:  19    -0.412753684398E+03   -0.57236E-03   -0.51913E-05  8723   0.161E-02    0.807E-02
RMM:  20    -0.412754633699E+03   -0.94930E-03   -0.47818E-05  8641   0.141E-02    0.494E-02
RMM:  21    -0.412754943981E+03   -0.31028E-03   -0.27020E-05  8766   0.124E-02    0.486E-02
RMM:  22    -0.412755408859E+03   -0.46488E-03   -0.29927E-05  8467   0.118E-02    0.578E-02
RMM:  23    -0.412755469216E+03   -0.60357E-04   -0.16208E-05  8584   0.956E-03    0.285E-02
RMM:  24    -0.412755455613E+03    0.13603E-04   -0.74718E-06  8140   0.621E-03    0.297E-02
RMM:  25    -0.412755425302E+03    0.30312E-04   -0.53433E-06  7541   0.531E-03    0.150E-02
RMM:  26    -0.412755435554E+03   -0.10252E-04   -0.17562E-06  5341   0.339E-03    0.144E-02
RMM:  27    -0.412755455585E+03   -0.20031E-04   -0.14275E-06  5238   0.301E-03    0.121E-02
RMM:  28    -0.412755468990E+03   -0.13405E-04   -0.65549E-07  5161   0.228E-03    0.503E-03
RMM:  29    -0.412755484554E+03   -0.15564E-04   -0.25684E-07  4980   0.122E-03    0.537E-03
RMM:  30    -0.412755502549E+03   -0.17995E-04   -0.16567E-07  4914   0.110E-03    0.201E-03
RMM:  31    -0.412755510502E+03   -0.79529E-05   -0.78056E-08  4615   0.632E-04    0.240E-03
RMM:  32    -0.412755524220E+03   -0.13719E-04   -0.58134E-08  4517   0.536E-04    0.138E-03
RMM:  33    -0.412755529246E+03   -0.50259E-05   -0.23121E-08  3473   0.392E-04    0.945E-04
RMM:  34    -0.412755540367E+03   -0.11121E-04   -0.44465E-08  2871   0.363E-04    0.117E-03
RMM:  35    -0.412755545622E+03   -0.52550E-05   -0.14190E-08  2154   0.317E-04    0.586E-04
RMM:  36    -0.412755552445E+03   -0.68229E-05   -0.38413E-08  2572   0.349E-04    0.770E-04
RMM:  37    -0.412755561098E+03   -0.86529E-05   -0.83689E-08  3056   0.367E-04    0.415E-04
RMM:  38    -0.412755564831E+03   -0.37326E-05   -0.24687E-08  2064   0.300E-04    0.459E-04
RMM:  39    -0.412755571149E+03   -0.63181E-05   -0.72124E-08  2716   0.331E-04    0.423E-04
RMM:  40    -0.412755574663E+03   -0.35139E-05   -0.37704E-08  2176   0.295E-04    0.423E-04
RMM:  41    -0.412755580034E+03   -0.53716E-05   -0.86790E-08  2597   0.334E-04    0.238E-04
RMM:  42    -0.412755582458E+03   -0.24235E-05   -0.55672E-08  2459   0.315E-04    0.251E-04
RMM:  43    -0.412755585007E+03   -0.25497E-05   -0.10748E-07  2887   0.350E-04    0.217E-04
RMM:  44    -0.412755585679E+03   -0.67187E-06   -0.28466E-08  2101   0.288E-04
   1 F= -.42970334E+03 E0= -.42970334E+03  d E =0.000000E+00  mag=    74.1203
