 vasp.5.4.4.18Apr17-6-g9f103f2a35 (build Dec 15 2018 21:27:11) complex          
  
 executed on             LinuxIFC date 2022.03.01  05:12:14
 running on   72 total cores
 distrk:  each k-point on   72 cores,    1 groups
 distr:  one band on NCORES_PER_BAND=  24 cores,    3 groups


--------------------------------------------------------------------------------------------------------


 INCAR:
 POTCAR:    PAW_PBE Ni 02Aug2007                  
 POTCAR:    PAW_PBE Fe 06Sep2000                  
 POTCAR:    PAW_PBE O 08Apr2002                   
 POTCAR:    PAW_PBE H 15Jun2001                   

 ----------------------------------------------------------------------------- 
|                                                                             |
|           W    W    AA    RRRRR   N    N  II  N    N   GGGG   !!!           |
|           W    W   A  A   R    R  NN   N  II  NN   N  G    G  !!!           |
|           W    W  A    A  R    R  N N  N  II  N N  N  G       !!!           |
|           W WW W  AAAAAA  RRRRR   N  N N  II  N  N N  G  GGG   !            |
|           WW  WW  A    A  R   R   N   NN  II  N   NN  G    G                |
|           W    W  A    A  R    R  N    N  II  N    N   GGGG   !!!           |
|                                                                             |
|      For optimal performance we recommend to set                            |
|        NCORE= 4 - approx SQRT( number of cores)                             |
|      NCORE specifies how many cores store one orbital (NPAR=cpu/NCORE).     |
|      This setting can  greatly improve the performance of VASP for DFT.     |
|      The default,   NCORE=1            might be grossly inefficient         |
|      on modern multi-core architectures or massively parallel machines.     |
|      Do your own testing !!!!                                               |
|      Unfortunately you need to use the default for GW and RPA calculations. |
|      (for HF NCORE is supported but not extensively tested yet)             |
|                                                                             |
 ----------------------------------------------------------------------------- 

 POTCAR:    PAW_PBE Ni 02Aug2007                  
   VRHFIN =Ni:                                                                  
   LEXCH  = PE                                                                  
   EATOM  =  1077.6739 eV,   79.2068 Ry                                         
                                                                                
   TITEL  = PAW_PBE Ni 02Aug2007                                                
   LULTRA =        F    use ultrasoft PP ?                                      
   IUNSCR =        1    unscreen: 0-lin 1-nonlin 2-no                           
   RPACOR =    2.000    partial core radius                                     
   POMASS =   58.690; ZVAL   =   10.000    mass and valenz                      
   RCORE  =    2.300    outmost cutoff radius                                   
   RWIGS  =    2.430; RWIGS  =    1.286    wigner-seitz radius (au A)           
   ENMAX  =  269.532; ENMIN  =  202.149 eV                                      
   RCLOC  =    1.201    cutoff for local pot                                    
   LCOR   =        T    correct aug charges                                     
   LPAW   =        T    paw PP                                                  
   EAUG   =  544.565                                                            
   DEXC   =    0.000                                                            
   RMAX   =    2.357    core radius for proj-oper                               
   RAUG   =    1.300    factor for augmentation sphere                          
   RDEP   =    2.390    radius for radial grids                                 
   RDEPT  =    1.838    core radius for aug-charge                              
                                                                                
   Atomic configuration                                                         
    9 entries                                                                   
     n  l   j            E        occ.                                          
     1  0  0.50     -8206.4253   2.0000                                         
     2  0  0.50      -976.1748   2.0000                                         
     2  1  1.50      -839.0571   6.0000                                         
     3  0  0.50      -105.9991   2.0000                                         
     3  1  1.50       -66.4603   6.0000                                         
     3  2  2.50        -4.6458   9.0000                                         
     4  0  0.50        -4.4926   1.0000                                         
     4  1  1.50        -4.0817   0.0000                                         
     4  3  2.50        -1.3606   0.0000                                         
   Description                                                                  
     l       E           TYP  RCUT    TYP  RCUT                                 
     2     -4.6457903     23  2.300                                             
     2     -6.0063729     23  2.300                                             
     0     -4.4925590     23  2.300                                             
     0      5.0102601     23  2.300                                             
     1     -2.7211652     23  2.300                                             
     1     16.5183231     23  2.300                                             
  local pseudopotential read in
  partial core-charges read in
  partial kinetic energy density read in
  atomic valenz-charges read in
  non local Contribution for L=           2  read in
    real space projection operators read in
  non local Contribution for L=           2  read in
    real space projection operators read in
  non local Contribution for L=           0  read in
    real space projection operators read in
  non local Contribution for L=           0  read in
    real space projection operators read in
  non local Contribution for L=           1  read in
    real space projection operators read in
  non local Contribution for L=           1  read in
    real space projection operators read in
    PAW grid and wavefunctions read in
 
   number of l-projection  operators is LMAX  =           6
   number of lm-projection operators is LMMAX =          18
 
 POTCAR:    PAW_PBE Fe 06Sep2000                  
   VRHFIN =Fe:  d7 s1                                                           
   LEXCH  = PE                                                                  
   EATOM  =   594.3153 eV,   43.6809 Ry                                         
                                                                                
   TITEL  = PAW_PBE Fe 06Sep2000                                                
   LULTRA =        F    use ultrasoft PP ?                                      
   IUNSCR =        1    unscreen: 0-lin 1-nonlin 2-no                           
   RPACOR =    2.000    partial core radius                                     
   POMASS =   55.847; ZVAL   =    8.000    mass and valenz                      
   RCORE  =    2.300    outmost cutoff radius                                   
   RWIGS  =    2.460; RWIGS  =    1.302    wigner-seitz radius (au A)           
   ENMAX  =  267.882; ENMIN  =  200.911 eV                                      
   RCLOC  =    1.701    cutoff for local pot                                    
   LCOR   =        T    correct aug charges                                     
   LPAW   =        T    paw PP                                                  
   EAUG   =  511.368                                                            
   DEXC   =    0.000                                                            
   RMAX   =    2.356    core radius for proj-oper                               
   RAUG   =    1.300    factor for augmentation sphere                          
   RDEP   =    2.442    radius for radial grids                                 
   RDEPT  =    1.890    core radius for aug-charge                              
                                                                                
   Atomic configuration                                                         
    9 entries                                                                   
     n  l   j            E        occ.                                          
     1  0  0.50     -6993.8440   2.0000                                         
     2  0  0.50      -814.6047   2.0000                                         
     2  1  1.50      -693.3689   6.0000                                         
     3  0  0.50       -89.4732   2.0000                                         
     3  1  1.50       -55.6373   6.0000                                         
     3  2  2.50        -3.8151   7.0000                                         
     4  0  0.50        -4.2551   1.0000                                         
     4  1  1.50        -3.4015   0.0000                                         
     4  3  2.50        -1.3606   0.0000                                         
   Description                                                                  
     l       E           TYP  RCUT    TYP  RCUT                                 
     2     -3.8151135     23  2.300                                             
     2     -5.1756961     23  2.300                                             
     0     -4.2550963     23  2.300                                             
     0      7.2035603     23  2.300                                             
     1     -2.7211652     23  2.300                                             
     1     18.4316424     23  2.300                                             
  local pseudopotential read in
  partial core-charges read in
  partial kinetic energy density read in
  atomic valenz-charges read in
  non local Contribution for L=           2  read in
    real space projection operators read in
  non local Contribution for L=           2  read in
    real space projection operators read in
  non local Contribution for L=           0  read in
    real space projection operators read in
  non local Contribution for L=           0  read in
    real space projection operators read in
  non local Contribution for L=           1  read in
    real space projection operators read in
  non local Contribution for L=           1  read in
    real space projection operators read in
    PAW grid and wavefunctions read in
 
   number of l-projection  operators is LMAX  =           6
   number of lm-projection operators is LMMAX =          18
 
 POTCAR:    PAW_PBE O 08Apr2002                   
   VRHFIN =O: s2p4                                                              
   LEXCH  = PE                                                                  
   EATOM  =   432.3788 eV,   31.7789 Ry                                         
                                                                                
   TITEL  = PAW_PBE O 08Apr2002                                                 
   LULTRA =        F    use ultrasoft PP ?                                      
   IUNSCR =        1    unscreen: 0-lin 1-nonlin 2-no                           
   RPACOR =    1.200    partial core radius                                     
   POMASS =   16.000; ZVAL   =    6.000    mass and valenz                      
   RCORE  =    1.520    outmost cutoff radius                                   
   RWIGS  =    1.550; RWIGS  =    0.820    wigner-seitz radius (au A)           
   ENMAX  =  400.000; ENMIN  =  300.000 eV                                      
   ICORE  =        2    local potential                                         
   LCOR   =        T    correct aug charges                                     
   LPAW   =        T    paw PP                                                  
   EAUG   =  605.392                                                            
   DEXC   =    0.000                                                            
   RMAX   =    1.553    core radius for proj-oper                               
   RAUG   =    1.300    factor for augmentation sphere                          
   RDEP   =    1.550    radius for radial grids                                 
   RDEPT  =    1.329    core radius for aug-charge                              
                                                                                
   Atomic configuration                                                         
    4 entries                                                                   
     n  l   j            E        occ.                                          
     1  0  0.50      -514.6923   2.0000                                         
     2  0  0.50       -23.9615   2.0000                                         
     2  1  0.50        -9.0305   4.0000                                         
     3  2  1.50        -9.5241   0.0000                                         
   Description                                                                  
     l       E           TYP  RCUT    TYP  RCUT                                 
     0    -23.9615318     23  1.200                                             
     0     -9.5240782     23  1.200                                             
     1     -9.0304911     23  1.520                                             
     1      8.1634956     23  1.520                                             
     2     -9.5240782      7  1.500                                             
  local pseudopotential read in
  partial core-charges read in
  partial kinetic energy density read in
  kinetic energy density of atom read in
  atomic valenz-charges read in
  non local Contribution for L=           0  read in
    real space projection operators read in
  non local Contribution for L=           0  read in
    real space projection operators read in
  non local Contribution for L=           1  read in
    real space projection operators read in
  non local Contribution for L=           1  read in
    real space projection operators read in
    PAW grid and wavefunctions read in
 
   number of l-projection  operators is LMAX  =           4
   number of lm-projection operators is LMMAX =           8
 
 POTCAR:    PAW_PBE H 15Jun2001                   
   VRHFIN =H: ultrasoft test                                                    
   LEXCH  = PE                                                                  
   EATOM  =    12.4884 eV,    0.9179 Ry                                         
                                                                                
   TITEL  = PAW_PBE H 15Jun2001                                                 
   LULTRA =        F    use ultrasoft PP ?                                      
   IUNSCR =        0    unscreen: 0-lin 1-nonlin 2-no                           
   RPACOR =    0.000    partial core radius                                     
   POMASS =    1.000; ZVAL   =    1.000    mass and valenz                      
   RCORE  =    1.100    outmost cutoff radius                                   
   RWIGS  =    0.700; RWIGS  =    0.370    wigner-seitz radius (au A)           
   ENMAX  =  250.000; ENMIN  =  200.000 eV                                      
   RCLOC  =    0.701    cutoff for local pot                                    
   LCOR   =        T    correct aug charges                                     
   LPAW   =        T    paw PP                                                  
   EAUG   =  400.000                                                            
   RMAX   =    1.123    core radius for proj-oper                               
   RAUG   =    1.200    factor for augmentation sphere                          
   RDEP   =    1.112    radius for radial grids                                 
   RDEPT  =    0.926    core radius for aug-charge                              
                                                                                
   Atomic configuration                                                         
    2 entries                                                                   
     n  l   j            E        occ.                                          
     1  0  0.50        -6.4927   1.0000                                         
     2  1  0.50        -3.4015   0.0000                                         
   Description                                                                  
     l       E           TYP  RCUT    TYP  RCUT                                 
     0     -6.4927494     23  1.100                                             
     0      6.8029130     23  1.100                                             
     1     -4.0817478     23  1.100                                             
  local pseudopotential read in
  atomic valenz-charges read in
  non local Contribution for L=           0  read in
    real space projection operators read in
  non local Contribution for L=           0  read in
    real space projection operators read in
  non local Contribution for L=           1  read in
    real space projection operators read in
    PAW grid and wavefunctions read in
 
   number of l-projection  operators is LMAX  =           3
   number of lm-projection operators is LMMAX =           5
 
 Optimization of the real space projectors (new method)

 maximal supplied QI-value         = 16.25
 optimisation between [QCUT,QGAM] = [ 11.54, 23.24] = [ 37.28,151.24] Ry 
 Optimized for a Real-space Cutoff    1.45 Angstroem

   l    n(q)    QCUT    max X(q) W(low)/X(q) W(high)/X(q)  e(spline) 
   2      9    11.539    60.317    0.19E-03    0.47E-04    0.16E-06
   2      9    11.539    55.921    0.19E-03    0.48E-04    0.16E-06
   0     10    11.539    51.690    0.80E-04    0.50E-04    0.24E-06
   0     10    11.539    30.015    0.73E-04    0.45E-04    0.22E-06
   1     10    11.539    18.849    0.87E-04    0.16E-03    0.71E-07
   1     10    11.539    14.624    0.73E-04    0.13E-03    0.64E-07
 Optimization of the real space projectors (new method)

 maximal supplied QI-value         = 16.25
 optimisation between [QCUT,QGAM] = [ 11.54, 23.24] = [ 37.28,151.24] Ry 
 Optimized for a Real-space Cutoff    1.53 Angstroem

   l    n(q)    QCUT    max X(q) W(low)/X(q) W(high)/X(q)  e(spline) 
   2     10    11.539    80.901    0.11E-03    0.14E-03    0.21E-06
   2     10    11.539    75.754    0.11E-03    0.14E-03    0.22E-06
   0     11    11.539    58.752    0.52E-04    0.18E-04    0.33E-06
   0     11    11.539    30.679    0.44E-04    0.16E-04    0.30E-06
   1     10    11.539    17.977    0.53E-04    0.29E-04    0.13E-06
   1     10    11.539    13.559    0.44E-04    0.25E-04    0.11E-06
 Optimization of the real space projectors (new method)

 maximal supplied QI-value         = 24.76
 optimisation between [QCUT,QGAM] = [ 11.64, 23.27] = [ 37.91,151.63] Ry 
 Optimized for a Real-space Cutoff    1.14 Angstroem

   l    n(q)    QCUT    max X(q) W(low)/X(q) W(high)/X(q)  e(spline) 
   0      8    11.635    20.381    0.10E-03    0.33E-03    0.24E-06
   0      8    11.635    15.268    0.11E-03    0.35E-03    0.26E-06
   1      7    11.635     5.964    0.24E-03    0.31E-03    0.30E-06
   1      7    11.635     5.382    0.22E-03    0.25E-03    0.26E-06
 Optimization of the real space projectors (new method)

 maximal supplied QI-value         = 34.20
 optimisation between [QCUT,QGAM] = [ 11.63, 23.26] = [ 37.87,151.49] Ry 
 Optimized for a Real-space Cutoff    1.21 Angstroem

   l    n(q)    QCUT    max X(q) W(low)/X(q) W(high)/X(q)  e(spline) 
   0      8    11.629    19.460    0.17E-03    0.34E-03    0.21E-06
   0      8    11.629    12.209    0.16E-03    0.33E-03    0.21E-06
   1      8    11.629     4.655    0.18E-03    0.16E-03    0.26E-06
  PAW_PBE Ni 02Aug2007                  :
 energy of atom  1       EATOM=-1077.6739
 kinetic energy error for atom=    0.0030 (will be added to EATOM!!)
  PAW_PBE Fe 06Sep2000                  :
 energy of atom  2       EATOM= -594.3153
 kinetic energy error for atom=    0.0026 (will be added to EATOM!!)
  PAW_PBE O 08Apr2002                   :
 energy of atom  3       EATOM= -432.3788
 kinetic energy error for atom=    0.0208 (will be added to EATOM!!)
  PAW_PBE H 15Jun2001                   :
 energy of atom  4       EATOM=  -12.4884
 kinetic energy error for atom=    0.0014 (will be added to EATOM!!)
 
 
 POSCAR: POSCAR                                  
  positions in direct lattice
  velocities in cartesian coordinates
 exchange correlation table for  LEXCH =        8
   RHO(1)=    0.500       N(1)  =     2000
   RHO(2)=  100.500       N(2)  =     4000

 VTST: version 3.2, (02/03/18)

 CHAIN: initializing optimizer
 
 OPT: Using VASP Dynamics algorithm
 CHAIN: Read ICHAIN            0
 
 POSCAR: POSCAR                                  
  positions in direct lattice
  velocities in cartesian coordinates
 


--------------------------------------------------------------------------------------------------------


 ion  position               nearest neighbor table
   1  0.999  1.000  0.287-  18 2.48  41 2.48  50 2.48  49 2.48   8 2.48  47 2.49   5 2.49  33 2.50
                             2 2.50   4 2.50  26 2.51   6 2.53
   2  0.248  0.000  0.285-  11 2.45  44 2.45  51 2.45  50 2.47  26 2.50   1 2.50   9 2.50   6 2.51
                             3 2.51  41 2.52  27 2.52  43 2.55
   3  0.498  0.999  0.287-  14 2.46  43 2.46  51 2.46  64 2.46  17 2.47  45 2.48  27 2.50   4 2.51
                             9 2.51   2 2.51  30 2.52  12 2.53
   4  0.748  0.998  0.286-  16 2.43  48 2.45  17 2.46  18 2.48  30 2.49  64 2.50   1 2.50   3 2.51
                             5 2.51  33 2.53  47 2.53  12 2.53
   5  0.999  0.248  0.287-  60 2.43  16 2.43  18 2.47  22 2.48   1 2.49  52 2.51   6 2.51   4 2.51
                            21 2.51  12 2.51  19 2.51   8 2.53
   6  0.251  0.252  0.287-  11 2.41  56 2.47  52 2.48  22 2.49   9 2.50   2 2.51   5 2.51  50 2.51
                             1 2.53  53 2.53  55 2.55   8 2.55
   7  0.083  0.166  0.096-  50 2.47  15 2.50  40 2.50  18 2.50  54 2.50  10 2.50  46 2.51  22 2.51
                            20 2.51
   8  0.079  0.159  0.385-  67 1.85  47 2.43  41 2.44   1 2.48  11 2.50  16 2.50   5 2.53   6 2.55
                            55 2.56  21 2.57
   9  0.499  0.249  0.286-  11 2.44  59 2.44  56 2.45   6 2.50  51 2.50  53 2.50   2 2.50  12 2.51
                             3 2.51  14 2.53  25 2.53  23 2.54
  10  0.333  0.167  0.096-  13 2.50  56 2.50   7 2.50  24 2.51  40 2.51  42 2.51  50 2.51  54 2.52
                            51 2.52
  11  0.330  0.165  0.379-   6 2.41   9 2.44   2 2.45  41 2.48  25 2.48  55 2.49   8 2.50  43 2.52
                            14 2.52
  12  0.750  0.252  0.288-  16 2.43  59 2.44  60 2.46  58 2.48  17 2.50  23 2.50  19 2.51   9 2.51
                            14 2.51   5 2.51   3 2.53   4 2.53
  13  0.582  0.167  0.097-  51 2.48  24 2.49  42 2.50  17 2.50  10 2.50  63 2.52  59 2.52  57 2.52
                            15 2.53
  14  0.577  0.157  0.383-  65 1.84  43 2.41  64 2.42   3 2.46  12 2.51  16 2.52  11 2.52   9 2.53
                            25 2.58  58 2.58
  15  0.834  0.167  0.096-  20 2.49  60 2.49  18 2.49  46 2.49   7 2.50  17 2.51  63 2.51  57 2.53
                            13 2.53
  16  0.831  0.163  0.379-  12 2.43   4 2.43   5 2.43  47 2.48  64 2.50   8 2.50  58 2.51  21 2.51
                            14 2.52
  17  0.666  0.083  0.193-   4 2.46  60 2.47   3 2.47  51 2.48  59 2.49  13 2.50  12 2.50  45 2.50
                            48 2.51  15 2.51  63 2.51  18 2.52
  18  0.916  0.082  0.192-  50 2.46  60 2.47   5 2.47   1 2.48   4 2.48  46 2.48  15 2.49  49 2.50
                            48 2.50   7 2.50  22 2.51  17 2.52
  19  0.001  0.500  0.286-  60 2.47  29 2.47  52 2.49  27 2.49  39 2.49  21 2.50  12 2.51  23 2.51
                             5 2.51  61 2.52  26 2.52  58 2.53
  20  0.081  0.416  0.096-  61 2.48  15 2.49  57 2.49  22 2.50  54 2.51  28 2.51   7 2.51  31 2.52
                            60 2.53
  21  0.079  0.415  0.384-  67 1.85  58 2.44  29 2.45  19 2.50  32 2.51  16 2.51   5 2.51  52 2.51
                             8 2.57  55 2.57
  22  0.166  0.334  0.192-  52 2.47   5 2.48   6 2.49  60 2.49  54 2.49  36 2.50  20 2.50  50 2.50
                             7 2.51  18 2.51  56 2.52  61 2.54
  23  0.752  0.502  0.288-  33 2.46  53 2.47  59 2.47  26 2.49  38 2.49  12 2.50  39 2.51  19 2.51
                            58 2.52   9 2.54  62 2.55  25 2.56
  24  0.584  0.416  0.096-  13 2.49  62 2.49  57 2.50  10 2.51  56 2.51  34 2.51  37 2.52  54 2.53
                            59 2.54
  25  0.576  0.414  0.385-  65 1.88  55 2.42  53 2.45  35 2.46  11 2.48   9 2.53  38 2.53  23 2.56
                            14 2.58  58 2.60
  26  0.000  0.750  0.287-  49 2.46  33 2.47  44 2.48  23 2.49  39 2.50   2 2.50  27 2.50   1 2.51
                            41 2.51  29 2.51  19 2.52  38 2.55
  27  0.249  0.749  0.285-  45 2.45  32 2.46  61 2.46  44 2.46  19 2.49  29 2.50  26 2.50   3 2.50
                            52 2.52   2 2.52  30 2.53  43 2.53
  28  0.084  0.668  0.095-  61 2.47  39 2.50  40 2.50  37 2.50  31 2.50  42 2.50  57 2.51  44 2.51
                            20 2.51
  29  0.084  0.662  0.382-  66 1.85  21 2.45  19 2.47  32 2.47  58 2.49  27 2.50  26 2.51  38 2.54
                            43 2.54  41 2.58
  30  0.501  0.749  0.287-  32 2.44  48 2.46  45 2.47   4 2.49  36 2.49  64 2.49  53 2.50   3 2.52
                            52 2.52  27 2.53  35 2.53  33 2.53
  31  0.333  0.667  0.094-  61 2.47  42 2.50  54 2.50  28 2.50  63 2.50  34 2.51  36 2.52  45 2.52
                            20 2.52
  32  0.331  0.664  0.378-  52 2.41  30 2.44  27 2.46  29 2.47  35 2.48  21 2.51  64 2.51  43 2.51
                            55 2.52
  33  0.752  0.747  0.288-  23 2.46  53 2.47  26 2.47  49 2.48  62 2.48   1 2.50  48 2.51  38 2.51
                            47 2.53  30 2.53   4 2.53  35 2.56
  34  0.583  0.667  0.095-  62 2.47  36 2.50  63 2.50  46 2.51  31 2.51  37 2.51  54 2.51  24 2.51
                            48 2.53
  35  0.576  0.659  0.385-  68 1.87  55 2.44  53 2.44  25 2.46  32 2.48  30 2.53  38 2.54  33 2.56
                            64 2.56  47 2.60
  36  0.417  0.582  0.191-  54 2.47  30 2.49  22 2.50  34 2.50  62 2.50  45 2.51  56 2.51  48 2.51
                            61 2.51  52 2.52  31 2.52  53 2.55
  37  0.834  0.668  0.095-  62 2.47  40 2.50  57 2.50  39 2.50  28 2.50  46 2.51  49 2.51  34 2.51
                            24 2.52
  38  0.832  0.663  0.385-  69 1.81  23 2.49  58 2.51  33 2.51  47 2.53  25 2.53  29 2.54  41 2.54
                            35 2.54  26 2.55
  39  0.917  0.583  0.191-  19 2.49  57 2.49  26 2.50  28 2.50  37 2.50  61 2.50  49 2.51  23 2.51
                            59 2.51  62 2.51  44 2.51  60 2.56
  40  0.083  0.917  0.095-  50 2.49  44 2.49  37 2.50  28 2.50   7 2.50  10 2.51  49 2.51  46 2.51
                            42 2.52
  41  0.083  0.919  0.383-  66 1.85   8 2.44  47 2.47  11 2.48   1 2.48  26 2.51   2 2.52  38 2.54
                            43 2.55  29 2.58
  42  0.334  0.917  0.095-  51 2.48  13 2.50  63 2.50  31 2.50  44 2.50  28 2.50  10 2.51  45 2.51
                            40 2.52
  43  0.337  0.917  0.382-  66 1.83  14 2.41  64 2.44   3 2.46  32 2.51  11 2.52  27 2.53  29 2.54
                             2 2.55  41 2.55
  44  0.167  0.835  0.191-   2 2.45  27 2.46  51 2.47  26 2.48  61 2.49  49 2.49  40 2.49  42 2.50
                            50 2.50  28 2.51  39 2.51  45 2.53
  45  0.417  0.832  0.192-  27 2.45  61 2.47  51 2.47  30 2.47   3 2.48  48 2.49  63 2.50  17 2.50
                            36 2.51  42 2.51  31 2.52  44 2.53
  46  0.832  0.917  0.096-  18 2.48  48 2.49  15 2.49  63 2.50  49 2.50   7 2.51  34 2.51  37 2.51
                            40 2.51
  47  0.836  0.918  0.384-  68 1.86   8 2.43  41 2.47  16 2.48   1 2.49  33 2.53   4 2.53  38 2.53
                            64 2.57  35 2.60
  48  0.666  0.833  0.192-   4 2.45  30 2.46  62 2.47  45 2.49  46 2.49  18 2.50  63 2.50  17 2.51
                            33 2.51  36 2.51  49 2.52  34 2.53
  49  0.917  0.833  0.192-  62 2.46  26 2.46  50 2.47  33 2.48   1 2.48  44 2.49  18 2.50  46 2.50
                            39 2.51  40 2.51  37 2.51  48 2.52
  50  0.162  0.082  0.191-  18 2.46   2 2.47   7 2.47  49 2.47   1 2.48  40 2.49  44 2.50  22 2.50
                             6 2.51  10 2.51  56 2.53  51 2.57
  51  0.416  0.078  0.192-   2 2.45   3 2.46  44 2.47  45 2.47  42 2.48  17 2.48  13 2.48   9 2.50
                            10 2.52  59 2.54  56 2.54  50 2.57
  52  0.248  0.498  0.287-  32 2.41  22 2.47   6 2.48  19 2.49   5 2.51  21 2.51  36 2.52  27 2.52
                            30 2.52  61 2.55  53 2.56  55 2.57
  53  0.506  0.502  0.289-  35 2.44  25 2.45  33 2.47  23 2.47   9 2.50  30 2.50  56 2.53   6 2.53
                            62 2.55  55 2.55  36 2.55  52 2.56
  54  0.331  0.417  0.096-  36 2.47  22 2.49  31 2.50   7 2.50  20 2.51  34 2.51  10 2.52  56 2.53
                            24 2.53
  55  0.335  0.415  0.387-  67 1.84  25 2.42  35 2.44  11 2.49  32 2.52   6 2.55  53 2.55   8 2.56
                            21 2.57  52 2.57
  56  0.416  0.331  0.193-   9 2.45   6 2.47  10 2.50  24 2.51  36 2.51  59 2.51  22 2.52  50 2.53
                            54 2.53  53 2.53  51 2.54  62 2.56
  57  0.834  0.418  0.094-  20 2.49  39 2.49  24 2.50  37 2.50  28 2.51  13 2.52  15 2.53  59 2.56
                            60 2.59
  58  0.835  0.415  0.384-  65 1.83  21 2.44  12 2.48  29 2.49  16 2.51  38 2.51  23 2.52  19 2.53
                            14 2.58  25 2.60
  59  0.667  0.332  0.194-   9 2.44  12 2.44  23 2.47  17 2.49  60 2.51  39 2.51  56 2.51  13 2.52
                            51 2.54  24 2.54  57 2.56  62 2.57
  60  0.914  0.327  0.194-   5 2.43  12 2.46  19 2.47  18 2.47  17 2.47  22 2.49  15 2.49  59 2.51
                            20 2.53  39 2.56  57 2.59  61 2.59
  61  0.169  0.588  0.189-  27 2.46  45 2.47  28 2.47  31 2.47  20 2.48  44 2.49  39 2.50  36 2.51
                            19 2.52  22 2.54  52 2.55  60 2.59
  62  0.670  0.589  0.190-  49 2.46  48 2.47  37 2.47  34 2.47  33 2.48  24 2.49  36 2.50  39 2.51
                            53 2.55  23 2.55  56 2.56  59 2.57
  63  0.583  0.917  0.096-  46 2.50  45 2.50  42 2.50  48 2.50  31 2.50  34 2.50  17 2.51  15 2.51
                            13 2.52
  64  0.579  0.916  0.382-  68 1.81  14 2.42  43 2.44   3 2.46  30 2.49   4 2.50  16 2.50  32 2.51
                            35 2.56  47 2.57
  65  0.665  0.326  0.436-  58 1.83  14 1.84  25 1.88
  66  0.169  0.833  0.434-  43 1.83  29 1.85  41 1.85
  67  0.162  0.330  0.437-  55 1.84   8 1.85  21 1.85
  68  0.662  0.836  0.435-  64 1.81  47 1.86  35 1.87
  69  0.845  0.673  0.470-  70 0.98  38 1.81
  70  0.952  0.720  0.485-  69 0.98
 

IMPORTANT INFORMATION: All symmetrisations will be switched off!
NOSYMM: (Re-)initialisation of all symmetry stuff for point group C_1.

 
 

Automatic generation of k-mesh.
 generate k-points for:    3    3    1
Space group operators:
 irot       det(A)        alpha          n_x          n_y          n_z        tau_x        tau_y        tau_z
    1     1.000000     0.000000     1.000000     0.000000     0.000000     0.000000     0.000000     0.000000
 
 Subroutine IBZKPT returns following result:
 ===========================================
 
 Found      5 irreducible k-points:
 
 Following reciprocal coordinates:
            Coordinates               Weight
  0.000000  0.000000  0.000000      1.000000
  0.333333  0.000000  0.000000      2.000000
  0.000000  0.333333  0.000000      2.000000
  0.333333  0.333333  0.000000      2.000000
 -0.333333  0.333333  0.000000      2.000000
 
 Following cartesian coordinates:
            Coordinates               Weight
  0.000000  0.000000  0.000000      1.000000
  0.033244  0.019194  0.000000      2.000000
  0.000000  0.038387  0.000000      2.000000
  0.033244  0.057581  0.000000      2.000000
 -0.033244  0.019194  0.000000      2.000000
 
 TETIRR: Found     24 inequivalent tetrahedra from       54


--------------------------------------------------------------------------------------------------------




 Dimension of arrays:
   k-points           NKPTS =      5   k-points in BZ     NKDIM =      5   number of bands    NBANDS=    420
   number of dos      NEDOS =    301   number of ions     NIONS =     70
   non local maximal  LDIM  =      6   non local SUM 2l+1 LMDIM =     18
   total plane-waves  NPLWV = ******
   max r-space proj   IRMAX =   8439   max aug-charges    IRDMAX=  19969
   dimension x,y,z NGX =    80 NGY =   80 NGZ =  160
   dimension x,y,z NGXF=   160 NGYF=  160 NGZF=  320
   support grid    NGXF=   160 NGYF=  160 NGZF=  320
   ions per type =              49  15   5   1
   NGX,Y,Z   is equivalent  to a cutoff of  13.26, 13.26, 12.55 a.u.
   NGXF,Y,Z  is equivalent  to a cutoff of  26.53, 26.53, 25.11 a.u.

 SYSTEM =  SQS-NiFe                                
 POSCAR =  POSCAR                                  

 Startparameter for this run:
   NWRITE =      2    write-flag & timer
   PREC   = accura    normal or accurate (medium, high low for compatibility)
   ISTART =      1    job   : 0-new  1-cont  2-samecut
   ICHARG =      1    charge: 1-file 2-atom 10-const
   ISPIN  =      2    spin polarized calculation?
   LNONCOLLINEAR =      F non collinear calculations
   LSORBIT =      F    spin-orbit coupling
   INIWAV =      1    electr: 0-lowe 1-rand  2-diag
   LASPH  =      F    aspherical Exc in radial PAW
   METAGGA=      F    non-selfconsistent MetaGGA calc.

 Electronic Relaxation 1
   ENCUT  =  520.0 eV  38.22 Ry    6.18 a.u.  18.64 18.64 39.40*2*pi/ulx,y,z
   ENINI  =  520.0     initial cutoff
   ENAUG  =  605.4 eV  augmentation charge cutoff
   NELM   =    200;   NELMIN=  2; NELMDL=  0     # of ELM steps 
   EDIFF  = 0.1E-05   stopping-criterion for ELM
   LREAL  =      T    real-space projection
   NLSPLINE    = F    spline interpolate recip. space projectors
   LCOMPAT=      F    compatible to vasp.4.4
   GGA_COMPAT  = T    GGA compatible to vasp.4.4-vasp.4.6
   LMAXPAW     = -100 max onsite density
   LMAXMIX     =    2 max onsite mixed and CHGCAR
   VOSKOWN=      0    Vosko Wilk Nusair interpolation
   ROPT   =   -0.00025  -0.00025  -0.00025  -0.00025
 Ionic relaxation
   EDIFFG = -.2E-01   stopping-criterion for IOM
   NSW    =      0    number of steps for IOM
   NBLOCK =      1;   KBLOCK =      1    inner block; outer block 
   IBRION =     -1    ionic relax: 0-MD 1-quasi-New 2-CG
   NFREE  =      0    steps in history (QN), initial steepest desc. (CG)
   ISIF   =      2    stress and relaxation
   IWAVPR =     10    prediction:  0-non 1-charg 2-wave 3-comb
   ISYM   =      0    0-nonsym 1-usesym 2-fastsym
   LCORR  =      T    Harris-Foulkes like correction to forces

   POTIM  = 0.5000    time-step for ionic-motion
   TEIN   =    0.0    initial temperature
   TEBEG  =    0.0;   TEEND  =   0.0 temperature during run
   SMASS  =  -3.00    Nose mass-parameter (am)
   estimated Nose-frequenzy (Omega)   =  0.10E-29 period in steps =****** mass=  -0.230E-26a.u.
   SCALEE = 1.0000    scale energy and forces
   NPACO  =    256;   APACO  = 16.0  distance and # of slots for P.C.
   PSTRESS=    0.0 pullay stress

  Mass of Ions in am
   POMASS =  58.69 55.85 16.00  1.00
  Ionic Valenz
   ZVAL   =  10.00  8.00  6.00  1.00
  Atomic Wigner-Seitz radii
   RWIGS  =  -1.00 -1.00 -1.00 -1.00
  virtual crystal weights 
   VCA    =   1.00  1.00  1.00  1.00
   NELECT =     641.0000    total number of electrons
   NUPDOWN=      -1.0000    fix difference up-down

 DOS related values:
   EMIN   =  10.00;   EMAX   =-10.00  energy-range for DOS
   EFERMI =   0.00
   ISMEAR =    -5;   SIGMA  =   0.20  broadening in eV -4-tet -1-fermi 0-gaus

 Electronic relaxation 2 (details)
   IALGO  =     68    algorithm
   LDIAG  =      T    sub-space diagonalisation (order eigenvalues)
   LSUBROT=      F    optimize rotation matrix (better conditioning)
   TURBO    =      0    0=normal 1=particle mesh
   IRESTART =      0    0=no restart 2=restart with 2 vectors
   NREBOOT  =      0    no. of reboots
   NMIN     =      0    reboot dimension
   EREF     =   0.00    reference energy to select bands
   IMIX   =      4    mixing-type and parameters
     AMIX     =   0.40;   BMIX     =  1.00
     AMIX_MAG =   1.60;   BMIX_MAG =  1.00
     AMIN     =   0.10
     WC   =   100.;   INIMIX=   1;  MIXPRE=   1;  MAXMIX= -45

 Intra band minimization:
   WEIMIN = 0.0000     energy-eigenvalue tresh-hold
   EBREAK =  0.60E-09  absolut break condition
   DEPER  =   0.30     relativ break condition  

   TIME   =   0.40     timestep for ELM

  volume/ion in A,a.u.               =      26.36       177.85
  Fermi-wavevector in a.u.,A,eV,Ry     =   1.150903  2.174890 18.021959  1.324577
  Thomas-Fermi vector in A             =   2.287564
 
 Write flags
   LWAVE        =      T    write WAVECAR
   LDOWNSAMPLE  =      F    k-point downsampling of WAVECAR
   LCHARG       =      T    write CHGCAR
   LVTOT        =      F    write LOCPOT, total local potential
   LVHAR        =      F    write LOCPOT, Hartree potential only
   LELF         =      F    write electronic localiz. function (ELF)
   LORBIT       =     11    0 simple, 1 ext, 2 COOP (PROOUT), +10 PAW based schemes


 Dipole corrections
   LMONO  =      F    monopole corrections only (constant potential shift)
   LDIPOL =      T    correct potential (dipole corrections)
   IDIPOL =      3    1-x, 2-y, 3-z, 4-all directions 
   EPSILON=  1.0000000 bulk dielectric constant

 Exchange correlation treatment:
   GGA     =    --    GGA type
   LEXCH   =     8    internal setting for exchange type
   VOSKOWN=      0    Vosko Wilk Nusair interpolation
   LHFCALC =     F    Hartree Fock is set to
   LHFONE  =     F    Hartree Fock one center treatment
   AEXX    =    0.0000 exact exchange contribution

 Linear response parameters
   LEPSILON=     F    determine dielectric tensor
   LRPA    =     F    only Hartree local field effects (RPA)
   LNABLA  =     F    use nabla operator in PAW spheres
   LVEL    =     F    velocity operator in full k-point grid
   LINTERFAST=   F  fast interpolation
   KINTER  =     0    interpolate to denser k-point grid
   CSHIFT  =0.1000    complex shift for real part using Kramers Kronig
   OMEGAMAX=  -1.0    maximum frequency
   DEG_THRESHOLD= 0.2000000E-02 threshold for treating states as degnerate
   RTIME   =   -0.100 relaxation time in fs
  (WPLASMAI=    0.000 imaginary part of plasma frequency in eV, 0.658/RTIME)
   DFIELD  = 0.0000000 0.0000000 0.0000000 field for delta impulse in time
 
 Orbital magnetization related:
   ORBITALMAG=     F  switch on orbital magnetization
   LCHIMAG   =     F  perturbation theory with respect to B field
   DQ        =  0.001000  dq finite difference perturbation B field
   LLRAUG    =     F  two centre corrections for induced B field



--------------------------------------------------------------------------------------------------------


 Static calculation
 charge density and potential will be updated during run
 spin polarized calculation
 RMM-DIIS sequential band-by-band and
  variant of blocked Davidson during initial phase
 perform sub-space diagonalisation
    before iterative eigenvector-optimisation
 modified Broyden-mixing scheme, WC =      100.0
 initial mixing is a Kerker type mixing with AMIX =  0.4000 and BMIX =      1.0000
 Hartree-type preconditioning will be used
 using additional bands           99
 real space projection scheme for non local part
 use partial core corrections
 calculate Harris-corrections to forces 
   (improved forces if not selfconsistent)
 use gradient corrections 
 use of overlap-Matrix (Vanderbilt PP)
 Fermi weights with tetrahedron method with Bloechl corrections


--------------------------------------------------------------------------------------------------------


  energy-cutoff  :      520.00
  volume of cell :     1844.87
      direct lattice vectors                 reciprocal lattice vectors
    10.026770000  0.000000000  0.000000000     0.099733015  0.057580883  0.000000000
    -5.013385000  8.683437540  0.000000000     0.000000000  0.115161766  0.000000000
     0.000000000  0.000000000 21.189180000     0.000000000  0.000000000  0.047193898

  length of vectors
    10.026770000 10.026770002 21.189180000     0.115161766  0.115161766  0.047193898


 
 old parameters found on file WAVECAR:
  energy-cutoff  :      520.00
  volume of cell :     1844.87
      direct lattice vectors                 reciprocal lattice vectors
    10.026770000  0.000000000  0.000000000     0.099733015  0.057580883  0.000000000
    -5.013385000  8.683437540  0.000000000     0.000000000  0.115161766  0.000000000
     0.000000000  0.000000000 21.189180000     0.000000000  0.000000000  0.047193898

  length of vectors

 
 k-points in units of 2pi/SCALE and weight: read from INCAR                         
   0.00000000  0.00000000  0.00000000       0.111
   0.03324434  0.01919363  0.00000000       0.222
   0.00000000  0.03838726  0.00000000       0.222
   0.03324434  0.05758088  0.00000000       0.222
  -0.03324434  0.01919363  0.00000000       0.222
 
 k-points in reciprocal lattice and weights: read from INCAR                         
   0.00000000  0.00000000  0.00000000       0.111
   0.33333333  0.00000000  0.00000000       0.222
   0.00000000  0.33333333  0.00000000       0.222
   0.33333333  0.33333333  0.00000000       0.222
  -0.33333333  0.33333333  0.00000000       0.222
 
 position of ions in fractional coordinates (direct lattice) 
   0.99851852  0.99959365  0.28742433
   0.24842762  0.00022604  0.28500865
   0.49842892  0.99876059  0.28706395
   0.74782907  0.99768602  0.28642644
   0.99871924  0.24776725  0.28706706
   0.25096859  0.25156814  0.28730989
   0.08288200  0.16633200  0.09567600
   0.07873989  0.15936390  0.38463063
   0.49878036  0.24924371  0.28647167
   0.33293900  0.16685800  0.09574200
   0.33046378  0.16485405  0.37865449
   0.74998557  0.25152885  0.28822493
   0.58230700  0.16720100  0.09670300
   0.57749776  0.15716650  0.38316230
   0.83403200  0.16672400  0.09645100
   0.83103315  0.16270410  0.37908522
   0.66558100  0.08305500  0.19258300
   0.91639700  0.08203100  0.19204900
   0.00143502  0.49989083  0.28626947
   0.08092200  0.41609700  0.09594800
   0.07891662  0.41546014  0.38368591
   0.16611800  0.33395200  0.19207500
   0.75212340  0.50205142  0.28793602
   0.58357300  0.41617200  0.09593300
   0.57616917  0.41402715  0.38496290
   0.00004507  0.75042458  0.28655876
   0.24879629  0.74884812  0.28498446
   0.08375800  0.66810400  0.09479700
   0.08439557  0.66231043  0.38178876
   0.50051539  0.74857485  0.28654289
   0.33297400  0.66727700  0.09438800
   0.33113005  0.66362828  0.37839256
   0.75184383  0.74744827  0.28753720
   0.58298100  0.66668200  0.09450900
   0.57605041  0.65915369  0.38465865
   0.41661000  0.58200200  0.19081700
   0.83395900  0.66770600  0.09497900
   0.83193652  0.66344375  0.38532987
   0.91708300  0.58323900  0.19079400
   0.08291700  0.91685800  0.09518600
   0.08299445  0.91865092  0.38274877
   0.33420600  0.91705400  0.09538200
   0.33685893  0.91709377  0.38238213
   0.16670900  0.83524200  0.19136500
   0.41703500  0.83214900  0.19205900
   0.83233100  0.91715000  0.09633700
   0.83619500  0.91808644  0.38404879
   0.66623900  0.83337000  0.19234100
   0.91705900  0.83319500  0.19216200
   0.16168500  0.08211500  0.19130600
   0.41607500  0.07807100  0.19177300
   0.24847831  0.49770106  0.28747502
   0.50571855  0.50185969  0.28942692
   0.33134100  0.41714300  0.09577600
   0.33500228  0.41456808  0.38712690
   0.41638400  0.33144300  0.19252200
   0.83354800  0.41839000  0.09448800
   0.83528266  0.41459369  0.38422909
   0.66732400  0.33240600  0.19435500
   0.91446400  0.32695500  0.19396500
   0.16914200  0.58833400  0.18947800
   0.66961600  0.58928900  0.18986000
   0.58310400  0.91651500  0.09583500
   0.57948112  0.91634506  0.38190519
   0.66542375  0.32564532  0.43553919
   0.16913959  0.83266963  0.43431944
   0.16188297  0.32968293  0.43727390
   0.66246770  0.83625428  0.43524218
   0.84506298  0.67296976  0.47045247
   0.95164106  0.72032598  0.48546100
 
 position of ions in cartesian coordinates  (Angst):
   5.00056774  8.67990899  6.09028584
   2.48979344  0.00196278  6.03909962
  -0.00953921  8.67267516  6.08264964
   2.49652596  8.66334421  6.06914147
   8.77177552  2.15147146  6.08271554
   1.25519645  2.18447619  6.08786091
  -0.00284760  1.44433353  2.02729599
  -0.00944579  1.38382646  8.15000771
   3.75160131  2.16429215  6.07009973
   2.50177938  1.44890102  2.02869447
   2.48700755  1.43149980  8.02337809
   6.25892186  2.18413503  6.10724982
   5.00041537  1.45187944  2.04905727
   5.00250106  1.36474551  8.11889493
   7.52679544  1.44773744  2.04371760
   7.51687996  1.41283092  8.03250489
   6.25724091  0.72120290  4.08067585
   8.77724896  0.71231106  4.06936083
  -2.49175651  4.34077076  6.06581525
  -1.27466818  3.61315231  2.03305944
  -1.29158285  3.60762214  8.12998989
  -0.00860297  2.89985133  4.06991175
   5.02439128  4.35953218  6.10112822
   3.76492179  3.61380357  2.03274160
   3.70143831  3.59517886  8.15704828
  -3.76171542  6.51626494  6.07194517
  -1.25964076  6.50257587  6.03858695
  -2.50964037  5.80143935  2.00867070
  -2.47420215  5.75113123  8.08979074
   1.26565881  6.50020294  6.07160891
  -0.00666279  5.79425815  2.00000432
  -0.00685922  5.76257468  8.01782802
   3.79131920  6.49042034  6.09267739
   2.50308286  5.78909151  2.00256821
   2.47133369  5.72371994  8.15060128
   1.25945255  5.05377802  4.04325576
   5.01444784  5.79798335  2.01252713
   5.01553718  5.76097235  8.16482403
   6.27137866  5.06451943  4.04276841
  -3.76517246  7.96147918  2.01691329
  -3.77338447  7.97704792  8.11013248
  -1.24653807  7.96318113  2.02106637
  -1.22013711  7.96352649  8.10236374
  -2.51583691  7.25277174  4.05486743
   0.00963071  7.22591387  4.06957272
   3.74756545  7.96401474  2.04130203
   3.78161414  7.97214626  8.13767893
   2.50222056  7.23651634  4.07554807
   5.01801235  7.23499674  4.07175521
   1.20950420  0.71304047  4.05361727
   3.78048835  0.67792465  4.06351262
  -0.00373217  4.32175608  6.09135994
   2.55470776  4.35786728  6.13271920
   1.23098154  3.62223519  2.02941490
   1.28060138  3.59987607  8.20290147
   2.51333524  2.87806459  4.07938331
   6.26024393  3.63306343  2.00212324
   6.29666934  3.60009841  8.14149928
   5.02462501  2.88642674  4.11822308
   7.52996891  2.83909332  4.10995930
  -1.25359692  5.10876154  4.01488345
   3.75975299  5.11705422  4.02297771
   1.25180714  7.95850076  2.03066507
   1.21633327  7.95702513  8.09225778
   5.03946549  2.82772081  9.22871835
  -2.47856964  7.23043475  9.20287271
  -0.02966420  2.86278115  9.26547527
   2.44994663  7.26156181  9.22242491
   5.09939567  5.84369090  9.96850196
   5.93061451  6.25490569 10.28652042
 


--------------------------------------------------------------------------------------------------------


 k-point  1 :   0.0000 0.0000 0.0000  plane waves:   49741
 k-point  2 :   0.3333 0.0000 0.0000  plane waves:   49680
 k-point  3 :   0.0000 0.3333 0.0000  plane waves:   49680
 k-point  4 :   0.3333 0.3333 0.0000  plane waves:   49662
 k-point  5 :  -0.3333 0.3333 0.0000  plane waves:   49680

 maximum and minimum number of plane-waves per node :      2099     2053

 maximum number of plane-waves:     49741
 maximum index in each direction: 
   IXMAX=   18   IYMAX=   18   IZMAX=   39
   IXMIN=  -18   IYMIN=  -18   IZMIN=  -39


 real space projection operators:
  total allocation   :      65322.00 KBytes
  max/ min on nodes  :       3295.28       2406.45


 parallel 3D FFT for wavefunctions:
    minimum data exchange during FFTs selected (reduces bandwidth)
 parallel 3D FFT for charge:
    minimum data exchange during FFTs selected (reduces bandwidth)


 total amount of memory used by VASP MPI-rank0   117171. kBytes
=======================================================================

   base      :      30000. kBytes
   nonlr-proj:      14036. kBytes
   fftplans  :       6402. kBytes
   grid      :      18928. kBytes
   one-center:         93. kBytes
   wavefun   :      47712. kBytes
 
     INWAV:  cpu time   11.4914: real time   11.7256
 Broyden mixing: mesh for mixing (old mesh)
   NGX = 37   NGY = 37   NGZ = 79
  (NGX  =160   NGY  =160   NGZ  =320)
  gives a total of 108151 points

 initial charge density was supplied:
 number of electron     641.0000049 magnetization      73.7531359
 keeping initial charge density in first step


--------------------------------------------------------------------------------------------------------


 Maximum index for non-local projection operator          764
 Maximum index for augmentation-charges         1117 (set IRDMAX)


--------------------------------------------------------------------------------------------------------


 First call to EWALD:  gamma=   0.145
 Maximum number of real-space cells 4x 4x 2
 Maximum number of reciprocal cells 2x 2x 4

    FEWALD:  cpu time    0.0078: real time    0.0077


--------------------------------------- Iteration      1(   1)  ---------------------------------------


    POTLOK:  cpu time    0.4185: real time    0.4250
    SETDIJ:  cpu time    0.0248: real time    0.0248
     EDDAV:  cpu time   40.8668: real time   40.8907
 BZINTS: Fermi energy:  0.205215;641.000000 electrons
         Band energy:***********;  BLOECHL correction: -0.039714
       DOS:  cpu time    0.0554: real time    0.0554
    CHARGE:  cpu time    1.0808: real time    1.0809
    MIXING:  cpu time    0.0061: real time    0.0061
    --------------------------------------------
      LOOP:  cpu time   42.4525: real time   42.4831

 eigenvalue-minimisations  :  8769
 total energy-change (2. order) :-0.4128364E+03  (-0.7160998E-02)
 number of electron     641.0000049 magnetization      73.7579758
 augmentation part      367.8234617 magnetization      63.3807332

 DIPCOR: dipole corrections for dipol
 direction  3 min pos   248,
 dipolmoment           0.000000      0.000000      0.435712 electrons x Angstroem
 Tr[quadrupol]    -10404.444274

 energy correction for charged system         0.000000 eV
 dipol+quadrupol energy correction           -0.009311 eV
 added-field ion interaction         12.738885 eV  (added to PSCEN)


 Broyden mixing:
  rms(total) = 0.10563E+00    rms(broyden)= 0.10547E+00
  rms(prec ) = 0.10917E+00
  weight for this iteration     100.00

 Free energy of the ion-electron system (eV)
  ---------------------------------------------------
  alpha Z        PSCENC =      1372.32745311
  Ewald energy   TEWEN  =    221787.86320486
  -Hartree energ DENC   =   -284135.03104596
  -exchange      EXHF   =         0.00000000
  -V(xc)+E(xc)   XCENC  =      1712.15205419
  PAW double counting   =     68567.67056984   -72074.10341572
  entropy T*S    EENTRO =         0.00000000
  eigenvalues    EBANDS =     -1538.55738047
  atomic energy  EATOM  =     63894.84216477
  Solvation  Ediel_sol  =         0.00000000
  ---------------------------------------------------
  free energy    TOTEN  =      -412.83639537 eV

  energy without entropy =     -412.83639537  energy(sigma->0) =     -412.83639537


--------------------------------------------------------------------------------------------------------




--------------------------------------- Iteration      1(   2)  ---------------------------------------


    POTLOK:  cpu time    0.4183: real time    0.4304
    SETDIJ:  cpu time    0.0253: real time    0.0253
    EDDIAG:  cpu time    5.7614: real time    5.7634
  RMM-DIIS:  cpu time   20.7837: real time   20.7947
    ORTHCH:  cpu time    1.6345: real time    1.6347
 BZINTS: Fermi energy:  0.205889;641.000000 electrons
         Band energy:***********;  BLOECHL correction: -0.040941
       DOS:  cpu time    0.0544: real time    0.0544
    CHARGE:  cpu time    1.0760: real time    1.0763
    MIXING:  cpu time    0.0062: real time    0.0062
    --------------------------------------------
      LOOP:  cpu time   29.7598: real time   29.7854

 eigenvalue-minimisations  :  8601
 total energy-change (2. order) :-0.7788064E-02  (-0.1252039E-01)
 number of electron     641.0000049 magnetization      73.7605557
 augmentation part      367.9566993 magnetization      63.3395417

 DIPCOR: dipole corrections for dipol
 direction  3 min pos   247,
 dipolmoment           0.000000      0.000000      0.411988 electrons x Angstroem
 Tr[quadrupol]    -10404.422102

 energy correction for charged system         0.000000 eV
 dipol+quadrupol energy correction           -0.008324 eV
 added-field ion interaction         10.330015 eV  (added to PSCEN)


 Broyden mixing:
  rms(total) = 0.52407E+00    rms(broyden)= 0.52400E+00
  rms(prec ) = 0.62391E+00
  weight for this iteration     100.00

 eigenvalues of (default mixing * dielectric matrix)
  average eigenvalue GAMMA=   0.1230
  0.1230

 Free energy of the ion-electron system (eV)
  ---------------------------------------------------
  alpha Z        PSCENC =      1369.91956965
  Ewald energy   TEWEN  =    221787.86320486
  -Hartree energ DENC   =   -284135.45681097
  -exchange      EXHF   =         0.00000000
  -V(xc)+E(xc)   XCENC  =      1712.18166954
  PAW double counting   =     68567.13612448   -72073.44446132
  entropy T*S    EENTRO =         0.00000000
  eigenvalues    EBANDS =     -1535.88564443
  atomic energy  EATOM  =     63894.84216477
  Solvation  Ediel_sol  =         0.00000000
  ---------------------------------------------------
  free energy    TOTEN  =      -412.84418343 eV

  energy without entropy =     -412.84418343  energy(sigma->0) =     -412.84418343


--------------------------------------------------------------------------------------------------------




--------------------------------------- Iteration      1(   3)  ---------------------------------------


    POTLOK:  cpu time    0.4199: real time    0.4305
    SETDIJ:  cpu time    0.0250: real time    0.0250
    EDDIAG:  cpu time    5.7678: real time    5.7703
  RMM-DIIS:  cpu time   21.1718: real time   21.1869
    ORTHCH:  cpu time    1.6365: real time    1.6368
 BZINTS: Fermi energy:  0.210594;641.000000 electrons
         Band energy:***********;  BLOECHL correction: -0.040420
       DOS:  cpu time    0.0552: real time    0.0552
    CHARGE:  cpu time    1.0769: real time    1.0770
    MIXING:  cpu time    0.0064: real time    0.0064
    --------------------------------------------
      LOOP:  cpu time   30.1594: real time   30.1880

 eigenvalue-minimisations  :  8772
 total energy-change (2. order) : 0.5698238E-01  (-0.4819778E-02)
 number of electron     641.0000049 magnetization      73.7610849
 augmentation part      367.8685619 magnetization      63.3988053

 DIPCOR: dipole corrections for dipol
 direction  3 min pos   245,
 dipolmoment           0.000000      0.000000      0.475581 electrons x Angstroem
 Tr[quadrupol]    -10404.301219

 energy correction for charged system         0.000000 eV
 dipol+quadrupol energy correction           -0.011093 eV
 added-field ion interaction          7.964536 eV  (added to PSCEN)


 Broyden mixing:
  rms(total) = 0.34214E+00    rms(broyden)= 0.34202E+00
  rms(prec ) = 0.45400E+00
  weight for this iteration     100.00

 eigenvalues of (default mixing * dielectric matrix)
  average eigenvalue GAMMA=   0.1864
  0.3087  0.0640

 Free energy of the ion-electron system (eV)
  ---------------------------------------------------
  alpha Z        PSCENC =      1367.55132230
  Ewald energy   TEWEN  =    221787.86320486
  -Hartree energ DENC   =   -284134.75946598
  -exchange      EXHF   =         0.00000000
  -V(xc)+E(xc)   XCENC  =      1712.24065371
  PAW double counting   =     68568.20388648   -72074.59287171
  entropy T*S    EENTRO =         0.00000000
  eigenvalues    EBANDS =     -1534.13609548
  atomic energy  EATOM  =     63894.84216477
  Solvation  Ediel_sol  =         0.00000000
  ---------------------------------------------------
  free energy    TOTEN  =      -412.78720105 eV

  energy without entropy =     -412.78720105  energy(sigma->0) =     -412.78720105


--------------------------------------------------------------------------------------------------------




--------------------------------------- Iteration      1(   4)  ---------------------------------------


    POTLOK:  cpu time    0.4203: real time    0.4306
    SETDIJ:  cpu time    0.0250: real time    0.0250
    EDDIAG:  cpu time    5.7557: real time    5.7579
  RMM-DIIS:  cpu time   21.1691: real time   21.1798
    ORTHCH:  cpu time    1.6384: real time    1.6386
 BZINTS: Fermi energy:  0.221251;641.000000 electrons
         Band energy:***********;  BLOECHL correction: -0.041528
       DOS:  cpu time    0.0508: real time    0.0507
    CHARGE:  cpu time    1.0784: real time    1.0788
    MIXING:  cpu time    0.0064: real time    0.0064
    --------------------------------------------
      LOOP:  cpu time   30.1440: real time   30.1679

 eigenvalue-minimisations  :  8789
 total energy-change (2. order) :-0.4310782E-02  (-0.3516143E-02)
 number of electron     641.0000049 magnetization      73.7703002
 augmentation part      367.8718201 magnetization      63.3358402

 DIPCOR: dipole corrections for dipol
 direction  3 min pos   242,
 dipolmoment           0.000000      0.000000      0.407818 electrons x Angstroem
 Tr[quadrupol]    -10404.039206

 energy correction for charged system         0.000000 eV
 dipol+quadrupol energy correction           -0.008157 eV
 added-field ion interaction          1.736088 eV  (added to PSCEN)


 Broyden mixing:
  rms(total) = 0.33674E+00    rms(broyden)= 0.33669E+00
  rms(prec ) = 0.42903E+00
  weight for this iteration     100.00

 eigenvalues of (default mixing * dielectric matrix)
  average eigenvalue GAMMA=   0.2428
  0.5791  0.1044  0.0449

 Free energy of the ion-electron system (eV)
  ---------------------------------------------------
  alpha Z        PSCENC =      1361.32580991
  Ewald energy   TEWEN  =    221787.86320486
  -Hartree energ DENC   =   -284132.89993763
  -exchange      EXHF   =         0.00000000
  -V(xc)+E(xc)   XCENC  =      1712.25707066
  PAW double counting   =     68568.53503370   -72075.09870095
  entropy T*S    EENTRO =         0.00000000
  eigenvalues    EBANDS =     -1529.61615715
  atomic energy  EATOM  =     63894.84216477
  Solvation  Ediel_sol  =         0.00000000
  ---------------------------------------------------
  free energy    TOTEN  =      -412.79151183 eV

  energy without entropy =     -412.79151183  energy(sigma->0) =     -412.79151183


--------------------------------------------------------------------------------------------------------




--------------------------------------- Iteration      1(   5)  ---------------------------------------


    POTLOK:  cpu time    0.4220: real time    0.4330
    SETDIJ:  cpu time    0.0250: real time    0.0250
    EDDIAG:  cpu time    5.7595: real time    5.7613
  RMM-DIIS:  cpu time   20.8196: real time   20.8311
    ORTHCH:  cpu time    1.6380: real time    1.6382
 BZINTS: Fermi energy:  0.228942;641.000000 electrons
         Band energy:***********;  BLOECHL correction: -0.042658
       DOS:  cpu time    0.0515: real time    0.0515
    CHARGE:  cpu time    1.0763: real time    1.0765
    MIXING:  cpu time    0.0066: real time    0.0065
    --------------------------------------------
      LOOP:  cpu time   29.7985: real time   29.8229

 eigenvalue-minimisations  :  8647
 total energy-change (2. order) : 0.3312492E-01  (-0.1559975E-02)
 number of electron     641.0000049 magnetization      73.7762181
 augmentation part      367.8189457 magnetization      63.3838307

 DIPCOR: dipole corrections for dipol
 direction  3 min pos   240,
 dipolmoment           0.000000      0.000000      0.429411 electrons x Angstroem
 Tr[quadrupol]    -10403.975490

 energy correction for charged system         0.000000 eV
 dipol+quadrupol energy correction           -0.009043 eV
 added-field ion interaction         -1.747538 eV  (added to PSCEN)


 Broyden mixing:
  rms(total) = 0.15099E+00    rms(broyden)= 0.15097E+00
  rms(prec ) = 0.16984E+00
  weight for this iteration     100.00

 eigenvalues of (default mixing * dielectric matrix)
  average eigenvalue GAMMA=   0.2230
  0.6176  0.0473  0.1135  0.1135

 Free energy of the ion-electron system (eV)
  ---------------------------------------------------
  alpha Z        PSCENC =      1357.84129730
  Ewald energy   TEWEN  =    221787.86320486
  -Hartree energ DENC   =   -284134.88467194
  -exchange      EXHF   =         0.00000000
  -V(xc)+E(xc)   XCENC  =      1712.27227141
  PAW double counting   =     68569.67380979   -72076.42210395
  entropy T*S    EENTRO =         0.00000000
  eigenvalues    EBANDS =     -1523.94435914
  atomic energy  EATOM  =     63894.84216477
  Solvation  Ediel_sol  =         0.00000000
  ---------------------------------------------------
  free energy    TOTEN  =      -412.75838691 eV

  energy without entropy =     -412.75838691  energy(sigma->0) =     -412.75838691


--------------------------------------------------------------------------------------------------------




--------------------------------------- Iteration      1(   6)  ---------------------------------------


    POTLOK:  cpu time    0.4174: real time    0.4293
    SETDIJ:  cpu time    0.0249: real time    0.0249
    EDDIAG:  cpu time    5.7598: real time    5.7620
  RMM-DIIS:  cpu time   21.0342: real time   21.0469
    ORTHCH:  cpu time    1.6383: real time    1.6385
 BZINTS: Fermi energy:  0.230682;641.000000 electrons
         Band energy:***********;  BLOECHL correction: -0.042076
       DOS:  cpu time    0.0539: real time    0.0539
    CHARGE:  cpu time    1.0772: real time    1.0774
    MIXING:  cpu time    0.0068: real time    0.0068
    --------------------------------------------
      LOOP:  cpu time   30.0125: real time   30.0398

 eigenvalue-minimisations  :  8722
 total energy-change (2. order) : 0.7720740E-02  (-0.5966065E-03)
 number of electron     641.0000049 magnetization      73.7845554
 augmentation part      367.8395771 magnetization      63.3990502

 DIPCOR: dipole corrections for dipol
 direction  3 min pos   239,
 dipolmoment           0.000000      0.000000      0.429588 electrons x Angstroem
 Tr[quadrupol]    -10403.914398

 energy correction for charged system         0.000000 eV
 dipol+quadrupol energy correction           -0.009051 eV
 added-field ion interaction         -3.536770 eV  (added to PSCEN)


 Broyden mixing:
  rms(total) = 0.70847E-01    rms(broyden)= 0.70831E-01
  rms(prec ) = 0.86388E-01
  weight for this iteration     100.00

 eigenvalues of (default mixing * dielectric matrix)
  average eigenvalue GAMMA=   0.2496
  0.4811  0.4811  0.0465  0.1432  0.0961

 Free energy of the ion-electron system (eV)
  ---------------------------------------------------
  alpha Z        PSCENC =      1356.05205853
  Ewald energy   TEWEN  =    221787.86320486
  -Hartree energ DENC   =   -284134.38804767
  -exchange      EXHF   =         0.00000000
  -V(xc)+E(xc)   XCENC  =      1712.25781673
  PAW double counting   =     68569.46755759   -72076.15483484
  entropy T*S    EENTRO =         0.00000000
  eigenvalues    EBANDS =     -1522.69058615
  atomic energy  EATOM  =     63894.84216477
  Solvation  Ediel_sol  =         0.00000000
  ---------------------------------------------------
  free energy    TOTEN  =      -412.75066617 eV

  energy without entropy =     -412.75066617  energy(sigma->0) =     -412.75066617


--------------------------------------------------------------------------------------------------------




--------------------------------------- Iteration      1(   7)  ---------------------------------------


    POTLOK:  cpu time    0.4218: real time    0.4340
    SETDIJ:  cpu time    0.0268: real time    0.0268
    EDDIAG:  cpu time    5.7895: real time    5.7913
  RMM-DIIS:  cpu time   21.1107: real time   21.1225
    ORTHCH:  cpu time    1.6340: real time    1.6342
 BZINTS: Fermi energy:  0.231990;641.000000 electrons
         Band energy:***********;  BLOECHL correction: -0.042223
       DOS:  cpu time    0.0531: real time    0.0531
    CHARGE:  cpu time    1.0720: real time    1.0721
    MIXING:  cpu time    0.0068: real time    0.0068
    --------------------------------------------
      LOOP:  cpu time   30.1146: real time   30.1406

 eigenvalue-minimisations  :  8749
 total energy-change (2. order) : 0.2875264E-03  (-0.2144555E-03)
 number of electron     641.0000049 magnetization      73.8006948
 augmentation part      367.8616751 magnetization      63.4107136

 DIPCOR: dipole corrections for dipol
 direction  3 min pos   238,
 dipolmoment           0.000000      0.000000      0.431442 electrons x Angstroem
 Tr[quadrupol]    -10403.846159

 energy correction for charged system         0.000000 eV
 dipol+quadrupol energy correction           -0.009129 eV
 added-field ion interaction         -5.348265 eV  (added to PSCEN)


 Broyden mixing:
  rms(total) = 0.69638E-01    rms(broyden)= 0.69635E-01
  rms(prec ) = 0.81101E-01
  weight for this iteration     100.00

 eigenvalues of (default mixing * dielectric matrix)
  average eigenvalue GAMMA=   0.3104
  0.7237  0.7237  0.0466  0.1618  0.1033  0.1033

 Free energy of the ion-electron system (eV)
  ---------------------------------------------------
  alpha Z        PSCENC =      1354.24048492
  Ewald energy   TEWEN  =    221787.86320486
  -Hartree energ DENC   =   -284133.69455231
  -exchange      EXHF   =         0.00000000
  -V(xc)+E(xc)   XCENC  =      1712.25046979
  PAW double counting   =     68569.20980338   -72075.81105450
  entropy T*S    EENTRO =         0.00000000
  eigenvalues    EBANDS =     -1521.65089955
  atomic energy  EATOM  =     63894.84216477
  Solvation  Ediel_sol  =         0.00000000
  ---------------------------------------------------
  free energy    TOTEN  =      -412.75037865 eV

  energy without entropy =     -412.75037865  energy(sigma->0) =     -412.75037865


--------------------------------------------------------------------------------------------------------




--------------------------------------- Iteration      1(   8)  ---------------------------------------


    POTLOK:  cpu time    0.4192: real time    0.4316
    SETDIJ:  cpu time    0.0269: real time    0.0269
    EDDIAG:  cpu time    5.7891: real time    5.7910
  RMM-DIIS:  cpu time   20.9433: real time   20.9545
    ORTHCH:  cpu time    1.6357: real time    1.6359
 BZINTS: Fermi energy:  0.226585;641.000000 electrons
         Band energy:***********;  BLOECHL correction: -0.042408
       DOS:  cpu time    0.0532: real time    0.0533
    CHARGE:  cpu time    1.0721: real time    1.0722
    MIXING:  cpu time    0.0072: real time    0.0072
    --------------------------------------------
      LOOP:  cpu time   29.9467: real time   29.9725

 eigenvalue-minimisations  :  8697
 total energy-change (2. order) : 0.2126446E-02  (-0.1503164E-03)
 number of electron     641.0000049 magnetization      73.8116653
 augmentation part      367.8565060 magnetization      63.4396315

 DIPCOR: dipole corrections for dipol
 direction  3 min pos   240,
 dipolmoment           0.000000      0.000000      0.435897 electrons x Angstroem
 Tr[quadrupol]    -10403.956770

 energy correction for charged system         0.000000 eV
 dipol+quadrupol energy correction           -0.009319 eV
 added-field ion interaction         -1.773935 eV  (added to PSCEN)


 Broyden mixing:
  rms(total) = 0.45139E-01    rms(broyden)= 0.45131E-01
  rms(prec ) = 0.49071E-01
  weight for this iteration     100.00

 eigenvalues of (default mixing * dielectric matrix)
  average eigenvalue GAMMA=   0.3351
  0.8312  0.8312  0.2961  0.0466  0.1354  0.1110  0.0938

 Free energy of the ion-electron system (eV)
  ---------------------------------------------------
  alpha Z        PSCENC =      1357.81462543
  Ewald energy   TEWEN  =    221787.86320486
  -Hartree energ DENC   =   -284133.61742483
  -exchange      EXHF   =         0.00000000
  -V(xc)+E(xc)   XCENC  =      1712.26925705
  PAW double counting   =     68569.55172219   -72076.14822568
  entropy T*S    EENTRO =         0.00000000
  eigenvalues    EBANDS =     -1525.32357598
  atomic energy  EATOM  =     63894.84216477
  Solvation  Ediel_sol  =         0.00000000
  ---------------------------------------------------
  free energy    TOTEN  =      -412.74825220 eV

  energy without entropy =     -412.74825220  energy(sigma->0) =     -412.74825220


--------------------------------------------------------------------------------------------------------




--------------------------------------- Iteration      1(   9)  ---------------------------------------


    POTLOK:  cpu time    0.4205: real time    0.4326
    SETDIJ:  cpu time    0.0268: real time    0.0268
    EDDIAG:  cpu time    5.7942: real time    5.7964
  RMM-DIIS:  cpu time   21.0343: real time   21.0453
    ORTHCH:  cpu time    1.6332: real time    1.6334
 BZINTS: Fermi energy:  0.224017;641.000000 electrons
         Band energy:***********;  BLOECHL correction: -0.042575
       DOS:  cpu time    0.0537: real time    0.0537
    CHARGE:  cpu time    1.0712: real time    1.0717
    MIXING:  cpu time    0.0076: real time    0.0076
    --------------------------------------------
      LOOP:  cpu time   30.0415: real time   30.0675

 eigenvalue-minimisations  :  8706
 total energy-change (2. order) : 0.3300710E-03  (-0.1309936E-03)
 number of electron     641.0000049 magnetization      73.8343567
 augmentation part      367.8530988 magnetization      63.4632116

 DIPCOR: dipole corrections for dipol
 direction  3 min pos   241,
 dipolmoment           0.000000      0.000000      0.435709 electrons x Angstroem
 Tr[quadrupol]    -10404.014556

 energy correction for charged system         0.000000 eV
 dipol+quadrupol energy correction           -0.009311 eV
 added-field ion interaction          0.040824 eV  (added to PSCEN)


 Broyden mixing:
  rms(total) = 0.41115E-01    rms(broyden)= 0.41112E-01
  rms(prec ) = 0.44506E-01
  weight for this iteration     100.00

 eigenvalues of (default mixing * dielectric matrix)
  average eigenvalue GAMMA=   0.4090
  1.1021  1.1021  0.5526  0.0466  0.1516  0.1243  0.0991  0.0937

 Free energy of the ion-electron system (eV)
  ---------------------------------------------------
  alpha Z        PSCENC =      1359.62939218
  Ewald energy   TEWEN  =    221787.86320486
  -Hartree energ DENC   =   -284133.65491091
  -exchange      EXHF   =         0.00000000
  -V(xc)+E(xc)   XCENC  =      1712.27778793
  PAW double counting   =     68569.86919616   -72076.50142407
  entropy T*S    EENTRO =         0.00000000
  eigenvalues    EBANDS =     -1527.07333304
  atomic energy  EATOM  =     63894.84216477
  Solvation  Ediel_sol  =         0.00000000
  ---------------------------------------------------
  free energy    TOTEN  =      -412.74792213 eV

  energy without entropy =     -412.74792213  energy(sigma->0) =     -412.74792213


--------------------------------------------------------------------------------------------------------




--------------------------------------- Iteration      1(  10)  ---------------------------------------


    POTLOK:  cpu time    0.4190: real time    0.4295
    SETDIJ:  cpu time    0.0268: real time    0.0268
    EDDIAG:  cpu time    5.7916: real time    5.7936
  RMM-DIIS:  cpu time   20.9505: real time   20.9617
    ORTHCH:  cpu time    1.6376: real time    1.6378
 BZINTS: Fermi energy:  0.224523;641.000000 electrons
         Band energy:***********;  BLOECHL correction: -0.042983
       DOS:  cpu time    0.0531: real time    0.0531
    CHARGE:  cpu time    1.0709: real time    1.0711
    MIXING:  cpu time    0.0076: real time    0.0076
    --------------------------------------------
      LOOP:  cpu time   29.9579: real time   29.9813

 eigenvalue-minimisations  :  8688
 total energy-change (2. order) :-0.2716618E-03  (-0.9874489E-04)
 number of electron     641.0000049 magnetization      73.8478524
 augmentation part      367.8458922 magnetization      63.4750369

 DIPCOR: dipole corrections for dipol
 direction  3 min pos   241,
 dipolmoment           0.000000      0.000000      0.433732 electrons x Angstroem
 Tr[quadrupol]    -10404.016639

 energy correction for charged system         0.000000 eV
 dipol+quadrupol energy correction           -0.009226 eV
 added-field ion interaction          0.040639 eV  (added to PSCEN)


 Broyden mixing:
  rms(total) = 0.41082E-01    rms(broyden)= 0.41078E-01
  rms(prec ) = 0.45160E-01
  weight for this iteration     100.00

 eigenvalues of (default mixing * dielectric matrix)
  average eigenvalue GAMMA=   0.4100
  1.2187  1.2187  0.5904  0.0466  0.1582  0.1504  0.1137  0.1008  0.0922

 Free energy of the ion-electron system (eV)
  ---------------------------------------------------
  alpha Z        PSCENC =      1359.62929128
  Ewald energy   TEWEN  =    221787.86320486
  -Hartree energ DENC   =   -284133.75673550
  -exchange      EXHF   =         0.00000000
  -V(xc)+E(xc)   XCENC  =      1712.28132122
  PAW double counting   =     68570.48404370   -72077.20703853
  entropy T*S    EENTRO =         0.00000000
  eigenvalues    EBANDS =     -1526.88444559
  atomic energy  EATOM  =     63894.84216477
  Solvation  Ediel_sol  =         0.00000000
  ---------------------------------------------------
  free energy    TOTEN  =      -412.74819379 eV

  energy without entropy =     -412.74819379  energy(sigma->0) =     -412.74819379


--------------------------------------------------------------------------------------------------------




--------------------------------------- Iteration      1(  11)  ---------------------------------------


    POTLOK:  cpu time    0.4293: real time    0.4301
    SETDIJ:  cpu time    0.0267: real time    0.0268
    EDDIAG:  cpu time    5.7916: real time    5.7934
  RMM-DIIS:  cpu time   21.1731: real time   21.1847
    ORTHCH:  cpu time    1.6325: real time    1.6327
 BZINTS: Fermi energy:  0.224830;641.000000 electrons
         Band energy:***********;  BLOECHL correction: -0.042931
       DOS:  cpu time    0.0520: real time    0.0520
    CHARGE:  cpu time    1.0720: real time    1.0721
    MIXING:  cpu time    0.0076: real time    0.0076
    --------------------------------------------
      LOOP:  cpu time   30.1841: real time   30.1993

 eigenvalue-minimisations  :  8778
 total energy-change (2. order) : 0.2268868E-03  (-0.6283108E-04)
 number of electron     641.0000049 magnetization      73.8630536
 augmentation part      367.8416504 magnetization      63.4889878

 DIPCOR: dipole corrections for dipol
 direction  3 min pos   241,
 dipolmoment           0.000000      0.000000      0.432322 electrons x Angstroem
 Tr[quadrupol]    -10404.017316

 energy correction for charged system         0.000000 eV
 dipol+quadrupol energy correction           -0.009166 eV
 added-field ion interaction          0.040507 eV  (added to PSCEN)


 Broyden mixing:
  rms(total) = 0.22835E-01    rms(broyden)= 0.22831E-01
  rms(prec ) = 0.27185E-01
  weight for this iteration     100.00

 eigenvalues of (default mixing * dielectric matrix)
  average eigenvalue GAMMA=   0.4211
  1.3082  1.3082  0.5892  0.3711  0.0466  0.1628  0.1274  0.1089  0.0971  0.0913

 Free energy of the ion-electron system (eV)
  ---------------------------------------------------
  alpha Z        PSCENC =      1359.62921903
  Ewald energy   TEWEN  =    221787.86320486
  -Hartree energ DENC   =   -284133.76960997
  -exchange      EXHF   =         0.00000000
  -V(xc)+E(xc)   XCENC  =      1712.28135391
  PAW double counting   =     68570.74276998   -72077.49343335
  entropy T*S    EENTRO =         0.00000000
  eigenvalues    EBANDS =     -1526.84363614
  atomic energy  EATOM  =     63894.84216477
  Solvation  Ediel_sol  =         0.00000000
  ---------------------------------------------------
  free energy    TOTEN  =      -412.74796690 eV

  energy without entropy =     -412.74796690  energy(sigma->0) =     -412.74796690


--------------------------------------------------------------------------------------------------------




--------------------------------------- Iteration      1(  12)  ---------------------------------------


    POTLOK:  cpu time    0.4217: real time    0.4338
    SETDIJ:  cpu time    0.0249: real time    0.0249
    EDDIAG:  cpu time    5.7739: real time    5.7765
  RMM-DIIS:  cpu time   21.0346: real time   21.0466
    ORTHCH:  cpu time    1.6407: real time    1.6409
 BZINTS: Fermi energy:  0.224379;641.000000 electrons
         Band energy:***********;  BLOECHL correction: -0.042995
       DOS:  cpu time    0.0536: real time    0.0536
    CHARGE:  cpu time    1.0783: real time    1.0785
    MIXING:  cpu time    0.0083: real time    0.0083
    --------------------------------------------
      LOOP:  cpu time   30.0360: real time   30.0630

 eigenvalue-minimisations  :  8704
 total energy-change (2. order) :-0.2887395E-03  (-0.3215044E-04)
 number of electron     641.0000049 magnetization      73.8833320
 augmentation part      367.8515836 magnetization      63.5063633

 DIPCOR: dipole corrections for dipol
 direction  3 min pos   241,
 dipolmoment           0.000000      0.000000      0.433157 electrons x Angstroem
 Tr[quadrupol]    -10404.013734

 energy correction for charged system         0.000000 eV
 dipol+quadrupol energy correction           -0.009202 eV
 added-field ion interaction          0.040585 eV  (added to PSCEN)


 Broyden mixing:
  rms(total) = 0.24329E-01    rms(broyden)= 0.24327E-01
  rms(prec ) = 0.27361E-01
  weight for this iteration     100.00

 eigenvalues of (default mixing * dielectric matrix)
  average eigenvalue GAMMA=   0.4403
  1.4390  1.4390  0.5966  0.5966  0.0466  0.1687  0.1412  0.1234  0.1057  0.0961
  0.0907

 Free energy of the ion-electron system (eV)
  ---------------------------------------------------
  alpha Z        PSCENC =      1359.62926184
  Ewald energy   TEWEN  =    221787.86320486
  -Hartree energ DENC   =   -284133.52012504
  -exchange      EXHF   =         0.00000000
  -V(xc)+E(xc)   XCENC  =      1712.27980457
  PAW double counting   =     68570.80226003   -72077.53134011
  entropy T*S    EENTRO =         0.00000000
  eigenvalues    EBANDS =     -1527.11348656
  atomic energy  EATOM  =     63894.84216477
  Solvation  Ediel_sol  =         0.00000000
  ---------------------------------------------------
  free energy    TOTEN  =      -412.74825564 eV

  energy without entropy =     -412.74825564  energy(sigma->0) =     -412.74825564


--------------------------------------------------------------------------------------------------------




--------------------------------------- Iteration      1(  13)  ---------------------------------------


    POTLOK:  cpu time    0.4341: real time    0.4347
    SETDIJ:  cpu time    0.0250: real time    0.0250
    EDDIAG:  cpu time    5.7664: real time    5.7681
  RMM-DIIS:  cpu time   21.0231: real time   21.0350
    ORTHCH:  cpu time    1.6360: real time    1.6362
 BZINTS: Fermi energy:  0.224133;641.000000 electrons
         Band energy:***********;  BLOECHL correction: -0.043123
[...]
   0.200E+02 0.515E+02 0.301E+04   -.201E+02 -.516E+02 -.301E+04   0.234E+00 0.197E-01 -.125E+01   0.788E-04 0.140E-03 -.198E-03
   0.886E+02 0.154E+03 -.265E+04   -.889E+02 -.156E+03 0.265E+04   0.346E+00 0.185E+01 0.846E+00   -.103E-03 0.905E-04 -.210E-03
   -.274E+02 0.103E+03 0.113E+04   0.275E+02 -.103E+03 -.113E+04   -.157E+00 0.189E+00 -.622E+00   -.108E-03 0.186E-03 -.642E-03
   0.113E+02 0.786E+02 0.301E+04   -.114E+02 -.787E+02 -.301E+04   -.112E+00 0.507E-01 -.117E+01   0.107E-03 0.166E-03 -.262E-03
   0.246E+02 0.657E+02 -.253E+04   -.243E+02 -.654E+02 0.254E+04   -.336E+00 -.346E+00 -.212E+01   0.211E-05 0.135E-03 -.170E-03
   0.809E+01 0.122E+03 0.120E+04   -.801E+01 -.123E+03 -.120E+04   -.119E+00 0.258E+00 -.307E+00   0.724E-04 0.187E-03 -.905E-03
   -.150E+02 -.315E+02 0.302E+04   0.150E+02 0.316E+02 -.302E+04   -.212E-01 -.490E-01 -.158E+01   0.840E-04 -.130E-03 -.218E-03
   0.690E+02 -.109E+03 -.264E+04   -.702E+02 0.111E+03 0.264E+04   0.112E+01 -.149E+01 0.106E+01   -.557E-04 0.106E-04 -.215E-03
   -.320E+02 -.352E+02 0.301E+04   0.321E+02 0.352E+02 -.301E+04   -.187E+00 -.654E-02 -.132E+01   -.804E-04 -.213E-04 -.105E-03
   -.157E+03 -.628E+02 -.268E+04   0.159E+03 0.639E+02 0.268E+04   -.174E+01 -.108E+01 0.287E+00   0.255E-04 -.126E-03 -.294E-03
   -.260E+02 -.151E+02 0.118E+04   0.260E+02 0.151E+02 -.118E+04   -.575E-01 -.467E-01 -.367E+00   0.168E-03 0.288E-04 -.873E-03
   0.378E+01 0.143E+02 0.118E+04   -.359E+01 -.142E+02 -.118E+04   -.785E-01 -.130E+00 -.420E+00   -.102E-03 0.105E-03 -.714E-03
   0.345E+02 0.332E+01 0.303E+04   -.346E+02 -.327E+01 -.303E+04   0.187E+00 -.652E-01 -.127E+01   0.683E-04 0.108E-04 -.175E-03
   -.283E+02 -.802E+02 -.268E+04   0.293E+02 0.817E+02 0.267E+04   -.104E+01 -.145E+01 0.122E+01   0.417E-04 -.267E-04 -.186E-03
   0.179E+02 0.565E+02 0.117E+04   -.180E+02 -.564E+02 -.117E+04   0.979E-01 -.137E+00 -.430E+00   -.794E-04 0.138E-03 -.738E-03
   0.324E+01 0.263E+02 0.117E+04   -.324E+01 -.262E+02 -.117E+04   -.512E-02 -.837E-01 -.157E+00   0.123E-04 0.610E-04 -.874E-03
   -.620E+02 -.767E+02 0.940E+03   0.621E+02 0.769E+02 -.940E+03   -.130E+00 -.124E+00 -.336E+00   0.371E-04 -.167E-03 -.644E-03
   0.257E+02 -.907E+02 0.942E+03   -.259E+02 0.910E+02 -.942E+03   0.137E+00 -.225E+00 -.438E+00   0.909E-04 -.211E-03 -.648E-03
   -.512E+02 0.161E+02 -.579E+03   0.514E+02 -.161E+02 0.579E+03   -.267E+00 -.501E-01 0.363E+00   0.302E-04 0.176E-03 -.528E-03
   0.462E+02 0.433E+02 -.570E+03   -.462E+02 -.433E+02 0.571E+03   0.435E-01 0.248E-02 -.771E+00   -.799E-04 0.830E-04 -.528E-03
   -.292E+02 0.124E+02 0.238E+04   0.293E+02 -.124E+02 -.237E+04   -.164E-01 -.417E-01 -.274E+01   0.172E-05 -.125E-04 -.181E-03
   -.688E+02 -.668E+02 -.214E+04   0.696E+02 0.674E+02 0.214E+04   -.759E+00 -.573E+00 0.147E+01   -.636E-04 0.549E-04 -.108E-03
   -.245E+02 -.257E+02 0.912E+03   0.248E+02 0.256E+02 -.912E+03   -.281E+00 0.653E-01 -.331E+00   0.320E-04 -.426E-04 -.598E-03
   0.115E+02 0.321E+02 0.238E+04   -.114E+02 -.322E+02 -.238E+04   -.627E-01 0.950E-01 -.297E+01   -.980E-05 0.210E-04 -.208E-03
   -.986E+02 -.106E+02 -.212E+04   0.993E+02 0.103E+02 0.212E+04   -.656E+00 0.364E+00 0.131E+01   0.204E-04 0.579E-04 -.784E-04
   0.364E+02 -.268E+02 0.926E+03   -.363E+02 0.267E+02 -.926E+03   -.162E-01 0.193E+00 -.400E+00   0.111E-04 -.133E-03 -.668E-03
   0.316E+02 -.625E+02 0.929E+03   -.320E+02 0.625E+02 -.929E+03   0.331E+00 -.336E-01 -.274E+00   -.222E-04 -.864E-04 -.703E-03
   -.130E+02 0.723E+02 0.940E+03   0.131E+02 -.722E+02 -.940E+03   0.179E-01 -.537E-01 -.408E+00   0.259E-04 0.216E-03 -.581E-03
   0.262E+02 0.115E+03 0.933E+03   -.264E+02 -.115E+03 -.933E+03   0.252E+00 0.298E+00 -.385E+00   0.128E-05 0.116E-03 -.619E-03
   0.985E+01 -.117E+02 0.243E+04   -.990E+01 0.118E+02 -.243E+04   -.300E-02 0.674E-01 -.274E+01   -.579E-04 0.746E-04 -.565E-04
   0.930E+02 -.357E+02 -.214E+04   -.939E+02 0.362E+02 0.214E+04   0.829E+00 -.487E+00 0.809E+00   -.612E-05 -.106E-03 -.203E-03
   -.231E+02 0.285E+02 -.214E+04   0.214E+02 -.281E+02 0.217E+04   0.165E+01 -.491E+00 -.276E+02   0.110E-05 0.128E-04 0.140E-03
   -.600E+02 -.213E+02 -.217E+04   0.597E+02 0.211E+02 0.220E+04   0.300E+00 0.184E+00 -.267E+02   -.350E-04 -.382E-04 0.617E-04
   -.241E+02 -.306E+02 -.215E+04   0.224E+02 0.298E+02 0.218E+04   0.175E+01 0.837E+00 -.276E+02   0.189E-04 0.542E-05 0.901E-04
   0.783E+02 -.270E+02 -.215E+04   -.760E+02 0.255E+02 0.217E+04   -.238E+01 0.147E+01 -.278E+02   0.727E-05 0.380E-04 0.453E-04
   0.416E+02 0.323E+02 -.212E+04   -.741E+02 -.476E+02 0.212E+04   0.325E+02 0.154E+02 -.800E+01   0.328E-05 0.404E-04 0.156E-03
   -.623E+02 -.282E+02 -.366E+03   0.691E+02 0.316E+02 0.369E+03   -.681E+01 -.339E+01 -.277E+01   0.867E-05 0.834E-05 0.235E-04
 -----------------------------------------------------------------------------------------------
   -.273E+02 -.147E+02 0.134E+03   0.171E-12 0.924E-12 0.585E-11   0.273E+02 0.146E+02 -.134E+03   -.151E-04 0.262E-04 -.285E-01
 
 
 POSITION                                       TOTAL-FORCE (eV/Angst)
 -----------------------------------------------------------------------------------
      5.00057      8.67991      6.09029        -0.009775     -0.013583     -0.020484
      2.48979      0.00196      6.03910         0.015532     -0.011115     -0.020943
     -0.00954      8.67268      6.08265        -0.016083      0.020323      0.011550
      2.49653      8.66334      6.06914        -0.020562     -0.003553      0.002163
      8.77178      2.15147      6.08272         0.006785      0.012966     -0.026065
      1.25520      2.18448      6.08786        -0.015737      0.016807     -0.018590
     -0.00285      1.44433      2.02730        -0.070537      0.006860      0.195597
     -0.00945      1.38383      8.15001        -0.000531     -0.038260     -0.003082
      3.75160      2.16429      6.07010         0.040325      0.001542     -0.044308
      2.50178      1.44890      2.02869         0.098983     -0.045604      0.191901
      2.48701      1.43150      8.02338         0.005737      0.000092     -0.000800
      6.25892      2.18414      6.10725        -0.007937     -0.010551     -0.047410
      5.00042      1.45188      2.04906        -0.049564      0.038953      0.227545
      5.00250      1.36475      8.11889         0.008582     -0.024206     -0.015708
      7.52680      1.44774      2.04372        -0.000329      0.020423      0.322937
      7.51688      1.41283      8.03250        -0.003366     -0.005208      0.006270
      6.25724      0.72120      4.08068         0.034802     -0.051384     -0.237178
      8.77725      0.71231      4.06936        -0.028642     -0.046577     -0.149625
     -2.49176      4.34077      6.06582         0.001686      0.014618     -0.013433
     -1.27467      3.61315      2.03306        -0.022664      0.145299      0.220368
     -1.29158      3.60762      8.12999        -0.024597      0.014499     -0.010612
     -0.00860      2.89985      4.06991         0.090454     -0.020383     -0.215114
      5.02439      4.35953      6.10113         0.018622      0.000246     -0.044249
      3.76492      3.61380      2.03274        -0.042036      0.090150      0.139656
      3.70144      3.59518      8.15705        -0.019763      0.062807      0.027495
     -3.76172      6.51626      6.07195        -0.003514      0.020327     -0.021620
     -1.25964      6.50258      6.03859         0.004164     -0.001199     -0.034393
     -2.50964      5.80144      2.00867         0.135666     -0.086573      0.344890
     -2.47420      5.75113      8.08979        -0.011176     -0.028893     -0.003222
      1.26566      6.50020      6.07161         0.011770     -0.020803     -0.014316
     -0.00666      5.79426      2.00000        -0.133077     -0.106443      0.250633
     -0.00686      5.76257      8.01783        -0.012840      0.015317     -0.009734
      3.79132      6.49042      6.09268        -0.022347      0.006999     -0.006318
      2.50308      5.78909      2.00257         0.198081     -0.074850      0.274438
      2.47133      5.72372      8.15060         0.026549     -0.036407      0.026904
      1.25945      5.05378      4.04326         0.012509     -0.032476     -0.156937
      5.01445      5.79798      2.01253        -0.222581     -0.036399      0.283325
      5.01554      5.76097      8.16482         0.010505     -0.027301      0.018614
      6.27138      5.06452      4.04277        -0.037345     -0.099237     -0.061268
     -3.76517      7.96148      2.01691         0.019378      0.055706      0.281612
     -3.77338      7.97705      8.11013        -0.027046      0.004952     -0.010516
     -1.24654      7.96318      2.02107        -0.037606      0.004773      0.215298
     -1.22014      7.96353      8.10236         0.003161     -0.012087      0.002190
     -2.51584      7.25277      4.05487        -0.077886     -0.047188     -0.168434
      0.00963      7.22591      4.06957         0.121379     -0.010309     -0.241382
      3.74757      7.96401      2.04130         0.122898     -0.015010      0.213361
      3.78161      7.97215      8.13768         0.023923      0.023360     -0.016514
      2.50222      7.23652      4.07555        -0.007354     -0.039943     -0.194518
      5.01801      7.23500      4.07176        -0.012643     -0.014167     -0.036205
      1.20950      0.71304      4.05362         0.000166      0.050814     -0.276129
      3.78049      0.67792      4.06351        -0.052197      0.016889     -0.304064
     -0.00373      4.32176      6.09136        -0.012242     -0.002663     -0.016017
      2.55471      4.35787      6.13272         0.007465      0.010104     -0.012364
      1.23098      3.62224      2.02941        -0.003717      0.048783      0.149630
      1.28060      3.59988      8.20290         0.011236      0.011250     -0.013370
      2.51334      2.87806      4.07938        -0.048713     -0.015556     -0.191393
      6.26024      3.63306      2.00212         0.010968     -0.014112      0.189595
      6.29667      3.60010      8.14150         0.023627      0.033176     -0.012449
      5.02463      2.88643      4.11822         0.055102      0.088860     -0.401989
      7.52997      2.83909      4.10996        -0.015894     -0.033738     -0.291846
     -1.25360      5.10876      4.01488         0.045394     -0.019622     -0.339251
      3.75975      5.11705      4.02298        -0.004973      0.075573     -0.260996
      1.25181      7.95850      2.03067        -0.053505      0.074071      0.355356
      1.21633      7.95703      8.09226        -0.049164      0.045895     -0.044105
      5.03947      2.82772      9.22872        -0.021335     -0.018587      0.020883
     -2.47857      7.23043      9.20287         0.030432      0.024669     -0.003264
     -0.02966      2.86278      9.26548        -0.016913      0.009964      0.032369
      2.44995      7.26156      9.22242         0.011492     -0.025133      0.015880
      5.09940      5.84369      9.96850         0.026515      0.021107     -0.000133
      5.93061      6.25491     10.28652        -0.017691      0.000947     -0.010113
 -----------------------------------------------------------------------------------
    total drift:                                0.003346     -0.005242      0.002343


--------------------------------------------------------------------------------------------------------



  FREE ENERGIE OF THE ION-ELECTRON SYSTEM (eV)
  ---------------------------------------------------
  free  energy   TOTEN  =      -429.70334454 eV

  energy  without entropy=     -429.70334454  energy(sigma->0) =     -429.70334454
 


--------------------------------------------------------------------------------------------------------


    POTLOK:  cpu time    0.4469: real time    0.4471


--------------------------------------------------------------------------------------------------------


 stress matrix after NEB project (eV)
    -29.76216      0.95288      0.01893
      0.95288    -28.54983      0.13462
      0.01893      0.13462     -8.99082
  FORCES: max atom, RMS     0.080428    0.026532
  FORCE total and by dimension    0.221981    0.062807
  Stress total and by dimension   42.232290   29.762156
 writing wavefunctions
     LOOP+:  cpu time 1244.3682: real time 1252.4791
    4ORBIT:  cpu time    0.0000: real time    0.0000
 


 total charge     
 
# of ion       s       p       d       tot
------------------------------------------
    1        0.501   0.499   8.328   9.328
    2        0.498   0.501   8.329   9.328
    3        0.509   0.512   8.333   9.353
    4        0.494   0.498   8.318   9.310
    5        0.499   0.502   8.327   9.328
    6        0.508   0.515   8.322   9.344
    7        0.489   0.382   8.320   9.191
    8        0.490   0.493   8.330   9.313
    9        0.507   0.513   8.328   9.347
   10        0.501   0.388   8.307   9.196
   11        0.479   0.382   8.350   9.211
   12        0.504   0.512   8.333   9.349
   13        0.498   0.395   8.313   9.207
   14        0.503   0.514   8.339   9.356
   15        0.498   0.389   8.310   9.197
   16        0.480   0.384   8.359   9.223
   17        0.508   0.513   8.335   9.356
   18        0.503   0.505   8.331   9.339
   19        0.509   0.515   8.328   9.352
   20        0.503   0.393   8.310   9.206
   21        0.499   0.505   8.336   9.339
   22        0.512   0.525   8.326   9.363
   23        0.503   0.507   8.322   9.332
   24        0.503   0.394   8.310   9.207
   25        0.493   0.489   8.334   9.316
   26        0.487   0.485   8.309   9.281
   27        0.498   0.502   8.327   9.327
   28        0.491   0.385   8.313   9.190
   29        0.490   0.496   8.333   9.319
   30        0.500   0.506   8.323   9.329
   31        0.499   0.386   8.315   9.200
   32        0.486   0.393   8.356   9.235
   33        0.498   0.496   8.317   9.311
   34        0.492   0.386   8.318   9.197
   35        0.492   0.492   8.329   9.313
   36        0.509   0.516   8.324   9.350
   37        0.495   0.382   8.310   9.187
   38        0.492   0.519   8.299   9.310
   39        0.505   0.510   8.318   9.334
   40        0.484   0.373   8.312   9.168
   41        0.484   0.486   8.329   9.299
   42        0.492   0.381   8.312   9.185
   43        0.504   0.515   8.337   9.356
   44        0.507   0.510   8.327   9.344
   45        0.506   0.513   8.327   9.346
   46        0.487   0.378   8.307   9.171
   47        0.478   0.477   8.337   9.291
   48        0.501   0.503   8.320   9.324
   49        0.502   0.502   8.323   9.327
   50        0.477   0.512   6.162   7.152
   51        0.481   0.517   6.184   7.182
   52        0.471   0.508   6.177   7.155
   53        0.483   0.520   6.181   7.183
   54        0.464   0.392   6.114   6.971
   55        0.475   0.515   6.170   7.159
   56        0.478   0.517   6.209   7.204
   57        0.463   0.390   6.110   6.963
   58        0.464   0.508   6.150   7.122
   59        0.481   0.514   6.205   7.200
   60        0.478   0.515   6.177   7.170
   61        0.476   0.509   6.154   7.140
   62        0.477   0.508   6.165   7.150
   63        0.462   0.394   6.096   6.952
   64        0.485   0.542   6.170   7.197
   65        1.583   3.355   0.000   4.938
   66        1.580   3.350   0.000   4.930
   67        1.581   3.354   0.000   4.936
   68        1.583   3.354   0.000   4.938
   69        1.575   3.447   0.000   5.022
   70        0.611   0.119   0.000   0.730
--------------------------------------------------
tot         40.001  47.157 500.319 587.476
 


 magnetization (x)
 
# of ion       s       p       d       tot
------------------------------------------
    1       -0.008  -0.024   0.612   0.580
    2       -0.012  -0.029   0.702   0.661
    3       -0.008  -0.026   0.609   0.575
    4       -0.011  -0.031   0.734   0.692
    5       -0.010  -0.030   0.721   0.681
    6       -0.020  -0.043   0.771   0.707
    7       -0.015  -0.031   0.686   0.640
    8       -0.004  -0.014   0.515   0.496
    9       -0.016  -0.035   0.728   0.678
   10       -0.015  -0.036   0.777   0.726
   11       -0.014  -0.019   0.777   0.744
   12       -0.016  -0.036   0.710   0.658
   13       -0.018  -0.037   0.743   0.687
   14       -0.008  -0.019   0.449   0.422
   15       -0.011  -0.036   0.743   0.696
   16       -0.017  -0.020   0.761   0.724
   17       -0.017  -0.035   0.696   0.644
   18       -0.012  -0.028   0.679   0.639
   19       -0.014  -0.033   0.668   0.621
   20       -0.020  -0.034   0.754   0.699
   21       -0.010  -0.020   0.560   0.529
   22       -0.020  -0.048   0.779   0.711
   23       -0.016  -0.037   0.742   0.689
   24       -0.023  -0.034   0.759   0.702
   25       -0.014  -0.023   0.562   0.525
   26       -0.005  -0.024   0.733   0.705
   27       -0.011  -0.030   0.711   0.670
   28       -0.012  -0.030   0.721   0.678
   29       -0.007  -0.016   0.585   0.562
   30       -0.014  -0.036   0.744   0.694
   31       -0.012  -0.034   0.747   0.701
   32       -0.019  -0.025   0.788   0.744
   33       -0.012  -0.029   0.728   0.686
   34       -0.018  -0.035   0.706   0.653
   35       -0.010  -0.022   0.621   0.589
   36       -0.022  -0.045   0.742   0.676
   37       -0.008  -0.030   0.739   0.701
   38       -0.011  -0.007   0.769   0.752
   39       -0.019  -0.042   0.764   0.703
   40       -0.011  -0.024   0.711   0.676
   41       -0.004  -0.010   0.558   0.544
   42       -0.014  -0.027   0.720   0.678
   43       -0.011  -0.015   0.469   0.443
   44       -0.013  -0.032   0.757   0.712
   45       -0.013  -0.036   0.722   0.674
   46       -0.011  -0.025   0.717   0.681
   47       -0.003  -0.008   0.522   0.512
   48       -0.010  -0.035   0.758   0.713
   49       -0.010  -0.028   0.722   0.684
   50        0.006  -0.008   2.799   2.797
   51        0.004  -0.013   2.740   2.731
   52        0.003  -0.018   2.784   2.768
   53        0.004  -0.017   2.700   2.687
   54        0.015  -0.008   2.907   2.914
   55        0.014  -0.001   2.701   2.715
   56       -0.003  -0.029   2.658   2.626
   57        0.012  -0.009   2.917   2.920
   58        0.022   0.009   2.794   2.825
   59       -0.000  -0.024   2.710   2.686
   60        0.005  -0.017   2.756   2.744
   61        0.007  -0.006   2.826   2.826
   62        0.004  -0.012   2.799   2.791
   63        0.020  -0.007   2.952   2.965
   64        0.021   0.008   2.697   2.726
   65        0.002   0.081   0.000   0.083
   66        0.002   0.104   0.000   0.106
   67        0.002   0.078   0.000   0.080
   68        0.002   0.107   0.000   0.110
   69        0.003   0.183   0.000   0.187
   70       -0.003   0.003   0.000  -0.000
--------------------------------------------------
tot         -0.487  -1.001  75.734  74.246
 
 BZINTS: Fermi energy:  0.220618;641.000000 electrons
         Band energy:***********;  BLOECHL correction: -0.043409

 total amount of memory used by VASP MPI-rank0   117171. kBytes
=======================================================================

   base      :      30000. kBytes
   nonlr-proj:      14036. kBytes
   fftplans  :       6402. kBytes
   grid      :      18928. kBytes
   one-center:         93. kBytes
   wavefun   :      47712. kBytes
 
  
  
 General timing and accounting informations for this job:
 ========================================================
  
                  Total CPU time used (sec):     1416.842
                            User time (sec):     1243.891
                          System time (sec):      172.952
                         Elapsed time (sec):     1430.400
  
                   Maximum memory used (kb):      351628.
                   Average memory used (kb):           0.
  
                          Minor page faults:     21488100
                          Major page faults:            0
                 Voluntary context switches:         4962
