  70  70   1   0
  0.2635535E+02  0.1002677E-08  0.1002677E-08  0.2118918E-08  0.5000000E-15
  1.000000000000000E-004
  CAR 
 SQS-NiFe                                
      9.26062031    -20.92192751  301      0.19935255      1.00000000
    -20.922  0.0000E+00  0.0000E+00  0.0000E+00  0.0000E+00
    -20.821  0.0000E+00  0.0000E+00  0.0000E+00  0.0000E+00
    -20.721  0.0000E+00  0.0000E+00  0.0000E+00  0.0000E+00
    -20.620 -0.1050E-31  0.0000E+00 -0.1056E-32  0.0000E+00
    -20.519 -0.3962E-28  0.0000E+00 -0.3987E-29  0.0000E+00
    -20.419 -0.8975E-25  0.0000E+00 -0.9034E-26  0.0000E+00
    -20.318 -0.1220E-21 -0.1176E-28 -0.1229E-22 -0.1183E-29
    -20.218 -0.9954E-19 -0.2929E-25 -0.1003E-19 -0.2948E-26
    -20.117 -0.4868E-16 -0.4388E-22 -0.4907E-17 -0.4417E-23
    -20.016 -0.1379E-13 -0.3952E-19 -0.1392E-14 -0.3980E-20
    -19.916 -0.2400E-11 -0.2138E-16 -0.2429E-12 -0.2155E-17
    -19.815 -0.2491E-09 -0.6726E-14 -0.2530E-10 -0.6789E-15
    -19.715 -0.1537E-07 -0.1303E-11 -0.1572E-08 -0.1317E-12
    -19.614 -0.5616E-06 -0.1508E-09 -0.5807E-07 -0.1530E-10
    -19.513 -0.1207E-04 -0.1040E-07 -0.1272E-05 -0.1061E-08
    -19.413 -0.1505E-03 -0.4252E-06 -0.1641E-04 -0.4384E-07
    -19.312 -0.1057E-02 -0.1022E-04 -0.1228E-03 -0.1072E-05
    -19.212 -0.3814E-02 -0.1423E-03 -0.5065E-03 -0.1539E-04
    -19.111 -0.4091E-02 -0.1109E-02 -0.9180E-03 -0.1270E-03
    -19.010  0.1763E-01 -0.4397E-02  0.8558E-03 -0.5694E-03
    -18.910  0.7603E-01 -0.5298E-02  0.8505E-02 -0.1102E-02
    -18.809  0.1339E+00  0.2061E-01  0.2197E-01  0.9714E-03
    -18.709  0.1344E+00  0.8954E-01  0.3549E-01  0.9980E-02
    -18.608  0.8997E-01  0.1451E+00  0.4455E-01  0.2458E-01
    -18.507  0.4688E-01  0.1181E+00  0.4926E-01  0.3646E-01
    -18.407  0.1630E-01  0.5338E-01  0.5090E-01  0.4183E-01
    -18.306 -0.5280E-05  0.3153E-01  0.5090E-01  0.4500E-01
    -18.205 -0.2679E-02  0.3474E-01  0.5063E-01  0.4849E-01
    -18.105 -0.1049E-02  0.2058E-01  0.5053E-01  0.5056E-01
    -18.004 -0.1851E-03  0.2780E-02  0.5051E-01  0.5084E-01
    -17.904 -0.1743E-04 -0.2137E-02  0.5051E-01  0.5063E-01
    -17.803 -0.9253E-06 -0.1025E-02  0.5051E-01  0.5053E-01
    -17.702 -0.2840E-07 -0.1918E-03  0.5051E-01  0.5051E-01
    -17.602 -0.5108E-09 -0.1861E-04  0.5051E-01  0.5051E-01
    -17.501 -0.5430E-11 -0.1008E-05  0.5051E-01  0.5051E-01
    -17.401 -0.3426E-13 -0.3147E-07  0.5051E-01  0.5051E-01
    -17.300 -0.1338E-15 -0.5749E-09  0.5051E-01  0.5051E-01
    -17.199  0.0000E+00 -0.6202E-11  0.5051E-01  0.5051E-01
    -17.099  0.0000E+00 -0.3971E-13  0.5051E-01  0.5051E-01
    -16.998  0.0000E+00 -0.1561E-15  0.5051E-01  0.5051E-01
    -16.898  0.0000E+00  0.0000E+00  0.5051E-01  0.5051E-01
    -16.797  0.0000E+00  0.0000E+00  0.5051E-01  0.5051E-01
    -16.696  0.0000E+00  0.0000E+00  0.5051E-01  0.5051E-01
    -16.596  0.0000E+00  0.0000E+00  0.5051E-01  0.5051E-01
    -16.495  0.0000E+00  0.0000E+00  0.5051E-01  0.5051E-01
    -16.395  0.0000E+00  0.0000E+00  0.5051E-01  0.5051E-01
    -16.294  0.0000E+00  0.0000E+00  0.5051E-01  0.5051E-01
    -16.193  0.0000E+00  0.0000E+00  0.5051E-01  0.5051E-01
    -16.093  0.0000E+00  0.0000E+00  0.5051E-01  0.5051E-01
    -15.992  0.0000E+00  0.0000E+00  0.5051E-01  0.5051E-01
    -15.892  0.0000E+00  0.0000E+00  0.5051E-01  0.5051E-01
    -15.791  0.0000E+00  0.0000E+00  0.5051E-01  0.5051E-01
    -15.690  0.0000E+00  0.0000E+00  0.5051E-01  0.5051E-01
    -15.590  0.0000E+00  0.0000E+00  0.5051E-01  0.5051E-01
    -15.489  0.0000E+00  0.0000E+00  0.5051E-01  0.5051E-01
    -15.388  0.0000E+00  0.0000E+00  0.5051E-01  0.5051E-01
    -15.288  0.0000E+00  0.0000E+00  0.5051E-01  0.5051E-01
    -15.187  0.0000E+00  0.0000E+00  0.5051E-01  0.5051E-01
    -15.087  0.0000E+00  0.0000E+00  0.5051E-01  0.5051E-01
    -14.986  0.0000E+00  0.0000E+00  0.5051E-01  0.5051E-01
    -14.885  0.0000E+00  0.0000E+00  0.5051E-01  0.5051E-01
    -14.785  0.0000E+00  0.0000E+00  0.5051E-01  0.5051E-01
    -14.684  0.0000E+00  0.0000E+00  0.5051E-01  0.5051E-01
    -14.584  0.0000E+00  0.0000E+00  0.5051E-01  0.5051E-01
    -14.483  0.0000E+00  0.0000E+00  0.5051E-01  0.5051E-01
    -14.382  0.0000E+00  0.0000E+00  0.5051E-01  0.5051E-01
    -14.282  0.0000E+00  0.0000E+00  0.5051E-01  0.5051E-01
    -14.181  0.0000E+00  0.0000E+00  0.5051E-01  0.5051E-01
    -14.081  0.0000E+00  0.0000E+00  0.5051E-01  0.5051E-01
    -13.980  0.0000E+00  0.0000E+00  0.5051E-01  0.5051E-01
    -13.879  0.0000E+00  0.0000E+00  0.5051E-01  0.5051E-01
    -13.779  0.0000E+00  0.0000E+00  0.5051E-01  0.5051E-01
    -13.678  0.0000E+00  0.0000E+00  0.5051E-01  0.5051E-01
    -13.578  0.0000E+00  0.0000E+00  0.5051E-01  0.5051E-01
    -13.477  0.0000E+00  0.0000E+00  0.5051E-01  0.5051E-01
    -13.376  0.0000E+00  0.0000E+00  0.5051E-01  0.5051E-01
    -13.276  0.0000E+00  0.0000E+00  0.5051E-01  0.5051E-01
    -13.175  0.0000E+00  0.0000E+00  0.5051E-01  0.5051E-01
    -13.074  0.0000E+00  0.0000E+00  0.5051E-01  0.5051E-01
    -12.974  0.0000E+00  0.0000E+00  0.5051E-01  0.5051E-01
    -12.873  0.0000E+00  0.0000E+00  0.5051E-01  0.5051E-01
    -12.773  0.0000E+00  0.0000E+00  0.5051E-01  0.5051E-01
    -12.672  0.0000E+00  0.0000E+00  0.5051E-01  0.5051E-01
    -12.571  0.0000E+00  0.0000E+00  0.5051E-01  0.5051E-01
    -12.471  0.0000E+00  0.0000E+00  0.5051E-01  0.5051E-01
    -12.370  0.0000E+00  0.0000E+00  0.5051E-01  0.5051E-01
    -12.270  0.0000E+00  0.0000E+00  0.5051E-01  0.5051E-01
    -12.169  0.0000E+00  0.0000E+00  0.5051E-01  0.5051E-01
    -12.068  0.0000E+00  0.0000E+00  0.5051E-01  0.5051E-01
    -11.968  0.0000E+00  0.0000E+00  0.5051E-01  0.5051E-01
    -11.867  0.0000E+00  0.0000E+00  0.5051E-01  0.5051E-01
    -11.767  0.0000E+00  0.0000E+00  0.5051E-01  0.5051E-01
    -11.666  0.0000E+00  0.0000E+00  0.5051E-01  0.5051E-01
    -11.565  0.0000E+00  0.0000E+00  0.5051E-01  0.5051E-01
    -11.465  0.0000E+00  0.0000E+00  0.5051E-01  0.5051E-01
    -11.364  0.0000E+00  0.0000E+00  0.5051E-01  0.5051E-01
    -11.264  0.0000E+00  0.0000E+00  0.5051E-01  0.5051E-01
    -11.163  0.0000E+00  0.0000E+00  0.5051E-01  0.5051E-01
    -11.062  0.0000E+00  0.0000E+00  0.5051E-01  0.5051E-01
    -10.962  0.0000E+00  0.0000E+00  0.5051E-01  0.5051E-01
    -10.861  0.0000E+00  0.0000E+00  0.5051E-01  0.5051E-01
    -10.760  0.0000E+00  0.0000E+00  0.5051E-01  0.5051E-01
    -10.660  0.0000E+00  0.0000E+00  0.5051E-01  0.5051E-01
    -10.559  0.0000E+00  0.0000E+00  0.5051E-01  0.5051E-01
    -10.459  0.0000E+00  0.0000E+00  0.5051E-01  0.5051E-01
    -10.358  0.0000E+00  0.0000E+00  0.5051E-01  0.5051E-01
    -10.257  0.0000E+00  0.0000E+00  0.5051E-01  0.5051E-01
    -10.157  0.0000E+00  0.0000E+00  0.5051E-01  0.5051E-01
    -10.056  0.0000E+00  0.0000E+00  0.5051E-01  0.5051E-01
     -9.956 -0.5736E-32  0.0000E+00  0.5051E-01  0.5051E-01
     -9.855 -0.1964E-28 -0.3628E-30  0.5051E-01  0.5051E-01
     -9.754 -0.4039E-25 -0.9618E-27  0.5051E-01  0.5051E-01
     -9.654 -0.4984E-22 -0.1531E-23  0.5051E-01  0.5051E-01
     -9.553 -0.3686E-19 -0.1461E-20  0.5051E-01  0.5051E-01
     -9.453 -0.1571E-16 -0.8358E-18  0.5051E-01  0.5051E-01
     -9.352 -0.4179E-14 -0.2775E-15  0.5051E-01  0.5051E-01
     -9.251 -0.6560E-12 -0.5635E-13  0.5051E-01  0.5051E-01
     -9.151 -0.6114E-10 -0.6813E-11  0.5051E-01  0.5051E-01
     -9.050 -0.3366E-08 -0.4880E-09  0.5051E-01  0.5051E-01
     -8.950 -0.1085E-06 -0.2057E-07  0.5051E-01  0.5051E-01
     -8.849 -0.2019E-05 -0.5045E-06  0.5050E-01  0.5050E-01
     -8.748 -0.2114E-04 -0.7066E-05  0.5050E-01  0.5050E-01
     -8.648 -0.1181E-03 -0.5450E-04  0.5049E-01  0.5050E-01
     -8.547 -0.3051E-03 -0.2131E-03  0.5046E-01  0.5048E-01
     -8.446 -0.1273E-03 -0.3141E-03  0.5045E-01  0.5045E-01
     -8.346  0.1166E-02  0.3463E-03  0.5056E-01  0.5048E-01
     -8.245  0.4745E-02  0.2496E-02  0.5104E-01  0.5073E-01
     -8.145  0.1423E-01  0.8600E-02  0.5247E-01  0.5160E-01
     -8.044  0.2594E-01  0.2080E-01  0.5508E-01  0.5369E-01
     -7.943  0.2344E-01  0.2717E-01  0.5744E-01  0.5642E-01
     -7.843  0.8486E-02  0.1625E-01  0.5829E-01  0.5806E-01
     -7.742  0.4429E-02  0.4400E-02  0.5874E-01  0.5850E-01
     -7.642  0.1751E-01  0.9364E-02  0.6050E-01  0.5944E-01
     -7.541  0.3083E-01  0.2322E-01  0.6360E-01  0.6178E-01
     -7.440  0.3470E-01  0.3205E-01  0.6710E-01  0.6500E-01
     -7.340  0.3015E-01  0.3401E-01  0.7013E-01  0.6842E-01
     -7.239  0.1571E-01  0.2572E-01  0.7171E-01  0.7101E-01
     -7.139  0.4100E-03  0.8921E-02  0.7175E-01  0.7191E-01
     -7.038 -0.3531E-02 -0.2790E-02  0.7139E-01  0.7163E-01
     -6.937  0.1292E-01 -0.1391E-02  0.7269E-01  0.7149E-01
     -6.837  0.5167E-01  0.2103E-01  0.7789E-01  0.7360E-01
     -6.736  0.7861E-01  0.6075E-01  0.8580E-01  0.7972E-01
     -6.636  0.6359E-01  0.7724E-01  0.9220E-01  0.8749E-01
     -6.535  0.4394E-01  0.5196E-01  0.9662E-01  0.9271E-01
     -6.434  0.5611E-01  0.3177E-01  0.1023E+00  0.9591E-01
     -6.334  0.7332E-01  0.4712E-01  0.1096E+00  0.1007E+00
     -6.233  0.6700E-01  0.7001E-01  0.1164E+00  0.1077E+00
     -6.132  0.5097E-01  0.7014E-01  0.1215E+00  0.1148E+00
     -6.032  0.5016E-01  0.5091E-01  0.1266E+00  0.1199E+00
     -5.931  0.6561E-01  0.3366E-01  0.1332E+00  0.1233E+00
     -5.831  0.7721E-01  0.4351E-01  0.1409E+00  0.1276E+00
     -5.730  0.9022E-01  0.7386E-01  0.1500E+00  0.1351E+00
     -5.629  0.1213E+00  0.8849E-01  0.1622E+00  0.1440E+00
     -5.529  0.1644E+00  0.8233E-01  0.1787E+00  0.1523E+00
     -5.428  0.2136E+00  0.6710E-01  0.2002E+00  0.1590E+00
     -5.328  0.2447E+00  0.6178E-01  0.2249E+00  0.1652E+00
     -5.227  0.2223E+00  0.9855E-01  0.2472E+00  0.1751E+00
     -5.126  0.1628E+00  0.1779E+00  0.2636E+00  0.1930E+00
     -5.026  0.1198E+00  0.2485E+00  0.2757E+00  0.2180E+00
     -4.925  0.1224E+00  0.2453E+00  0.2880E+00  0.2427E+00
     -4.825  0.1617E+00  0.1766E+00  0.3042E+00  0.2605E+00
     -4.724  0.2182E+00  0.1158E+00  0.3262E+00  0.2721E+00
     -4.623  0.2721E+00  0.9812E-01  0.3536E+00  0.2820E+00
     -4.523  0.3030E+00  0.1151E+00  0.3841E+00  0.2936E+00
     -4.422  0.2936E+00  0.1442E+00  0.4136E+00  0.3081E+00
     -4.322  0.2700E+00  0.1530E+00  0.4408E+00  0.3235E+00
     -4.221  0.2849E+00  0.1523E+00  0.4694E+00  0.3388E+00
     -4.120  0.3307E+00  0.1497E+00  0.5027E+00  0.3539E+00
     -4.020  0.3867E+00  0.1189E+00  0.5416E+00  0.3658E+00
     -3.919  0.4650E+00  0.1049E+00  0.5884E+00  0.3764E+00
     -3.818  0.5388E+00  0.1762E+00  0.6426E+00  0.3941E+00
     -3.718  0.5682E+00  0.2904E+00  0.6998E+00  0.4233E+00
     -3.617  0.5669E+00  0.3327E+00  0.7568E+00  0.4568E+00
     -3.517  0.5643E+00  0.2781E+00  0.8136E+00  0.4848E+00
     -3.416  0.5663E+00  0.2150E+00  0.8706E+00  0.5064E+00
     -3.315  0.5766E+00  0.2189E+00  0.9286E+00  0.5284E+00
     -3.215  0.5865E+00  0.2997E+00  0.9876E+00  0.5586E+00
     -3.114  0.5834E+00  0.4271E+00  0.1046E+01  0.6016E+00
     -3.014  0.5885E+00  0.5211E+00  0.1105E+01  0.6540E+00
     -2.913  0.6041E+00  0.5237E+00  0.1166E+01  0.7067E+00
     -2.812  0.6048E+00  0.4898E+00  0.1227E+01  0.7560E+00
     -2.712  0.6024E+00  0.4891E+00  0.1288E+01  0.8052E+00
     -2.611  0.6307E+00  0.5136E+00  0.1351E+01  0.8568E+00
     -2.511  0.6997E+00  0.5206E+00  0.1422E+01  0.9092E+00
     -2.410  0.7960E+00  0.5024E+00  0.1502E+01  0.9598E+00
     -2.309  0.8933E+00  0.4999E+00  0.1591E+01  0.1010E+01
     -2.209  0.9698E+00  0.5360E+00  0.1689E+01  0.1064E+01
     -2.108  0.1019E+01  0.5764E+00  0.1792E+01  0.1122E+01
     -2.008  0.1031E+01  0.5757E+00  0.1895E+01  0.1180E+01
     -1.907  0.9755E+00  0.5536E+00  0.1993E+01  0.1236E+01
     -1.806  0.8521E+00  0.5625E+00  0.2079E+01  0.1292E+01
     -1.706  0.7506E+00  0.6104E+00  0.2155E+01  0.1354E+01
     -1.605  0.7490E+00  0.6762E+00  0.2230E+01  0.1422E+01
     -1.504  0.8079E+00  0.7528E+00  0.2311E+01  0.1497E+01
     -1.404  0.8607E+00  0.8343E+00  0.2398E+01  0.1581E+01
     -1.303  0.8863E+00  0.9073E+00  0.2487E+01  0.1673E+01
     -1.203  0.8880E+00  0.9550E+00  0.2576E+01  0.1769E+01
     -1.102  0.9055E+00  0.9552E+00  0.2667E+01  0.1865E+01
     -1.001  0.9636E+00  0.9037E+00  0.2764E+01  0.1956E+01
     -0.901  0.1006E+01  0.8305E+00  0.2866E+01  0.2039E+01
     -0.800  0.1020E+01  0.7806E+00  0.2968E+01  0.2118E+01
     -0.700  0.1094E+01  0.7648E+00  0.3078E+01  0.2195E+01
     -0.599  0.1215E+01  0.7596E+00  0.3201E+01  0.2271E+01
     -0.498  0.1212E+01  0.7537E+00  0.3323E+01  0.2347E+01
     -0.398  0.9682E+00  0.7528E+00  0.3420E+01  0.2423E+01
     -0.297  0.5972E+00  0.7604E+00  0.3480E+01  0.2499E+01
     -0.197  0.3271E+00  0.7625E+00  0.3513E+01  0.2576E+01
     -0.096  0.2437E+00  0.7517E+00  0.3537E+01  0.2652E+01
      0.005  0.2615E+00  0.7402E+00  0.3564E+01  0.2726E+01
      0.105  0.2668E+00  0.7262E+00  0.3591E+01  0.2799E+01
      0.206  0.2019E+00  0.6973E+00  0.3611E+01  0.2869E+01
      0.306  0.1283E+00  0.6566E+00  0.3624E+01  0.2935E+01
      0.407  0.1217E+00  0.6207E+00  0.3636E+01  0.2998E+01
      0.508  0.1223E+00  0.5916E+00  0.3648E+01  0.3057E+01
      0.608  0.7672E-01  0.5554E+00  0.3656E+01  0.3113E+01
      0.709  0.5558E-01  0.5172E+00  0.3662E+01  0.3165E+01
      0.810  0.9368E-01  0.4936E+00  0.3671E+01  0.3215E+01
      0.910  0.1128E+00  0.4922E+00  0.3682E+01  0.3264E+01
      1.011  0.9076E-01  0.5048E+00  0.3692E+01  0.3315E+01
      1.111  0.9744E-01  0.5123E+00  0.3701E+01  0.3367E+01
      1.212  0.1416E+00  0.5095E+00  0.3716E+01  0.3418E+01
      1.313  0.1701E+00  0.5019E+00  0.3733E+01  0.3469E+01
      1.413  0.1541E+00  0.4809E+00  0.3748E+01  0.3517E+01
      1.514  0.9991E-01  0.4387E+00  0.3758E+01  0.3561E+01
      1.614  0.4825E-01  0.3806E+00  0.3763E+01  0.3599E+01
      1.715  0.3336E-01  0.3124E+00  0.3767E+01  0.3631E+01
      1.816  0.5478E-01  0.2502E+00  0.3772E+01  0.3656E+01
      1.916  0.1023E+00  0.2125E+00  0.3782E+01  0.3677E+01
      2.017  0.1438E+00  0.1877E+00  0.3797E+01  0.3696E+01
      2.117  0.1362E+00  0.1576E+00  0.3810E+01  0.3712E+01
      2.218  0.9821E-01  0.1331E+00  0.3820E+01  0.3725E+01
      2.319  0.8248E-01  0.1273E+00  0.3829E+01  0.3738E+01
      2.419  0.1014E+00  0.1284E+00  0.3839E+01  0.3751E+01
      2.520  0.1247E+00  0.1236E+00  0.3851E+01  0.3764E+01
      2.620  0.1132E+00  0.1245E+00  0.3863E+01  0.3776E+01
      2.721  0.7466E-01  0.1348E+00  0.3870E+01  0.3790E+01
      2.822  0.5860E-01  0.1385E+00  0.3876E+01  0.3804E+01
      2.922  0.9090E-01  0.1374E+00  0.3885E+01  0.3817E+01
      3.023  0.1266E+00  0.1388E+00  0.3898E+01  0.3831E+01
      3.124  0.1029E+00  0.1331E+00  0.3908E+01  0.3845E+01
      3.224  0.5496E-01  0.1212E+00  0.3914E+01  0.3857E+01
      3.325  0.5903E-01  0.1119E+00  0.3920E+01  0.3868E+01
      3.425  0.1007E+00  0.1045E+00  0.3930E+01  0.3879E+01
      3.526  0.1188E+00  0.9145E-01  0.3942E+01  0.3888E+01
      3.627  0.1016E+00  0.7232E-01  0.3952E+01  0.3895E+01
      3.727  0.8159E-01  0.6678E-01  0.3960E+01  0.3902E+01
      3.828  0.8499E-01  0.7863E-01  0.3969E+01  0.3910E+01
      3.928  0.1059E+00  0.9778E-01  0.3980E+01  0.3920E+01
      4.029  0.1177E+00  0.1212E+00  0.3991E+01  0.3932E+01
      4.130  0.1007E+00  0.1286E+00  0.4002E+01  0.3945E+01
      4.230  0.6743E-01  0.1141E+00  0.4008E+01  0.3956E+01
      4.331  0.5487E-01  0.1060E+00  0.4014E+01  0.3967E+01
      4.431  0.6977E-01  0.1149E+00  0.4021E+01  0.3979E+01
      4.532  0.7860E-01  0.1175E+00  0.4029E+01  0.3990E+01
      4.633  0.6871E-01  0.1015E+00  0.4036E+01  0.4001E+01
      4.733  0.5476E-01  0.8202E-01  0.4041E+01  0.4009E+01
      4.834  0.5095E-01  0.7645E-01  0.4046E+01  0.4017E+01
      4.934  0.6044E-01  0.8146E-01  0.4052E+01  0.4025E+01
      5.035  0.7382E-01  0.7914E-01  0.4060E+01  0.4033E+01
      5.136  0.8716E-01  0.7119E-01  0.4069E+01  0.4040E+01
      5.236  0.1012E+00  0.7339E-01  0.4079E+01  0.4047E+01
      5.337  0.1053E+00  0.8071E-01  0.4089E+01  0.4055E+01
      5.437  0.1001E+00  0.7582E-01  0.4100E+01  0.4063E+01
      5.538  0.9789E-01  0.6951E-01  0.4109E+01  0.4070E+01
      5.639  0.9843E-01  0.8760E-01  0.4119E+01  0.4079E+01
      5.739  0.9240E-01  0.1203E+00  0.4129E+01  0.4091E+01
      5.840  0.7419E-01  0.1355E+00  0.4136E+01  0.4105E+01
      5.941  0.5364E-01  0.1207E+00  0.4141E+01  0.4117E+01
      6.041  0.4985E-01  0.9021E-01  0.4146E+01  0.4126E+01
      6.142  0.6527E-01  0.6927E-01  0.4153E+01  0.4133E+01
      6.242  0.8774E-01  0.5626E-01  0.4162E+01  0.4138E+01
      6.343  0.1146E+00  0.4744E-01  0.4173E+01  0.4143E+01
      6.444  0.1479E+00  0.6745E-01  0.4188E+01  0.4150E+01
      6.544  0.1601E+00  0.1166E+00  0.4204E+01  0.4162E+01
      6.645  0.1355E+00  0.1493E+00  0.4218E+01  0.4177E+01
      6.745  0.1021E+00  0.1294E+00  0.4228E+01  0.4190E+01
      6.846  0.7293E-01  0.8264E-01  0.4236E+01  0.4198E+01
      6.947  0.4480E-01  0.6304E-01  0.4240E+01  0.4204E+01
      7.047  0.2089E-01  0.8285E-01  0.4242E+01  0.4213E+01
      7.148  0.5194E-02  0.1120E+00  0.4243E+01  0.4224E+01
      7.248 -0.9883E-03  0.1106E+00  0.4243E+01  0.4235E+01
      7.349 -0.1255E-02  0.6523E-01  0.4242E+01  0.4242E+01
      7.450 -0.4162E-03  0.1566E-01  0.4242E+01  0.4243E+01
      7.550 -0.6969E-04 -0.3688E-02  0.4242E+01  0.4243E+01
      7.651 -0.6523E-05 -0.3368E-02  0.4242E+01  0.4243E+01
      7.751 -0.3532E-06 -0.8979E-03  0.4242E+01  0.4242E+01
      7.852 -0.1123E-07 -0.1217E-03  0.4242E+01  0.4242E+01
      7.953 -0.2116E-09 -0.9255E-05  0.4242E+01  0.4242E+01
      8.053 -0.2371E-11 -0.4089E-06  0.4242E+01  0.4242E+01
      8.154 -0.1585E-13 -0.1066E-07  0.4242E+01  0.4242E+01
      8.255 -0.5945E-16 -0.1652E-09  0.4242E+01  0.4242E+01
      8.355  0.0000E+00 -0.1530E-11  0.4242E+01  0.4242E+01
      8.456  0.0000E+00 -0.8476E-14  0.4242E+01  0.4242E+01
      8.556  0.0000E+00 -0.2477E-16  0.4242E+01  0.4242E+01
      8.657  0.0000E+00  0.0000E+00  0.4242E+01  0.4242E+01
      8.758  0.0000E+00  0.0000E+00  0.4242E+01  0.4242E+01
      8.858  0.0000E+00  0.0000E+00  0.4242E+01  0.4242E+01
      8.959  0.0000E+00  0.0000E+00  0.4242E+01  0.4242E+01
      9.059  0.0000E+00  0.0000E+00  0.4242E+01  0.4242E+01
      9.160  0.0000E+00  0.0000E+00  0.4242E+01  0.4242E+01
      9.261  0.0000E+00  0.0000E+00  0.4242E+01  0.4242E+01
      9.26062031    -20.92192751  301      0.19935255      1.00000000
    -20.922  0.0000E+00  0.0000E+00  0.0000E+00  0.0000E+00  0.0000E+00  0.0000E+00
    -20.821  0.0000E+00  0.0000E+00  0.0000E+00  0.0000E+00  0.0000E+00  0.0000E+00
    -20.721  0.0000E+00  0.0000E+00  0.0000E+00  0.0000E+00  0.0000E+00  0.0000E+00
    -20.620 -0.5977E-35  0.0000E+00 -0.5548E-35  0.0000E+00 -0.2870E-35  0.0000E+00
    -20.519 -0.2255E-31  0.0000E+00 -0.2094E-31  0.0000E+00 -0.1083E-31  0.0000E+00
    -20.419 -0.5108E-28  0.0000E+00 -0.4742E-28  0.0000E+00 -0.2455E-28  0.0000E+00
    -20.318 -0.6943E-25 -0.7942E-32 -0.6448E-25 -0.7305E-32 -0.3338E-25 -0.3746E-32
    -20.218 -0.5661E-22 -0.1969E-28 -0.5259E-22 -0.1815E-28 -0.2724E-22 -0.9342E-29
    -20.117 -0.2767E-19 -0.2933E-25 -0.2571E-19 -0.2710E-25 -0.1333E-19 -0.1401E-25
    -20.016 -0.7830E-17 -0.2625E-22 -0.7280E-17 -0.2432E-22 -0.3778E-17 -0.1264E-22
    -19.916 -0.1361E-14 -0.1410E-19 -0.1267E-14 -0.1311E-19 -0.6586E-15 -0.6850E-20
    -19.815 -0.1409E-12 -0.4398E-17 -0.1314E-12 -0.4103E-17 -0.6849E-13 -0.2158E-17
    -19.715 -0.8660E-11 -0.8431E-15 -0.8092E-11 -0.7901E-15 -0.4240E-11 -0.4187E-15
    -19.614 -0.3141E-09 -0.9640E-13 -0.2948E-09 -0.9079E-13 -0.1557E-09 -0.4853E-13
    -19.513 -0.6664E-08 -0.6549E-11 -0.6298E-08 -0.6205E-11 -0.3369E-08 -0.3351E-11
    -19.413 -0.8117E-07 -0.2628E-09 -0.7764E-07 -0.2507E-09 -0.4243E-07 -0.1370E-09
    -19.312 -0.5443E-06 -0.6158E-08 -0.5318E-06 -0.5929E-08 -0.3015E-06 -0.3288E-08
    -19.212 -0.1762E-05 -0.8265E-07 -0.1800E-05 -0.8050E-07 -0.1095E-05 -0.4546E-07
    -19.111 -0.8846E-06 -0.6077E-06 -0.1267E-05 -0.6016E-06 -0.1099E-05 -0.3485E-06
    -19.010  0.1120E-04 -0.2152E-05  0.1055E-04 -0.2193E-05  0.5615E-05 -0.1325E-05
    -18.910  0.3526E-04 -0.1415E-05  0.3649E-04 -0.1716E-05  0.2261E-04 -0.1272E-05
    -18.809  0.4798E-04  0.1337E-04  0.5304E-04  0.1295E-04  0.3589E-04  0.7244E-05
    -18.709  0.3402E-04  0.4268E-04  0.3984E-04  0.4386E-04  0.2885E-04  0.2682E-04
    -18.608  0.1342E-04  0.5484E-04  0.1604E-04  0.5905E-04  0.1193E-04  0.3840E-04
    -18.507  0.4056E-05  0.3330E-04  0.4184E-05  0.3798E-04  0.2663E-05  0.2643E-04
    -18.407  0.1282E-05  0.7857E-05  0.1004E-05  0.9935E-05  0.3771E-06  0.7686E-05
    -18.306 -0.9787E-07  0.1712E-06 -0.2002E-06  0.3299E-06 -0.2072E-06  0.3864E-06
    -18.205 -0.3436E-06  0.1257E-05 -0.3627E-06  0.1144E-05 -0.2353E-06  0.6384E-06
    -18.105 -0.1347E-06  0.1183E-05 -0.1374E-06  0.1172E-05 -0.8532E-07  0.7158E-06
    -18.004 -0.2397E-07  0.1650E-06 -0.2429E-07  0.1623E-06 -0.1495E-07  0.9790E-07
    -17.904 -0.2268E-08 -0.1507E-06 -0.2294E-08 -0.1588E-06 -0.1409E-08 -0.1038E-06
    -17.803 -0.1207E-09 -0.7148E-07 -0.1220E-09 -0.7493E-07 -0.7488E-10 -0.4870E-07
    -17.702 -0.3707E-11 -0.1336E-07 -0.3749E-11 -0.1400E-07 -0.2300E-11 -0.9095E-08
    -17.602 -0.6673E-13 -0.1296E-08 -0.6747E-13 -0.1358E-08 -0.4139E-13 -0.8819E-09
    -17.501 -0.7094E-15 -0.7021E-10 -0.7173E-15 -0.7355E-10 -0.4401E-15 -0.4778E-10
    -17.401 -0.4477E-17 -0.2192E-11 -0.4527E-17 -0.2296E-11 -0.2777E-17 -0.1491E-11
    -17.300 -0.1747E-19 -0.4004E-13 -0.1767E-19 -0.4195E-13 -0.1084E-19 -0.2725E-13
    -17.199  0.0000E+00 -0.4319E-15  0.0000E+00 -0.4525E-15  0.0000E+00 -0.2939E-15
    -17.099  0.0000E+00 -0.2766E-17  0.0000E+00 -0.2898E-17  0.0000E+00 -0.1882E-17
    -16.998  0.0000E+00 -0.1087E-19  0.0000E+00 -0.1139E-19  0.0000E+00 -0.7396E-20
    -16.898  0.0000E+00  0.0000E+00  0.0000E+00  0.0000E+00  0.0000E+00  0.0000E+00
    -16.797  0.0000E+00  0.0000E+00  0.0000E+00  0.0000E+00  0.0000E+00  0.0000E+00
    -16.696  0.0000E+00  0.0000E+00  0.0000E+00  0.0000E+00  0.0000E+00  0.0000E+00
    -16.596  0.0000E+00  0.0000E+00  0.0000E+00  0.0000E+00  0.0000E+00  0.0000E+00
    -16.495  0.0000E+00  0.0000E+00  0.0000E+00  0.0000E+00  0.0000E+00  0.0000E+00
    -16.395  0.0000E+00  0.0000E+00  0.0000E+00  0.0000E+00  0.0000E+00  0.0000E+00
    -16.294  0.0000E+00  0.0000E+00  0.0000E+00  0.0000E+00  0.0000E+00  0.0000E+00
    -16.193  0.0000E+00  0.0000E+00  0.0000E+00  0.0000E+00  0.0000E+00  0.0000E+00
    -16.093  0.0000E+00  0.0000E+00  0.0000E+00  0.0000E+00  0.0000E+00  0.0000E+00
    -15.992  0.0000E+00  0.0000E+00  0.0000E+00  0.0000E+00  0.0000E+00  0.0000E+00
    -15.892  0.0000E+00  0.0000E+00  0.0000E+00  0.0000E+00  0.0000E+00  0.0000E+00
    -15.791  0.0000E+00  0.0000E+00  0.0000E+00  0.0000E+00  0.0000E+00  0.0000E+00
    -15.690  0.0000E+00  0.0000E+00  0.0000E+00  0.0000E+00  0.0000E+00  0.0000E+00
    -15.590  0.0000E+00  0.0000E+00  0.0000E+00  0.0000E+00  0.0000E+00  0.0000E+00
    -15.489  0.0000E+00  0.0000E+00  0.0000E+00  0.0000E+00  0.0000E+00  0.0000E+00
    -15.388  0.0000E+00  0.0000E+00  0.0000E+00  0.0000E+00  0.0000E+00  0.0000E+00
    -15.288  0.0000E+00  0.0000E+00  0.0000E+00  0.0000E+00  0.0000E+00  0.0000E+00
    -15.187  0.0000E+00  0.0000E+00  0.0000E+00  0.0000E+00  0.0000E+00  0.0000E+00
    -15.087  0.0000E+00  0.0000E+00  0.0000E+00  0.0000E+00  0.0000E+00  0.0000E+00
    -14.986  0.0000E+00  0.0000E+00  0.0000E+00  0.0000E+00  0.0000E+00  0.0000E+00
    -14.885  0.0000E+00  0.0000E+00  0.0000E+00  0.0000E+00  0.0000E+00  0.0000E+00
    -14.785  0.0000E+00  0.0000E+00  0.0000E+00  0.0000E+00  0.0000E+00  0.0000E+00
    -14.684  0.0000E+00  0.0000E+00  0.0000E+00  0.0000E+00  0.0000E+00  0.0000E+00
    -14.584  0.0000E+00  0.0000E+00  0.0000E+00  0.0000E+00  0.0000E+00  0.0000E+00
    -14.483  0.0000E+00  0.0000E+00  0.0000E+00  0.0000E+00  0.0000E+00  0.0000E+00
    -14.382  0.0000E+00  0.0000E+00  0.0000E+00  0.0000E+00  0.0000E+00  0.0000E+00
    -14.282  0.0000E+00  0.0000E+00  0.0000E+00  0.0000E+00  0.0000E+00  0.0000E+00
    -14.181  0.0000E+00  0.0000E+00  0.0000E+00  0.0000E+00  0.0000E+00  0.0000E+00
    -14.081  0.0000E+00  0.0000E+00  0.0000E+00  0.0000E+00  0.0000E+00  0.0000E+00
    -13.980  0.0000E+00  0.0000E+00  0.0000E+00  0.0000E+00  0.0000E+00  0.0000E+00
    -13.879  0.0000E+00  0.0000E+00  0.0000E+00  0.0000E+00  0.0000E+00  0.0000E+00
    -13.779  0.0000E+00  0.0000E+00  0.0000E+00  0.0000E+00  0.0000E+00  0.0000E+00
    -13.678  0.0000E+00  0.0000E+00  0.0000E+00  0.0000E+00  0.0000E+00  0.0000E+00
    -13.578  0.0000E+00  0.0000E+00  0.0000E+00  0.0000E+00  0.0000E+00  0.0000E+00
    -13.477  0.0000E+00  0.0000E+00  0.0000E+00  0.0000E+00  0.0000E+00  0.0000E+00
    -13.376  0.0000E+00  0.0000E+00  0.0000E+00  0.0000E+00  0.0000E+00  0.0000E+00
    -13.276  0.0000E+00  0.0000E+00  0.0000E+00  0.0000E+00  0.0000E+00  0.0000E+00
    -13.175  0.0000E+00  0.0000E+00  0.0000E+00  0.0000E+00  0.0000E+00  0.0000E+00
    -13.074  0.0000E+00  0.0000E+00  0.0000E+00  0.0000E+00  0.0000E+00  0.0000E+00
    -12.974  0.0000E+00  0.0000E+00  0.0000E+00  0.0000E+00  0.0000E+00  0.0000E+00
    -12.873  0.0000E+00  0.0000E+00  0.0000E+00  0.0000E+00  0.0000E+00  0.0000E+00
    -12.773  0.0000E+00  0.0000E+00  0.0000E+00  0.0000E+00  0.0000E+00  0.0000E+00
    -12.672  0.0000E+00  0.0000E+00  0.0000E+00  0.0000E+00  0.0000E+00  0.0000E+00
    -12.571  0.0000E+00  0.0000E+00  0.0000E+00  0.0000E+00  0.0000E+00  0.0000E+00
    -12.471  0.0000E+00  0.0000E+00  0.0000E+00  0.0000E+00  0.0000E+00  0.0000E+00
    -12.370  0.0000E+00  0.0000E+00  0.0000E+00  0.0000E+00  0.0000E+00  0.0000E+00
    -12.270  0.0000E+00  0.0000E+00  0.0000E+00  0.0000E+00  0.0000E+00  0.0000E+00
    -12.169  0.0000E+00  0.0000E+00  0.0000E+00  0.0000E+00  0.0000E+00  0.0000E+00
    -12.068  0.0000E+00  0.0000E+00  0.0000E+00  0.0000E+00  0.0000E+00  0.0000E+00
    -11.968  0.0000E+00  0.0000E+00  0.0000E+00  0.0000E+00  0.0000E+00  0.0000E+00
    -11.867  0.0000E+00  0.0000E+00  0.0000E+00  0.0000E+00  0.0000E+00  0.0000E+00
    -11.767  0.0000E+00  0.0000E+00  0.0000E+00  0.0000E+00  0.0000E+00  0.0000E+00
    -11.666  0.0000E+00  0.0000E+00  0.0000E+00  0.0000E+00  0.0000E+00  0.0000E+00
    -11.565  0.0000E+00  0.0000E+00  0.0000E+00  0.0000E+00  0.0000E+00  0.0000E+00
    -11.465  0.0000E+00  0.0000E+00  0.0000E+00  0.0000E+00  0.0000E+00  0.0000E+00
    -11.364  0.0000E+00  0.0000E+00  0.0000E+00  0.0000E+00  0.0000E+00  0.0000E+00
    -11.264  0.0000E+00  0.0000E+00  0.0000E+00  0.0000E+00  0.0000E+00  0.0000E+00
    -11.163  0.0000E+00  0.0000E+00  0.0000E+00  0.0000E+00  0.0000E+00  0.0000E+00
    -11.062  0.0000E+00  0.0000E+00  0.0000E+00  0.0000E+00  0.0000E+00  0.0000E+00
    -10.962  0.0000E+00  0.0000E+00  0.0000E+00  0.0000E+00  0.0000E+00  0.0000E+00
    -10.861  0.0000E+00  0.0000E+00  0.0000E+00  0.0000E+00  0.0000E+00  0.0000E+00
    -10.760  0.0000E+00  0.0000E+00  0.0000E+00  0.0000E+00  0.0000E+00  0.0000E+00
    -10.660  0.0000E+00  0.0000E+00  0.0000E+00  0.0000E+00  0.0000E+00  0.0000E+00
    -10.559  0.0000E+00  0.0000E+00  0.0000E+00  0.0000E+00  0.0000E+00  0.0000E+00
    -10.459  0.0000E+00  0.0000E+00  0.0000E+00  0.0000E+00  0.0000E+00  0.0000E+00
    -10.358  0.0000E+00  0.0000E+00  0.0000E+00  0.0000E+00  0.0000E+00  0.0000E+00
    -10.257  0.0000E+00  0.0000E+00  0.0000E+00  0.0000E+00  0.0000E+00  0.0000E+00
    -10.157  0.0000E+00  0.0000E+00  0.0000E+00  0.0000E+00  0.0000E+00  0.0000E+00
    -10.056  0.0000E+00  0.0000E+00  0.0000E+00  0.0000E+00  0.0000E+00  0.0000E+00
     -9.956 -0.9210E-32  0.0000E+00 -0.1047E-33  0.0000E+00 -0.1716E-34  0.0000E+00
     -9.855 -0.3154E-28 -0.6345E-30 -0.3587E-30 -0.6539E-32 -0.5877E-31 -0.1138E-32
     -9.754 -0.6487E-25 -0.1682E-26 -0.7376E-27 -0.1734E-28 -0.1209E-27 -0.3018E-29
     -9.654 -0.8003E-22 -0.2678E-23 -0.9100E-24 -0.2759E-25 -0.1491E-24 -0.4803E-26
     -9.553 -0.5919E-19 -0.2556E-20 -0.6731E-21 -0.2634E-22 -0.1103E-21 -0.4585E-23
     -9.453 -0.2523E-16 -0.1462E-17 -0.2869E-18 -0.1507E-19 -0.4700E-19 -0.2623E-20
     -9.352 -0.6711E-14 -0.4853E-15 -0.7631E-16 -0.5001E-17 -0.1250E-16 -0.8706E-18
     -9.251 -0.1053E-11 -0.9856E-13 -0.1198E-13 -0.1016E-14 -0.1963E-14 -0.1768E-15
     -9.151 -0.9818E-10 -0.1192E-10 -0.1117E-11 -0.1228E-12 -0.1829E-12 -0.2138E-13
     -9.050 -0.5405E-08 -0.8536E-09 -0.6149E-10 -0.8800E-11 -0.1007E-10 -0.1531E-11
     -8.950 -0.1742E-06 -0.3597E-07 -0.1985E-08 -0.3711E-09 -0.3247E-09 -0.6454E-10
     -8.849 -0.3242E-05 -0.8824E-06 -0.3711E-07 -0.9128E-08 -0.6043E-08 -0.1583E-08
     -8.748 -0.3394E-04 -0.1236E-04 -0.3951E-06 -0.1290E-06 -0.6332E-07 -0.2218E-07
     -8.648 -0.1895E-03 -0.9534E-04 -0.2352E-05 -0.1030E-05 -0.3548E-06 -0.1711E-06
     -8.547 -0.4886E-03 -0.3730E-03 -0.7959E-05 -0.4612E-05 -0.9316E-06 -0.6707E-06
     -8.446 -0.1955E-03 -0.5524E-03 -0.1785E-04 -0.1259E-04 -0.5023E-06 -0.1004E-05
     -8.346  0.1898E-02  0.5924E-03 -0.2342E-04 -0.2495E-04  0.3138E-05  0.1005E-05
     -8.245  0.7614E-02  0.4346E-02  0.9440E-04  0.8534E-06  0.1425E-04  0.7714E-05
     -8.145  0.2264E-01  0.1510E-01  0.6180E-03  0.3007E-03  0.4521E-04  0.2734E-04
     -8.044  0.4117E-01  0.3661E-01  0.1298E-02  0.1020E-02  0.8279E-04  0.6663E-04
     -7.943  0.3719E-01  0.4772E-01  0.1160E-02  0.1402E-02  0.7048E-04  0.8552E-04
     -7.843  0.1358E-01  0.2874E-01  0.3597E-03  0.7811E-03  0.1883E-04  0.4594E-04
     -7.742  0.7305E-02  0.9962E-02  0.4735E-03  0.2120E-03  0.3239E-04  0.1071E-04
     -7.642  0.2749E-01  0.2081E-01  0.2046E-02  0.1035E-02  0.1547E-03  0.6360E-04
     -7.541  0.4690E-01  0.4050E-01  0.3721E-02  0.2879E-02  0.3137E-03  0.1911E-03
     -7.440  0.5167E-01  0.4707E-01  0.4583E-02  0.4556E-02  0.4563E-03  0.3364E-03
     -7.340  0.4497E-01  0.4865E-01  0.4280E-02  0.5368E-02  0.4758E-03  0.4395E-03
     -7.239  0.2400E-01  0.3936E-01  0.2262E-02  0.4204E-02  0.2494E-03  0.3606E-03
     -7.139  0.1607E-02  0.1505E-01 -0.5966E-04  0.1414E-02 -0.5732E-04  0.1054E-03