       N       E                     dE             d eps       ncg     rms          rms(c)
DAV:   1    -0.399378579734E+03   -0.39938E+03   -0.15758E+03  8991   0.471E+01    0.749E+00
RMM:   2    -0.413081264331E+03   -0.13703E+02   -0.13504E+02  8491   0.229E+01    0.130E+01
RMM:   3    -0.415587890332E+03   -0.25066E+01   -0.81781E+00  8449   0.583E+00    0.240E+01
RMM:   4    -0.414547662316E+03    0.10402E+01   -0.14751E+00  8554   0.275E+00    0.216E+01
RMM:   5    -0.412814765370E+03    0.17329E+01   -0.65761E-01  8473   0.202E+00    0.572E+00
RMM:   6    -0.412795573939E+03    0.19191E-01   -0.24337E-01  8467   0.121E+00    0.447E+00
RMM:   7    -0.412761691928E+03    0.33882E-01   -0.67911E-02  8488   0.657E-01    0.326E+00
RMM:   8    -0.412736570979E+03    0.25121E-01   -0.23701E-02  8463   0.394E-01    0.191E+00
RMM:   9    -0.412736362140E+03    0.20884E-03   -0.62191E-03  8520   0.178E-01    0.200E+00
RMM:  10    -0.412730266087E+03    0.60961E-02   -0.37646E-03  8488   0.145E-01    0.175E+00
RMM:  11    -0.412724613923E+03    0.56522E-02   -0.32317E-03  8469   0.136E-01    0.166E+00
RMM:  12    -0.412706880463E+03    0.17733E-01   -0.40559E-03  8467   0.147E-01    0.120E+00
RMM:  13    -0.412697123284E+03    0.97572E-02   -0.21863E-03  8470   0.114E-01    0.942E-01
RMM:  14    -0.412685980219E+03    0.11143E-01   -0.19597E-03  8476   0.105E-01    0.814E-01
RMM:  15    -0.412679204073E+03    0.67761E-02   -0.10407E-03  8456   0.798E-02    0.583E-01
RMM:  16    -0.412674844439E+03    0.43596E-02   -0.83218E-04  8444   0.703E-02    0.572E-01
RMM:  17    -0.412667559168E+03    0.72853E-02   -0.76705E-04  8470   0.697E-02    0.331E-01
RMM:  18    -0.412668073795E+03   -0.51463E-03   -0.39785E-04  8413   0.499E-02    0.265E-01
RMM:  19    -0.412675335571E+03   -0.72618E-02   -0.43564E-04  8446   0.481E-02    0.234E-01
RMM:  20    -0.412682418747E+03   -0.70832E-02   -0.29734E-04  8401   0.397E-02    0.154E-01
RMM:  21    -0.412696274415E+03   -0.13856E-01   -0.41398E-04  8391   0.380E-02    0.215E-01
RMM:  22    -0.412712775334E+03   -0.16501E-01   -0.59029E-04  8410   0.380E-02    0.118E-01
RMM:  23    -0.412719880050E+03   -0.71047E-02   -0.25864E-04  8361   0.296E-02    0.114E-01
RMM:  24    -0.412732585562E+03   -0.12706E-01   -0.64478E-04  8378   0.318E-02    0.115E-01
RMM:  25    -0.412736205034E+03   -0.36195E-02   -0.17921E-04  8191   0.221E-02    0.576E-02
RMM:  26    -0.412739646241E+03   -0.34412E-02   -0.15482E-04  8110   0.196E-02    0.895E-02
RMM:  27    -0.412743153238E+03   -0.35070E-02   -0.19274E-04  8133   0.191E-02    0.452E-02
RMM:  28    -0.412744076035E+03   -0.92280E-03   -0.43380E-05  6260   0.112E-02    0.685E-02
RMM:  29    -0.412745073383E+03   -0.99735E-03   -0.49087E-05  6325   0.101E-02    0.640E-02
RMM:  30    -0.412745348766E+03   -0.27538E-03   -0.16809E-05  5316   0.736E-03    0.430E-02
RMM:  31    -0.412745493188E+03   -0.14442E-03   -0.12427E-05  5166   0.553E-03    0.247E-02
RMM:  32    -0.412745582236E+03   -0.89048E-04   -0.12305E-05  5269   0.597E-03    0.617E-02
RMM:  33    -0.412745601920E+03   -0.19684E-04   -0.37181E-06  4784   0.412E-03    0.530E-02
RMM:  34    -0.412745605998E+03   -0.40778E-05   -0.11510E-06  4570   0.270E-03
   1 F= -.42969336E+03 E0= -.42970089E+03  d E =-.429693E+03  mag=    73.7531
