 vasp.5.4.4.18Apr17-6-g9f103f2a35 (build Dec 15 2018 21:27:11) complex          
  
 executed on             LinuxIFC date 2022.03.01  04:52:36
 running on   72 total cores
 distrk:  each k-point on   72 cores,    1 groups
 distr:  one band on NCORES_PER_BAND=  24 cores,    3 groups


--------------------------------------------------------------------------------------------------------


 INCAR:
 POTCAR:    PAW_PBE Ni 02Aug2007                  
 POTCAR:    PAW_PBE Fe 06Sep2000                  
 POTCAR:    PAW_PBE O 08Apr2002                   
 POTCAR:    PAW_PBE H 15Jun2001                   

 ----------------------------------------------------------------------------- 
|                                                                             |
|           W    W    AA    RRRRR   N    N  II  N    N   GGGG   !!!           |
|           W    W   A  A   R    R  NN   N  II  NN   N  G    G  !!!           |
|           W    W  A    A  R    R  N N  N  II  N N  N  G       !!!           |
|           W WW W  AAAAAA  RRRRR   N  N N  II  N  N N  G  GGG   !            |
|           WW  WW  A    A  R   R   N   NN  II  N   NN  G    G                |
|           W    W  A    A  R    R  N    N  II  N    N   GGGG   !!!           |
|                                                                             |
|      For optimal performance we recommend to set                            |
|        NCORE= 4 - approx SQRT( number of cores)                             |
|      NCORE specifies how many cores store one orbital (NPAR=cpu/NCORE).     |
|      This setting can  greatly improve the performance of VASP for DFT.     |
|      The default,   NCORE=1            might be grossly inefficient         |
|      on modern multi-core architectures or massively parallel machines.     |
|      Do your own testing !!!!                                               |
|      Unfortunately you need to use the default for GW and RPA calculations. |
|      (for HF NCORE is supported but not extensively tested yet)             |
|                                                                             |
 ----------------------------------------------------------------------------- 

 POTCAR:    PAW_PBE Ni 02Aug2007                  
   VRHFIN =Ni:                                                                  
   LEXCH  = PE                                                                  
   EATOM  =  1077.6739 eV,   79.2068 Ry                                         
                                                                                
   TITEL  = PAW_PBE Ni 02Aug2007                                                
   LULTRA =        F    use ultrasoft PP ?                                      
   IUNSCR =        1    unscreen: 0-lin 1-nonlin 2-no                           
   RPACOR =    2.000    partial core radius                                     
   POMASS =   58.690; ZVAL   =   10.000    mass and valenz                      
   RCORE  =    2.300    outmost cutoff radius                                   
   RWIGS  =    2.430; RWIGS  =    1.286    wigner-seitz radius (au A)           
   ENMAX  =  269.532; ENMIN  =  202.149 eV                                      
   RCLOC  =    1.201    cutoff for local pot                                    
   LCOR   =        T    correct aug charges                                     
   LPAW   =        T    paw PP                                                  
   EAUG   =  544.565                                                            
   DEXC   =    0.000                                                            
   RMAX   =    2.357    core radius for proj-oper                               
   RAUG   =    1.300    factor for augmentation sphere                          
   RDEP   =    2.390    radius for radial grids                                 
   RDEPT  =    1.838    core radius for aug-charge                              
                                                                                
   Atomic configuration                                                         
    9 entries                                                                   
     n  l   j            E        occ.                                          
     1  0  0.50     -8206.4253   2.0000                                         
     2  0  0.50      -976.1748   2.0000                                         
     2  1  1.50      -839.0571   6.0000                                         
     3  0  0.50      -105.9991   2.0000                                         
     3  1  1.50       -66.4603   6.0000                                         
     3  2  2.50        -4.6458   9.0000                                         
     4  0  0.50        -4.4926   1.0000                                         
     4  1  1.50        -4.0817   0.0000                                         
     4  3  2.50        -1.3606   0.0000                                         
   Description                                                                  
     l       E           TYP  RCUT    TYP  RCUT                                 
     2     -4.6457903     23  2.300                                             
     2     -6.0063729     23  2.300                                             
     0     -4.4925590     23  2.300                                             
     0      5.0102601     23  2.300                                             
     1     -2.7211652     23  2.300                                             
     1     16.5183231     23  2.300                                             
  local pseudopotential read in
  partial core-charges read in
  partial kinetic energy density read in
  atomic valenz-charges read in
  non local Contribution for L=           2  read in
    real space projection operators read in
  non local Contribution for L=           2  read in
    real space projection operators read in
  non local Contribution for L=           0  read in
    real space projection operators read in
  non local Contribution for L=           0  read in
    real space projection operators read in
  non local Contribution for L=           1  read in
    real space projection operators read in
  non local Contribution for L=           1  read in
    real space projection operators read in
    PAW grid and wavefunctions read in
 
   number of l-projection  operators is LMAX  =           6
   number of lm-projection operators is LMMAX =          18
 
 POTCAR:    PAW_PBE Fe 06Sep2000                  
   VRHFIN =Fe:  d7 s1                                                           
   LEXCH  = PE                                                                  
   EATOM  =   594.3153 eV,   43.6809 Ry                                         
                                                                                
   TITEL  = PAW_PBE Fe 06Sep2000                                                
   LULTRA =        F    use ultrasoft PP ?                                      
   IUNSCR =        1    unscreen: 0-lin 1-nonlin 2-no                           
   RPACOR =    2.000    partial core radius                                     
   POMASS =   55.847; ZVAL   =    8.000    mass and valenz                      
   RCORE  =    2.300    outmost cutoff radius                                   
   RWIGS  =    2.460; RWIGS  =    1.302    wigner-seitz radius (au A)           
   ENMAX  =  267.882; ENMIN  =  200.911 eV                                      
   RCLOC  =    1.701    cutoff for local pot                                    
   LCOR   =        T    correct aug charges                                     
   LPAW   =        T    paw PP                                                  
   EAUG   =  511.368                                                            
   DEXC   =    0.000                                                            
   RMAX   =    2.356    core radius for proj-oper                               
   RAUG   =    1.300    factor for augmentation sphere                          
   RDEP   =    2.442    radius for radial grids                                 
   RDEPT  =    1.890    core radius for aug-charge                              
                                                                                
   Atomic configuration                                                         
    9 entries                                                                   
     n  l   j            E        occ.                                          
     1  0  0.50     -6993.8440   2.0000                                         
     2  0  0.50      -814.6047   2.0000                                         
     2  1  1.50      -693.3689   6.0000                                         
     3  0  0.50       -89.4732   2.0000                                         
     3  1  1.50       -55.6373   6.0000                                         
     3  2  2.50        -3.8151   7.0000                                         
     4  0  0.50        -4.2551   1.0000                                         
     4  1  1.50        -3.4015   0.0000                                         
     4  3  2.50        -1.3606   0.0000                                         
   Description                                                                  
     l       E           TYP  RCUT    TYP  RCUT                                 
     2     -3.8151135     23  2.300                                             
     2     -5.1756961     23  2.300                                             
     0     -4.2550963     23  2.300                                             
     0      7.2035603     23  2.300                                             
     1     -2.7211652     23  2.300                                             
     1     18.4316424     23  2.300                                             
  local pseudopotential read in
  partial core-charges read in
  partial kinetic energy density read in
  atomic valenz-charges read in
  non local Contribution for L=           2  read in
    real space projection operators read in
  non local Contribution for L=           2  read in
    real space projection operators read in
  non local Contribution for L=           0  read in
    real space projection operators read in
  non local Contribution for L=           0  read in
    real space projection operators read in
  non local Contribution for L=           1  read in
    real space projection operators read in
  non local Contribution for L=           1  read in
    real space projection operators read in
    PAW grid and wavefunctions read in
 
   number of l-projection  operators is LMAX  =           6
   number of lm-projection operators is LMMAX =          18
 
 POTCAR:    PAW_PBE O 08Apr2002                   
   VRHFIN =O: s2p4                                                              
   LEXCH  = PE                                                                  
   EATOM  =   432.3788 eV,   31.7789 Ry                                         
                                                                                
   TITEL  = PAW_PBE O 08Apr2002                                                 
   LULTRA =        F    use ultrasoft PP ?                                      
   IUNSCR =        1    unscreen: 0-lin 1-nonlin 2-no                           
   RPACOR =    1.200    partial core radius                                     
   POMASS =   16.000; ZVAL   =    6.000    mass and valenz                      
   RCORE  =    1.520    outmost cutoff radius                                   
   RWIGS  =    1.550; RWIGS  =    0.820    wigner-seitz radius (au A)           
   ENMAX  =  400.000; ENMIN  =  300.000 eV                                      
   ICORE  =        2    local potential                                         
   LCOR   =        T    correct aug charges                                     
   LPAW   =        T    paw PP                                                  
   EAUG   =  605.392                                                            
   DEXC   =    0.000                                                            
   RMAX   =    1.553    core radius for proj-oper                               
   RAUG   =    1.300    factor for augmentation sphere                          
   RDEP   =    1.550    radius for radial grids                                 
   RDEPT  =    1.329    core radius for aug-charge                              
                                                                                
   Atomic configuration                                                         
    4 entries                                                                   
     n  l   j            E        occ.                                          
     1  0  0.50      -514.6923   2.0000                                         
     2  0  0.50       -23.9615   2.0000                                         
     2  1  0.50        -9.0305   4.0000                                         
     3  2  1.50        -9.5241   0.0000                                         
   Description                                                                  
     l       E           TYP  RCUT    TYP  RCUT                                 
     0    -23.9615318     23  1.200                                             
     0     -9.5240782     23  1.200                                             
     1     -9.0304911     23  1.520                                             
     1      8.1634956     23  1.520                                             
     2     -9.5240782      7  1.500                                             
  local pseudopotential read in
  partial core-charges read in
  partial kinetic energy density read in
  kinetic energy density of atom read in
  atomic valenz-charges read in
  non local Contribution for L=           0  read in
    real space projection operators read in
  non local Contribution for L=           0  read in
    real space projection operators read in
  non local Contribution for L=           1  read in
    real space projection operators read in
  non local Contribution for L=           1  read in
    real space projection operators read in
    PAW grid and wavefunctions read in
 
   number of l-projection  operators is LMAX  =           4
   number of lm-projection operators is LMMAX =           8
 
 POTCAR:    PAW_PBE H 15Jun2001                   
   VRHFIN =H: ultrasoft test                                                    
   LEXCH  = PE                                                                  
   EATOM  =    12.4884 eV,    0.9179 Ry                                         
                                                                                
   TITEL  = PAW_PBE H 15Jun2001                                                 
   LULTRA =        F    use ultrasoft PP ?                                      
   IUNSCR =        0    unscreen: 0-lin 1-nonlin 2-no                           
   RPACOR =    0.000    partial core radius                                     
   POMASS =    1.000; ZVAL   =    1.000    mass and valenz                      
   RCORE  =    1.100    outmost cutoff radius                                   
   RWIGS  =    0.700; RWIGS  =    0.370    wigner-seitz radius (au A)           
   ENMAX  =  250.000; ENMIN  =  200.000 eV                                      
   RCLOC  =    0.701    cutoff for local pot                                    
   LCOR   =        T    correct aug charges                                     
   LPAW   =        T    paw PP                                                  
   EAUG   =  400.000                                                            
   RMAX   =    1.123    core radius for proj-oper                               
   RAUG   =    1.200    factor for augmentation sphere                          
   RDEP   =    1.112    radius for radial grids                                 
   RDEPT  =    0.926    core radius for aug-charge                              
                                                                                
   Atomic configuration                                                         
    2 entries                                                                   
     n  l   j            E        occ.                                          
     1  0  0.50        -6.4927   1.0000                                         
     2  1  0.50        -3.4015   0.0000                                         
   Description                                                                  
     l       E           TYP  RCUT    TYP  RCUT                                 
     0     -6.4927494     23  1.100                                             
     0      6.8029130     23  1.100                                             
     1     -4.0817478     23  1.100                                             
  local pseudopotential read in
  atomic valenz-charges read in
  non local Contribution for L=           0  read in
    real space projection operators read in
  non local Contribution for L=           0  read in
    real space projection operators read in
  non local Contribution for L=           1  read in
    real space projection operators read in
    PAW grid and wavefunctions read in
 
   number of l-projection  operators is LMAX  =           3
   number of lm-projection operators is LMMAX =           5
 
 Optimization of the real space projectors (new method)

 maximal supplied QI-value         = 16.25
 optimisation between [QCUT,QGAM] = [ 11.54, 23.24] = [ 37.28,151.24] Ry 
 Optimized for a Real-space Cutoff    1.45 Angstroem

   l    n(q)    QCUT    max X(q) W(low)/X(q) W(high)/X(q)  e(spline) 
   2      9    11.539    60.317    0.19E-03    0.47E-04    0.16E-06
   2      9    11.539    55.921    0.19E-03    0.48E-04    0.16E-06
   0     10    11.539    51.690    0.80E-04    0.50E-04    0.24E-06
   0     10    11.539    30.015    0.73E-04    0.45E-04    0.22E-06
   1     10    11.539    18.849    0.87E-04    0.16E-03    0.71E-07
   1     10    11.539    14.624    0.73E-04    0.13E-03    0.64E-07
 Optimization of the real space projectors (new method)

 maximal supplied QI-value         = 16.25
 optimisation between [QCUT,QGAM] = [ 11.54, 23.24] = [ 37.28,151.24] Ry 
 Optimized for a Real-space Cutoff    1.53 Angstroem

   l    n(q)    QCUT    max X(q) W(low)/X(q) W(high)/X(q)  e(spline) 
   2     10    11.539    80.901    0.11E-03    0.14E-03    0.21E-06
   2     10    11.539    75.754    0.11E-03    0.14E-03    0.22E-06
   0     11    11.539    58.752    0.52E-04    0.18E-04    0.33E-06
   0     11    11.539    30.679    0.44E-04    0.16E-04    0.30E-06
   1     10    11.539    17.977    0.53E-04    0.29E-04    0.13E-06
   1     10    11.539    13.559    0.44E-04    0.25E-04    0.11E-06
 Optimization of the real space projectors (new method)

 maximal supplied QI-value         = 24.76
 optimisation between [QCUT,QGAM] = [ 11.64, 23.27] = [ 37.91,151.63] Ry 
 Optimized for a Real-space Cutoff    1.14 Angstroem

   l    n(q)    QCUT    max X(q) W(low)/X(q) W(high)/X(q)  e(spline) 
   0      8    11.635    20.381    0.10E-03    0.33E-03    0.24E-06
   0      8    11.635    15.268    0.11E-03    0.35E-03    0.26E-06
   1      7    11.635     5.964    0.24E-03    0.31E-03    0.30E-06
   1      7    11.635     5.382    0.22E-03    0.25E-03    0.26E-06
 Optimization of the real space projectors (new method)

 maximal supplied QI-value         = 34.20
 optimisation between [QCUT,QGAM] = [ 11.63, 23.26] = [ 37.87,151.49] Ry 
 Optimized for a Real-space Cutoff    1.21 Angstroem

   l    n(q)    QCUT    max X(q) W(low)/X(q) W(high)/X(q)  e(spline) 
   0      8    11.629    19.460    0.17E-03    0.34E-03    0.21E-06
   0      8    11.629    12.209    0.16E-03    0.33E-03    0.21E-06
   1      8    11.629     4.655    0.18E-03    0.16E-03    0.26E-06
  PAW_PBE Ni 02Aug2007                  :
 energy of atom  1       EATOM=-1077.6739
 kinetic energy error for atom=    0.0030 (will be added to EATOM!!)
  PAW_PBE Fe 06Sep2000                  :
 energy of atom  2       EATOM= -594.3153
 kinetic energy error for atom=    0.0026 (will be added to EATOM!!)
  PAW_PBE O 08Apr2002                   :
 energy of atom  3       EATOM= -432.3788
 kinetic energy error for atom=    0.0208 (will be added to EATOM!!)
  PAW_PBE H 15Jun2001                   :
 energy of atom  4       EATOM=  -12.4884
 kinetic energy error for atom=    0.0014 (will be added to EATOM!!)
 
 
 POSCAR: POSCAR                                  
  positions in direct lattice
  velocities in cartesian coordinates
 exchange correlation table for  LEXCH =        8
   RHO(1)=    0.500       N(1)  =     2000
   RHO(2)=  100.500       N(2)  =     4000

 VTST: version 3.2, (02/03/18)

 CHAIN: initializing optimizer
 
 OPT: Using VASP Conjugate-Gradient optimizer
 CHAIN: Read ICHAIN            0
 
 POSCAR: POSCAR                                  
  positions in direct lattice
  velocities in cartesian coordinates
 


--------------------------------------------------------------------------------------------------------


 ion  position               nearest neighbor table
   1  0.999  1.000  0.287-  18 2.48  41 2.48  50 2.48  49 2.48   8 2.48  47 2.49   5 2.49  33 2.50
                             2 2.50   4 2.50  26 2.51   6 2.53
   2  0.248  0.000  0.285-  11 2.45  44 2.45  51 2.45  50 2.47  26 2.50   1 2.50   9 2.50   6 2.51
                             3 2.51  41 2.52  27 2.52  43 2.55
   3  0.498  0.999  0.287-  14 2.46  43 2.46  51 2.46  64 2.46  17 2.47  45 2.48  27 2.50   4 2.51
                             9 2.51   2 2.51  30 2.52  12 2.53
   4  0.748  0.998  0.286-  16 2.43  48 2.45  17 2.46  18 2.48  30 2.49  64 2.50   1 2.50   3 2.51
                             5 2.51  33 2.53  47 2.53  12 2.53
   5  0.999  0.248  0.287-  60 2.43  16 2.43  18 2.47  22 2.48   1 2.49  52 2.51   6 2.51   4 2.51
                            21 2.51  12 2.51  19 2.51   8 2.53
   6  0.251  0.252  0.287-  11 2.41  56 2.47  52 2.48  22 2.49   9 2.50   2 2.51   5 2.51  50 2.51
                             1 2.53  53 2.53  55 2.55   8 2.55
   7  0.083  0.166  0.096-  50 2.47  15 2.50  40 2.50  18 2.50  54 2.50  10 2.50  46 2.51  22 2.51
                            20 2.51
   8  0.079  0.159  0.385-  67 1.85  47 2.43  41 2.44   1 2.48  11 2.50  16 2.50   5 2.53   6 2.55
                            55 2.56  21 2.57
   9  0.499  0.249  0.286-  11 2.44  59 2.44  56 2.45   6 2.50  51 2.50  53 2.50   2 2.50  12 2.51
                             3 2.51  14 2.53  25 2.53  23 2.54
  10  0.333  0.167  0.096-  13 2.50  56 2.50   7 2.50  24 2.51  40 2.51  42 2.51  50 2.51  54 2.52
                            51 2.52
  11  0.330  0.165  0.379-   6 2.41   9 2.44   2 2.45  41 2.48  25 2.48  55 2.49   8 2.50  43 2.52
                            14 2.52
  12  0.750  0.252  0.288-  16 2.43  59 2.44  60 2.46  58 2.48  17 2.50  23 2.50  19 2.51   9 2.51
                            14 2.51   5 2.51   3 2.53   4 2.53
  13  0.582  0.167  0.097-  51 2.48  24 2.49  42 2.50  17 2.50  10 2.50  63 2.52  59 2.52  57 2.52
                            15 2.53
  14  0.577  0.157  0.383-  65 1.84  43 2.41  64 2.42   3 2.46  12 2.51  16 2.52  11 2.52   9 2.53
                            25 2.58  58 2.58
  15  0.834  0.167  0.096-  20 2.49  60 2.49  18 2.49  46 2.49   7 2.50  17 2.51  63 2.51  57 2.53
                            13 2.53
  16  0.831  0.163  0.379-  12 2.43   4 2.43   5 2.43  47 2.48  64 2.50   8 2.50  58 2.51  21 2.51
                            14 2.52
  17  0.666  0.083  0.193-   4 2.46  60 2.47   3 2.47  51 2.48  59 2.49  13 2.50  12 2.50  45 2.50
                            48 2.51  15 2.51  63 2.51  18 2.52
  18  0.916  0.082  0.192-  50 2.46  60 2.47   5 2.47   1 2.48   4 2.48  46 2.48  15 2.49  49 2.50
                            48 2.50   7 2.50  22 2.51  17 2.52
  19  0.001  0.500  0.286-  60 2.47  29 2.47  52 2.49  27 2.49  39 2.49  21 2.50  12 2.51  23 2.51
                             5 2.51  61 2.52  26 2.52  58 2.53
  20  0.081  0.416  0.096-  61 2.48  15 2.49  57 2.49  22 2.50  54 2.51  28 2.51   7 2.51  31 2.52
                            60 2.53
  21  0.079  0.415  0.384-  67 1.85  58 2.44  29 2.45  19 2.50  32 2.51  16 2.51   5 2.51  52 2.51
                             8 2.57  55 2.57
  22  0.166  0.334  0.192-  52 2.47   5 2.48   6 2.49  60 2.49  54 2.49  36 2.50  20 2.50  50 2.50
                             7 2.51  18 2.51  56 2.52  61 2.54
  23  0.752  0.502  0.288-  33 2.46  53 2.47  59 2.47  26 2.49  38 2.49  12 2.50  39 2.51  19 2.51
                            58 2.52   9 2.54  62 2.55  25 2.56
  24  0.584  0.416  0.096-  13 2.49  62 2.49  57 2.50  10 2.51  56 2.51  34 2.51  37 2.52  54 2.53
                            59 2.54
  25  0.576  0.414  0.385-  65 1.88  55 2.42  53 2.45  35 2.46  11 2.48   9 2.53  38 2.53  23 2.56
                            14 2.58  58 2.60
  26  0.000  0.750  0.287-  49 2.46  33 2.47  44 2.48  23 2.49  39 2.50   2 2.50  27 2.50   1 2.51
                            41 2.51  29 2.51  19 2.52  38 2.55
  27  0.249  0.749  0.285-  45 2.45  32 2.46  61 2.46  44 2.46  19 2.49  29 2.50  26 2.50   3 2.50
                            52 2.52   2 2.52  30 2.53  43 2.53
  28  0.084  0.668  0.095-  61 2.47  39 2.50  40 2.50  37 2.50  31 2.50  42 2.50  57 2.51  44 2.51
                            20 2.51
  29  0.084  0.662  0.382-  66 1.85  21 2.45  19 2.47  32 2.47  58 2.49  27 2.50  26 2.51  38 2.54
                            43 2.54  41 2.58
  30  0.501  0.749  0.287-  32 2.44  48 2.46  45 2.47   4 2.49  36 2.49  64 2.49  53 2.50   3 2.52
                            52 2.52  27 2.53  35 2.53  33 2.53
  31  0.333  0.667  0.094-  61 2.47  42 2.50  54 2.50  28 2.50  63 2.50  34 2.51  36 2.52  45 2.52
                            20 2.52
  32  0.331  0.664  0.378-  52 2.41  30 2.44  27 2.46  29 2.47  35 2.48  21 2.51  64 2.51  43 2.51
                            55 2.52
  33  0.752  0.747  0.288-  23 2.46  53 2.47  26 2.47  49 2.48  62 2.48   1 2.50  48 2.51  38 2.51
                            47 2.53  30 2.53   4 2.53  35 2.56
  34  0.583  0.667  0.095-  62 2.47  36 2.50  63 2.50  46 2.51  31 2.51  37 2.51  54 2.51  24 2.51
                            48 2.53
  35  0.576  0.659  0.385-  68 1.87  55 2.44  53 2.44  25 2.46  32 2.48  30 2.53  38 2.54  33 2.56
                            64 2.56  47 2.60
  36  0.417  0.582  0.191-  54 2.47  30 2.49  22 2.50  34 2.50  62 2.50  45 2.51  56 2.51  48 2.51
                            61 2.51  52 2.52  31 2.52  53 2.55
  37  0.834  0.668  0.095-  62 2.47  40 2.50  57 2.50  39 2.50  28 2.50  46 2.51  49 2.51  34 2.51
                            24 2.52
  38  0.832  0.663  0.385-  69 1.81  23 2.49  58 2.51  33 2.51  47 2.53  25 2.53  29 2.54  41 2.54
                            35 2.54  26 2.55
  39  0.917  0.583  0.191-  19 2.49  57 2.49  26 2.50  28 2.50  37 2.50  61 2.50  49 2.51  23 2.51
                            59 2.51  62 2.51  44 2.51  60 2.56
  40  0.083  0.917  0.095-  50 2.49  44 2.49  37 2.50  28 2.50   7 2.50  10 2.51  49 2.51  46 2.51
                            42 2.52
  41  0.083  0.919  0.383-  66 1.85   8 2.44  47 2.47  11 2.48   1 2.48  26 2.51   2 2.52  38 2.54
                            43 2.55  29 2.58
  42  0.334  0.917  0.095-  51 2.48  13 2.50  63 2.50  31 2.50  44 2.50  28 2.50  10 2.51  45 2.51
                            40 2.52
  43  0.337  0.917  0.382-  66 1.83  14 2.41  64 2.44   3 2.46  32 2.51  11 2.52  27 2.53  29 2.54
                             2 2.55  41 2.55
  44  0.167  0.835  0.191-   2 2.45  27 2.46  51 2.47  26 2.48  61 2.49  49 2.49  40 2.49  42 2.50
                            50 2.50  28 2.51  39 2.51  45 2.53
  45  0.417  0.832  0.192-  27 2.45  61 2.47  51 2.47  30 2.47   3 2.48  48 2.49  63 2.50  17 2.50
                            36 2.51  42 2.51  31 2.52  44 2.53
  46  0.832  0.917  0.096-  18 2.48  48 2.49  15 2.49  63 2.50  49 2.50   7 2.51  34 2.51  37 2.51
                            40 2.51
  47  0.836  0.918  0.384-  68 1.86   8 2.43  41 2.47  16 2.48   1 2.49  33 2.53   4 2.53  38 2.53
                            64 2.57  35 2.60
  48  0.666  0.833  0.192-   4 2.45  30 2.46  62 2.47  45 2.49  46 2.49  18 2.50  63 2.50  17 2.51
                            33 2.51  36 2.51  49 2.52  34 2.53
  49  0.917  0.833  0.192-  62 2.46  26 2.46  50 2.47  33 2.48   1 2.48  44 2.49  18 2.50  46 2.50
                            39 2.51  40 2.51  37 2.51  48 2.52
  50  0.162  0.082  0.191-  18 2.46   2 2.47   7 2.47  49 2.47   1 2.48  40 2.49  44 2.50  22 2.50
                             6 2.51  10 2.51  56 2.53  51 2.57
  51  0.416  0.078  0.192-   2 2.45   3 2.46  44 2.47  45 2.47  42 2.48  17 2.48  13 2.48   9 2.50
                            10 2.52  59 2.54  56 2.54  50 2.57
  52  0.248  0.498  0.287-  32 2.41  22 2.47   6 2.48  19 2.49   5 2.51  21 2.51  36 2.52  27 2.52
                            30 2.52  61 2.55  53 2.56  55 2.57
  53  0.506  0.502  0.289-  35 2.44  25 2.45  33 2.47  23 2.47   9 2.50  30 2.50  56 2.53   6 2.53
                            62 2.55  55 2.55  36 2.55  52 2.56
  54  0.331  0.417  0.096-  36 2.47  22 2.49  31 2.50   7 2.50  20 2.51  34 2.51  10 2.52  56 2.53
                            24 2.53
  55  0.335  0.415  0.387-  67 1.84  25 2.42  35 2.44  11 2.49  32 2.52   6 2.55  53 2.55   8 2.56
                            21 2.57  52 2.57
  56  0.416  0.331  0.193-   9 2.45   6 2.47  10 2.50  24 2.51  36 2.51  59 2.51  22 2.52  50 2.53
                            54 2.53  53 2.53  51 2.54  62 2.56
  57  0.834  0.418  0.094-  20 2.49  39 2.49  24 2.50  37 2.50  28 2.51  13 2.52  15 2.53  59 2.56
                            60 2.59
  58  0.835  0.415  0.384-  65 1.83  21 2.44  12 2.48  29 2.49  16 2.51  38 2.51  23 2.52  19 2.53
                            14 2.58  25 2.60
  59  0.667  0.332  0.194-   9 2.44  12 2.44  23 2.47  17 2.49  60 2.51  39 2.51  56 2.51  13 2.52
                            51 2.54  24 2.54  57 2.56  62 2.57
  60  0.914  0.327  0.194-   5 2.43  12 2.46  19 2.47  18 2.47  17 2.47  22 2.49  15 2.49  59 2.51
                            20 2.53  39 2.56  57 2.59  61 2.59
  61  0.169  0.588  0.189-  27 2.46  45 2.47  28 2.47  31 2.47  20 2.48  44 2.49  39 2.50  36 2.51
                            19 2.52  22 2.54  52 2.55  60 2.59
  62  0.670  0.589  0.190-  49 2.46  48 2.47  37 2.47  34 2.47  33 2.48  24 2.49  36 2.50  39 2.51
                            53 2.55  23 2.55  56 2.56  59 2.57
  63  0.583  0.917  0.096-  46 2.50  45 2.50  42 2.50  48 2.50  31 2.50  34 2.50  17 2.51  15 2.51
                            13 2.52
  64  0.579  0.916  0.382-  68 1.81  14 2.42  43 2.44   3 2.46  30 2.49   4 2.50  16 2.50  32 2.51
                            35 2.56  47 2.57
  65  0.665  0.326  0.436-  58 1.83  14 1.84  25 1.88
  66  0.169  0.833  0.434-  43 1.83  29 1.85  41 1.85
  67  0.162  0.330  0.437-  55 1.84   8 1.85  21 1.85
  68  0.662  0.836  0.435-  64 1.81  47 1.86  35 1.87
  69  0.845  0.673  0.470-  70 0.98  38 1.81
  70  0.952  0.720  0.485-  69 0.98
 

IMPORTANT INFORMATION: All symmetrisations will be switched off!
NOSYMM: (Re-)initialisation of all symmetry stuff for point group C_1.

 
 

Automatic generation of k-mesh.
 generate k-points for:    3    3    1
Space group operators:
 irot       det(A)        alpha          n_x          n_y          n_z        tau_x        tau_y        tau_z
    1     1.000000     0.000000     1.000000     0.000000     0.000000     0.000000     0.000000     0.000000
 
 Subroutine IBZKPT returns following result:
 ===========================================
 
 Found      5 irreducible k-points:
 
 Following reciprocal coordinates:
            Coordinates               Weight
  0.000000  0.000000  0.000000      1.000000
  0.333333  0.000000  0.000000      2.000000
  0.000000  0.333333  0.000000      2.000000
  0.333333  0.333333  0.000000      2.000000
 -0.333333  0.333333  0.000000      2.000000
 
 Following cartesian coordinates:
            Coordinates               Weight
  0.000000  0.000000  0.000000      1.000000
  0.033244  0.019194  0.000000      2.000000
  0.000000  0.038387  0.000000      2.000000
  0.033244  0.057581  0.000000      2.000000
 -0.033244  0.019194  0.000000      2.000000
 


--------------------------------------------------------------------------------------------------------




 Dimension of arrays:
   k-points           NKPTS =      5   k-points in BZ     NKDIM =      5   number of bands    NBANDS=    420
   number of dos      NEDOS =    301   number of ions     NIONS =     70
   non local maximal  LDIM  =      6   non local SUM 2l+1 LMDIM =     18
   total plane-waves  NPLWV = ******
   max r-space proj   IRMAX =   8439   max aug-charges    IRDMAX=  19969
   dimension x,y,z NGX =    80 NGY =   80 NGZ =  160
   dimension x,y,z NGXF=   160 NGYF=  160 NGZF=  320
   support grid    NGXF=   160 NGYF=  160 NGZF=  320
   ions per type =              49  15   5   1
   NGX,Y,Z   is equivalent  to a cutoff of  13.26, 13.26, 12.55 a.u.
   NGXF,Y,Z  is equivalent  to a cutoff of  26.53, 26.53, 25.11 a.u.

 SYSTEM =  SQS-NiFe                                
 POSCAR =  POSCAR                                  

 Startparameter for this run:
   NWRITE =      2    write-flag & timer
   PREC   = accura    normal or accurate (medium, high low for compatibility)
   ISTART =      1    job   : 0-new  1-cont  2-samecut
   ICHARG =      1    charge: 1-file 2-atom 10-const
   ISPIN  =      2    spin polarized calculation?
   LNONCOLLINEAR =      F non collinear calculations
   LSORBIT =      F    spin-orbit coupling
   INIWAV =      1    electr: 0-lowe 1-rand  2-diag
   LASPH  =      F    aspherical Exc in radial PAW
   METAGGA=      F    non-selfconsistent MetaGGA calc.

 Electronic Relaxation 1
   ENCUT  =  520.0 eV  38.22 Ry    6.18 a.u.  18.64 18.64 39.40*2*pi/ulx,y,z
   ENINI  =  520.0     initial cutoff
   ENAUG  =  605.4 eV  augmentation charge cutoff
   NELM   =    200;   NELMIN=  2; NELMDL=  0     # of ELM steps 
   EDIFF  = 0.1E-04   stopping-criterion for ELM
   LREAL  =      T    real-space projection
   NLSPLINE    = F    spline interpolate recip. space projectors
   LCOMPAT=      F    compatible to vasp.4.4
   GGA_COMPAT  = T    GGA compatible to vasp.4.4-vasp.4.6
   LMAXPAW     = -100 max onsite density
   LMAXMIX     =    2 max onsite mixed and CHGCAR
   VOSKOWN=      0    Vosko Wilk Nusair interpolation
   ROPT   =   -0.00025  -0.00025  -0.00025  -0.00025
 Ionic relaxation
   EDIFFG = -.5E-01   stopping-criterion for IOM
   NSW    =     99    number of steps for IOM
   NBLOCK =      1;   KBLOCK =     99    inner block; outer block 
   IBRION =      2    ionic relax: 0-MD 1-quasi-New 2-CG
   NFREE  =      1    steps in history (QN), initial steepest desc. (CG)
   ISIF   =      2    stress and relaxation
   IWAVPR =     11    prediction:  0-non 1-charg 2-wave 3-comb
   ISYM   =      0    0-nonsym 1-usesym 2-fastsym
   LCORR  =      T    Harris-Foulkes like correction to forces

   POTIM  = 0.5000    time-step for ionic-motion
   TEIN   =    0.0    initial temperature
   TEBEG  =    0.0;   TEEND  =   0.0 temperature during run
   SMASS  =  -3.00    Nose mass-parameter (am)
   estimated Nose-frequenzy (Omega)   =  0.10E-29 period in steps =****** mass=  -0.230E-26a.u.
   SCALEE = 1.0000    scale energy and forces
   NPACO  =    256;   APACO  = 16.0  distance and # of slots for P.C.
   PSTRESS=    0.0 pullay stress

  Mass of Ions in am
   POMASS =  58.69 55.85 16.00  1.00
  Ionic Valenz
   ZVAL   =  10.00  8.00  6.00  1.00
  Atomic Wigner-Seitz radii
   RWIGS  =  -1.00 -1.00 -1.00 -1.00
  virtual crystal weights 
   VCA    =   1.00  1.00  1.00  1.00
   NELECT =     641.0000    total number of electrons
   NUPDOWN=      -1.0000    fix difference up-down

 DOS related values:
   EMIN   =  10.00;   EMAX   =-10.00  energy-range for DOS
   EFERMI =   0.00
   ISMEAR =     1;   SIGMA  =   0.20  broadening in eV -4-tet -1-fermi 0-gaus

 Electronic relaxation 2 (details)
   IALGO  =     68    algorithm
   LDIAG  =      T    sub-space diagonalisation (order eigenvalues)
   LSUBROT=      F    optimize rotation matrix (better conditioning)
   TURBO    =      0    0=normal 1=particle mesh
   IRESTART =      0    0=no restart 2=restart with 2 vectors
   NREBOOT  =      0    no. of reboots
   NMIN     =      0    reboot dimension
   EREF     =   0.00    reference energy to select bands
   IMIX   =      4    mixing-type and parameters
     AMIX     =   0.40;   BMIX     =  1.00
     AMIX_MAG =   1.60;   BMIX_MAG =  1.00
     AMIN     =   0.10
     WC   =   100.;   INIMIX=   1;  MIXPRE=   1;  MAXMIX= -45

 Intra band minimization:
   WEIMIN = 0.0010     energy-eigenvalue tresh-hold
   EBREAK =  0.60E-08  absolut break condition
   DEPER  =   0.30     relativ break condition  

   TIME   =   0.40     timestep for ELM

  volume/ion in A,a.u.               =      26.36       177.85
  Fermi-wavevector in a.u.,A,eV,Ry     =   1.150903  2.174890 18.021959  1.324577
  Thomas-Fermi vector in A             =   2.287564
 
 Write flags
   LWAVE        =      T    write WAVECAR
   LDOWNSAMPLE  =      F    k-point downsampling of WAVECAR
   LCHARG       =      T    write CHGCAR
   LVTOT        =      F    write LOCPOT, total local potential
   LVHAR        =      F    write LOCPOT, Hartree potential only
   LELF         =      F    write electronic localiz. function (ELF)
   LORBIT       =     10    0 simple, 1 ext, 2 COOP (PROOUT), +10 PAW based schemes


 Dipole corrections
   LMONO  =      F    monopole corrections only (constant potential shift)
   LDIPOL =      T    correct potential (dipole corrections)
   IDIPOL =      3    1-x, 2-y, 3-z, 4-all directions 
   EPSILON=  1.0000000 bulk dielectric constant

 Exchange correlation treatment:
   GGA     =    --    GGA type
   LEXCH   =     8    internal setting for exchange type
   VOSKOWN=      0    Vosko Wilk Nusair interpolation
   LHFCALC =     F    Hartree Fock is set to
   LHFONE  =     F    Hartree Fock one center treatment
   AEXX    =    0.0000 exact exchange contribution

 Linear response parameters
   LEPSILON=     F    determine dielectric tensor
   LRPA    =     F    only Hartree local field effects (RPA)
   LNABLA  =     F    use nabla operator in PAW spheres
   LVEL    =     F    velocity operator in full k-point grid
   LINTERFAST=   F  fast interpolation
   KINTER  =     0    interpolate to denser k-point grid
   CSHIFT  =0.1000    complex shift for real part using Kramers Kronig
   OMEGAMAX=  -1.0    maximum frequency
   DEG_THRESHOLD= 0.2000000E-02 threshold for treating states as degnerate
   RTIME   =   -0.100 relaxation time in fs
  (WPLASMAI=    0.000 imaginary part of plasma frequency in eV, 0.658/RTIME)
   DFIELD  = 0.0000000 0.0000000 0.0000000 field for delta impulse in time
 
 Orbital magnetization related:
   ORBITALMAG=     F  switch on orbital magnetization
   LCHIMAG   =     F  perturbation theory with respect to B field
   DQ        =  0.001000  dq finite difference perturbation B field
   LLRAUG    =     F  two centre corrections for induced B field



--------------------------------------------------------------------------------------------------------


 conjugate gradient relaxation of ions
   using selective dynamics as specified on POSCAR
 charge density and potential will be updated during run
 spin polarized calculation
 RMM-DIIS sequential band-by-band and
  variant of blocked Davidson during initial phase
 perform sub-space diagonalisation
    before iterative eigenvector-optimisation
 modified Broyden-mixing scheme, WC =      100.0
 initial mixing is a Kerker type mixing with AMIX =  0.4000 and BMIX =      1.0000
 Hartree-type preconditioning will be used
 using additional bands           99
 real space projection scheme for non local part
 use partial core corrections
 calculate Harris-corrections to forces 
   (improved forces if not selfconsistent)
 use gradient corrections 
 use of overlap-Matrix (Vanderbilt PP)
 Methfessel and Paxton  Order N= 1 SIGMA  =   0.20


--------------------------------------------------------------------------------------------------------


  energy-cutoff  :      520.00
  volume of cell :     1844.87
      direct lattice vectors                 reciprocal lattice vectors
    10.026770000  0.000000000  0.000000000     0.099733015  0.057580883  0.000000000
    -5.013385000  8.683437540  0.000000000     0.000000000  0.115161766  0.000000000
     0.000000000  0.000000000 21.189180000     0.000000000  0.000000000  0.047193898

  length of vectors
    10.026770000 10.026770002 21.189180000     0.115161766  0.115161766  0.047193898


 
 old parameters found on file WAVECAR:
  energy-cutoff  :      520.00
  volume of cell :     1844.87
      direct lattice vectors                 reciprocal lattice vectors
    10.026770000  0.000000000  0.000000000     0.099733015  0.057580883  0.000000000
    -5.013385000  8.683437540  0.000000000     0.000000000  0.115161766  0.000000000
     0.000000000  0.000000000 21.189180000     0.000000000  0.000000000  0.047193898

  length of vectors

 
 k-points in units of 2pi/SCALE and weight: read from INCAR                         
   0.00000000  0.00000000  0.00000000       0.111
   0.03324434  0.01919363  0.00000000       0.222
   0.00000000  0.03838726  0.00000000       0.222
   0.03324434  0.05758088  0.00000000       0.222
  -0.03324434  0.01919363  0.00000000       0.222
 
 k-points in reciprocal lattice and weights: read from INCAR                         
   0.00000000  0.00000000  0.00000000       0.111
   0.33333333  0.00000000  0.00000000       0.222
   0.00000000  0.33333333  0.00000000       0.222
   0.33333333  0.33333333  0.00000000       0.222
  -0.33333333  0.33333333  0.00000000       0.222
 
 position of ions in fractional coordinates (direct lattice) 
   0.99851852  0.99959365  0.28742433
   0.24842762  0.00022604  0.28500865
   0.49842892  0.99876059  0.28706395
   0.74782907  0.99768602  0.28642644
   0.99871924  0.24776725  0.28706706
   0.25096859  0.25156814  0.28730989
   0.08288200  0.16633200  0.09567600
   0.07873989  0.15936390  0.38463063
   0.49878036  0.24924371  0.28647167
   0.33293900  0.16685800  0.09574200
   0.33046378  0.16485405  0.37865449
   0.74998557  0.25152885  0.28822493
   0.58230700  0.16720100  0.09670300
   0.57749776  0.15716650  0.38316230
   0.83403200  0.16672400  0.09645100
   0.83103315  0.16270410  0.37908522
   0.66558100  0.08305500  0.19258300
   0.91639700  0.08203100  0.19204900
   0.00143502  0.49989083  0.28626947
   0.08092200  0.41609700  0.09594800
   0.07891662  0.41546014  0.38368591
   0.16611800  0.33395200  0.19207500
   0.75212340  0.50205142  0.28793602
   0.58357300  0.41617200  0.09593300
   0.57616917  0.41402715  0.38496290
   0.00004507  0.75042458  0.28655876
   0.24879629  0.74884812  0.28498446
   0.08375800  0.66810400  0.09479700
   0.08439557  0.66231043  0.38178876
   0.50051539  0.74857485  0.28654289
   0.33297400  0.66727700  0.09438800
   0.33113005  0.66362828  0.37839256
   0.75184383  0.74744827  0.28753720
   0.58298100  0.66668200  0.09450900
   0.57605041  0.65915369  0.38465865
   0.41661000  0.58200200  0.19081700
   0.83395900  0.66770600  0.09497900
   0.83193652  0.66344375  0.38532987
   0.91708300  0.58323900  0.19079400
   0.08291700  0.91685800  0.09518600
   0.08299445  0.91865092  0.38274877
   0.33420600  0.91705400  0.09538200
   0.33685893  0.91709377  0.38238213
   0.16670900  0.83524200  0.19136500
   0.41703500  0.83214900  0.19205900
   0.83233100  0.91715000  0.09633700
   0.83619500  0.91808644  0.38404879
   0.66623900  0.83337000  0.19234100
   0.91705900  0.83319500  0.19216200
   0.16168500  0.08211500  0.19130600
   0.41607500  0.07807100  0.19177300
   0.24847831  0.49770106  0.28747502
   0.50571855  0.50185969  0.28942692
   0.33134100  0.41714300  0.09577600
   0.33500228  0.41456808  0.38712690
   0.41638400  0.33144300  0.19252200
   0.83354800  0.41839000  0.09448800
   0.83528266  0.41459369  0.38422909
   0.66732400  0.33240600  0.19435500
   0.91446400  0.32695500  0.19396500
   0.16914200  0.58833400  0.18947800
   0.66961600  0.58928900  0.18986000
   0.58310400  0.91651500  0.09583500
   0.57948112  0.91634506  0.38190519
   0.66542375  0.32564532  0.43553919
   0.16913959  0.83266963  0.43431944
   0.16188297  0.32968293  0.43727390
   0.66246770  0.83625428  0.43524218
   0.84506298  0.67296976  0.47045247
   0.95164106  0.72032598  0.48546100
 
 position of ions in cartesian coordinates  (Angst):
   5.00056774  8.67990899  6.09028584
   2.48979344  0.00196278  6.03909962
  -0.00953921  8.67267516  6.08264964
   2.49652596  8.66334421  6.06914147
   8.77177552  2.15147146  6.08271554
   1.25519645  2.18447619  6.08786091
  -0.00284760  1.44433353  2.02729599
  -0.00944579  1.38382646  8.15000771
   3.75160131  2.16429215  6.07009973
   2.50177938  1.44890102  2.02869447
   2.48700755  1.43149980  8.02337809
   6.25892186  2.18413503  6.10724982
   5.00041537  1.45187944  2.04905727
   5.00250106  1.36474551  8.11889493
   7.52679544  1.44773744  2.04371760
   7.51687996  1.41283092  8.03250489
   6.25724091  0.72120290  4.08067585
   8.77724896  0.71231106  4.06936083
  -2.49175651  4.34077076  6.06581525
  -1.27466818  3.61315231  2.03305944
  -1.29158285  3.60762214  8.12998989
  -0.00860297  2.89985133  4.06991175
   5.02439128  4.35953218  6.10112822
   3.76492179  3.61380357  2.03274160
   3.70143831  3.59517886  8.15704828
  -3.76171542  6.51626494  6.07194517
  -1.25964076  6.50257587  6.03858695
  -2.50964037  5.80143935  2.00867070
  -2.47420215  5.75113123  8.08979074
   1.26565881  6.50020294  6.07160891
  -0.00666279  5.79425815  2.00000432
  -0.00685922  5.76257468  8.01782802
   3.79131920  6.49042034  6.09267739
   2.50308286  5.78909151  2.00256821
   2.47133369  5.72371994  8.15060128
   1.25945255  5.05377802  4.04325576
   5.01444784  5.79798335  2.01252713
   5.01553718  5.76097235  8.16482403
   6.27137866  5.06451943  4.04276841
  -3.76517246  7.96147918  2.01691329
  -3.77338447  7.97704792  8.11013248
  -1.24653807  7.96318113  2.02106637
  -1.22013711  7.96352649  8.10236374
  -2.51583691  7.25277174  4.05486743
   0.00963071  7.22591387  4.06957272
   3.74756545  7.96401474  2.04130203
   3.78161414  7.97214626  8.13767893
   2.50222056  7.23651634  4.07554807
   5.01801235  7.23499674  4.07175521
   1.20950420  0.71304047  4.05361727
   3.78048835  0.67792465  4.06351262
  -0.00373217  4.32175608  6.09135994
   2.55470776  4.35786728  6.13271920
   1.23098154  3.62223519  2.02941490
   1.28060138  3.59987607  8.20290147
   2.51333524  2.87806459  4.07938331
   6.26024393  3.63306343  2.00212324
   6.29666934  3.60009841  8.14149928
   5.02462501  2.88642674  4.11822308
   7.52996891  2.83909332  4.10995930
  -1.25359692  5.10876154  4.01488345
   3.75975299  5.11705422  4.02297771
   1.25180714  7.95850076  2.03066507
   1.21633327  7.95702513  8.09225778
   5.03946549  2.82772081  9.22871835
  -2.47856964  7.23043475  9.20287271
  -0.02966420  2.86278115  9.26547527
   2.44994663  7.26156181  9.22242491
   5.09939567  5.84369090  9.96850196
   5.93061451  6.25490569 10.28652042
 


--------------------------------------------------------------------------------------------------------


 k-point  1 :   0.0000 0.0000 0.0000  plane waves:   49741
 k-point  2 :   0.3333 0.0000 0.0000  plane waves:   49680
 k-point  3 :   0.0000 0.3333 0.0000  plane waves:   49680
 k-point  4 :   0.3333 0.3333 0.0000  plane waves:   49662
 k-point  5 :  -0.3333 0.3333 0.0000  plane waves:   49680

 maximum and minimum number of plane-waves per node :      2099     2053

 maximum number of plane-waves:     49741
 maximum index in each direction: 
   IXMAX=   18   IYMAX=   18   IZMAX=   39
   IXMIN=  -18   IYMIN=  -18   IZMIN=  -39


 real space projection operators:
  total allocation   :      65322.00 KBytes
  max/ min on nodes  :       3295.28       2406.45


 parallel 3D FFT for wavefunctions:
    minimum data exchange during FFTs selected (reduces bandwidth)
 parallel 3D FFT for charge:
    minimum data exchange during FFTs selected (reduces bandwidth)


 total amount of memory used by VASP MPI-rank0   117171. kBytes
=======================================================================

   base      :      30000. kBytes
   nonlr-proj:      14036. kBytes
   fftplans  :       6402. kBytes
   grid      :      18928. kBytes
   one-center:         93. kBytes
   wavefun   :      47712. kBytes
 
     INWAV:  cpu time   11.1444: real time   11.6742
 Broyden mixing: mesh for mixing (old mesh)
   NGX = 37   NGY = 37   NGZ = 79
  (NGX  =160   NGY  =160   NGZ  =320)
  gives a total of 108151 points

 initial charge density was supplied:
 number of electron     641.0000049 magnetization      73.6388126
 keeping initial charge density in first step


--------------------------------------------------------------------------------------------------------


 Maximum index for non-local projection operator          764
 Maximum index for augmentation-charges         1117 (set IRDMAX)


--------------------------------------------------------------------------------------------------------


 First call to EWALD:  gamma=   0.145
 Maximum number of real-space cells 4x 4x 2
 Maximum number of reciprocal cells 2x 2x 4

    FEWALD:  cpu time    0.0034: real time    0.0034


--------------------------------------- Iteration      1(   1)  ---------------------------------------


    POTLOK:  cpu time    0.4131: real time    0.4635
    SETDIJ:  cpu time    0.0254: real time    0.0255
     EDDAV:  cpu time   42.2597: real time   42.2845
       DOS:  cpu time    0.0095: real time    0.0095
    CHARGE:  cpu time    1.3501: real time    1.3503
    MIXING:  cpu time    0.0062: real time    0.0062
    --------------------------------------------
      LOOP:  cpu time   44.0642: real time   44.1396

 eigenvalue-minimisations  :  8991
 total energy-change (2. order) :-0.3993786E+03  (-0.1575775E+03)
 number of electron     641.0000049 magnetization      73.5175705
 augmentation part      369.5269928 magnetization      63.4480798

 DIPCOR: dipole corrections for dipol
 direction  3 min pos   245,
 dipolmoment           0.000000      0.000000      0.414032 electrons x Angstroem
 Tr[quadrupol]    -10404.129712

 energy correction for charged system         0.000000 eV
 dipol+quadrupol energy correction           -0.008407 eV
 added-field ion interaction          6.933772 eV  (added to PSCEN)


 Broyden mixing:
  rms(total) = 0.74859E+00    rms(broyden)= 0.74854E+00
  rms(prec ) = 0.75553E+00
  weight for this iteration     100.00

 Free energy of the ion-electron system (eV)
  ---------------------------------------------------
  alpha Z        PSCENC =      1366.52324383
  Ewald energy   TEWEN  =    221787.86320486
  -Hartree energ DENC   =   -284129.00293804
  -exchange      EXHF   =         0.00000000
  -V(xc)+E(xc)   XCENC  =      1711.96139602
  PAW double counting   =     68553.46609593   -72059.74531368
  entropy T*S    EENTRO =         0.02883641
  eigenvalues    EBANDS =     -1525.31526983
  atomic energy  EATOM  =     63894.84216477
  Solvation  Ediel_sol  =         0.00000000
  ---------------------------------------------------
  free energy    TOTEN  =      -399.37857973 eV

  energy without entropy =     -399.40741614  energy(sigma->0) =     -399.38819187


--------------------------------------------------------------------------------------------------------




--------------------------------------- Iteration      1(   2)  ---------------------------------------


    POTLOK:  cpu time    0.4198: real time    0.4306
    SETDIJ:  cpu time    0.0248: real time    0.0248
    EDDIAG:  cpu time    5.8104: real time    5.8125
  RMM-DIIS:  cpu time   20.5064: real time   20.5181
    ORTHCH:  cpu time    1.6280: real time    1.6282
       DOS:  cpu time    0.0093: real time    0.0093
    CHARGE:  cpu time    1.3578: real time    1.3580
    MIXING:  cpu time    0.0063: real time    0.0064
    --------------------------------------------
      LOOP:  cpu time   29.7628: real time   29.7879

 eigenvalue-minimisations  :  8491
 total energy-change (2. order) :-0.1370268E+02  (-0.1350450E+02)
 number of electron     641.0000049 magnetization      73.5455448
 augmentation part      365.0310538 magnetization      63.2501949

 DIPCOR: dipole corrections for dipol
 direction  3 min pos   252,
 dipolmoment           0.000000      0.000000      0.466592 electrons x Angstroem
 Tr[quadrupol]    -10404.731712

 energy correction for charged system         0.000000 eV
 dipol+quadrupol energy correction           -0.010677 eV
 added-field ion interaction         21.411976 eV  (added to PSCEN)


 Broyden mixing:
  rms(total) = 0.13039E+01    rms(broyden)= 0.13039E+01
  rms(prec ) = 0.14600E+01
  weight for this iteration     100.00

 eigenvalues of (default mixing * dielectric matrix)
  average eigenvalue GAMMA=   0.3032
  0.3032

 Free energy of the ion-electron system (eV)
  ---------------------------------------------------
  alpha Z        PSCENC =      1380.99917797
  Ewald energy   TEWEN  =    221787.86320486
  -Hartree energ DENC   =   -284167.87161370
  -exchange      EXHF   =         0.00000000
  -V(xc)+E(xc)   XCENC  =      1713.70444333
  PAW double counting   =     69007.84399860   -72543.11336549
  entropy T*S    EENTRO =         0.00667729
  eigenvalues    EBANDS =     -1487.35595196
  atomic energy  EATOM  =     63894.84216477
  Solvation  Ediel_sol  =         0.00000000
  ---------------------------------------------------
  free energy    TOTEN  =      -413.08126433 eV

  energy without entropy =     -413.08794162  energy(sigma->0) =     -413.08349009


--------------------------------------------------------------------------------------------------------




--------------------------------------- Iteration      1(   3)  ---------------------------------------


    POTLOK:  cpu time    0.4193: real time    0.4297
    SETDIJ:  cpu time    0.0249: real time    0.0249
    EDDIAG:  cpu time    5.8050: real time    5.8068
  RMM-DIIS:  cpu time   20.4369: real time   20.4492
    ORTHCH:  cpu time    1.6290: real time    1.6293
       DOS:  cpu time    0.0087: real time    0.0087
    CHARGE:  cpu time    1.3455: real time    1.3457
    MIXING:  cpu time    0.0064: real time    0.0064
    --------------------------------------------
      LOOP:  cpu time   29.6757: real time   29.7008

 eigenvalue-minimisations  :  8449
 total energy-change (2. order) :-0.2506626E+01  (-0.8178136E+00)
 number of electron     641.0000049 magnetization      73.5585408
 augmentation part      368.0196096 magnetization      62.3201876

 DIPCOR: dipole corrections for dipol
 direction  3 min pos   245,
 dipolmoment           0.000000      0.000000      0.153713 electrons x Angstroem
 Tr[quadrupol]    -10403.529478

 energy correction for charged system         0.000000 eV
 dipol+quadrupol energy correction           -0.001159 eV
 added-field ion interaction          2.574225 eV  (added to PSCEN)


 Broyden mixing:
  rms(total) = 0.24010E+01    rms(broyden)= 0.24009E+01
  rms(prec ) = 0.31736E+01
  weight for this iteration     100.00

 eigenvalues of (default mixing * dielectric matrix)
  average eigenvalue GAMMA=   0.2410
  0.3839  0.0981

 Free energy of the ion-electron system (eV)
  ---------------------------------------------------
  alpha Z        PSCENC =      1362.17094489
  Ewald energy   TEWEN  =    221787.86320486
  -Hartree energ DENC   =   -284106.50150929
  -exchange      EXHF   =         0.00000000
  -V(xc)+E(xc)   XCENC  =      1711.52497191
  PAW double counting   =     68948.90324675   -72470.57114952
  entropy T*S    EENTRO =         0.00463895
  eigenvalues    EBANDS =     -1543.82440365
  atomic energy  EATOM  =     63894.84216477
  Solvation  Ediel_sol  =         0.00000000
  ---------------------------------------------------
  free energy    TOTEN  =      -415.58789033 eV

  energy without entropy =     -415.59252928  energy(sigma->0) =     -415.58943665


--------------------------------------------------------------------------------------------------------




--------------------------------------- Iteration      1(   4)  ---------------------------------------


    POTLOK:  cpu time    0.4219: real time    0.4346
    SETDIJ:  cpu time    0.0249: real time    0.0249
    EDDIAG:  cpu time    5.8255: real time    5.8279
  RMM-DIIS:  cpu time   20.6598: real time   20.6726
    ORTHCH:  cpu time    1.6313: real time    1.6315
       DOS:  cpu time    0.0094: real time    0.0094
    CHARGE:  cpu time    1.3543: real time    1.3544
    MIXING:  cpu time    0.0067: real time    0.0067
    --------------------------------------------
      LOOP:  cpu time   29.9337: real time   29.9620

 eigenvalue-minimisations  :  8554
 total energy-change (2. order) : 0.1040228E+01  (-0.1475127E+00)
 number of electron     641.0000051 magnetization      73.5286374
 augmentation part      367.7126976 magnetization      63.4063716

 DIPCOR: dipole corrections for dipol
 direction  3 min pos   243,
 dipolmoment           0.000000      0.000000      0.630621 electrons x Angstroem
 Tr[quadrupol]    -10403.801025

 energy correction for charged system         0.000000 eV
 dipol+quadrupol energy correction           -0.019504 eV
 added-field ion interaction          5.310033 eV  (added to PSCEN)


 Broyden mixing:
  rms(total) = 0.21573E+01    rms(broyden)= 0.21569E+01
  rms(prec ) = 0.27728E+01
  weight for this iteration     100.00

 eigenvalues of (default mixing * dielectric matrix)
  average eigenvalue GAMMA=   0.1956
  0.3961  0.1444  0.0462

 Free energy of the ion-electron system (eV)
  ---------------------------------------------------
  alpha Z        PSCENC =      1364.88840799
  Ewald energy   TEWEN  =    221787.86320486
  -Hartree energ DENC   =   -284108.63111133
  -exchange      EXHF   =         0.00000000
  -V(xc)+E(xc)   XCENC  =      1711.43884700
  PAW double counting   =     68937.98412112   -72456.39328747
  entropy T*S    EENTRO =         0.03051883
  eigenvalues    EBANDS =     -1546.57052810
  atomic energy  EATOM  =     63894.84216477
  Solvation  Ediel_sol  =         0.00000000
  ---------------------------------------------------
  free energy    TOTEN  =      -414.54766232 eV

  energy without entropy =     -414.57818114  energy(sigma->0) =     -414.55783526


--------------------------------------------------------------------------------------------------------




--------------------------------------- Iteration      1(   5)  ---------------------------------------


    POTLOK:  cpu time    0.4317: real time    0.4324
    SETDIJ:  cpu time    0.0250: real time    0.0250
    EDDIAG:  cpu time    5.8161: real time    5.8184
  RMM-DIIS:  cpu time   20.5005: real time   20.5134
    ORTHCH:  cpu time    1.6328: real time    1.6331
       DOS:  cpu time    0.0092: real time    0.0092
    CHARGE:  cpu time    1.3470: real time    1.3472
    MIXING:  cpu time    0.0066: real time    0.0066
    --------------------------------------------
      LOOP:  cpu time   29.7697: real time   29.7853

 eigenvalue-minimisations  :  8473
 total energy-change (2. order) : 0.1732897E+01  (-0.6576079E-01)
 number of electron     641.0000049 magnetization      73.5294964
 augmentation part      367.7000282 magnetization      62.9993572

 DIPCOR: dipole corrections for dipol
 direction  3 min pos   239,
 dipolmoment           0.000000      0.000000      0.438853 electrons x Angstroem
 Tr[quadrupol]    -10403.596182

 energy correction for charged system         0.000000 eV
 dipol+quadrupol energy correction           -0.009446 eV
 added-field ion interaction         -3.613047 eV  (added to PSCEN)


 Broyden mixing:
  rms(total) = 0.57166E+00    rms(broyden)= 0.57139E+00
  rms(prec ) = 0.63039E+00
  weight for this iteration     100.00

 eigenvalues of (default mixing * dielectric matrix)
  average eigenvalue GAMMA=   0.1997
  0.3125  0.3125  0.1219  0.0520

 Free energy of the ion-electron system (eV)
  ---------------------------------------------------
  alpha Z        PSCENC =      1355.97538670
  Ewald energy   TEWEN  =    221787.86320486
  -Hartree energ DENC   =   -284112.67896951
  -exchange      EXHF   =         0.00000000
  -V(xc)+E(xc)   XCENC  =      1711.59767860
  PAW double counting   =     68927.24967321   -72445.11906566
  entropy T*S    EENTRO =         0.01563685
  eigenvalues    EBANDS =     -1532.56047519
  atomic energy  EATOM  =     63894.84216477
  Solvation  Ediel_sol  =         0.00000000
  ---------------------------------------------------
  free energy    TOTEN  =      -412.81476537 eV

  energy without entropy =     -412.83040222  energy(sigma->0) =     -412.81997765


--------------------------------------------------------------------------------------------------------




--------------------------------------- Iteration      1(   6)  ---------------------------------------


    POTLOK:  cpu time    0.4215: real time    0.4337
    SETDIJ:  cpu time    0.0248: real time    0.0248
    EDDIAG:  cpu time    5.8067: real time    5.8086
  RMM-DIIS:  cpu time   20.4993: real time   20.5128
    ORTHCH:  cpu time    1.6319: real time    1.6321
       DOS:  cpu time    0.0093: real time    0.0093
    CHARGE:  cpu time    1.3529: real time    1.3531
    MIXING:  cpu time    0.0068: real time    0.0068
    --------------------------------------------
      LOOP:  cpu time   29.7525: real time   29.7813

 eigenvalue-minimisations  :  8467
 total energy-change (2. order) : 0.1919143E-01  (-0.2433714E-01)
 number of electron     641.0000049 magnetization      73.5204536
 augmentation part      367.5201717 magnetization      63.2156068

 DIPCOR: dipole corrections for dipol
 direction  3 min pos   231,
 dipolmoment           0.000000      0.000000      0.451234 electrons x Angstroem
 Tr[quadrupol]    -10402.906007

 energy correction for charged system         0.000000 eV
 dipol+quadrupol energy correction           -0.009986 eV
 added-field ion interaction        -18.744032 eV  (added to PSCEN)


 Broyden mixing:
  rms(total) = 0.44702E+00    rms(broyden)= 0.44698E+00
  rms(prec ) = 0.51467E+00
  weight for this iteration     100.00

 eigenvalues of (default mixing * dielectric matrix)
  average eigenvalue GAMMA=   0.2751
  0.5346  0.5346  0.1519  0.1051  0.0496

 Free energy of the ion-electron system (eV)
  ---------------------------------------------------
  alpha Z        PSCENC =      1340.84386125
  Ewald energy   TEWEN  =    221787.86320486
  -Hartree energ DENC   =   -284109.91963433
  -exchange      EXHF   =         0.00000000
  -V(xc)+E(xc)   XCENC  =      1711.91026870
  PAW double counting   =     68908.83512814   -72426.55384853
  entropy T*S    EENTRO =         0.00828123
  eigenvalues    EBANDS =     -1520.62500002
  atomic energy  EATOM  =     63894.84216477
  Solvation  Ediel_sol  =         0.00000000
  ---------------------------------------------------
  free energy    TOTEN  =      -412.79557394 eV

  energy without entropy =     -412.80385516  energy(sigma->0) =     -412.79833435


--------------------------------------------------------------------------------------------------------




--------------------------------------- Iteration      1(   7)  ---------------------------------------


    POTLOK:  cpu time    0.4203: real time    0.4318
    SETDIJ:  cpu time    0.0269: real time    0.0269
    EDDIAG:  cpu time    5.8083: real time    5.8102
  RMM-DIIS:  cpu time   20.5404: real time   20.5530
    ORTHCH:  cpu time    1.6256: real time    1.6258
       DOS:  cpu time    0.0092: real time    0.0092
    CHARGE:  cpu time    1.3463: real time    1.3464
    MIXING:  cpu time    0.0069: real time    0.0069
    --------------------------------------------
      LOOP:  cpu time   29.7837: real time   29.8103

 eigenvalue-minimisations  :  8488
 total energy-change (2. order) : 0.3388201E-01  (-0.6791078E-02)
 number of electron     641.0000049 magnetization      73.5207562
 augmentation part      367.5734578 magnetization      63.1275000

 DIPCOR: dipole corrections for dipol
 direction  3 min pos   238,
 dipolmoment           0.000000      0.000000      0.435955 electrons x Angstroem
 Tr[quadrupol]    -10403.569690

 energy correction for charged system         0.000000 eV
 dipol+quadrupol energy correction           -0.009321 eV
 added-field ion interaction         -5.404206 eV  (added to PSCEN)


 Broyden mixing:
  rms(total) = 0.32637E+00    rms(broyden)= 0.32635E+00
  rms(prec ) = 0.35266E+00
  weight for this iteration     100.00

 eigenvalues of (default mixing * dielectric matrix)
  average eigenvalue GAMMA=   0.2546
  0.5407  0.5407  0.0498  0.1646  0.1366  0.0951

 Free energy of the ion-electron system (eV)
  ---------------------------------------------------
  alpha Z        PSCENC =      1354.18435171
  Ewald energy   TEWEN  =    221787.86320486
  -Hartree energ DENC   =   -284119.83233980
  -exchange      EXHF   =         0.00000000
  -V(xc)+E(xc)   XCENC  =      1711.92958560
  PAW double counting   =     68853.47647783   -72369.45795844
  entropy T*S    EENTRO =         0.01654023
  eigenvalues    EBANDS =     -1525.78371869
  atomic energy  EATOM  =     63894.84216477
  Solvation  Ediel_sol  =         0.00000000
  ---------------------------------------------------
  free energy    TOTEN  =      -412.76169193 eV

  energy without entropy =     -412.77823216  energy(sigma->0) =     -412.76720534


--------------------------------------------------------------------------------------------------------




--------------------------------------- Iteration      1(   8)  ---------------------------------------


    POTLOK:  cpu time    0.4319: real time    0.4326
    SETDIJ:  cpu time    0.0269: real time    0.0269
    EDDIAG:  cpu time    5.8076: real time    5.8096
  RMM-DIIS:  cpu time   20.4742: real time   20.4862
    ORTHCH:  cpu time    1.6269: real time    1.6272
       DOS:  cpu time    0.0096: real time    0.0096
    CHARGE:  cpu time    1.3461: real time    1.3463
    MIXING:  cpu time    0.0073: real time    0.0073
    --------------------------------------------
      LOOP:  cpu time   29.7305: real time   29.7456

 eigenvalue-minimisations  :  8463
 total energy-change (2. order) : 0.2512095E-01  (-0.2370108E-02)
 number of electron     641.0000049 magnetization      73.5238782
 augmentation part      367.6186112 magnetization      63.1052708

 DIPCOR: dipole corrections for dipol
 direction  3 min pos   242,
 dipolmoment           0.000000      0.000000      0.438541 electrons x Angstroem
 Tr[quadrupol]    -10403.798157

 energy correction for charged system         0.000000 eV
 dipol+quadrupol energy correction           -0.009432 eV
 added-field ion interaction          1.866875 eV  (added to PSCEN)


 Broyden mixing:
  rms(total) = 0.19125E+00    rms(broyden)= 0.19123E+00
  rms(prec ) = 0.20463E+00
  weight for this iteration     100.00

 eigenvalues of (default mixing * dielectric matrix)
  average eigenvalue GAMMA=   0.2789
  0.6059  0.6059  0.3170  0.0497  0.1592  0.1073  0.1073

 Free energy of the ion-electron system (eV)
  ---------------------------------------------------
  alpha Z        PSCENC =      1361.45532163
  Ewald energy   TEWEN  =    221787.86320486
  -Hartree energ DENC   =   -284119.82060122
  -exchange      EXHF   =         0.00000000
  -V(xc)+E(xc)   XCENC  =      1711.90509539
  PAW double counting   =     68838.89282440   -72354.27988642
  entropy T*S    EENTRO =         0.01678293
  eigenvalues    EBANDS =     -1533.61147733
  atomic energy  EATOM  =     63894.84216477
  Solvation  Ediel_sol  =         0.00000000
  ---------------------------------------------------
  free energy    TOTEN  =      -412.73657098 eV

  energy without entropy =     -412.75335391  energy(sigma->0) =     -412.74216529


--------------------------------------------------------------------------------------------------------




--------------------------------------- Iteration      1(   9)  ---------------------------------------


    POTLOK:  cpu time    0.4209: real time    0.4321
    SETDIJ:  cpu time    0.0273: real time    0.0273
    EDDIAG:  cpu time    5.8090: real time    5.8109
  RMM-DIIS:  cpu time   20.6728: real time   20.6852
    ORTHCH:  cpu time    1.6278: real time    1.6280
       DOS:  cpu time    0.0091: real time    0.0091
    CHARGE:  cpu time    1.3427: real time    1.3429
    MIXING:  cpu time    0.0074: real time    0.0073
    --------------------------------------------
      LOOP:  cpu time   29.9170: real time   29.9429

 eigenvalue-minimisations  :  8520
 total energy-change (2. order) : 0.2088386E-03  (-0.6219109E-03)
 number of electron     641.0000049 magnetization      73.5291897
 augmentation part      367.6250268 magnetization      63.1261254

 DIPCOR: dipole corrections for dipol
 direction  3 min pos   244,
 dipolmoment           0.000000      0.000000      0.441007 electrons x Angstroem
 Tr[quadrupol]    -10403.928184

 energy correction for charged system         0.000000 eV
 dipol+quadrupol energy correction           -0.009539 eV
 added-field ion interaction          5.549481 eV  (added to PSCEN)


 Broyden mixing:
  rms(total) = 0.19961E+00    rms(broyden)= 0.19961E+00
  rms(prec ) = 0.21930E+00
  weight for this iteration     100.00

 eigenvalues of (default mixing * dielectric matrix)
  average eigenvalue GAMMA=   0.2966
  0.7214  0.7214  0.3624  0.1762  0.0497  0.1231  0.1231  0.0957

 Free energy of the ion-electron system (eV)
  ---------------------------------------------------
  alpha Z        PSCENC =      1365.13782151
  Ewald energy   TEWEN  =    221787.86320486
  -Hartree energ DENC   =   -284121.13445655
  -exchange      EXHF   =         0.00000000
  -V(xc)+E(xc)   XCENC  =      1711.97075288
  PAW double counting   =     68811.58236867   -72326.17845912
  entropy T*S    EENTRO =         0.01637944
  eigenvalues    EBANDS =     -1536.83613861
  atomic energy  EATOM  =     63894.84216477
  Solvation  Ediel_sol  =         0.00000000
  ---------------------------------------------------
  free energy    TOTEN  =      -412.73636214 eV

  energy without entropy =     -412.75274158  energy(sigma->0) =     -412.74182195


--------------------------------------------------------------------------------------------------------




--------------------------------------- Iteration      1(  10)  ---------------------------------------


    POTLOK:  cpu time    0.4223: real time    0.4348
    SETDIJ:  cpu time    0.0269: real time    0.0269
    EDDIAG:  cpu time    5.8074: real time    5.8094
  RMM-DIIS:  cpu time   20.5456: real time   20.5585
    ORTHCH:  cpu time    1.6263: real time    1.6265
       DOS:  cpu time    0.0093: real time    0.0093
    CHARGE:  cpu time    1.3431: real time    1.3433
    MIXING:  cpu time    0.0077: real time    0.0076
    --------------------------------------------
      LOOP:  cpu time   29.7887: real time   29.8165

 eigenvalue-minimisations  :  8488
 total energy-change (2. order) : 0.6096053E-02  (-0.3764558E-03)
 number of electron     641.0000049 magnetization      73.5361249
 augmentation part      367.6297380 magnetization      63.1605358

 DIPCOR: dipole corrections for dipol
 direction  3 min pos   245,
 dipolmoment           0.000000      0.000000      0.443706 electrons x Angstroem
 Tr[quadrupol]    -10404.029522

 energy correction for charged system         0.000000 eV
 dipol+quadrupol energy correction           -0.009656 eV
 added-field ion interaction          7.430721 eV  (added to PSCEN)


 Broyden mixing:
  rms(total) = 0.17535E+00    rms(broyden)= 0.17535E+00
  rms(prec ) = 0.20210E+00
  weight for this iteration     100.00

 eigenvalues of (default mixing * dielectric matrix)
  average eigenvalue GAMMA=   0.3415
  0.8730  0.8730  0.3931  0.3931  0.0497  0.1565  0.1316  0.1016  0.1016

 Free energy of the ion-electron system (eV)
  ---------------------------------------------------
  alpha Z        PSCENC =      1367.01894475
  Ewald energy   TEWEN  =    221787.86320486
  -Hartree energ DENC   =   -284123.76225586
  -exchange      EXHF   =         0.00000000
  -V(xc)+E(xc)   XCENC  =      1712.06291697
  PAW double counting   =     68775.01290561   -72288.59899588
  entropy T*S    EENTRO =         0.01702895
  eigenvalues    EBANDS =     -1537.18618026
  atomic energy  EATOM  =     63894.84216477
  Solvation  Ediel_sol  =         0.00000000
  ---------------------------------------------------
  free energy    TOTEN  =      -412.73026609 eV

  energy without entropy =     -412.74729504  energy(sigma->0) =     -412.73594240


--------------------------------------------------------------------------------------------------------




--------------------------------------- Iteration      1(  11)  ---------------------------------------


    POTLOK:  cpu time    0.4210: real time    0.4329
    SETDIJ:  cpu time    0.0268: real time    0.0268
    EDDIAG:  cpu time    5.8077: real time    5.8097
  RMM-DIIS:  cpu time   20.4608: real time   20.4744
    ORTHCH:  cpu time    1.6270: real time    1.6272
       DOS:  cpu time    0.0090: real time    0.0090
    CHARGE:  cpu time    1.3418: real time    1.3420
    MIXING:  cpu time    0.0077: real time    0.0077
    --------------------------------------------
      LOOP:  cpu time   29.7018: real time   29.7296

 eigenvalue-minimisations  :  8469
 total energy-change (2. order) : 0.5652164E-02  (-0.3231654E-03)
 number of electron     641.0000049 magnetization      73.5510481
 augmentation part      367.6498629 magnetization      63.1867553

 DIPCOR: dipole corrections for dipol
 direction  3 min pos   245,
 dipolmoment           0.000000      0.000000      0.442609 electrons x Angstroem
 Tr[quadrupol]    -10404.048236

 energy correction for charged system         0.000000 eV
 dipol+quadrupol energy correction           -0.009608 eV
 added-field ion interaction          7.412351 eV  (added to PSCEN)


 Broyden mixing:
  rms(total) = 0.16570E+00    rms(broyden)= 0.16570E+00
  rms(prec ) = 0.19191E+00
  weight for this iteration     100.00

 eigenvalues of (default mixing * dielectric matrix)
  average eigenvalue GAMMA=   0.3967
  1.1442  1.1442  0.5031  0.5031  0.0497  0.1532  0.1532  0.1131  0.1072  0.0964

 Free energy of the ion-electron system (eV)
  ---------------------------------------------------
  alpha Z        PSCENC =      1367.00062169
  Ewald energy   TEWEN  =    221787.86320486
  -Hartree energ DENC   =   -284125.18705308
  -exchange      EXHF   =         0.00000000
  -V(xc)+E(xc)   XCENC  =      1712.10275597
  PAW double counting   =     68743.77821285   -72256.40945993
  entropy T*S    EENTRO =         0.01874202
  eigenvalues    EBANDS =     -1536.73380308
  atomic energy  EATOM  =     63894.84216477
  Solvation  Ediel_sol  =         0.00000000
  ---------------------------------------------------
  free energy    TOTEN  =      -412.72461392 eV

  energy without entropy =     -412.74335594  energy(sigma->0) =     -412.73086126


--------------------------------------------------------------------------------------------------------




--------------------------------------- Iteration      1(  12)  ---------------------------------------


    POTLOK:  cpu time    0.4223: real time    0.4347
    SETDIJ:  cpu time    0.0269: real time    0.0269
    EDDIAG:  cpu time    5.8053: real time    5.8073
  RMM-DIIS:  cpu time   20.4705: real time   20.4829
    ORTHCH:  cpu time    1.6186: real time    1.6189
       DOS:  cpu time    0.0126: real time    0.0126
    CHARGE:  cpu time    1.3450: real time    1.3452
    MIXING:  cpu time    0.0081: real time    0.0081
    --------------------------------------------
      LOOP:  cpu time   29.7093: real time   29.7365

 eigenvalue-minimisations  :  8467
 total energy-change (2. order) : 0.1773346E-01  (-0.4055860E-03)
 number of electron     641.0000049 magnetization      73.5599749
 augmentation part      367.7013345 magnetization      63.2011521

 DIPCOR: dipole corrections for dipol
 direction  3 min pos   245,
 dipolmoment           0.000000      0.000000      0.437666 electrons x Angstroem
 Tr[quadrupol]    -10404.099077

 energy correction for charged system         0.000000 eV
 dipol+quadrupol energy correction           -0.009395 eV
 added-field ion interaction          7.329573 eV  (added to PSCEN)


 Broyden mixing:
  rms(total) = 0.11972E+00    rms(broyden)= 0.11972E+00
  rms(prec ) = 0.13637E+00
  weight for this iteration     100.00

 eigenvalues of (default mixing * dielectric matrix)
  average eigenvalue GAMMA=   0.4062
  1.2661  1.2661  0.5292  0.5292  0.2125  0.1740  0.0497  0.1215  0.1215  0.0991
  0.0991

 Free energy of the ion-electron system (eV)
  ---------------------------------------------------
  alpha Z        PSCENC =      1366.91805777
  Ewald energy   TEWEN  =    221787.86320486
  -Hartree energ DENC   =   -284128.09137859
  -exchange      EXHF   =         0.00000000
  -V(xc)+E(xc)   XCENC  =      1712.15006557
  PAW double counting   =     68688.52475261   -72199.40721287
  entropy T*S    EENTRO =         0.01876752
  eigenvalues    EBANDS =     -1535.52530211
  atomic energy  EATOM  =     63894.84216477
  Solvation  Ediel_sol  =         0.00000000
  ---------------------------------------------------
  free energy    TOTEN  =      -412.70688046 eV

  energy without entropy =     -412.72564798  energy(sigma->0) =     -412.71313630


--------------------------------------------------------------------------------------------------------




--------------------------------------- Iteration      1(  13)  ---------------------------------------


    POTLOK:  cpu time    0.4225: real time    0.4348
    SETDIJ:  cpu time    0.0268: real time    0.0267
    EDDIAG:  cpu time    5.7955: real time    5.7975
  RMM-DIIS:  cpu time   20.4905: real time   20.5030
    ORTHCH:  cpu time    1.6234: real time    1.6236
       DOS:  cpu time    0.0110: real time    0.0110
    CHARGE:  cpu time    1.3439: real time    1.3441
    MIXING:  cpu time    0.0080: real time    0.0081
    --------------------------------------------
      LOOP:  cpu time   29.7214: real time   29.7487

 eigenvalue-minimisations  :  8470
 total energy-change (2. order) : 0.9757180E-02  (-0.2186262E-03)
 number of electron     641.0000049 magnetization      73.5751995
 augmentation part      367.7234965 magnetization      63.2254922

 DIPCOR: dipole corrections for dipol
 direction  3 min pos   247,
 dipolmoment           0.000000      0.000000      0.435478 electrons x Angstroem
 Tr[quadrupol]    -10404.245901

 energy correction for charged system         0.000000 eV
 dipol+quadrupol energy correction           -0.009301 eV
 added-field ion interaction         10.919005 eV  (added to PSCEN)


 Broyden mixing:
  rms(total) = 0.94217E-01    rms(broyden)= 0.94215E-01
  rms(prec ) = 0.10616E+00
  weight for this iteration     100.00

 eigenvalues of (default mixing * dielectric matrix)
  average eigenvalue GAMMA=   0.4488
  1.4735  1.4735  0.6115  0.6115  0.4213  0.0497  0.1698  0.1435  0.1277  0.1036
  0.1036  0.0960

 Free energy of the ion-electron system (eV)
  ---------------------------------------------------
  alpha Z        PSCENC =      1370.50758267
  Ewald energy   TEWEN  =    221787.86320486
  -Hartree energ DENC   =   -284129.57566305
  -exchange      EXHF   =         0.00000000
  -V(xc)+E(xc)   XCENC  =      1712.16744331
  PAW double counting   =     68665.24585216   -72175.34750891
[...]
   0.200E+02 0.515E+02 0.301E+04   -.201E+02 -.516E+02 -.301E+04   0.242E+00 0.152E-01 -.124E+01   -.641E-03 0.397E-02 -.451E-01
   0.887E+02 0.154E+03 -.265E+04   -.889E+02 -.156E+03 0.265E+04   0.314E+00 0.189E+01 0.833E+00   -.345E-01 -.544E-02 -.833E-01
   -.274E+02 0.103E+03 0.114E+04   0.275E+02 -.103E+03 -.113E+04   -.174E+00 0.148E+00 -.608E+00   -.971E-03 0.190E-02 -.206E+00
   0.113E+02 0.786E+02 0.301E+04   -.114E+02 -.787E+02 -.301E+04   -.938E-01 0.539E-01 -.118E+01   -.491E-02 0.711E-02 -.503E-01
   0.246E+02 0.657E+02 -.253E+04   -.243E+02 -.654E+02 0.254E+04   -.349E+00 -.359E+00 -.213E+01   0.404E-02 -.860E-03 -.877E-01
   0.806E+01 0.122E+03 0.120E+04   -.801E+01 -.123E+03 -.120E+04   -.880E-01 0.264E+00 -.318E+00   0.359E-02 0.431E-02 -.216E+00
   -.149E+02 -.315E+02 0.302E+04   0.150E+02 0.316E+02 -.302E+04   -.223E-01 -.175E-01 -.159E+01   -.188E-02 -.981E-03 -.475E-01
   0.690E+02 -.109E+03 -.264E+04   -.702E+02 0.111E+03 0.264E+04   0.116E+01 -.150E+01 0.105E+01   0.666E-02 0.263E-01 -.848E-01
   -.320E+02 -.351E+02 0.301E+04   0.321E+02 0.352E+02 -.301E+04   -.211E+00 -.302E-01 -.129E+01   -.127E-02 -.347E-02 -.474E-01
   -.157E+03 -.628E+02 -.268E+04   0.159E+03 0.639E+02 0.268E+04   -.174E+01 -.106E+01 0.292E+00   0.808E-02 -.311E-02 -.818E-01
   -.260E+02 -.151E+02 0.118E+04   0.260E+02 0.151E+02 -.118E+04   -.266E-01 -.492E-01 -.373E+00   0.376E-02 0.251E-02 -.215E+00
   0.378E+01 0.142E+02 0.118E+04   -.359E+01 -.142E+02 -.118E+04   -.882E-01 -.906E-01 -.411E+00   0.177E-02 -.577E-02 -.211E+00
   0.345E+02 0.332E+01 0.303E+04   -.346E+02 -.327E+01 -.303E+04   0.197E+00 -.507E-01 -.125E+01   0.347E-04 -.234E-02 -.486E-01
   -.283E+02 -.802E+02 -.268E+04   0.293E+02 0.817E+02 0.267E+04   -.105E+01 -.146E+01 0.121E+01   -.799E-02 0.227E-01 -.822E-01
   0.180E+02 0.565E+02 0.117E+04   -.180E+02 -.564E+02 -.117E+04   0.723E-01 -.136E+00 -.449E+00   -.729E-03 -.289E-02 -.216E+00
   0.323E+01 0.262E+02 0.117E+04   -.324E+01 -.262E+02 -.117E+04   0.375E-02 -.525E-01 -.162E+00   -.472E-02 0.666E-02 -.219E+00
   -.620E+02 -.768E+02 0.940E+03   0.621E+02 0.769E+02 -.940E+03   -.149E+00 -.113E+00 -.347E+00   -.174E-02 0.966E-03 -.166E+00
   0.257E+02 -.907E+02 0.942E+03   -.259E+02 0.910E+02 -.942E+03   0.155E+00 -.260E+00 -.418E+00   -.268E-02 -.387E-02 -.170E+00
   -.512E+02 0.161E+02 -.579E+03   0.514E+02 -.161E+02 0.579E+03   -.263E+00 -.441E-01 0.345E+00   0.569E-02 -.282E-02 -.174E+00
   0.462E+02 0.433E+02 -.570E+03   -.462E+02 -.433E+02 0.571E+03   0.238E-01 0.572E-02 -.753E+00   -.187E-01 -.335E-02 -.186E+00
   -.293E+02 0.124E+02 0.238E+04   0.293E+02 -.124E+02 -.237E+04   -.434E-02 -.357E-01 -.273E+01   -.653E-03 0.377E-02 -.352E-01
   -.688E+02 -.668E+02 -.214E+04   0.696E+02 0.674E+02 0.214E+04   -.772E+00 -.559E+00 0.150E+01   -.138E-01 -.337E-02 -.599E-01
   -.245E+02 -.256E+02 0.913E+03   0.248E+02 0.256E+02 -.912E+03   -.282E+00 0.507E-01 -.340E+00   -.616E-02 0.234E-02 -.166E+00
   0.115E+02 0.321E+02 0.238E+04   -.114E+02 -.322E+02 -.238E+04   -.727E-01 0.867E-01 -.297E+01   0.152E-02 0.529E-03 -.388E-01
   -.986E+02 -.106E+02 -.212E+04   0.993E+02 0.103E+02 0.212E+04   -.686E+00 0.350E+00 0.131E+01   0.186E-01 -.964E-02 -.613E-01
   0.364E+02 -.268E+02 0.926E+03   -.363E+02 0.267E+02 -.926E+03   -.142E-01 0.187E+00 -.402E+00   -.332E-02 -.157E-02 -.174E+00
   0.316E+02 -.625E+02 0.929E+03   -.320E+02 0.625E+02 -.929E+03   0.362E+00 -.310E-01 -.280E+00   0.622E-02 -.120E-02 -.170E+00
   -.130E+02 0.723E+02 0.940E+03   0.131E+02 -.722E+02 -.940E+03   0.133E-01 -.592E-01 -.401E+00   0.686E-02 0.158E-02 -.165E+00
   0.262E+02 0.115E+03 0.933E+03   -.264E+02 -.115E+03 -.933E+03   0.239E+00 0.288E+00 -.386E+00   -.893E-02 0.343E-02 -.171E+00
   0.985E+01 -.118E+02 0.243E+04   -.990E+01 0.118E+02 -.243E+04   0.118E-01 0.733E-01 -.273E+01   0.246E-02 -.520E-02 -.363E-01
   0.930E+02 -.357E+02 -.214E+04   -.939E+02 0.362E+02 0.214E+04   0.843E+00 -.493E+00 0.833E+00   -.503E-02 -.446E-02 -.660E-01
   -.231E+02 0.285E+02 -.214E+04   0.214E+02 -.281E+02 0.217E+04   0.166E+01 -.470E+00 -.276E+02   0.721E-02 -.451E-02 0.263E-01
   -.600E+02 -.213E+02 -.217E+04   0.597E+02 0.211E+02 0.220E+04   0.275E+00 0.168E+00 -.267E+02   0.673E-02 0.495E-02 0.235E-01
   -.241E+02 -.306E+02 -.215E+04   0.224E+02 0.298E+02 0.218E+04   0.175E+01 0.844E+00 -.276E+02   0.382E-02 0.331E-02 0.136E-01
   0.783E+02 -.270E+02 -.215E+04   -.760E+02 0.255E+02 0.217E+04   -.237E+01 0.145E+01 -.278E+02   -.158E-01 0.620E-02 0.218E-01
   0.417E+02 0.323E+02 -.212E+04   -.741E+02 -.476E+02 0.212E+04   0.325E+02 0.154E+02 -.792E+01   0.159E-02 0.557E-03 0.580E-01
   -.623E+02 -.282E+02 -.366E+03   0.691E+02 0.316E+02 0.369E+03   -.681E+01 -.339E+01 -.276E+01   0.396E-02 0.185E-02 0.950E-02
 -----------------------------------------------------------------------------------------------
   -.273E+02 -.147E+02 0.142E+03   0.171E-12 0.924E-12 0.585E-11   0.273E+02 0.146E+02 -.134E+03   0.110E-01 0.163E-01 -.857E+01
 
 
 POSITION                                       TOTAL-FORCE (eV/Angst)
 -----------------------------------------------------------------------------------
      5.00057      8.67991      6.09029        -0.004767     -0.006142     -0.006121
      2.48979      0.00196      6.03910         0.004366     -0.006685     -0.031662
     -0.00954      8.67268      6.08265        -0.005002      0.016590     -0.015405
      2.49653      8.66334      6.06914         0.000163      0.005758     -0.016987
      8.77178      2.15147      6.08272        -0.002428     -0.001209     -0.035140
      1.25520      2.18448      6.08786        -0.011751      0.003249     -0.027459
     -0.00285      1.44433      2.02730        -0.080269     -0.009621      0.197816
     -0.00945      1.38383      8.15001        -0.006968     -0.018483     -0.011918
      3.75160      2.16429      6.07010         0.020359      0.002688     -0.042586
      2.50178      1.44890      2.02869         0.107181     -0.061987      0.196340
      2.48701      1.43150      8.02338         0.004207      0.003587      0.005992
      6.25892      2.18414      6.10725        -0.000613     -0.010677     -0.035617
      5.00042      1.45188      2.04906        -0.043151      0.049027      0.228837
      5.00250      1.36475      8.11889         0.008418     -0.020166     -0.011481
      7.52680      1.44774      2.04372        -0.009925      0.022976      0.314919
      7.51688      1.41283      8.03250        -0.008815     -0.003102      0.007091
      6.25724      0.72120      4.08068         0.039513     -0.047470     -0.230187
      8.77725      0.71231      4.06936        -0.017268     -0.043794     -0.151083
     -2.49176      4.34077      6.06582        -0.002112      0.006193     -0.007567
     -1.27467      3.61315      2.03306        -0.041748      0.138816      0.208939
     -1.29158      3.60762      8.12999        -0.020923      0.010823     -0.015191
     -0.00860      2.89985      4.06991         0.085022      0.002663     -0.196768
      5.02439      4.35953      6.10113         0.005573      0.000808     -0.023206
      3.76492      3.61380      2.03274        -0.053477      0.104387      0.136193
      3.70144      3.59518      8.15705        -0.004228      0.019667      0.005948
     -3.76172      6.51626      6.07195        -0.007900      0.009175     -0.017197
     -1.25964      6.50258      6.03859         0.003706     -0.000658     -0.017532
     -2.50964      5.80144      2.00867         0.154850     -0.087958      0.341696
     -2.47420      5.75113      8.08979         0.002480     -0.017752     -0.000509
      1.26566      6.50020      6.07161         0.003240     -0.026299     -0.008051
     -0.00666      5.79426      2.00000        -0.136462     -0.093128      0.252885
     -0.00686      5.76257      8.01783        -0.010165      0.011488     -0.006368
      3.79132      6.49042      6.09268        -0.009011      0.004575     -0.003475
      2.50308      5.78909      2.00257         0.198392     -0.086900      0.275326
      2.47133      5.72372      8.15060         0.009656     -0.015476      0.009612
      1.25945      5.05378      4.04326        -0.008731     -0.042159     -0.133985
      5.01445      5.79798      2.01253        -0.216352     -0.048010      0.281230
      5.01554      5.76097      8.16482        -0.005373     -0.003883      0.006194
      6.27138      5.06452      4.04277        -0.030591     -0.079705     -0.068349
     -3.76517      7.96148      2.01691         0.034386      0.063908      0.280411
     -3.77338      7.97705      8.11013        -0.005214      0.004883     -0.008505
     -1.24654      7.96318      2.02107        -0.057654      0.007726      0.200106
     -1.22014      7.96353      8.10236        -0.002090      0.006109      0.013126
     -2.51584      7.25277      4.05487        -0.071232     -0.046125     -0.173969
      0.00963      7.22591      4.06957         0.111904     -0.015129     -0.217810
      3.74757      7.96401      2.04130         0.091219     -0.002901      0.220239
      3.78161      7.97215      8.13768         0.010634      0.019261     -0.008371
      2.50222      7.23652      4.07555        -0.009688     -0.033077     -0.214190
      5.01801      7.23500      4.07176        -0.015506     -0.019871     -0.042335
      1.20950      0.71304      4.05362        -0.001744      0.044567     -0.265798
      3.78049      0.67792      4.06351        -0.037500      0.008613     -0.306022
     -0.00373      4.32176      6.09136        -0.012813      0.000201     -0.013444
      2.55471      4.35787      6.13272         0.005115      0.014882     -0.017541
      1.23098      3.62224      2.02941        -0.001130      0.060785      0.149167
      1.28060      3.59988      8.20290         0.014657      0.019201     -0.016326
      2.51334      2.87806      4.07938        -0.013205     -0.005141     -0.186179
      6.26024      3.63306      2.00212         0.000602     -0.026529      0.199967
      6.29667      3.60010      8.14150         0.019942      0.019679     -0.015916
      5.02463      2.88643      4.11822         0.044486      0.091813     -0.416612
      7.52997      2.83909      4.10996        -0.013837     -0.032337     -0.299319
     -1.25360      5.10876      4.01488         0.048168     -0.016646     -0.337715
      3.75975      5.11705      4.02298        -0.007573      0.044811     -0.240555
      1.25181      7.95850      2.03067        -0.027544      0.072079      0.340185
      1.21633      7.95703      8.09226        -0.020864      0.028145     -0.020956
      5.03947      2.82772      9.22872        -0.013251     -0.013646      0.016924
     -2.47857      7.23043      9.20287         0.018670      0.015735     -0.005349
     -0.02966      2.86278      9.26548        -0.014876      0.003808      0.025538
      2.44995      7.26156      9.22242         0.001123     -0.015023      0.007542
      5.09940      5.84369      9.96850         0.037454      0.014182      0.003653
      5.93061      6.25491     10.28652        -0.021737      0.004834     -0.005121
 -----------------------------------------------------------------------------------
    total drift:                                0.004153     -0.004821      0.025840


--------------------------------------------------------------------------------------------------------



  FREE ENERGIE OF THE ION-ELECTRON SYSTEM (eV)
  ---------------------------------------------------
  free  energy   TOTEN  =      -429.69336486 eV

  energy  without entropy=     -429.71594077  energy(sigma->0) =     -429.70089016
 


--------------------------------------------------------------------------------------------------------


    POTLOK:  cpu time    0.4483: real time    0.4484


--------------------------------------------------------------------------------------------------------


 stress matrix after NEB project (eV)
    -29.99702      0.88409      0.11342
      0.88409    -29.06883      0.16705
      0.11342      0.16705     -8.95542
  FORCES: max atom, RMS     0.047278    0.018404
  FORCE total and by dimension    0.153977    0.042586
  Stress total and by dimension   42.739471   29.997019


--------------------------------------------------------------------------------------------------------


  
 reached required accuracy - stopping structural energy minimisation
 writing wavefunctions
     LOOP+:  cpu time 1074.8296: real time 1085.2832
    4ORBIT:  cpu time    0.0000: real time    0.0000
 


 total charge     
 
# of ion       s       p       d       tot
------------------------------------------
    1        0.501   0.499   8.328   9.328
    2        0.498   0.501   8.329   9.328
    3        0.509   0.511   8.333   9.353
    4        0.494   0.498   8.320   9.311
    5        0.499   0.502   8.327   9.328
    6        0.507   0.515   8.322   9.344
    7        0.489   0.382   8.319   9.190
    8        0.490   0.493   8.332   9.314
    9        0.507   0.513   8.328   9.347
   10        0.501   0.389   8.305   9.195
   11        0.479   0.383   8.351   9.212
   12        0.504   0.512   8.333   9.349
   13        0.498   0.395   8.313   9.207
   14        0.503   0.514   8.339   9.356
   15        0.497   0.389   8.311   9.197
   16        0.480   0.384   8.359   9.223
   17        0.508   0.513   8.335   9.356
   18        0.503   0.505   8.330   9.338
   19        0.509   0.515   8.328   9.352
   20        0.502   0.393   8.311   9.206
   21        0.499   0.505   8.336   9.340
   22        0.512   0.524   8.326   9.363
   23        0.503   0.506   8.323   9.332
   24        0.503   0.393   8.311   9.207
   25        0.493   0.489   8.334   9.317
   26        0.487   0.485   8.309   9.281
   27        0.498   0.502   8.326   9.326
   28        0.492   0.385   8.313   9.189
   29        0.490   0.497   8.333   9.319
   30        0.500   0.506   8.323   9.329
   31        0.499   0.386   8.316   9.201
   32        0.486   0.392   8.358   9.236
   33        0.498   0.496   8.318   9.312
   34        0.492   0.386   8.318   9.196
   35        0.492   0.492   8.331   9.315
   36        0.509   0.516   8.324   9.349
   37        0.495   0.382   8.311   9.188
   38        0.492   0.519   8.299   9.310
   39        0.505   0.510   8.319   9.334
   40        0.484   0.372   8.312   9.168
   41        0.484   0.486   8.330   9.300
   42        0.491   0.380   8.314   9.185
   43        0.504   0.515   8.338   9.357
   44        0.507   0.510   8.326   9.343
   45        0.505   0.513   8.329   9.347
   46        0.486   0.378   8.307   9.171
   47        0.478   0.476   8.339   9.293
   48        0.500   0.502   8.320   9.323
   49        0.501   0.502   8.324   9.327
   50        0.478   0.512   6.162   7.152
   51        0.481   0.517   6.184   7.182
   52        0.471   0.508   6.176   7.155
   53        0.482   0.519   6.182   7.184
   54        0.464   0.392   6.114   6.970
   55        0.475   0.515   6.170   7.160
   56        0.478   0.516   6.210   7.204
   57        0.463   0.389   6.109   6.962
   58        0.464   0.508   6.151   7.123
   59        0.480   0.514   6.205   7.199
   60        0.477   0.515   6.177   7.169
   61        0.476   0.509   6.155   7.139
   62        0.476   0.508   6.166   7.150
   63        0.462   0.394   6.095   6.951
   64        0.485   0.541   6.171   7.198
   65        1.583   3.355   0.000   4.938
   66        1.580   3.350   0.000   4.931
   67        1.581   3.354   0.000   4.936
   68        1.584   3.354   0.000   4.937
   69        1.576   3.447   0.000   5.023
   70        0.611   0.119   0.000   0.730
--------------------------------------------------
tot         39.990  47.147 500.345 587.482
 


 magnetization (x)
 
# of ion       s       p       d       tot
------------------------------------------
    1       -0.008  -0.024   0.612   0.579
    2       -0.012  -0.029   0.700   0.659
    3       -0.008  -0.026   0.608   0.573
    4       -0.011  -0.031   0.726   0.685
    5       -0.011  -0.030   0.722   0.682
    6       -0.021  -0.043   0.768   0.704
    7       -0.015  -0.031   0.683   0.637
    8       -0.004  -0.015   0.497   0.478
    9       -0.016  -0.035   0.730   0.680
   10       -0.015  -0.036   0.775   0.724
   11       -0.014  -0.019   0.780   0.747
   12       -0.016  -0.037   0.715   0.662
   13       -0.018  -0.038   0.730   0.674
   14       -0.008  -0.019   0.447   0.419
   15       -0.011  -0.036   0.734   0.687
   16       -0.016  -0.020   0.764   0.728
   17       -0.017  -0.035   0.690   0.639
   18       -0.012  -0.028   0.680   0.640
   19       -0.014  -0.033   0.664   0.618
   20       -0.021  -0.034   0.742   0.687
   21       -0.010  -0.020   0.561   0.530
   22       -0.020  -0.048   0.775   0.707
   23       -0.016  -0.037   0.741   0.688
   24       -0.023  -0.034   0.752   0.695
   25       -0.013  -0.024   0.548   0.511
   26       -0.005  -0.024   0.731   0.702
   27       -0.011  -0.030   0.711   0.670
   28       -0.012  -0.030   0.711   0.669
   29       -0.007  -0.016   0.589   0.565
   30       -0.015  -0.036   0.743   0.692
   31       -0.013  -0.034   0.728   0.681
   32       -0.019  -0.024   0.787   0.743
   33       -0.013  -0.029   0.726   0.684
   34       -0.018  -0.035   0.697   0.644
   35       -0.010  -0.022   0.598   0.565
   36       -0.022  -0.045   0.733   0.666
   37       -0.009  -0.030   0.727   0.687
   38       -0.010  -0.006   0.792   0.775
   39       -0.019  -0.042   0.755   0.694
   40       -0.011  -0.024   0.701   0.666
   41       -0.004  -0.011   0.550   0.536
   42       -0.015  -0.028   0.704   0.662
   43       -0.011  -0.015   0.473   0.447
   44       -0.013  -0.033   0.754   0.708
   45       -0.013  -0.036   0.707   0.658
   46       -0.011  -0.026   0.709   0.672
   47       -0.003  -0.008   0.497   0.487
   48       -0.011  -0.035   0.752   0.706
   49       -0.011  -0.028   0.712   0.673
   50        0.006  -0.008   2.797   2.795
   51        0.004  -0.014   2.733   2.723
   52        0.003  -0.018   2.783   2.768
   53        0.004  -0.017   2.691   2.678
   54        0.015  -0.008   2.905   2.912
   55        0.014  -0.001   2.696   2.710
   56       -0.004  -0.029   2.653   2.621
   57        0.012  -0.009   2.916   2.919
   58        0.022   0.008   2.789   2.818
   59       -0.001  -0.024   2.707   2.682
   60        0.005  -0.018   2.755   2.741
   61        0.007  -0.007   2.819   2.819
   62        0.004  -0.012   2.788   2.780
   63        0.020  -0.007   2.949   2.962
   64        0.021   0.007   2.686   2.714
   65        0.002   0.078   0.000   0.080
   66        0.002   0.106   0.000   0.108
   67        0.002   0.077   0.000   0.079
   68        0.002   0.101   0.000   0.103
   69        0.004   0.191   0.000   0.195
   70       -0.003   0.003   0.000  -0.000
--------------------------------------------------
tot         -0.495  -1.010  75.396  73.892
 

 total amount of memory used by VASP MPI-rank0   117171. kBytes
=======================================================================

   base      :      30000. kBytes
   nonlr-proj:      14036. kBytes
   fftplans  :       6402. kBytes
   grid      :      18928. kBytes
   one-center:         93. kBytes
   wavefun   :      47712. kBytes
 
  
  
 General timing and accounting informations for this job:
 ========================================================
  
                  Total CPU time used (sec):     1162.753
                            User time (sec):     1045.437
                          System time (sec):      117.316
                         Elapsed time (sec):     1175.809
  
                   Maximum memory used (kb):      350676.
                   Average memory used (kb):           0.
  
                          Minor page faults:     19119147
                          Major page faults:            0
                 Voluntary context switches:         4007
