SQS-NiFe                                
           1
    10.026770    0.000000    0.000000
    -5.013385    8.683438    0.000000
     0.000000    0.000000   21.189180
   Ni   Fe   O    H 
  49  15   5   1
Direct configuration=     1
   0.99851852  0.99959365  0.28742433
   0.24842762  0.00022604  0.28500865
   0.49842892  0.99876059  0.28706395
   0.74782907  0.99768602  0.28642644
   0.99871924  0.24776725  0.28706706
   0.25096859  0.25156814  0.28730989
   0.08288200  0.16633200  0.09567600
   0.07873989  0.15936390  0.38463063
   0.49878036  0.24924371  0.28647167
   0.33293900  0.16685800  0.09574200
   0.33046378  0.16485405  0.37865449
   0.74998557  0.25152885  0.28822493
   0.58230700  0.16720100  0.09670300
   0.57749776  0.15716650  0.38316230
   0.83403200  0.16672400  0.09645100
   0.83103315  0.16270410  0.37908522
   0.66558100  0.08305500  0.19258300
   0.91639700  0.08203100  0.19204900
   0.00143502  0.49989083  0.28626947
   0.08092200  0.41609700  0.09594800
   0.07891662  0.41546014  0.38368591
   0.16611800  0.33395200  0.19207500
   0.75212340  0.50205142  0.28793602
   0.58357300  0.41617200  0.09593300
   0.57616917  0.41402715  0.38496290
   0.00004507  0.75042458  0.28655876
   0.24879629  0.74884812  0.28498446
   0.08375800  0.66810400  0.09479700
   0.08439557  0.66231043  0.38178876
   0.50051539  0.74857485  0.28654289
   0.33297400  0.66727700  0.09438800
   0.33113005  0.66362828  0.37839256
   0.75184383  0.74744827  0.28753720
   0.58298100  0.66668200  0.09450900
   0.57605041  0.65915369  0.38465865
   0.41661000  0.58200200  0.19081700
   0.83395900  0.66770600  0.09497900
   0.83193652  0.66344375  0.38532987
   0.91708300  0.58323900  0.19079400
   0.08291700  0.91685800  0.09518600
   0.08299445  0.91865092  0.38274877
   0.33420600  0.91705400  0.09538200
   0.33685893  0.91709377  0.38238213
   0.16670900  0.83524200  0.19136500
   0.41703500  0.83214900  0.19205900
   0.83233100  0.91715000  0.09633700
   0.83619500  0.91808644  0.38404879
   0.66623900  0.83337000  0.19234100
   0.91705900  0.83319500  0.19216200
   0.16168500  0.08211500  0.19130600
   0.41607500  0.07807100  0.19177300
   0.24847831  0.49770106  0.28747502
   0.50571855  0.50185969  0.28942692
   0.33134100  0.41714300  0.09577600
   0.33500228  0.41456808  0.38712690
   0.41638400  0.33144300  0.19252200
   0.83354800  0.41839000  0.09448800
   0.83528266  0.41459369  0.38422909
   0.66732400  0.33240600  0.19435500
   0.91446400  0.32695500  0.19396500
   0.16914200  0.58833400  0.18947800
   0.66961600  0.58928900  0.18986000
   0.58310400  0.91651500  0.09583500
   0.57948112  0.91634506  0.38190519
   0.66542375  0.32564532  0.43553919
   0.16913959  0.83266963  0.43431944
   0.16188297  0.32968293  0.43727390
   0.66246770  0.83625428  0.43524218
   0.84506298  0.67296976  0.47045247
   0.95164106  0.72032598  0.48546100
