       N       E                     dE             d eps       ncg     rms          rms(c)
DAV:   1     0.400113816275E+04    0.40011E+04   -0.18596E+05 65520   0.210E+03
DAV:   2     0.252547342540E+03   -0.37486E+04   -0.35412E+04 65520   0.440E+02
DAV:   3    -0.264499882062E+03   -0.51705E+03   -0.41917E+03 65520   0.188E+02
DAV:   4    -0.297051087774E+03   -0.32551E+02   -0.31458E+02 69318   0.562E+01
DAV:   5    -0.297558794067E+03   -0.50771E+00   -0.50713E+00 87993   0.627E+00
RMM:   6    -0.297573446156E+03   -0.14652E-01   -0.14651E-01 68909   0.102E+00
RMM:   7    -0.297577739615E+03   -0.42935E-02   -0.42730E-02 98047   0.314E-01
RMM:   8    -0.297577775760E+03   -0.36146E-04   -0.56827E-04 93850   0.482E-02
RMM:   9    -0.297577781951E+03   -0.61910E-05   -0.64477E-05 73506   0.127E-02
RMM:  10    -0.297577782334E+03   -0.38282E-06   -0.40754E-06 52890   0.376E-03
   1 F= -.29757778E+03 E0= -.29757778E+03  d E =0.000000E+00  mag=    54.8874
