 vasp.5.4.4.18Apr17-6-g9f103f2a35 (build Sep 06 2021 19:49:22) complex          
  
 executed on             LinuxIFC date 2021.12.28  00:45:39
 running on   48 total cores
 distrk:  each k-point on   48 cores,    1 groups
 distr:  one band on NCORES_PER_BAND=  16 cores,    3 groups


--------------------------------------------------------------------------------------------------------


 INCAR:
 POTCAR:    PAW_PBE Ni 02Aug2007                  
 POTCAR:    PAW_PBE Fe 06Sep2000                  

 ----------------------------------------------------------------------------- 
|                                                                             |
|           W    W    AA    RRRRR   N    N  II  N    N   GGGG   !!!           |
|           W    W   A  A   R    R  NN   N  II  NN   N  G    G  !!!           |
|           W    W  A    A  R    R  N N  N  II  N N  N  G       !!!           |
|           W WW W  AAAAAA  RRRRR   N  N N  II  N  N N  G  GGG   !            |
|           WW  WW  A    A  R   R   N   NN  II  N   NN  G    G                |
|           W    W  A    A  R    R  N    N  II  N    N   GGGG   !!!           |
|                                                                             |
|      For optimal performance we recommend to set                            |
|        NCORE= 4 - approx SQRT( number of cores)                             |
|      NCORE specifies how many cores store one orbital (NPAR=cpu/NCORE).     |
|      This setting can  greatly improve the performance of VASP for DFT.     |
|      The default,   NCORE=1            might be grossly inefficient         |
|      on modern multi-core architectures or massively parallel machines.     |
|      Do your own testing !!!!                                               |
|      Unfortunately you need to use the default for GW and RPA calculations. |
|      (for HF NCORE is supported but not extensively tested yet)             |
|                                                                             |
 ----------------------------------------------------------------------------- 

 POTCAR:    PAW_PBE Ni 02Aug2007                  
   VRHFIN =Ni:                                                                  
   LEXCH  = PE                                                                  
   EATOM  =  1077.6739 eV,   79.2068 Ry                                         
                                                                                
   TITEL  = PAW_PBE Ni 02Aug2007                                                
   LULTRA =        F    use ultrasoft PP ?                                      
   IUNSCR =        1    unscreen: 0-lin 1-nonlin 2-no                           
   RPACOR =    2.000    partial core radius                                     
   POMASS =   58.690; ZVAL   =   10.000    mass and valenz                      
   RCORE  =    2.300    outmost cutoff radius                                   
   RWIGS  =    2.430; RWIGS  =    1.286    wigner-seitz radius (au A)           
   ENMAX  =  269.532; ENMIN  =  202.149 eV                                      
   RCLOC  =    1.201    cutoff for local pot                                    
   LCOR   =        T    correct aug charges                                     
   LPAW   =        T    paw PP                                                  
   EAUG   =  544.565                                                            
   DEXC   =    0.000                                                            
   RMAX   =    2.357    core radius for proj-oper                               
   RAUG   =    1.300    factor for augmentation sphere                          
   RDEP   =    2.390    radius for radial grids                                 
   RDEPT  =    1.838    core radius for aug-charge                              
                                                                                
   Atomic configuration                                                         
    9 entries                                                                   
     n  l   j            E        occ.                                          
     1  0  0.50     -8206.4253   2.0000                                         
     2  0  0.50      -976.1748   2.0000                                         
     2  1  1.50      -839.0571   6.0000                                         
     3  0  0.50      -105.9991   2.0000                                         
     3  1  1.50       -66.4603   6.0000                                         
     3  2  2.50        -4.6458   9.0000                                         
     4  0  0.50        -4.4926   1.0000                                         
     4  1  1.50        -4.0817   0.0000                                         
     4  3  2.50        -1.3606   0.0000                                         
   Description                                                                  
     l       E           TYP  RCUT    TYP  RCUT                                 
     2     -4.6457903     23  2.300                                             
     2     -6.0063729     23  2.300                                             
     0     -4.4925590     23  2.300                                             
     0      5.0102601     23  2.300                                             
     1     -2.7211652     23  2.300                                             
     1     16.5183231     23  2.300                                             
  local pseudopotential read in
  partial core-charges read in
  partial kinetic energy density read in
  atomic valenz-charges read in
  non local Contribution for L=           2  read in
    real space projection operators read in
  non local Contribution for L=           2  read in
    real space projection operators read in
  non local Contribution for L=           0  read in
    real space projection operators read in
  non local Contribution for L=           0  read in
    real space projection operators read in
  non local Contribution for L=           1  read in
    real space projection operators read in
  non local Contribution for L=           1  read in
    real space projection operators read in
    PAW grid and wavefunctions read in
 
   number of l-projection  operators is LMAX  =           6
   number of lm-projection operators is LMMAX =          18
 
 POTCAR:    PAW_PBE Fe 06Sep2000                  
   VRHFIN =Fe:  d7 s1                                                           
   LEXCH  = PE                                                                  
   EATOM  =   594.3153 eV,   43.6809 Ry                                         
                                                                                
   TITEL  = PAW_PBE Fe 06Sep2000                                                
   LULTRA =        F    use ultrasoft PP ?                                      
   IUNSCR =        1    unscreen: 0-lin 1-nonlin 2-no                           
   RPACOR =    2.000    partial core radius                                     
   POMASS =   55.847; ZVAL   =    8.000    mass and valenz                      
   RCORE  =    2.300    outmost cutoff radius                                   
   RWIGS  =    2.460; RWIGS  =    1.302    wigner-seitz radius (au A)           
   ENMAX  =  267.882; ENMIN  =  200.911 eV                                      
   RCLOC  =    1.701    cutoff for local pot                                    
   LCOR   =        T    correct aug charges                                     
   LPAW   =        T    paw PP                                                  
   EAUG   =  511.368                                                            
   DEXC   =    0.000                                                            
   RMAX   =    2.356    core radius for proj-oper                               
   RAUG   =    1.300    factor for augmentation sphere                          
   RDEP   =    2.442    radius for radial grids                                 
   RDEPT  =    1.890    core radius for aug-charge                              
                                                                                
   Atomic configuration                                                         
    9 entries                                                                   
     n  l   j            E        occ.                                          
     1  0  0.50     -6993.8440   2.0000                                         
     2  0  0.50      -814.6047   2.0000                                         
     2  1  1.50      -693.3689   6.0000                                         
     3  0  0.50       -89.4732   2.0000                                         
     3  1  1.50       -55.6373   6.0000                                         
     3  2  2.50        -3.8151   7.0000                                         
     4  0  0.50        -4.2551   1.0000                                         
     4  1  1.50        -3.4015   0.0000                                         
     4  3  2.50        -1.3606   0.0000                                         
   Description                                                                  
     l       E           TYP  RCUT    TYP  RCUT                                 
     2     -3.8151135     23  2.300                                             
     2     -5.1756961     23  2.300                                             
     0     -4.2550963     23  2.300                                             
     0      7.2035603     23  2.300                                             
     1     -2.7211652     23  2.300                                             
     1     18.4316424     23  2.300                                             
  local pseudopotential read in
  partial core-charges read in
  partial kinetic energy density read in
  atomic valenz-charges read in
  non local Contribution for L=           2  read in
    real space projection operators read in
  non local Contribution for L=           2  read in
    real space projection operators read in
  non local Contribution for L=           0  read in
    real space projection operators read in
  non local Contribution for L=           0  read in
    real space projection operators read in
  non local Contribution for L=           1  read in
    real space projection operators read in
  non local Contribution for L=           1  read in
    real space projection operators read in
    PAW grid and wavefunctions read in
 
   number of l-projection  operators is LMAX  =           6
   number of lm-projection operators is LMMAX =          18
 
 Optimization of the real space projectors (new method)

 maximal supplied QI-value         = 16.25
 optimisation between [QCUT,QGAM] = [ 11.54, 23.24] = [ 37.28,151.24] Ry 
 Optimized for a Real-space Cutoff    1.45 Angstroem

   l    n(q)    QCUT    max X(q) W(low)/X(q) W(high)/X(q)  e(spline) 
   2      9    11.539    60.317    0.19E-03    0.47E-04    0.16E-06
   2      9    11.539    55.921    0.19E-03    0.48E-04    0.16E-06
   0     10    11.539    51.690    0.80E-04    0.50E-04    0.24E-06
   0     10    11.539    30.015    0.73E-04    0.45E-04    0.22E-06
   1     10    11.539    18.849    0.87E-04    0.16E-03    0.71E-07
   1     10    11.539    14.624    0.73E-04    0.13E-03    0.64E-07
 Optimization of the real space projectors (new method)

 maximal supplied QI-value         = 16.25
 optimisation between [QCUT,QGAM] = [ 11.54, 23.24] = [ 37.28,151.24] Ry 
 Optimized for a Real-space Cutoff    1.53 Angstroem

   l    n(q)    QCUT    max X(q) W(low)/X(q) W(high)/X(q)  e(spline) 
   2     10    11.539    80.901    0.11E-03    0.14E-03    0.21E-06
   2     10    11.539    75.754    0.11E-03    0.14E-03    0.22E-06
   0     11    11.539    58.752    0.52E-04    0.18E-04    0.33E-06
   0     11    11.539    30.679    0.44E-04    0.16E-04    0.30E-06
   1     10    11.539    17.977    0.53E-04    0.29E-04    0.13E-06
   1     10    11.539    13.559    0.44E-04    0.25E-04    0.11E-06
  PAW_PBE Ni 02Aug2007                  :
 energy of atom  1       EATOM=-1077.6739
 kinetic energy error for atom=    0.0030 (will be added to EATOM!!)
  PAW_PBE Fe 06Sep2000                  :
 energy of atom  2       EATOM= -594.3153
 kinetic energy error for atom=    0.0026 (will be added to EATOM!!)
 
 
 POSCAR: POSCAR                                  
  positions in direct lattice
  velocities in cartesian coordinates
 exchange correlation table for  LEXCH =        8
   RHO(1)=    0.500       N(1)  =     2000
   RHO(2)=  100.500       N(2)  =     4000
 


--------------------------------------------------------------------------------------------------------


 ion  position               nearest neighbor table
   1  0.001  0.001  0.002-  30 2.49   5 2.50  37 2.50   7 2.50  25 2.50   2 2.50   6 2.50  20 2.50
                            14 2.51   4 2.51  36 2.51  34 2.52
   2  0.250  0.000  0.999-  20 2.50  38 2.50  32 2.50   1 2.50   8 2.50   6 2.51   3 2.51  30 2.51
                            21 2.52  31 2.52   9 2.52  37 2.53
   3  0.499  0.999  0.001-  31 2.49  38 2.49  13 2.50   8 2.50   4 2.50  48 2.51  23 2.51   2 2.51
                            21 2.51  33 2.51  10 2.52  11 2.53
   4  0.749  0.999  0.002-  25 2.50   5 2.50  35 2.50   3 2.50  23 2.50  48 2.51  13 2.51  34 2.51
                            10 2.51   1 2.51  14 2.51  12 2.52
   5  0.999  0.249  0.001-  45 2.46  10 2.50   1 2.50   4 2.50   7 2.51  39 2.51  14 2.51  12 2.51
                            15 2.51   6 2.51  17 2.51  16 2.52
   6  0.250  0.250  1.000-  42 2.49   1 2.50  39 2.50   2 2.51  17 2.51   9 2.51   5 2.51   7 2.52
                            41 2.52   8 2.52  37 2.52  40 2.55
   7  0.083  0.166  0.334-  37 2.47  12 2.50   1 2.50  30 2.50  14 2.50  41 2.50   9 2.50   5 2.51
                            34 2.51  17 2.51  16 2.51   6 2.52
   8  0.501  0.249  0.001-  44 2.47   3 2.50  10 2.50   2 2.50  42 2.50  11 2.51   9 2.51  19 2.51
                            40 2.51   6 2.52  18 2.53  38 2.54
   9  0.333  0.167  0.335-  11 2.50  42 2.50   7 2.50  19 2.51  30 2.51  31 2.51   8 2.51   6 2.51
                            37 2.51  41 2.52   2 2.52  38 2.52
  10  0.751  0.250  0.004-  43 2.48  45 2.48  44 2.48   5 2.50   8 2.50  12 2.50   4 2.51  15 2.52
                            11 2.52   3 2.52  13 2.52  18 2.52
  11  0.582  0.167  0.338-  38 2.48  19 2.49  31 2.50  13 2.50   9 2.50   8 2.51  10 2.52  48 2.52
                            44 2.52  43 2.52  12 2.53   3 2.53
  12  0.834  0.167  0.337-  16 2.49  45 2.49  14 2.49  34 2.49   7 2.50  10 2.50  13 2.51   5 2.51
                            48 2.51   4 2.52  43 2.53  11 2.53
  13  0.666  0.083  0.669-  45 2.47  38 2.48  44 2.49  11 2.50   3 2.50  33 2.50  35 2.51  12 2.51
                             4 2.51  48 2.51  10 2.52  14 2.52
  14  0.916  0.082  0.667-  37 2.46  45 2.47  34 2.48  12 2.49  36 2.50  35 2.50   7 2.50   1 2.51
                             5 2.51   4 2.51  17 2.51  13 2.52
  15  0.002  0.500  0.996-  39 2.48  21 2.48  45 2.49   5 2.51  29 2.51  18 2.52  10 2.52  20 2.52
                            43 2.52  16 2.52  22 2.52  46 2.53
  16  0.081  0.416  0.335-  46 2.48  12 2.49  43 2.49  17 2.50  41 2.51  22 2.51   7 2.51   5 2.52
                            15 2.52  24 2.52  39 2.53  45 2.53
  17  0.166  0.334  0.667-  45 2.49  39 2.49  41 2.49  27 2.50  16 2.50  37 2.50   7 2.51   6 2.51
                             5 2.51  14 2.51  42 2.52  46 2.54
  18  0.752  0.502  0.997-  40 2.46  44 2.47  25 2.50  43 2.50  20 2.50  29 2.51  28 2.51  15 2.52
                            10 2.52   8 2.53  19 2.54  47 2.54
  19  0.584  0.416  0.335-  11 2.49  40 2.49  47 2.49  43 2.50   9 2.51  42 2.51   8 2.51  26 2.51
                            28 2.52  41 2.53  18 2.54  44 2.54
  20  0.001  0.751  0.997-  36 2.49   2 2.50  21 2.50  32 2.50  18 2.50   1 2.50  25 2.50  22 2.51
                            30 2.51  28 2.52  15 2.52  29 2.52
  21  0.249  0.749  0.997-  15 2.48  33 2.50  20 2.50  24 2.50  39 2.50  46 2.50  22 2.51   3 2.51
                            32 2.51  23 2.51   2 2.52  31 2.53
  22  0.084  0.668  0.331-  46 2.47  29 2.50  30 2.50  28 2.50  24 2.50  31 2.50  20 2.51  43 2.51
                            21 2.51  32 2.51  16 2.51  15 2.52
  23  0.500  0.749  0.997-  35 2.49  33 2.49  26 2.50  24 2.50   4 2.50  40 2.51   3 2.51  21 2.51
                            25 2.51  39 2.51  27 2.51  48 2.53
  24  0.333  0.667  0.330-  46 2.47  31 2.50  41 2.50  21 2.50  22 2.50  39 2.50  48 2.50  23 2.50
                            26 2.51  27 2.52  33 2.52  16 2.52
  25  0.751  0.751  1.000-  40 2.47  28 2.50  36 2.50   4 2.50  18 2.50  26 2.50   1 2.50  20 2.50
                            35 2.50  23 2.51  47 2.52  34 2.52
  26  0.583  0.667  0.330-  40 2.47  47 2.47  27 2.50  25 2.50  23 2.50  48 2.50  34 2.51  24 2.51
                            28 2.51  41 2.51  19 2.51  35 2.53
  27  0.417  0.582  0.663-  41 2.47  17 2.50  26 2.50  47 2.50  33 2.51  42 2.51  35 2.51  46 2.51
                            23 2.51  24 2.52  39 2.53  40 2.55
  28  0.834  0.668  0.332-  47 2.47  25 2.50  30 2.50  43 2.50  29 2.50  22 2.50  34 2.51  18 2.51
                            36 2.51  26 2.51  20 2.52  19 2.52
  29  0.917  0.583  0.663-  43 2.49  22 2.50  28 2.50  46 2.50  18 2.51  36 2.51  44 2.51  47 2.51
                            15 2.51  32 2.51  20 2.52  45 2.56
  30  0.083  0.917  0.333-  37 2.49   1 2.49  32 2.49  28 2.50  22 2.50   7 2.50   9 2.51  36 2.51
                            20 2.51   2 2.51  34 2.51  31 2.52
  31  0.334  0.917  0.333-  38 2.48   3 2.49  11 2.50  48 2.50  24 2.50  32 2.50  22 2.50   9 2.51
                            33 2.51   2 2.52  30 2.52  21 2.53
  32  0.167  0.835  0.665-  38 2.47  46 2.49  36 2.49  30 2.49  20 2.50  31 2.50  37 2.50   2 2.50
                            22 2.51  21 2.51  29 2.51  33 2.53
  33  0.417  0.832  0.667-  46 2.47  38 2.47  23 2.49  35 2.49  21 2.50  48 2.50  13 2.50  27 2.51
                             3 2.51  31 2.51  24 2.52  32 2.53
  34  0.832  0.917  0.337-  14 2.48  35 2.49  12 2.49  48 2.50  36 2.50   7 2.51  26 2.51   4 2.51
                            28 2.51  30 2.51  25 2.52   1 2.52
  35  0.666  0.833  0.668-  47 2.47  23 2.49  33 2.49  34 2.49  14 2.50   4 2.50  48 2.50  25 2.50
                            13 2.51  27 2.51  36 2.52  26 2.53
  36  0.917  0.833  0.667-  47 2.46  37 2.47  20 2.49  32 2.49  25 2.50  14 2.50  34 2.50  29 2.51
                            30 2.51  28 2.51   1 2.51  35 2.52
  37  0.162  0.082  0.665-  14 2.46   7 2.47  36 2.47  30 2.49   1 2.50  32 2.50  17 2.50   9 2.51
                             6 2.52  42 2.53   2 2.53  38 2.57
  38  0.416  0.078  0.666-  32 2.47  33 2.47  31 2.48  13 2.48  11 2.48   3 2.49   2 2.50   9 2.52
                            44 2.54   8 2.54  42 2.54  37 2.57
  39  0.248  0.499  0.999-  15 2.48  17 2.49  21 2.50  24 2.50   6 2.50   5 2.51  41 2.51  23 2.51
                            16 2.53  27 2.53  46 2.55  40 2.57
  40  0.506  0.503  0.002-  18 2.46  26 2.47  25 2.47  19 2.49  23 2.51   8 2.51  42 2.53  47 2.53
                            27 2.55  41 2.55   6 2.55  39 2.57
  41  0.331  0.417  0.335-  27 2.47  17 2.49  24 2.50   7 2.50  16 2.51  39 2.51  26 2.51   6 2.52
                             9 2.52  42 2.53  19 2.53  40 2.55
  42  0.416  0.331  0.669-   6 2.49   9 2.50   8 2.50  19 2.51  27 2.51  44 2.51  17 2.52  40 2.53
                            37 2.53  41 2.53  38 2.54  47 2.56
  43  0.834  0.418  0.330-  10 2.48  16 2.49  29 2.49  19 2.50  28 2.50  18 2.50  22 2.51  15 2.52
                            11 2.52  12 2.53  44 2.56  45 2.59
  44  0.667  0.332  0.675-  18 2.47   8 2.47  10 2.48  13 2.49  45 2.51  29 2.51  42 2.51  11 2.52
                            38 2.54  19 2.54  43 2.56  47 2.57
  45  0.914  0.327  0.674-   5 2.46  14 2.47  13 2.47  10 2.48  17 2.49  15 2.49  12 2.49  44 2.51
                            16 2.53  29 2.56  43 2.59  46 2.59
  46  0.169  0.588  0.658-  33 2.47  22 2.47  24 2.47  16 2.48  32 2.49  29 2.50  21 2.50  27 2.51
                            15 2.53  17 2.54  39 2.55  45 2.59
  47  0.670  0.589  0.660-  36 2.46  35 2.47  28 2.47  26 2.47  19 2.49  27 2.50  29 2.51  25 2.52
                            40 2.53  18 2.54  42 2.56  44 2.57
  48  0.583  0.917  0.335-  34 2.50  33 2.50  31 2.50  35 2.50  24 2.50  26 2.50   4 2.51   3 2.51
                            13 2.51  12 2.51  11 2.52  23 2.53
 

IMPORTANT INFORMATION: All symmetrisations will be switched off!
NOSYMM: (Re-)initialisation of all symmetry stuff for point group C_1.

 
 

Automatic generation of k-mesh.
 generate k-points for:    4    4    6
Space group operators:
 irot       det(A)        alpha          n_x          n_y          n_z        tau_x        tau_y        tau_z
    1     1.000000     0.000000     1.000000     0.000000     0.000000     0.000000     0.000000     0.000000
 
 Subroutine IBZKPT returns following result:
 ===========================================
 
 Found     52 irreducible k-points:
 
 Following reciprocal coordinates:
            Coordinates               Weight
  0.000000  0.000000  0.000000      1.000000
  0.250000  0.000000  0.000000      2.000000
  0.500000  0.000000  0.000000      1.000000
  0.000000  0.250000  0.000000      2.000000
  0.250000  0.250000  0.000000      2.000000
  0.500000  0.250000  0.000000      2.000000
 -0.250000  0.250000  0.000000      2.000000
  0.000000  0.500000  0.000000      1.000000
  0.250000  0.500000  0.000000      2.000000
  0.500000  0.500000  0.000000      1.000000
  0.000000  0.000000  0.166667      2.000000
  0.250000  0.000000  0.166667      2.000000
  0.500000  0.000000  0.166667      2.000000
 -0.250000  0.000000  0.166667      2.000000
  0.000000  0.250000  0.166667      2.000000
  0.250000  0.250000  0.166667      2.000000
  0.500000  0.250000  0.166667      2.000000
 -0.250000  0.250000  0.166667      2.000000
  0.000000  0.500000  0.166667      2.000000
  0.250000  0.500000  0.166667      2.000000
  0.500000  0.500000  0.166667      2.000000
 -0.250000  0.500000  0.166667      2.000000
  0.000000 -0.250000  0.166667      2.000000
  0.250000 -0.250000  0.166667      2.000000
  0.500000 -0.250000  0.166667      2.000000
 -0.250000 -0.250000  0.166667      2.000000
  0.000000  0.000000  0.333333      2.000000
  0.250000  0.000000  0.333333      2.000000
  0.500000  0.000000  0.333333      2.000000
 -0.250000  0.000000  0.333333      2.000000
  0.000000  0.250000  0.333333      2.000000
  0.250000  0.250000  0.333333      2.000000
  0.500000  0.250000  0.333333      2.000000
 -0.250000  0.250000  0.333333      2.000000
  0.000000  0.500000  0.333333      2.000000
  0.250000  0.500000  0.333333      2.000000
  0.500000  0.500000  0.333333      2.000000
 -0.250000  0.500000  0.333333      2.000000
  0.000000 -0.250000  0.333333      2.000000
  0.250000 -0.250000  0.333333      2.000000
  0.500000 -0.250000  0.333333      2.000000
 -0.250000 -0.250000  0.333333      2.000000
  0.000000  0.000000  0.500000      1.000000
  0.250000  0.000000  0.500000      2.000000
  0.500000  0.000000  0.500000      1.000000
  0.000000  0.250000  0.500000      2.000000
  0.250000  0.250000  0.500000      2.000000
  0.500000  0.250000  0.500000      2.000000
 -0.250000  0.250000  0.500000      2.000000
  0.000000  0.500000  0.500000      1.000000
  0.250000  0.500000  0.500000      2.000000
  0.500000  0.500000  0.500000      1.000000
 
 Following cartesian coordinates:
            Coordinates               Weight
  0.000000  0.000000 -0.000000      1.000000
  0.083333 -0.041667 -0.041667      2.000000
  0.166667 -0.083333 -0.083333      1.000000
  0.041667  0.041667 -0.083333      2.000000
  0.125000  0.000000 -0.125000      2.000000
  0.208333 -0.041667 -0.166667      2.000000
 -0.041667  0.083333 -0.041667      2.000000
  0.083333  0.083333 -0.166667      1.000000
  0.166667  0.041667 -0.208333      2.000000
  0.250000  0.000000 -0.250000      1.000000
  0.055556  0.055556  0.055556      2.000000
  0.138889  0.013889  0.013889      2.000000
  0.222222 -0.027778 -0.027778      2.000000
 -0.027778  0.097222  0.097222      2.000000
  0.097222  0.097222 -0.027778      2.000000
  0.180556  0.055556 -0.069444      2.000000
  0.263889  0.013889 -0.111111      2.000000
  0.013889  0.138889  0.013889      2.000000
  0.138889  0.138889 -0.111111      2.000000
  0.222222  0.097222 -0.152778      2.000000
  0.305556  0.055556 -0.194444      2.000000
  0.055556  0.180556 -0.069444      2.000000
  0.013889  0.013889  0.138889      2.000000
  0.097222 -0.027778  0.097222      2.000000
  0.180556 -0.069444  0.055556      2.000000
 -0.069444  0.055556  0.180556      2.000000
  0.111111  0.111111  0.111111      2.000000
  0.194444  0.069444  0.069444      2.000000
  0.277778  0.027778  0.027778      2.000000
  0.027778  0.152778  0.152778      2.000000
  0.152778  0.152778  0.027778      2.000000
  0.236111  0.111111 -0.013889      2.000000
  0.319444  0.069444 -0.055556      2.000000
  0.069444  0.194444  0.069444      2.000000
  0.194444  0.194444 -0.055556      2.000000
  0.277778  0.152778 -0.097222      2.000000
  0.361111  0.111111 -0.138889      2.000000
  0.111111  0.236111 -0.013889      2.000000
  0.069444  0.069444  0.194444      2.000000
  0.152778  0.027778  0.152778      2.000000
  0.236111 -0.013889  0.111111      2.000000
 -0.013889  0.111111  0.236111      2.000000
  0.166667  0.166667  0.166667      1.000000
  0.250000  0.125000  0.125000      2.000000
  0.333333  0.083333  0.083333      1.000000
  0.208333  0.208333  0.083333      2.000000
  0.291667  0.166667  0.041667      2.000000
  0.375000  0.125000 -0.000000      2.000000
  0.125000  0.250000  0.125000      2.000000
  0.250000  0.250000 -0.000000      1.000000
  0.333333  0.208333 -0.041667      2.000000
  0.416667  0.166667 -0.083333      1.000000
 
 TETIRR: Found    288 inequivalent tetrahedra from      576


--------------------------------------------------------------------------------------------------------




 Dimension of arrays:
   k-points           NKPTS =     52   k-points in BZ     NKDIM =     52   number of bands    NBANDS=    315
   number of dos      NEDOS =    301   number of ions     NIONS =     48
   non local maximal  LDIM  =      6   non local SUM 2l+1 LMDIM =     18
   total plane-waves  NPLWV = 307200
   max r-space proj   IRMAX =   8735   max aug-charges    IRDMAX=  20667
   dimension x,y,z NGX =    80 NGY =   80 NGZ =   48
   dimension x,y,z NGXF=   160 NGYF=  160 NGZF=   96
   support grid    NGXF=   160 NGYF=  160 NGZF=   96
   ions per type =              36  12
   NGX,Y,Z   is equivalent  to a cutoff of  13.26, 13.26, 13.00 a.u.
   NGXF,Y,Z  is equivalent  to a cutoff of  26.53, 26.53, 25.99 a.u.

 SYSTEM =  SQS-NiFe                                
 POSCAR =  POSCAR                                  

 Startparameter for this run:
   NWRITE =      2    write-flag & timer
   PREC   = accura    normal or accurate (medium, high low for compatibility)
   ISTART =      0    job   : 0-new  1-cont  2-samecut
   ICHARG =     11    charge: 1-file 2-atom 10-const
   ISPIN  =      2    spin polarized calculation?
   LNONCOLLINEAR =      F non collinear calculations
   LSORBIT =      F    spin-orbit coupling
   INIWAV =      1    electr: 0-lowe 1-rand  2-diag
   LASPH  =      F    aspherical Exc in radial PAW
   METAGGA=      F    non-selfconsistent MetaGGA calc.

 Electronic Relaxation 1
   ENCUT  =  520.0 eV  38.22 Ry    6.18 a.u.  18.64 18.64 11.42*2*pi/ulx,y,z
   ENINI  =  520.0     initial cutoff
   ENAUG  =  544.6 eV  augmentation charge cutoff
   NELM   =    200;   NELMIN=  2; NELMDL= -5     # of ELM steps 
   EDIFF  = 0.1E-05   stopping-criterion for ELM
   LREAL  =      T    real-space projection
   NLSPLINE    = F    spline interpolate recip. space projectors
   LCOMPAT=      F    compatible to vasp.4.4
   GGA_COMPAT  = T    GGA compatible to vasp.4.4-vasp.4.6
   LMAXPAW     = -100 max onsite density
   LMAXMIX     =    2 max onsite mixed and CHGCAR
   VOSKOWN=      0    Vosko Wilk Nusair interpolation
   ROPT   =   -0.00025  -0.00025
 Ionic relaxation
   EDIFFG = -.2E-01   stopping-criterion for IOM
   NSW    =      0    number of steps for IOM
   NBLOCK =      1;   KBLOCK =      1    inner block; outer block 
   IBRION =     -1    ionic relax: 0-MD 1-quasi-New 2-CG
   NFREE  =      0    steps in history (QN), initial steepest desc. (CG)
   ISIF   =      2    stress and relaxation
   IWAVPR =     10    prediction:  0-non 1-charg 2-wave 3-comb
   ISYM   =      0    0-nonsym 1-usesym 2-fastsym
   LCORR  =      T    Harris-Foulkes like correction to forces

   POTIM  = 0.5000    time-step for ionic-motion
   TEIN   =    0.0    initial temperature
   TEBEG  =    0.0;   TEEND  =   0.0 temperature during run
   SMASS  =  -3.00    Nose mass-parameter (am)
   estimated Nose-frequenzy (Omega)   =  0.10E-29 period in steps =****** mass=  -0.230E-26a.u.
   SCALEE = 1.0000    scale energy and forces
   NPACO  =    256;   APACO  = 16.0  distance and # of slots for P.C.
   PSTRESS=    0.0 pullay stress

  Mass of Ions in am
   POMASS =  58.69 55.85
  Ionic Valenz
   ZVAL   =  10.00  8.00
  Atomic Wigner-Seitz radii
   RWIGS  =  -1.00 -1.00
  virtual crystal weights 
   VCA    =   1.00  1.00
   NELECT =     456.0000    total number of electrons
   NUPDOWN=      -1.0000    fix difference up-down

 DOS related values:
   EMIN   =  10.00;   EMAX   =-10.00  energy-range for DOS
   EFERMI =   0.00
   ISMEAR =    -5;   SIGMA  =   0.20  broadening in eV -4-tet -1-fermi 0-gaus

 Electronic relaxation 2 (details)
   IALGO  =     68    algorithm
   LDIAG  =      T    sub-space diagonalisation (order eigenvalues)
   LSUBROT=      F    optimize rotation matrix (better conditioning)
   TURBO    =      0    0=normal 1=particle mesh
   IRESTART =      0    0=no restart 2=restart with 2 vectors
   NREBOOT  =      0    no. of reboots
   NMIN     =      0    reboot dimension
   EREF     =   0.00    reference energy to select bands
   IMIX   =      4    mixing-type and parameters
     AMIX     =   0.40;   BMIX     =  1.00
     AMIX_MAG =   1.60;   BMIX_MAG =  1.00
     AMIN     =   0.10
     WC   =   100.;   INIMIX=   1;  MIXPRE=   1;  MAXMIX= -45

 Intra band minimization:
   WEIMIN = 0.0000     energy-eigenvalue tresh-hold
   EBREAK =  0.79E-09  absolut break condition
   DEPER  =   0.30     relativ break condition  

   TIME   =   0.40     timestep for ELM

  volume/ion in A,a.u.               =      11.14        75.16
  Fermi-wavevector in a.u.,A,eV,Ry     =   1.552577  2.933945 32.796776  2.410495
  Thomas-Fermi vector in A             =   2.656932
 
 Write flags
   LWAVE        =      F    write WAVECAR
   LDOWNSAMPLE  =      F    k-point downsampling of WAVECAR
   LCHARG       =      F    write CHGCAR
   LVTOT        =      F    write LOCPOT, total local potential
   LVHAR        =      F    write LOCPOT, Hartree potential only
   LELF         =      F    write electronic localiz. function (ELF)
   LORBIT       =     11    0 simple, 1 ext, 2 COOP (PROOUT), +10 PAW based schemes


 Dipole corrections
   LMONO  =      F    monopole corrections only (constant potential shift)
   LDIPOL =      F    correct potential (dipole corrections)
   IDIPOL =      0    1-x, 2-y, 3-z, 4-all directions 
   EPSILON=  1.0000000 bulk dielectric constant

 Exchange correlation treatment:
   GGA     =    --    GGA type
   LEXCH   =     8    internal setting for exchange type
   VOSKOWN=      0    Vosko Wilk Nusair interpolation
   LHFCALC =     F    Hartree Fock is set to
   LHFONE  =     F    Hartree Fock one center treatment
   AEXX    =    0.0000 exact exchange contribution

 Linear response parameters
   LEPSILON=     F    determine dielectric tensor
   LRPA    =     F    only Hartree local field effects (RPA)
   LNABLA  =     F    use nabla operator in PAW spheres
   LVEL    =     F    velocity operator in full k-point grid
   LINTERFAST=   F  fast interpolation
   KINTER  =     0    interpolate to denser k-point grid
   CSHIFT  =0.1000    complex shift for real part using Kramers Kronig
   OMEGAMAX=  -1.0    maximum frequency
   DEG_THRESHOLD= 0.2000000E-02 threshold for treating states as degnerate
   RTIME   =   -0.100 relaxation time in fs
  (WPLASMAI=    0.000 imaginary part of plasma frequency in eV, 0.658/RTIME)
   DFIELD  = 0.0000000 0.0000000 0.0000000 field for delta impulse in time
 
 Orbital magnetization related:
   ORBITALMAG=     F  switch on orbital magnetization
   LCHIMAG   =     F  perturbation theory with respect to B field
   DQ        =  0.001000  dq finite difference perturbation B field
   LLRAUG    =     F  two centre corrections for induced B field



--------------------------------------------------------------------------------------------------------


 Static calculation
 charge density and potential remain constant during run
 spin polarized calculation
 RMM-DIIS sequential band-by-band and
  variant of blocked Davidson during initial phase
 perform sub-space diagonalisation
    before iterative eigenvector-optimisation
 no mixing
 using additional bands           87
 real space projection scheme for non local part
 use partial core corrections
 calculate Harris-corrections to forces 
   (improved forces if not selfconsistent)
 use gradient corrections 
 WARNING: stress and forces are not correct
  (second derivative of E(xc) not defined)
 use of overlap-Matrix (Vanderbilt PP)
 Fermi weights with tetrahedron method with Bloechl corrections


--------------------------------------------------------------------------------------------------------


  energy-cutoff  :      520.00
  volume of cell :      534.60
      direct lattice vectors                 reciprocal lattice vectors
     7.090000000 -7.090000000  0.000000000     0.094029149 -0.047014575 -0.047014575
     0.000000000  7.090000000 -7.090000000     0.047014575  0.047014575 -0.094029149
     3.545000000  3.545000000  3.545000000     0.094029149  0.094029149  0.094029149

  length of vectors
    10.026774157 10.026774157  6.140120113     0.115161718  0.115161718  0.162863264


 
 k-points in units of 2pi/SCALE and weight: read from INCAR                         
   0.00000000  0.00000000 -0.00000000       0.010
   0.08333333 -0.04166667 -0.04166667       0.021
   0.16666667 -0.08333333 -0.08333333       0.010
   0.04166667  0.04166667 -0.08333333       0.021
   0.12500000  0.00000000 -0.12500000       0.021
   0.20833333 -0.04166667 -0.16666667       0.021
  -0.04166667  0.08333333 -0.04166667       0.021
   0.08333333  0.08333333 -0.16666667       0.010
   0.16666667  0.04166667 -0.20833333       0.021
   0.25000000  0.00000000 -0.25000000       0.010
   0.05555556  0.05555556  0.05555556       0.021
   0.13888889  0.01388889  0.01388889       0.021
   0.22222222 -0.02777778 -0.02777778       0.021
  -0.02777778  0.09722222  0.09722222       0.021
   0.09722222  0.09722222 -0.02777778       0.021
   0.18055556  0.05555556 -0.06944444       0.021
   0.26388889  0.01388889 -0.11111111       0.021
   0.01388889  0.13888889  0.01388889       0.021
   0.13888889  0.13888889 -0.11111111       0.021
   0.22222222  0.09722222 -0.15277778       0.021
   0.30555556  0.05555556 -0.19444444       0.021
   0.05555556  0.18055556 -0.06944444       0.021
   0.01388889  0.01388889  0.13888889       0.021
   0.09722222 -0.02777778  0.09722222       0.021
   0.18055556 -0.06944444  0.05555556       0.021
  -0.06944444  0.05555556  0.18055556       0.021
   0.11111111  0.11111111  0.11111111       0.021
   0.19444444  0.06944444  0.06944444       0.021
   0.27777778  0.02777778  0.02777778       0.021
   0.02777778  0.15277778  0.15277778       0.021
   0.15277778  0.15277778  0.02777778       0.021
   0.23611111  0.11111111 -0.01388889       0.021
   0.31944444  0.06944444 -0.05555556       0.021
   0.06944444  0.19444444  0.06944444       0.021
   0.19444444  0.19444444 -0.05555556       0.021
   0.27777778  0.15277778 -0.09722222       0.021
   0.36111111  0.11111111 -0.13888889       0.021
   0.11111111  0.23611111 -0.01388889       0.021
   0.06944444  0.06944444  0.19444444       0.021
   0.15277778  0.02777778  0.15277778       0.021
   0.23611111 -0.01388889  0.11111111       0.021
  -0.01388889  0.11111111  0.23611111       0.021
   0.16666667  0.16666667  0.16666667       0.010
   0.25000000  0.12500000  0.12500000       0.021
   0.33333333  0.08333333  0.08333333       0.010
   0.20833333  0.20833333  0.08333333       0.021
   0.29166667  0.16666667  0.04166667       0.021
   0.37500000  0.12500000 -0.00000000       0.021
   0.12500000  0.25000000  0.12500000       0.021
   0.25000000  0.25000000 -0.00000000       0.010
   0.33333333  0.20833333 -0.04166667       0.021
   0.41666667  0.16666667 -0.08333333       0.010
 
 k-points in reciprocal lattice and weights: read from INCAR                         
   0.00000000  0.00000000  0.00000000       0.010
   0.25000000  0.00000000  0.00000000       0.021
   0.50000000  0.00000000  0.00000000       0.010
   0.00000000  0.25000000  0.00000000       0.021
   0.25000000  0.25000000  0.00000000       0.021
   0.50000000  0.25000000  0.00000000       0.021
  -0.25000000  0.25000000  0.00000000       0.021
   0.00000000  0.50000000  0.00000000       0.010
   0.25000000  0.50000000  0.00000000       0.021
   0.50000000  0.50000000  0.00000000       0.010
   0.00000000  0.00000000  0.16666667       0.021
   0.25000000  0.00000000  0.16666667       0.021
   0.50000000  0.00000000  0.16666667       0.021
  -0.25000000  0.00000000  0.16666667       0.021
   0.00000000  0.25000000  0.16666667       0.021
   0.25000000  0.25000000  0.16666667       0.021
   0.50000000  0.25000000  0.16666667       0.021
  -0.25000000  0.25000000  0.16666667       0.021
   0.00000000  0.50000000  0.16666667       0.021
   0.25000000  0.50000000  0.16666667       0.021
   0.50000000  0.50000000  0.16666667       0.021
  -0.25000000  0.50000000  0.16666667       0.021
   0.00000000 -0.25000000  0.16666667       0.021
   0.25000000 -0.25000000  0.16666667       0.021
   0.50000000 -0.25000000  0.16666667       0.021
  -0.25000000 -0.25000000  0.16666667       0.021
   0.00000000  0.00000000  0.33333333       0.021
   0.25000000  0.00000000  0.33333333       0.021
   0.50000000  0.00000000  0.33333333       0.021
  -0.25000000  0.00000000  0.33333333       0.021
   0.00000000  0.25000000  0.33333333       0.021
   0.25000000  0.25000000  0.33333333       0.021
   0.50000000  0.25000000  0.33333333       0.021
  -0.25000000  0.25000000  0.33333333       0.021
   0.00000000  0.50000000  0.33333333       0.021
   0.25000000  0.50000000  0.33333333       0.021
   0.50000000  0.50000000  0.33333333       0.021
  -0.25000000  0.50000000  0.33333333       0.021
   0.00000000 -0.25000000  0.33333333       0.021
   0.25000000 -0.25000000  0.33333333       0.021
   0.50000000 -0.25000000  0.33333333       0.021
  -0.25000000 -0.25000000  0.33333333       0.021
   0.00000000  0.00000000  0.50000000       0.010
   0.25000000  0.00000000  0.50000000       0.021
   0.50000000  0.00000000  0.50000000       0.010
   0.00000000  0.25000000  0.50000000       0.021
   0.25000000  0.25000000  0.50000000       0.021
   0.50000000  0.25000000  0.50000000       0.021
  -0.25000000  0.25000000  0.50000000       0.021
   0.00000000  0.50000000  0.50000000       0.010
   0.25000000  0.50000000  0.50000000       0.021
   0.50000000  0.50000000  0.50000000       0.010
 
 position of ions in fractional coordinates (direct lattice) 
   0.00052915  0.00053012  0.00172073
   0.25001339  0.00028713  0.99876021
   0.49948714  0.99907987  0.00126392
   0.74930184  0.99919313  0.00154605
   0.99864044  0.24850661  0.00118895
   0.25012555  0.25021635  0.99995220
   0.08288236  0.16633207  0.33449007
   0.50064226  0.24891256  0.00149595
   0.33293879  0.16685755  0.33471695
   0.75052539  0.25006154  0.00434867
   0.58230650  0.16720136  0.33803282
   0.83403173  0.16672361  0.33716192
   0.66558135  0.08305528  0.66890668
   0.91639691  0.08203148  0.66706692
   0.00183375  0.50047506  0.99639072
   0.08092228  0.41609737  0.33542622
   0.16611831  0.33395208  0.66715701
   0.75170250  0.50186896  0.99714027
   0.58357301  0.41617229  0.33537684
   0.00109063  0.75115249  0.99740701
   0.24902597  0.74885696  0.99674663
   0.08375785  0.66810354  0.33145583
   0.49972492  0.74917262  0.99726192
   0.33297404  0.66727679  0.33004326
   0.75128304  0.75093635  0.99999624
   0.58298092  0.66668194  0.33046276
   0.41661008  0.58200171  0.66281339
   0.83395904  0.66770620  0.33208286
   0.91708260  0.58323878  0.66273597
   0.08291687  0.91685802  0.33279753
   0.33420554  0.91705372  0.33347287
   0.16670855  0.83524215  0.66470704
   0.41703531  0.83214858  0.66709882
   0.83233101  0.91715006  0.33676761
   0.66623909  0.83336959  0.66807273
   0.91705920  0.83319481  0.66745548
   0.16168539  0.08211531  0.66450213
   0.41607483  0.07807067  0.66611242
   0.24829879  0.49904588  0.99896575
   0.50648054  0.50259484  0.00153479
   0.33134146  0.41714328  0.33483437
   0.41638363  0.33144341  0.66869827
   0.83354808  0.41838968  0.33038754
   0.66732406  0.33240595  0.67502351
   0.91446436  0.32695492  0.67367832
   0.16914153  0.58833391  0.65819269
   0.66961592  0.58928852  0.65951236
   0.58310412  0.91651489  0.33503679
 
 position of ions in cartesian coordinates  (Angst):
   0.00985166  0.00610685  0.00234145
   5.31319987  1.77004576  3.53856922
   3.54584443  3.54659306 -7.07899570
   5.31803082  1.77720998 -7.07879857
   7.08457556 -5.31423401 -1.75769704
   5.31822066  3.54547436  1.77079660
   1.77340324  1.77742571  0.00647293
   3.55485675 -1.77946041 -1.75948690
   3.54710762  0.00905557  0.00355156
   5.33664107 -3.53287263 -1.75752030
   5.32687945 -1.74476908  0.01286872
   7.10852394 -3.53597553  0.01316858
   7.09024592 -1.75883566  1.78241227
   8.86200635 -3.55089871  1.78314904
   3.54520637  7.06757201 -0.01616308
   1.76282492  3.56547734 -1.76104442
   3.54285040  3.55501300 -0.00264865
   8.86443295  1.76354251 -0.02338871
   5.32644353  0.00203980 -1.76175064
   3.54354043  8.85374648 -1.78986332
   5.29906094  7.07726850 -1.77592908
   1.76885408  5.31802186 -3.56184315
   7.07834316  5.30387769 -1.77634034
   3.53078932  3.54020986 -3.56098912
   8.87158341  3.54252870 -1.77915205
   5.30482518  1.76493074 -3.55528447
   5.30343895  3.52230008 -1.77671862
   7.09000330 -0.00149883 -3.55680324
   8.85151465 -0.01755368 -1.78576397
   1.76764786  7.09240999 -5.32075607
   3.55167858  5.31455495 -5.31974953
   3.53835008  7.09628966 -3.56548036
   5.32164566  5.30801843 -3.53506810
   7.09506806  1.79520820 -5.30875276
   7.09195297  3.55327310 -3.54027257
   8.86807945  1.77153118 -3.54122154
   3.50200948  1.79150818  1.77346250
   5.31133905 -0.03508096  1.80784748
   5.30177201  5.31913044  0.00309833
   3.59638785 -0.02210880 -3.55795656
   3.53619878  1.79532277 -1.77055798
   5.32269530  1.76830916  0.02060159
   7.08107969 -1.77224920 -1.79515900
   7.12428597  0.01838892  0.03620017
   8.87174196 -1.77725232  0.07007927
   3.53250653  5.30536706 -1.83799438
   7.08554817  1.76845008 -1.84008433
   5.32191360  3.55158780 -5.31038518
 


--------------------------------------------------------------------------------------------------------


 k-point  1 :   0.0000 0.0000 0.0000  plane waves:   14321
 k-point  2 :   0.2500 0.0000 0.0000  plane waves:   14394
 k-point  3 :   0.5000 0.0000 0.0000  plane waves:   14382
 k-point  4 :   0.0000 0.2500 0.0000  plane waves:   14394
 k-point  5 :   0.2500 0.2500 0.0000  plane waves:   14413
 k-point  6 :   0.5000 0.2500 0.0000  plane waves:   14413
 k-point  7 :  -0.2500 0.2500 0.0000  plane waves:   14394
 k-point  8 :   0.0000 0.5000 0.0000  plane waves:   14382
 k-point  9 :   0.2500 0.5000 0.0000  plane waves:   14413
 k-point 10 :   0.5000 0.5000 0.0000  plane waves:   14382
 k-point 11 :   0.0000 0.0000 0.1667  plane waves:   14411
 k-point 12 :   0.2500 0.0000 0.1667  plane waves:   14401
 k-point 13 :   0.5000 0.0000 0.1667  plane waves:   14392
 k-point 14 :  -0.2500 0.0000 0.1667  plane waves:   14401
 k-point 15 :   0.0000 0.2500 0.1667  plane waves:   14401
 k-point 16 :   0.2500 0.2500 0.1667  plane waves:   14427
 k-point 17 :   0.5000 0.2500 0.1667  plane waves:   14427
 k-point 18 :  -0.2500 0.2500 0.1667  plane waves:   14401
 k-point 19 :   0.0000 0.5000 0.1667  plane waves:   14392
 k-point 20 :   0.2500 0.5000 0.1667  plane waves:   14427
 k-point 21 :   0.5000 0.5000 0.1667  plane waves:   14392
 k-point 22 :  -0.2500 0.5000 0.1667  plane waves:   14427
 k-point 23 :   0.0000-0.2500 0.1667  plane waves:   14401
 k-point 24 :   0.2500-0.2500 0.1667  plane waves:   14401
 k-point 25 :   0.5000-0.2500 0.1667  plane waves:   14427
 k-point 26 :  -0.2500-0.2500 0.1667  plane waves:   14427
 k-point 27 :   0.0000 0.0000 0.3333  plane waves:   14405
 k-point 28 :   0.2500 0.0000 0.3333  plane waves:   14394
 k-point 29 :   0.5000 0.0000 0.3333  plane waves:   14398
 k-point 30 :  -0.2500 0.0000 0.3333  plane waves:   14394
 k-point 31 :   0.0000 0.2500 0.3333  plane waves:   14394
 k-point 32 :   0.2500 0.2500 0.3333  plane waves:   14369
 k-point 33 :   0.5000 0.2500 0.3333  plane waves:   14369
 k-point 34 :  -0.2500 0.2500 0.3333  plane waves:   14394
 k-point 35 :   0.0000 0.5000 0.3333  plane waves:   14398
 k-point 36 :   0.2500 0.5000 0.3333  plane waves:   14369
 k-point 37 :   0.5000 0.5000 0.3333  plane waves:   14398
 k-point 38 :  -0.2500 0.5000 0.3333  plane waves:   14369
 k-point 39 :   0.0000-0.2500 0.3333  plane waves:   14394
 k-point 40 :   0.2500-0.2500 0.3333  plane waves:   14394
 k-point 41 :   0.5000-0.2500 0.3333  plane waves:   14369
 k-point 42 :  -0.2500-0.2500 0.3333  plane waves:   14369
 k-point 43 :   0.0000 0.0000 0.5000  plane waves:   14494
 k-point 44 :   0.2500 0.0000 0.5000  plane waves:   14402
 k-point 45 :   0.5000 0.0000 0.5000  plane waves:   14352
 k-point 46 :   0.0000 0.2500 0.5000  plane waves:   14402
 k-point 47 :   0.2500 0.2500 0.5000  plane waves:   14348
 k-point 48 :   0.5000 0.2500 0.5000  plane waves:   14348
 k-point 49 :  -0.2500 0.2500 0.5000  plane waves:   14402
 k-point 50 :   0.0000 0.5000 0.5000  plane waves:   14352
 k-point 51 :   0.2500 0.5000 0.5000  plane waves:   14348
 k-point 52 :   0.5000 0.5000 0.5000  plane waves:   14352

 maximum and minimum number of plane-waves per node :       928      869

 maximum number of plane-waves:     14494
 maximum index in each direction: 
   IXMAX=   18   IYMAX=   18   IZMAX=   11
   IXMIN=  -19   IYMIN=  -19   IZMIN=  -11


 real space projection operators:
  total allocation   :      49953.52 KBytes
  max/ min on nodes  :       3132.70       3109.50


 parallel 3D FFT for wavefunctions:
    minimum data exchange during FFTs selected (reduces bandwidth)
 parallel 3D FFT for charge:
    minimum data exchange during FFTs selected (reduces bandwidth)


 total amount of memory used by VASP MPI-rank0   217929. kBytes
=======================================================================

   base      :      30000. kBytes
   nonlr-proj:      10962. kBytes
   fftplans  :       2598. kBytes
   grid      :       6545. kBytes
   one-center:         93. kBytes
   wavefun   :     167731. kBytes
 
     INWAV:  cpu time    0.0010: real time    0.0025
 initial charge density was supplied:
 number of electron     456.0000056 magnetization      54.8873619
 keeping initial charge density in first step


--------------------------------------------------------------------------------------------------------


 Maximum index for non-local projection operator          613
 Maximum index for augmentation-charges         1154 (set IRDMAX)


--------------------------------------------------------------------------------------------------------


 First call to EWALD:  gamma=   0.218
 Maximum number of real-space cells 3x 3x 3
 Maximum number of reciprocal cells 3x 3x 2

    FEWALD:  cpu time    0.0030: real time    0.0023


--------------------------------------- Iteration      1(   1)  ---------------------------------------


    POTLOK:  cpu time    0.0900: real time    0.0949
    SETDIJ:  cpu time    0.0160: real time    0.0156
     EDDAV:  cpu time   90.1123: real time   91.2748
 BZINTS: Fermi energy: 24.583300;456.000000 electrons
         Band energy:7052.024554;  BLOECHL correction: -0.035468
       DOS:  cpu time    0.4299: real time    0.4335
    --------------------------------------------
      LOOP:  cpu time   90.6482: real time   91.8188

 eigenvalue-minimisations  : 65520
 total energy-change (2. order) : 0.4001138E+04  (-0.1859639E+05)
 number of electron     456.0000056 magnetization      54.8873619
 augmentation part      456.0000056 magnetization      54.8873619

 Free energy of the ion-electron system (eV)
  ---------------------------------------------------
  alpha Z        PSCENC =      2450.32051568
  Ewald energy   TEWEN  =    -40373.24020216
  -Hartree energ DENC   =     -9638.74582084
  -exchange      EXHF   =         0.00000000
  -V(xc)+E(xc)   XCENC  =      1162.06358592
  PAW double counting   =     49653.69673182   -52232.88646890
  entropy T*S    EENTRO =         0.00000000
  eigenvalues    EBANDS =      7052.02455430
  atomic energy  EATOM  =     45927.90526693
  Solvation  Ediel_sol  =         0.00000000
  ---------------------------------------------------
  free energy    TOTEN  =      4001.13816275 eV

  energy without entropy =     4001.13816275  energy(sigma->0) =     4001.13816275


--------------------------------------------------------------------------------------------------------




--------------------------------------- Iteration      1(   2)  ---------------------------------------


     EDDAV:  cpu time   90.8402: real time   92.0270
 BZINTS: Fermi energy: 10.776142;456.000000 electrons
         Band energy:3303.433734;  BLOECHL correction: -0.014894
       DOS:  cpu time    0.4569: real time    0.4600
    --------------------------------------------
      LOOP:  cpu time   91.2971: real time   92.4870

 eigenvalue-minimisations  : 65520
 total energy-change (2. order) :-0.3748591E+04  (-0.3541198E+04)
 number of electron     456.0000056 magnetization      54.8873619
 augmentation part      456.0000056 magnetization      54.8873619

 Free energy of the ion-electron system (eV)
  ---------------------------------------------------
  alpha Z        PSCENC =      2450.32051568
  Ewald energy   TEWEN  =    -40373.24020216
  -Hartree energ DENC   =     -9638.74582084
  -exchange      EXHF   =         0.00000000
  -V(xc)+E(xc)   XCENC  =      1162.06358592
  PAW double counting   =     49653.69673182   -52232.88646890
  entropy T*S    EENTRO =         0.00000000
  eigenvalues    EBANDS =      3303.43373409
  atomic energy  EATOM  =     45927.90526693
  Solvation  Ediel_sol  =         0.00000000
  ---------------------------------------------------
  free energy    TOTEN  =       252.54734254 eV

  energy without entropy =      252.54734254  energy(sigma->0) =      252.54734254


--------------------------------------------------------------------------------------------------------




--------------------------------------- Iteration      1(   3)  ---------------------------------------


     EDDAV:  cpu time   90.4123: real time   91.6073
 BZINTS: Fermi energy:  8.490890;456.000000 electrons
         Band energy:2786.386509;  BLOECHL correction: -0.118739
       DOS:  cpu time    0.4269: real time    0.4286
    --------------------------------------------
      LOOP:  cpu time   90.8392: real time   92.0359

 eigenvalue-minimisations  : 65520
 total energy-change (2. order) :-0.5170472E+03  (-0.4191704E+03)
 number of electron     456.0000056 magnetization      54.8873619
 augmentation part      456.0000056 magnetization      54.8873619

 Free energy of the ion-electron system (eV)
  ---------------------------------------------------
  alpha Z        PSCENC =      2450.32051568
  Ewald energy   TEWEN  =    -40373.24020216
  -Hartree energ DENC   =     -9638.74582084
  -exchange      EXHF   =         0.00000000
  -V(xc)+E(xc)   XCENC  =      1162.06358592
  PAW double counting   =     49653.69673182   -52232.88646890
  entropy T*S    EENTRO =         0.00000000
  eigenvalues    EBANDS =      2786.38650948
  atomic energy  EATOM  =     45927.90526693
  Solvation  Ediel_sol  =         0.00000000
  ---------------------------------------------------
  free energy    TOTEN  =      -264.49988206 eV

  energy without entropy =     -264.49988206  energy(sigma->0) =     -264.49988206


--------------------------------------------------------------------------------------------------------




--------------------------------------- Iteration      1(   4)  ---------------------------------------


     EDDAV:  cpu time   95.6085: real time   97.2000
 BZINTS: Fermi energy:  8.418800;456.000000 electrons
         Band energy:2753.835304;  BLOECHL correction: -0.129083
       DOS:  cpu time    0.4349: real time    0.4386
    --------------------------------------------
      LOOP:  cpu time   96.0434: real time   97.6386

 eigenvalue-minimisations  : 69318
 total energy-change (2. order) :-0.3255121E+02  (-0.3145755E+02)
 number of electron     456.0000056 magnetization      54.8873619
 augmentation part      456.0000056 magnetization      54.8873619

 Free energy of the ion-electron system (eV)
  ---------------------------------------------------
  alpha Z        PSCENC =      2450.32051568
  Ewald energy   TEWEN  =    -40373.24020216
  -Hartree energ DENC   =     -9638.74582084
  -exchange      EXHF   =         0.00000000
  -V(xc)+E(xc)   XCENC  =      1162.06358592
  PAW double counting   =     49653.69673182   -52232.88646890
  entropy T*S    EENTRO =         0.00000000
  eigenvalues    EBANDS =      2753.83530377
  atomic energy  EATOM  =     45927.90526693
  Solvation  Ediel_sol  =         0.00000000
  ---------------------------------------------------
  free energy    TOTEN  =      -297.05108777 eV

  energy without entropy =     -297.05108777  energy(sigma->0) =     -297.05108777


--------------------------------------------------------------------------------------------------------




--------------------------------------- Iteration      1(   5)  ---------------------------------------


     EDDAV:  cpu time  114.3896: real time  116.3560
 BZINTS: Fermi energy:  8.417757;456.000000 electrons
         Band energy:2753.327597;  BLOECHL correction: -0.129036
       DOS:  cpu time    0.4269: real time    0.4297
    --------------------------------------------
      LOOP:  cpu time  114.8165: real time  116.7857

 eigenvalue-minimisations  : 87993
 total energy-change (2. order) :-0.5077063E+00  (-0.5071280E+00)
 number of electron     456.0000056 magnetization      54.8873619
 augmentation part      456.0000056 magnetization      54.8873619

 Free energy of the ion-electron system (eV)
  ---------------------------------------------------
  alpha Z        PSCENC =      2450.32051568
  Ewald energy   TEWEN  =    -40373.24020216
  -Hartree energ DENC   =     -9638.74582084
  -exchange      EXHF   =         0.00000000
  -V(xc)+E(xc)   XCENC  =      1162.06358592
  PAW double counting   =     49653.69673182   -52232.88646890
  entropy T*S    EENTRO =         0.00000000
  eigenvalues    EBANDS =      2753.32759748
  atomic energy  EATOM  =     45927.90526693
  Solvation  Ediel_sol  =         0.00000000
  ---------------------------------------------------
  free energy    TOTEN  =      -297.55879407 eV

  energy without entropy =     -297.55879407  energy(sigma->0) =     -297.55879407


--------------------------------------------------------------------------------------------------------




--------------------------------------- Iteration      1(   6)  ---------------------------------------


    EDDIAG:  cpu time   14.5338: real time   14.6705
  RMM-DIIS:  cpu time   53.2859: real time   54.3672
    ORTHCH:  cpu time    2.4376: real time    2.4690
 BZINTS: Fermi energy:  8.417735;456.000000 electrons
         Band energy:2753.312945;  BLOECHL correction: -0.129037
       DOS:  cpu time    0.4359: real time    0.4387
    --------------------------------------------
      LOOP:  cpu time   70.6933: real time   71.9454

 eigenvalue-minimisations  : 68909
 total energy-change (2. order) :-0.1465209E-01  (-0.1465057E-01)
 number of electron     456.0000056 magnetization      54.8873619
 augmentation part      456.0000056 magnetization      54.8873619

 Free energy of the ion-electron system (eV)
  ---------------------------------------------------
  alpha Z        PSCENC =      2450.32051568
  Ewald energy   TEWEN  =    -40373.24020216
  -Hartree energ DENC   =     -9638.74582084
  -exchange      EXHF   =         0.00000000
  -V(xc)+E(xc)   XCENC  =      1162.06358592
  PAW double counting   =     49653.69673182   -52232.88646890
  entropy T*S    EENTRO =         0.00000000
  eigenvalues    EBANDS =      2753.31294539
  atomic energy  EATOM  =     45927.90526693
  Solvation  Ediel_sol  =         0.00000000
  ---------------------------------------------------
  free energy    TOTEN  =      -297.57344616 eV

  energy without entropy =     -297.57344616  energy(sigma->0) =     -297.57344616


--------------------------------------------------------------------------------------------------------




--------------------------------------- Iteration      1(   7)  ---------------------------------------


    EDDIAG:  cpu time   14.5078: real time   14.6690
  RMM-DIIS:  cpu time   74.7336: real time   76.2014
    ORTHCH:  cpu time    2.4096: real time    2.4298
 BZINTS: Fermi energy:  8.417730;456.000000 electrons
         Band energy:2753.308652;  BLOECHL correction: -0.129037
       DOS:  cpu time    0.4459: real time    0.4473
    --------------------------------------------
      LOOP:  cpu time   92.0970: real time   93.7474

 eigenvalue-minimisations  : 98047
 total energy-change (2. order) :-0.4293459E-02  (-0.4273018E-02)
 number of electron     456.0000056 magnetization      54.8873619
 augmentation part      456.0000056 magnetization      54.8873619

 Free energy of the ion-electron system (eV)
  ---------------------------------------------------
  alpha Z        PSCENC =      2450.32051568
  Ewald energy   TEWEN  =    -40373.24020216
  -Hartree energ DENC   =     -9638.74582084
  -exchange      EXHF   =         0.00000000
  -V(xc)+E(xc)   XCENC  =      1162.06358592
  PAW double counting   =     49653.69673182   -52232.88646890
  entropy T*S    EENTRO =         0.00000000
  eigenvalues    EBANDS =      2753.30865193
  atomic energy  EATOM  =     45927.90526693
  Solvation  Ediel_sol  =         0.00000000
  ---------------------------------------------------
  free energy    TOTEN  =      -297.57773961 eV

  energy without entropy =     -297.57773961  energy(sigma->0) =     -297.57773961


--------------------------------------------------------------------------------------------------------




--------------------------------------- Iteration      1(   8)  ---------------------------------------


    EDDIAG:  cpu time   14.3678: real time   14.3760
  RMM-DIIS:  cpu time   71.3322: real time   71.4791
    ORTHCH:  cpu time    2.4486: real time    2.4502
 BZINTS: Fermi energy:  8.417730;456.000000 electrons
         Band energy:2753.308616;  BLOECHL correction: -0.129037
       DOS:  cpu time    0.4349: real time    0.4350
    --------------------------------------------
      LOOP:  cpu time   88.5835: real time   88.7403

 eigenvalue-minimisations  : 93850
 total energy-change (2. order) :-0.3614558E-04  (-0.5682706E-04)
 number of electron     456.0000056 magnetization      54.8873619
 augmentation part      456.0000056 magnetization      54.8873619

 Free energy of the ion-electron system (eV)
  ---------------------------------------------------
  alpha Z        PSCENC =      2450.32051568
  Ewald energy   TEWEN  =    -40373.24020216
  -Hartree energ DENC   =     -9638.74582084
  -exchange      EXHF   =         0.00000000
  -V(xc)+E(xc)   XCENC  =      1162.06358592
  PAW double counting   =     49653.69673182   -52232.88646890
  entropy T*S    EENTRO =         0.00000000
  eigenvalues    EBANDS =      2753.30861579
  atomic energy  EATOM  =     45927.90526693
  Solvation  Ediel_sol  =         0.00000000
  ---------------------------------------------------
  free energy    TOTEN  =      -297.57777576 eV

  energy without entropy =     -297.57777576  energy(sigma->0) =     -297.57777576


--------------------------------------------------------------------------------------------------------




--------------------------------------- Iteration      1(   9)  ---------------------------------------


    EDDIAG:  cpu time   14.4118: real time   14.4207
  RMM-DIIS:  cpu time   57.0473: real time   57.3165
    ORTHCH:  cpu time    2.4316: real time    2.4337
 BZINTS: Fermi energy:  8.417730;456.000000 electrons
         Band energy:2753.308610;  BLOECHL correction: -0.129037
       DOS:  cpu time    0.4339: real time    0.4336
    --------------------------------------------
      LOOP:  cpu time   74.3247: real time   74.6046

 eigenvalue-minimisations  : 73506
 total energy-change (2. order) :-0.6191010E-05  (-0.6447734E-05)
 number of electron     456.0000056 magnetization      54.8873619
 augmentation part      456.0000056 magnetization      54.8873619

 Free energy of the ion-electron system (eV)
  ---------------------------------------------------
  alpha Z        PSCENC =      2450.32051568
  Ewald energy   TEWEN  =    -40373.24020216
  -Hartree energ DENC   =     -9638.74582084
  -exchange      EXHF   =         0.00000000
  -V(xc)+E(xc)   XCENC  =      1162.06358592
  PAW double counting   =     49653.69673182   -52232.88646890
  entropy T*S    EENTRO =         0.00000000
  eigenvalues    EBANDS =      2753.30860960
  atomic energy  EATOM  =     45927.90526693
  Solvation  Ediel_sol  =         0.00000000
  ---------------------------------------------------
  free energy    TOTEN  =      -297.57778195 eV

  energy without entropy =     -297.57778195  energy(sigma->0) =     -297.57778195


--------------------------------------------------------------------------------------------------------




--------------------------------------- Iteration      1(  10)  ---------------------------------------


    EDDIAG:  cpu time   14.4538: real time   14.5089
  RMM-DIIS:  cpu time   42.2226: real time   42.3944
    ORTHCH:  cpu time    2.4596: real time    2.4663
 BZINTS: Fermi energy:  8.417730;456.000000 electrons
         Band energy:2753.308609;  BLOECHL correction: -0.129037
       DOS:  cpu time    0.4459: real time    0.4458
    --------------------------------------------
      LOOP:  cpu time   59.5819: real time   59.8154

 eigenvalue-minimisations  : 52890
 total energy-change (2. order) :-0.3828172E-06  (-0.4075382E-06)
 number of electron     456.0000056 magnetization      54.8873619
 augmentation part      456.0000056 magnetization      54.8873619

 Free energy of the ion-electron system (eV)
  ---------------------------------------------------
  alpha Z        PSCENC =      2450.32051568
  Ewald energy   TEWEN  =    -40373.24020216
  -Hartree energ DENC   =     -9638.74582084
  -exchange      EXHF   =         0.00000000
  -V(xc)+E(xc)   XCENC  =      1162.06358592
  PAW double counting   =     49653.69673182   -52232.88646890
  entropy T*S    EENTRO =         0.00000000
  eigenvalues    EBANDS =      2753.30860921
  atomic energy  EATOM  =     45927.90526693
  Solvation  Ediel_sol  =         0.00000000
  ---------------------------------------------------
  free energy    TOTEN  =      -297.57778233 eV

  energy without entropy =     -297.57778233  energy(sigma->0) =     -297.57778233


--------------------------------------------------------------------------------------------------------




 average (electrostatic) potential at core
  the test charge radii are     0.9791  1.0103
  (the norm of the test charge is              1.0000)
       1 -82.9248       2 -82.9054       3 -82.9166       4 -82.8889       5 -82.9446
       6 -82.9840       7 -82.9238       8 -82.9658       9 -82.9680      10 -82.9333
      11 -82.9482      12 -82.9432      13 -82.9247      14 -82.9393      15 -82.9844
      16 -82.9990      17 -83.0336      18 -82.9561      19 -82.9807      20 -82.8995
      21 -82.9479      22 -82.9707      23 -82.9022      24 -82.9116      25 -82.9627
      26 -82.9389      27 -82.9968      28 -82.9506      29 -83.0084      30 -82.8994
      31 -82.8604      32 -82.9826      33 -82.9323      34 -82.8543      35 -82.9554
      36 -82.9476      37 -41.2246      38 -41.1386      39 -41.1179      40 -41.0428
      41 -41.1024      42 -40.9298      43 -41.2095      44 -40.9873      45 -41.1429
      46 -41.2448      47 -41.1726      48 -41.2746
 
 
 
 E-fermi :   8.4177     XC(G=0): -13.1411     alpha+bet :-15.5409


 spin component 1

 k-point     1 :       0.0000    0.0000    0.0000
  band No.  band energies     occupation 
      1      -0.4941      1.00000
      2       1.4746      1.00000
      3       1.4813      1.00000
      4       1.4882      1.00000
      5       1.5031      1.00000
      6       1.5122      1.00000
      7       1.5387      1.00000
      8       2.7916      1.00000
      9       2.8560      1.00000
     10       3.4238      1.00000
     11       3.4717      1.00000
     12       3.5577      1.00000
     13       3.7104      1.00000
     14       3.7396      1.00000
     15       3.7497      1.00000
     16       3.7776      1.00000
     17       3.7861      1.00000
     18       3.8067      1.00000
     19       3.8152      1.00000
     20       3.8585      1.00000
     21       3.9141      1.00000
     22       3.9486      1.00000
     23       3.9597      1.00000
     24       4.0084      1.00000
     25       4.0408      1.00000
     26       4.0658      1.00000
     27       4.0672      1.00000
     28       4.0883      1.00000
     29       4.0973      1.00000
     30       4.1254      1.00000
     31       4.1349      1.00000
     32       4.1453      1.00000
     33       4.1502      1.00000
     34       4.1600      1.00000
     35       4.1694      1.00000
     36       4.1831      1.00000
     37       4.1898      1.00000
     38       4.2034      1.00000
     39       4.2151      1.00000
     40       4.2251      1.00000
     41       4.2511      1.00000
     42       4.2659      1.00000
     43       4.3193      1.00000
     44       4.3371      1.00000
     45       4.3441      1.00000
     46       4.3760      1.00000
     47       4.3944      1.00000
     48       4.4214      1.00000
     49       4.4535      1.00000
     50       4.4678      1.00000
     51       4.4854      1.00000
     52       4.5604      1.00000
     53       4.5897      1.00000
     54       4.5971      1.00000
     55       4.6352      1.00000
     56       4.6507      1.00000
     57       4.6573      1.00000
     58       4.6892      1.00000
     59       4.7081      1.00000
     60       4.7130      1.00000
     61       4.7295      1.00000
     62       4.7473      1.00000
     63       4.7693      1.00000
     64       4.7754      1.00000
     65       4.8009      1.00000
     66       4.8153      1.00000
     67       4.8362      1.00000
     68       4.8505      1.00000
     69       4.8692      1.00000
     70       5.1266      1.00000
     71       5.1731      1.00000
     72       5.1886      1.00000
     73       5.1993      1.00000
     74       5.2164      1.00000
     75       5.2330      1.00000
     76       5.2426      1.00000
     77       5.2594      1.00000
     78       5.2774      1.00000
     79       5.2919      1.00000
     80       5.3097      1.00000
     81       5.3153      1.00000
     82       5.3314      1.00000
     83       5.3351      1.00000
     84       5.3479      1.00000
     85       5.3642      1.00000
     86       5.3726      1.00000
     87       5.3760      1.00000
     88       5.4051      1.00000
     89       5.4200      1.00000
     90       5.4484      1.00000
     91       5.4578      1.00000
     92       5.4657      1.00000
     93       5.4808      1.00000
     94       5.4975      1.00000
     95       5.5111      1.00000
     96       5.5208      1.00000
     97       5.5291      1.00000
     98       5.5432      1.00000
     99       5.5509      1.00000
    100       5.5522      1.00000
    101       5.5646      1.00000
    102       5.5839      1.00000
    103       5.5880      1.00000
    104       5.6026      1.00000
    105       5.6104      1.00000
    106       5.7933      1.00000
    107       5.8184      1.00000
    108       5.8349      1.00000
    109       5.8432      1.00000
    110       5.8694      1.00000
    111       5.8923      1.00000
    112       5.8985      1.00000
    113       5.9142      1.00000
    114       5.9264      1.00000
    115       5.9341      1.00000
    116       5.9545      1.00000
    117       5.9615      1.00000
    118       5.9713      1.00000
    119       5.9772      1.00000
    120       5.9830      1.00000
    121       5.9961      1.00000
    122       5.9997      1.00000
    123       6.0231      1.00000
    124       6.0280      1.00000
    125       6.0298      1.00000
    126       6.0356      1.00000
    127       6.0431      1.00000
    128       6.0628      1.00000
    129       6.0712      1.00000
    130       6.0828      1.00000
    131       6.0855      1.00000
    132       6.0951      1.00000
    133       6.1002      1.00000
    134       6.1133      1.00000
    135       6.1274      1.00000
    136       6.1318      1.00000
    137       6.1410      1.00000
    138       6.1500      1.00000
    139       6.1532      1.00000
    140       6.1644      1.00000
    141       6.1823      1.00000
    142       6.1834      1.00000
    143       6.1926      1.00000
    144       6.1975      1.00000
    145       6.2054      1.00000
    146       6.2114      1.00000
    147       6.2182      1.00000
    148       6.2346      1.00000
    149       6.2490      1.00000
    150       6.2686      1.00000
    151       6.2823      1.00000
    152       6.3120      1.00000
    153       6.3175      1.00000
    154       6.3346      1.00000
    155       6.3571      1.00000
    156       6.3754      1.00000
    157       6.4667      1.00000
    158       6.4806      1.00000
    159       6.5124      1.00000
    160       6.5359      1.00000
    161       6.5463      1.00000
    162       6.5553      1.00000
    163       6.5578      1.00000
    164       6.5802      1.00000
    165       6.5934      1.00000
    166       6.6103      1.00000
    167       6.6139      1.00000
    168       6.6177      1.00000
    169       6.8040      1.00000
    170       6.8055      1.00000
    171       6.8274      1.00000
    172       6.8417      1.00000
    173       6.8545      1.00000
    174       6.8615      1.00000
    175       6.8789      1.00000
    176       6.8893      1.00000
    177       6.9008      1.00000
    178       6.9024      1.00000
    179       6.9110      1.00000
    180       6.9261      1.00000
    181       6.9435      1.00000
    182       6.9456      1.00000
    183       6.9574      1.00000
    184       6.9575      1.00000
    185       6.9606      1.00000
    186       6.9681      1.00000
    187       6.9790      1.00000
    188       6.9855      1.00000
    189       6.9988      1.00000
    190       7.0016      1.00000
    191       7.0053      1.00000
    192       7.0091      1.00000
    193       7.0124      1.00000
    194       7.0171      1.00000
    195       7.0223      1.00000
    196       7.0268      1.00000
    197       7.0312      1.00000
    198       7.0338      1.00000
    199       7.0374      1.00000
    200       7.0417      1.00000
    201       7.0445      1.00000
    202       7.0499      1.00000
    203       7.0551      1.00000
    204       7.0638      1.00000
    205       7.0678      1.00000
    206       7.0804      1.00000
    207       7.1971      1.00000
    208       7.2064      1.00000
    209       7.2281      1.00000
    210       7.2455      1.00000
    211       7.2543      1.00000
    212       7.2784      1.00000
    213       7.3719      1.00000
    214       7.3915      1.00000
    215       7.4091      1.00000
    216       7.4228      1.00000
    217       7.6757      1.00000
    218       7.6875      1.00000
    219       7.7113      1.00000
    220       7.7204      1.00000
    221       7.7269      1.00000
    222       7.7310      1.00000
    223       7.7342      1.00000
    224       7.7387      1.00000
    225       7.7430      1.00000
    226       7.7461      1.00000
    227       7.7486      1.00000
    228       7.7562      1.00000
    229       7.7577      1.00000
    230       7.7600      1.00000
    231       7.7670      1.00000
    232       7.7710      1.00000
    233       7.7752      1.00000
    234       7.7784      1.00000
    235       7.7819      1.00000
    236       7.7877      1.00000
    237       7.7900      1.00000
    238       7.7928      1.00000
    239       7.7955      1.00000
    240       7.8012      1.00000
    241       7.8059      1.00000
    242       7.8088      1.00000
    243       7.8176      1.00000
    244       7.9284      1.00000
    245       7.9398      1.00000
    246       7.9461      1.00000
    247       7.9619      1.00000
    248       7.9684      1.00000
    249       7.9798      1.00000
    250       8.6925      0.52797
    251       8.7019      0.08902
    252       8.7165      0.04900
    253       8.7234     -0.07794
    254       8.7418     -0.01383
    255       8.7625     -0.00387
    256       9.3204      0.00000
    257       9.3270      0.00000
    258       9.3319      0.00000
    259       9.3424      0.00000
    260       9.3507      0.00000
    261       9.3570      0.00000
    262       9.3701      0.00000
    263       9.3810      0.00000
    264       9.3861      0.00000
    265       9.3929      0.00000
    266       9.4004      0.00000
    267       9.4089      0.00000
    268      10.0144      0.00000
    269      10.0418      0.00000
    270      10.0463      0.00000
    271      10.0676      0.00000
    272      10.0892      0.00000
    273      10.0974      0.00000
    274      10.8237      0.00000
    275      10.8289      0.00000
    276      10.8363      0.00000
    277      12.1100      0.00000
    278      12.1619      0.00000
    279      12.1749      0.00000
    280      12.1846      0.00000
    281      12.1895      0.00000
    282      12.1929      0.00000
    283      12.2080      0.00000
    284      12.2212      0.00000
    285      12.2271      0.00000
    286      12.2385      0.00000
    287      12.2447      0.00000
    288      12.2647      0.00000
    289      15.1293      0.00000
    290      15.1525      0.00000
    291      15.1892      0.00000
    292      15.2625      0.00000
    293      15.2725      0.00000
    294      15.3674      0.00000
    295      16.3247      0.00000
    296      16.3393      0.00000
    297      16.3682      0.00000
    298      16.3838      0.00000
    299      16.3905      0.00000
    300      16.4071      0.00000
    301      16.4469      0.00000
    302      16.4690      0.00000
    303      16.4933      0.00000
    304      16.5112      0.00000
    305      16.5297      0.00000
    306      16.5798      0.00000
    307      17.5381      0.00000
    308      17.5536      0.00000
    309      17.6104      0.00000
    310      18.7712      0.00000
    311      18.8961      0.00000
    312      19.7796      0.00000
    313      19.8238      0.00000
    314      19.8509      0.00000
    315      19.9098      0.00000

 k-point     2 :       0.2500    0.0000    0.0000
  band No.  band energies     occupation 
      1      -0.3594      1.00000
      2       0.6743      1.00000
      3       1.1542      1.00000
      4       1.1656      1.00000
      5       2.0333      1.00000
      6       2.0461      1.00000
      7       2.4088      1.00000
      8       2.8971      1.00000
      9       2.9585      1.00000
     10       3.4606      1.00000
     11       3.4702      1.00000
     12       3.4829      1.00000
     13       3.5197      1.00000
     14       3.5525      1.00000
     15       3.6146      1.00000
     16       3.6572      1.00000
     17       3.6891      1.00000
     18       3.7404      1.00000
     19       3.7573      1.00000
     20       3.7840      1.00000
     21       3.8311      1.00000
     22       3.8432      1.00000
     23       3.8794      1.00000
     24       3.9050      1.00000
     25       3.9347      1.00000
     26       3.9636      1.00000
     27       4.0001      1.00000
     28       4.0266      1.00000
     29       4.0590      1.00000
     30       4.0721      1.00000
     31       4.0797      1.00000
     32       4.0888      1.00000
     33       4.1155      1.00000
     34       4.1308      1.00000
     35       4.1477      1.00000
     36       4.1754      1.00000
     37       4.1823      1.00000
     38       4.2104      1.00000
     39       4.2485      1.00000
     40       4.2924      1.00000
     41       4.3090      1.00000
     42       4.3335      1.00000
     43       4.3426      1.00000
     44       4.3856      1.00000
     45       4.4087      1.00000
     46       4.4228      1.00000
     47       4.4492      1.00000
     48       4.4638      1.00000
     49       4.4880      1.00000
     50       4.5003      1.00000
     51       4.5293      1.00000
     52       4.5531      1.00000
     53       4.5712      1.00000
     54       4.5935      1.00000
     55       4.6123      1.00000
     56       4.6237      1.00000
     57       4.6369      1.00000
     58       4.6629      1.00000
     59       4.6819      1.00000
     60       4.6958      1.00000
     61       4.7783      1.00000
     62       4.8186      1.00000
     63       4.8519      1.00000
     64       4.8774      1.00000
     65       4.8934      1.00000
     66       4.9130      1.00000
     67       4.9212      1.00000
     68       4.9541      1.00000
     69       5.0269      1.00000
     70       5.1055      1.00000
     71       5.1339      1.00000
     72       5.1803      1.00000
     73       5.1935      1.00000
     74       5.2158      1.00000
     75       5.2306      1.00000
     76       5.2379      1.00000
     77       5.2561      1.00000
     78       5.2663      1.00000
     79       5.2724      1.00000
     80       5.2912      1.00000
     81       5.3072      1.00000
     82       5.3248      1.00000
     83       5.3368      1.00000
     84       5.3552      1.00000
     85       5.3670      1.00000
     86       5.3793      1.00000
     87       5.3869      1.00000
     88       5.4083      1.00000
     89       5.4180      1.00000
     90       5.4346      1.00000
     91       5.4427      1.00000
     92       5.4612      1.00000
     93       5.4648      1.00000
     94       5.4805      1.00000
     95       5.4986      1.00000
     96       5.5178      1.00000
     97       5.5262      1.00000
     98       5.5554      1.00000
     99       5.5627      1.00000
    100       5.5847      1.00000
    101       5.5943      1.00000
    102       5.6198      1.00000
    103       5.6355      1.00000
    104       5.6594      1.00000
    105       5.6801      1.00000
    106       5.7059      1.00000
    107       5.7186      1.00000
    108       5.7399      1.00000
    109       5.7604      1.00000
[...]
   44       -0.003  -0.027   2.637   2.607
   45        0.003  -0.019   2.727   2.711
   46        0.005  -0.012   2.782   2.775
   47        0.002  -0.015   2.744   2.731
   48        0.010  -0.010   2.808   2.808
--------------------------------------------------
tot         -0.494  -1.531  56.484  54.459
 
    CHARGE:  cpu time    2.0067: real time    2.0221
    FORLOC:  cpu time    0.0130: real time    0.0129
    FORNL :  cpu time   22.1576: real time   22.5363
    STRESS:  cpu time   66.0410: real time   67.0294
    FORCOR:  cpu time    0.0950: real time    0.0963
    FORHAR:  cpu time    0.0230: real time    0.0233
    OFIELD:  cpu time    0.0000: real time    0.0005

  FORCE on cell =-STRESS in cart. coord.  units (eV):
  Direction    XX          YY          ZZ          XY          YZ          ZX
  --------------------------------------------------------------------------------------
  Alpha Z  2450.32052  2450.32052  2450.32052
  Ewald  -13436.90018-13424.52992-13511.99695   -46.60694    47.57536    53.51700
  Hartree  3233.54462  3245.67775  3161.01700   -43.96151    47.33452    53.26043
  E(xc)   -2460.98871 -2460.72512 -2461.01091    -0.04942    -0.09964    -0.02842
  Local     315.52536   291.62421   462.18885    85.57075   -96.13547  -106.60747
  n-local  -586.52004  -584.69741  -586.42749     1.12116    -0.26298     0.26595
  augment  6807.59427  6806.30456  6808.09190     2.64375     0.61152    -0.65164
  Kinetic  3675.99209  3673.80293  3677.20188     1.13412     0.47226    -0.12514
  Fock        0.00000     0.00000     0.00000     0.00000     0.00000     0.00000
  -------------------------------------------------------------------------------------
  Total      -1.43207    -2.22250    -0.61522    -0.14809    -0.50443    -0.36928
  in kB      -4.29185    -6.66073    -1.84379    -0.44382    -1.51177    -1.10673
  external pressure =       -4.27 kB  Pullay stress =        0.00 kB


 VOLUME and BASIS-vectors are now :
 -----------------------------------------------------------------------------
  energy-cutoff  :      520.00
  volume of cell :      534.60
      direct lattice vectors                 reciprocal lattice vectors
     7.090000000 -7.090000000  0.000000000     0.094029149 -0.047014575 -0.047014575
     0.000000000  7.090000000 -7.090000000     0.047014575  0.047014575 -0.094029149
     3.545000000  3.545000000  3.545000000     0.094029149  0.094029149  0.094029149

  length of vectors
    10.026774157 10.026774157  6.140120113     0.115161718  0.115161718  0.162863264


 FORCES acting on ions
    electron-ion (+dipol)            ewald-force                    non-local-force                 convergence-correction
 -----------------------------------------------------------------------------------------------
   -.202E+02 0.159E+02 0.496E+02   0.202E+02 -.160E+02 -.495E+02   -.416E-01 -.109E+00 -.925E-01   -.204E-01 0.251E+00 -.596E-01
   -.123E+02 0.157E+02 0.897E+02   0.121E+02 -.158E+02 -.895E+02   -.685E-01 -.297E-01 -.101E+00   0.263E+00 0.138E+00 -.134E+00
   -.271E+01 -.183E+02 0.281E+02   0.252E+01 0.184E+02 -.278E+02   -.312E-01 -.132E-01 -.683E-01   0.230E+00 -.393E-01 -.173E+00
   0.994E+01 -.384E+02 -.213E+01   -.995E+01 0.383E+02 0.228E+01   0.424E-01 0.137E-01 -.118E-01   -.325E-01 0.746E-01 -.120E+00
   -.380E+02 -.743E+01 0.836E+02   0.384E+02 0.757E+01 -.837E+02   -.316E-01 -.135E-01 -.193E+00   -.318E+00 -.130E+00 0.257E+00
   -.612E+02 0.107E+02 0.115E+03   0.614E+02 -.104E+02 -.116E+03   -.184E+00 -.896E-01 0.215E+00   -.915E-01 -.170E+00 0.231E+00
   -.887E+02 -.144E+02 0.574E+02   0.886E+02 0.143E+02 -.577E+02   0.194E+00 0.121E+00 0.513E-01   -.708E-01 -.832E-01 0.294E+00
   0.415E+02 -.134E+02 0.101E+03   -.417E+02 0.134E+02 -.101E+03   0.186E+00 0.912E-01 0.747E-01   0.409E-01 -.156E+00 0.180E+00
   -.854E+02 -.776E+02 0.333E+02   0.854E+02 0.778E+02 -.334E+02   -.584E-01 -.645E-01 -.475E-01   0.145E-01 -.130E+00 0.168E+00
   0.123E+02 -.332E+02 0.582E+02   -.121E+02 0.333E+02 -.584E+02   0.356E-01 0.382E-01 -.161E-01   -.228E+00 -.171E+00 0.244E+00
   -.561E+02 -.620E+02 0.160E+02   0.562E+02 0.620E+02 -.163E+02   -.224E-01 -.507E-02 0.806E-01   -.573E-01 -.160E-01 0.143E+00
   -.377E+01 -.821E+02 0.342E+02   0.391E+01 0.821E+02 -.346E+02   0.330E-01 0.389E-01 0.472E-01   -.181E+00 -.354E-01 0.330E+00
   0.249E+02 -.486E+02 0.764E+02   -.249E+02 0.488E+02 -.764E+02   -.679E-01 -.438E-02 -.332E-01   0.372E-01 -.105E+00 0.732E-01
   -.316E+02 -.204E+02 0.525E+02   0.318E+02 0.204E+02 -.525E+02   0.118E+00 -.341E-01 -.985E-01   -.256E+00 0.750E-01 0.112E+00
   0.166E+02 0.558E+02 -.127E+02   -.163E+02 -.557E+02 0.125E+02   -.152E-01 -.213E-01 0.636E-01   -.300E+00 -.520E-01 0.145E+00
   -.368E+02 -.151E+02 0.189E+01   0.368E+02 0.148E+02 -.212E+01   -.252E-01 0.840E-01 0.804E-02   0.270E-01 0.113E+00 0.213E+00
   -.673E+02 0.591E+01 0.478E+02   0.675E+02 -.583E+01 -.480E+02   -.567E-01 0.288E-01 0.615E-01   -.978E-01 -.983E-01 0.114E+00
   0.854E+02 0.119E+02 -.304E+02   -.852E+02 -.118E+02 0.302E+02   -.354E-01 -.196E-01 0.512E-01   -.158E+00 -.102E+00 0.153E+00
   -.544E+01 -.538E+02 -.477E+02   0.537E+01 0.540E+02 0.477E+02   -.233E-01 -.202E+00 -.162E+00   0.111E+00 0.144E-01 0.172E+00
   0.200E+02 0.314E+02 -.285E+02   -.199E+02 -.316E+02 0.285E+02   -.454E-01 -.440E-01 0.421E-01   0.116E-01 0.216E+00 -.559E-01
   0.118E+02 0.649E+02 -.352E+02   -.120E+02 -.649E+02 0.355E+02   -.657E-01 -.624E-01 -.586E-01   0.241E+00 0.487E-01 -.245E+00
   0.530E+01 0.291E+02 -.788E+02   -.555E+01 -.294E+02 0.786E+02   0.710E-01 -.264E-02 0.200E+00   0.177E+00 0.298E+00 0.496E-01
   0.331E+02 0.245E+02 -.886E+02   -.334E+02 -.245E+02 0.890E+02   0.355E-01 -.762E-02 -.117E-01   0.247E+00 0.239E-01 -.370E+00
   0.342E+01 0.567E+02 -.567E+02   -.377E+01 -.571E+02 0.566E+02   0.302E-01 0.110E+00 0.112E+00   0.319E+00 0.210E+00 -.604E-01
   0.770E+02 0.225E+02 -.626E+02   -.769E+02 -.227E+02 0.628E+02   -.120E+00 -.586E-01 -.769E-02   0.297E-01 0.274E+00 -.194E+00
   0.609E+02 0.108E+02 -.797E+02   -.613E+02 -.110E+02 0.796E+02   0.784E-01 0.336E-01 0.120E+00   0.393E+00 0.144E+00 -.125E-01
   0.884E+01 0.446E+02 -.106E+03   -.870E+01 -.444E+02 0.106E+03   -.176E+00 -.292E-02 -.293E+00   0.390E-01 -.156E+00 -.221E+00
   0.382E+02 0.106E+02 -.964E+02   -.383E+02 -.110E+02 0.961E+02   0.390E-02 0.576E-01 0.189E+00   0.938E-01 0.291E+00 0.805E-01
   0.643E+02 0.568E+02 -.890E+02   -.641E+02 -.568E+02 0.893E+02   0.918E-01 0.685E-01 -.255E+00   -.268E+00 -.640E-01 -.488E-01
   -.488E+02 -.140E+02 0.110E+02   0.486E+02 0.138E+02 -.110E+02   0.844E-01 0.628E-01 0.594E-01   0.127E+00 0.156E+00 -.688E-01
   -.506E+02 -.770E+01 0.818E+01   0.504E+02 0.744E+01 -.814E+01   0.488E-01 0.994E-01 0.813E-01   0.158E+00 0.153E+00 -.130E+00
   -.302E+02 0.139E+02 0.154E+02   0.302E+02 -.137E+02 -.151E+02   0.155E-01 -.358E-01 0.268E-01   -.914E-01 -.130E+00 -.352E+00
   0.257E+02 0.115E+02 -.122E+01   -.258E+02 -.114E+02 0.157E+01   -.106E+00 0.687E-01 -.193E-01   0.126E+00 -.132E+00 -.331E+00
   0.277E+02 -.219E+02 -.119E+02   -.277E+02 0.218E+02 0.119E+02   0.268E-02 -.122E-01 0.377E-01   0.134E-01 0.160E+00 0.384E-02
   0.511E+02 0.198E+02 -.348E+02   -.511E+02 -.197E+02 0.350E+02   0.587E-02 -.838E-01 0.981E-01   0.104E-01 -.640E-02 -.317E+00
   0.117E+02 0.126E+02 -.213E+02   -.115E+02 -.125E+02 0.215E+02   0.315E-01 -.163E-01 0.809E-02   -.285E+00 -.612E-03 -.288E+00
   -.848E+02 0.143E+02 0.618E+02   0.851E+02 -.143E+02 -.619E+02   -.270E+00 0.866E-01 0.146E+00   -.700E-01 -.645E-01 -.519E-01
   -.156E+02 -.599E+02 0.766E+02   0.155E+02 0.603E+02 -.769E+02   0.289E-01 -.257E+00 0.330E+00   0.280E-01 -.126E+00 -.608E-01
   -.221E+02 0.517E+02 -.735E+01   0.225E+02 -.516E+02 0.733E+01   -.252E+00 0.448E-01 -.577E-02   -.863E-01 -.100E+00 0.201E-01
   0.713E+02 0.155E+02 -.257E+02   -.716E+02 -.152E+02 0.257E+02   0.206E+00 -.717E-01 0.276E-03   0.688E-01 -.167E+00 0.431E-02
   -.203E+02 0.280E+02 0.979E+01   0.202E+02 -.281E+02 -.102E+02   0.454E-02 0.701E-01 0.195E+00   0.157E+00 -.203E-02 0.196E+00
   -.292E+02 0.646E+01 0.149E+02   0.296E+02 -.658E+01 -.148E+02   -.374E+00 0.284E+00 -.150E+00   -.249E-01 -.162E+00 0.680E-02
   -.125E+02 -.330E+02 -.534E+02   0.126E+02 0.330E+02 0.536E+02   -.269E-01 -.748E-01 -.359E+00   -.676E-01 0.106E+00 0.118E+00
   0.390E+02 -.197E+02 0.382E+02   -.392E+02 0.197E+02 -.383E+02   0.202E+00 0.106E+00 0.443E-01   -.506E-01 -.558E-01 0.731E-01
   0.126E+02 -.307E+02 0.704E+02   -.127E+02 0.309E+02 -.707E+02   0.277E+00 -.167E+00 0.793E-01   -.148E+00 -.144E-01 0.178E+00
   0.545E+01 0.262E+02 -.703E+02   -.532E+01 -.262E+02 0.704E+02   -.388E-01 0.104E+00 -.254E-01   -.992E-01 -.621E-01 -.992E-01
   0.557E+02 0.160E+02 -.108E+03   -.559E+02 -.158E+02 0.109E+03   0.262E+00 -.680E-01 -.371E+00   -.906E-01 -.110E+00 -.138E+00
   0.101E+02 -.123E+02 -.349E+01   -.103E+02 0.122E+02 0.365E+01   -.205E-01 0.360E-01 -.767E-01   0.180E+00 0.535E-01 -.786E-01
 -----------------------------------------------------------------------------------------------
   0.210E-01 -.239E+00 0.833E-01   -.279E-12 -.139E-12 -.294E-12   -.691E-01 0.767E-01 -.344E-01   0.511E-01 0.161E+00 -.492E-01
 
 
 POSITION                                       TOTAL-FORCE (eV/Angst)
 -----------------------------------------------------------------------------------
      0.00985      0.00611      0.00234        -0.000371     -0.005682     -0.005630
      5.31320      1.77005      3.53857         0.002430      0.000192     -0.003832
      3.54584      3.54659     -7.07900         0.006451     -0.003606      0.014885
      5.31803      1.77721     -7.07880         0.002097      0.005069      0.016708
      7.08458     -5.31423     -1.75770         0.008541     -0.004870     -0.004457
      5.31822      3.54547      1.77080        -0.012361      0.024653     -0.008654
      1.77340      1.77743      0.00647         0.014509     -0.019168      0.000585
      3.55486     -1.77946     -1.75949        -0.002845     -0.001687      0.002603
      3.54711      0.00906      0.00355         0.003845      0.011298      0.002493
      5.33664     -3.53287     -1.75752         0.012113      0.009362     -0.013615
      5.32688     -1.74477      0.01287         0.004607     -0.006353     -0.003356
      7.10852     -3.53598      0.01317        -0.009156      0.010712      0.001213
      7.09025     -1.75884      1.78241        -0.004638      0.004729     -0.000952
      8.86201     -3.55090      1.78315         0.011747      0.008081     -0.012883
      3.54521      7.06757     -0.01616         0.007343     -0.005618      0.009877
      1.76282      3.56548     -1.76104         0.000322     -0.003694     -0.008469
      3.54285      3.55501     -0.00265         0.003902      0.007978     -0.001598
      8.86443      1.76354     -0.02339        -0.008107      0.007596      0.012622
      5.32644      0.00204     -1.76175         0.012959      0.009959     -0.002629
      3.54354      8.85375     -1.78986        -0.006342     -0.000938     -0.006445
      5.29906      7.07727     -1.77593        -0.016289     -0.008549      0.001477
      1.76885      5.31802     -3.56184        -0.002301      0.002233      0.010324
      7.07834      5.30388     -1.77634        -0.005032      0.008629      0.013518
      3.53079      3.54021     -3.56099         0.006138     -0.011718      0.003474
      8.87158      3.54253     -1.77915        -0.010150     -0.018096      0.006254
      5.30483      1.76493     -3.55528        -0.002363      0.001251     -0.000342
      5.30344      3.52230     -1.77672        -0.001464      0.003855      0.008532
      7.09000     -0.00150     -3.55680         0.003047     -0.004493      0.006684
      8.85151     -0.01755     -1.78576        -0.000875     -0.011865     -0.000511
      1.76765      7.09241     -5.32076         0.006675     -0.000168      0.005867
      3.55168      5.31455     -5.31975         0.010253     -0.007875     -0.001752
      3.53835      7.09629     -3.56548         0.006593      0.006043      0.004010
      5.32165      5.30802     -3.53507        -0.014702      0.004316     -0.002105
      7.09507      1.79521     -5.30875        -0.010707      0.011735      0.000806
      7.09195      3.55327     -3.54027         0.012556     -0.002345     -0.004644
      8.86808      1.77153     -3.54122         0.002767      0.001340     -0.001635
      3.50201      1.79151      1.77346         0.020655     -0.010593     -0.011668
      5.31134     -0.03508      1.80785        -0.006639      0.024078     -0.026068
      5.30177      5.31913      0.00310         0.020964     -0.015075     -0.000488
      3.59639     -0.02211     -3.55796        -0.035859      0.004745     -0.003781
      3.53620      1.79532     -1.77056        -0.014773     -0.021963     -0.020258
      5.32270      1.76831      0.02060         0.011733     -0.004163      0.000764
      7.08108     -1.77225     -1.79516         0.001107      0.002161      0.005500
      7.12429      0.01839      0.03620         0.000538     -0.004474     -0.001182
      8.87174     -1.77725      0.07008         0.000030      0.016479     -0.022914
      3.53251      5.30537     -1.83799        -0.005228     -0.004303      0.011500
      7.08555      1.76845     -1.84008        -0.013867      0.001750      0.021065
      5.32191      3.55159     -5.31039        -0.009855     -0.010949      0.009105
 -----------------------------------------------------------------------------------
    total drift:                                0.003011     -0.001228     -0.000226


--------------------------------------------------------------------------------------------------------



  FREE ENERGIE OF THE ION-ELECTRON SYSTEM (eV)
  ---------------------------------------------------
  free  energy   TOTEN  =      -297.57778233 eV

  energy  without entropy=     -297.57778233  energy(sigma->0) =     -297.57778233
 


--------------------------------------------------------------------------------------------------------


    POTLOK:  cpu time    0.1050: real time    0.1056


--------------------------------------------------------------------------------------------------------


     LOOP+:  cpu time  959.6351: real time  971.7294
    4ORBIT:  cpu time    0.0000: real time    0.0000
 


 total charge     
 
# of ion       s       p       d       tot
------------------------------------------
    1        0.494   0.487   8.312   9.292
    2        0.494   0.487   8.316   9.298
    3        0.496   0.489   8.317   9.302
    4        0.491   0.483   8.309   9.283
    5        0.497   0.494   8.321   9.312
    6        0.505   0.505   8.316   9.325
    7        0.497   0.494   8.323   9.314
    8        0.502   0.502   8.317   9.321
    9        0.501   0.502   8.312   9.316
   10        0.502   0.500   8.325   9.327
   11        0.502   0.503   8.320   9.325
   12        0.499   0.499   8.318   9.316
   13        0.507   0.506   8.330   9.343
   14        0.501   0.500   8.323   9.323
   15        0.502   0.502   8.321   9.325
   16        0.508   0.509   8.325   9.342
   17        0.511   0.520   8.321   9.352
   18        0.504   0.503   8.325   9.332
   19        0.510   0.511   8.323   9.344
   20        0.488   0.479   8.323   9.290
   21        0.496   0.492   8.321   9.310
   22        0.498   0.497   8.313   9.308
   23        0.498   0.495   8.327   9.320
   24        0.504   0.507   8.330   9.341
   25        0.499   0.496   8.320   9.315
   26        0.504   0.508   8.325   9.338
   27        0.511   0.514   8.322   9.347
   28        0.497   0.496   8.315   9.308
   29        0.506   0.508   8.315   9.329
   30        0.493   0.486   8.313   9.292
   31        0.496   0.488   8.325   9.309
   32        0.504   0.504   8.322   9.330
   33        0.504   0.504   8.328   9.336
   34        0.491   0.482   8.319   9.293
   35        0.499   0.498   8.313   9.311
   36        0.501   0.498   8.325   9.324
   37        0.477   0.506   6.159   7.142
   38        0.478   0.511   6.173   7.162
   39        0.471   0.501   6.175   7.147
   40        0.474   0.504   6.190   7.168
   41        0.474   0.502   6.179   7.155
   42        0.477   0.511   6.207   7.195
   43        0.471   0.499   6.155   7.125
   44        0.478   0.512   6.200   7.190
   45        0.476   0.509   6.172   7.157
   46        0.476   0.504   6.156   7.135
   47        0.478   0.509   6.166   7.153
   48        0.468   0.497   6.136   7.102
--------------------------------------------------
tot         23.710  24.013 373.601 421.324
 


 magnetization (x)
 
# of ion       s       p       d       tot
------------------------------------------
    1       -0.010  -0.030   0.660   0.619
    2       -0.013  -0.033   0.653   0.607
    3       -0.013  -0.032   0.654   0.609
    4       -0.010  -0.031   0.650   0.609
    5       -0.011  -0.032   0.658   0.616
    6       -0.020  -0.045   0.691   0.626
    7       -0.011  -0.033   0.648   0.604
    8       -0.016  -0.040   0.678   0.622
    9       -0.017  -0.042   0.686   0.627
   10       -0.015  -0.036   0.647   0.595
   11       -0.016  -0.042   0.671   0.613
   12       -0.014  -0.039   0.666   0.613
   13       -0.018  -0.037   0.641   0.586
   14       -0.012  -0.032   0.647   0.603
   15       -0.017  -0.040   0.686   0.629
   16       -0.021  -0.044   0.687   0.623
   17       -0.021  -0.048   0.705   0.636
   18       -0.016  -0.038   0.668   0.613
   19       -0.023  -0.045   0.680   0.611
   20       -0.006  -0.026   0.636   0.603
   21       -0.012  -0.032   0.658   0.613
   22       -0.011  -0.035   0.682   0.635
   23       -0.014  -0.036   0.637   0.587
   24       -0.017  -0.043   0.636   0.576
   25       -0.012  -0.033   0.665   0.620
   26       -0.016  -0.042   0.657   0.599
   27       -0.023  -0.047   0.685   0.616
   28       -0.011  -0.034   0.670   0.625
   29       -0.020  -0.043   0.701   0.638
   30       -0.010  -0.030   0.642   0.602
   31       -0.013  -0.030   0.612   0.569
   32       -0.015  -0.035   0.673   0.624
   33       -0.015  -0.036   0.643   0.593
   34       -0.010  -0.027   0.616   0.578
   35       -0.013  -0.035   0.674   0.627
   36       -0.012  -0.030   0.654   0.612
   37        0.004  -0.012   2.770   2.762
   38        0.003  -0.018   2.717   2.702
   39        0.003  -0.019   2.721   2.705
   40        0.000  -0.022   2.675   2.652
   41        0.003  -0.016   2.705   2.692
   42       -0.005  -0.032   2.611   2.574
   43        0.005  -0.014   2.773   2.763
   44       -0.003  -0.027   2.637   2.607
   45        0.003  -0.019   2.727   2.711
   46        0.005  -0.012   2.782   2.775
   47        0.002  -0.015   2.744   2.731
   48        0.010  -0.010   2.808   2.808
--------------------------------------------------
tot         -0.494  -1.531  56.484  54.459
 
 BZINTS: Fermi energy:  8.417730;456.000000 electrons
         Band energy:2753.308609;  BLOECHL correction: -0.129037

 total amount of memory used by VASP MPI-rank0   217929. kBytes
=======================================================================

   base      :      30000. kBytes
   nonlr-proj:      10962. kBytes
   fftplans  :       2598. kBytes
   grid      :       6545. kBytes
   one-center:         93. kBytes
   wavefun   :     167731. kBytes
 
  
  
 General timing and accounting informations for this job:
 ========================================================
  
                  Total CPU time used (sec):     1057.316
                            User time (sec):     1029.610
                          System time (sec):       27.706
                         Elapsed time (sec):     1076.214
  
                   Maximum memory used (kb):      364780.
                   Average memory used (kb):           0.
  
                          Minor page faults:        16297
                          Major page faults:            0
                 Voluntary context switches:         7358
