       N       E                     dE             d eps       ncg     rms          rms(c)
DAV:   1     0.363877780133E+04    0.36388E+04   -0.16483E+05 63666   0.185E+03
DAV:   2     0.122998131931E+03   -0.35158E+04   -0.33017E+04 63648   0.388E+02
DAV:   3    -0.331981998666E+03   -0.45498E+03   -0.35103E+03 63648   0.175E+02
DAV:   4    -0.358319816314E+03   -0.26338E+02   -0.25351E+02 67671   0.508E+01
DAV:   5    -0.358624243380E+03   -0.30443E+00   -0.30403E+00 69660   0.523E+00
RMM:   6    -0.358633958545E+03   -0.97152E-02   -0.97141E-02 66768   0.770E-01
RMM:   7    -0.358636966155E+03   -0.30076E-02   -0.29975E-02 97757   0.265E-01
RMM:   8    -0.358636983190E+03   -0.17035E-04   -0.31881E-04 89444   0.369E-02
RMM:   9    -0.358636986532E+03   -0.33416E-05   -0.33281E-05 77852   0.101E-02
RMM:  10    -0.358636986714E+03   -0.18258E-06   -0.18349E-06 43378   0.271E-03
   1 F= -.35863699E+03 E0= -.35863699E+03  d E =0.000000E+00  mag=    91.5524
