 vasp.5.4.4.18Apr17-6-g9f103f2a35 (build Sep 06 2021 19:49:22) complex          
  
 executed on             LinuxIFC date 2022.01.02  19:48:40
 running on   48 total cores
 distrk:  each k-point on   48 cores,    1 groups
 distr:  one band on NCORES_PER_BAND=  16 cores,    3 groups


--------------------------------------------------------------------------------------------------------


 INCAR:
 POTCAR:    PAW_PBE Fe 06Sep2000                  
 POTCAR:    PAW_PBE Ni 02Aug2007                  

 ----------------------------------------------------------------------------- 
|                                                                             |
|           W    W    AA    RRRRR   N    N  II  N    N   GGGG   !!!           |
|           W    W   A  A   R    R  NN   N  II  NN   N  G    G  !!!           |
|           W    W  A    A  R    R  N N  N  II  N N  N  G       !!!           |
|           W WW W  AAAAAA  RRRRR   N  N N  II  N  N N  G  GGG   !            |
|           WW  WW  A    A  R   R   N   NN  II  N   NN  G    G                |
|           W    W  A    A  R    R  N    N  II  N    N   GGGG   !!!           |
|                                                                             |
|      For optimal performance we recommend to set                            |
|        NCORE= 4 - approx SQRT( number of cores)                             |
|      NCORE specifies how many cores store one orbital (NPAR=cpu/NCORE).     |
|      This setting can  greatly improve the performance of VASP for DFT.     |
|      The default,   NCORE=1            might be grossly inefficient         |
|      on modern multi-core architectures or massively parallel machines.     |
|      Do your own testing !!!!                                               |
|      Unfortunately you need to use the default for GW and RPA calculations. |
|      (for HF NCORE is supported but not extensively tested yet)             |
|                                                                             |
 ----------------------------------------------------------------------------- 

 POTCAR:    PAW_PBE Fe 06Sep2000                  
   VRHFIN =Fe:  d7 s1                                                           
   LEXCH  = PE                                                                  
   EATOM  =   594.3153 eV,   43.6809 Ry                                         
                                                                                
   TITEL  = PAW_PBE Fe 06Sep2000                                                
   LULTRA =        F    use ultrasoft PP ?                                      
   IUNSCR =        1    unscreen: 0-lin 1-nonlin 2-no                           
   RPACOR =    2.000    partial core radius                                     
   POMASS =   55.847; ZVAL   =    8.000    mass and valenz                      
   RCORE  =    2.300    outmost cutoff radius                                   
   RWIGS  =    2.460; RWIGS  =    1.302    wigner-seitz radius (au A)           
   ENMAX  =  267.882; ENMIN  =  200.911 eV                                      
   RCLOC  =    1.701    cutoff for local pot                                    
   LCOR   =        T    correct aug charges                                     
   LPAW   =        T    paw PP                                                  
   EAUG   =  511.368                                                            
   DEXC   =    0.000                                                            
   RMAX   =    2.356    core radius for proj-oper                               
   RAUG   =    1.300    factor for augmentation sphere                          
   RDEP   =    2.442    radius for radial grids                                 
   RDEPT  =    1.890    core radius for aug-charge                              
                                                                                
   Atomic configuration                                                         
    9 entries                                                                   
     n  l   j            E        occ.                                          
     1  0  0.50     -6993.8440   2.0000                                         
     2  0  0.50      -814.6047   2.0000                                         
     2  1  1.50      -693.3689   6.0000                                         
     3  0  0.50       -89.4732   2.0000                                         
     3  1  1.50       -55.6373   6.0000                                         
     3  2  2.50        -3.8151   7.0000                                         
     4  0  0.50        -4.2551   1.0000                                         
     4  1  1.50        -3.4015   0.0000                                         
     4  3  2.50        -1.3606   0.0000                                         
   Description                                                                  
     l       E           TYP  RCUT    TYP  RCUT                                 
     2     -3.8151135     23  2.300                                             
     2     -5.1756961     23  2.300                                             
     0     -4.2550963     23  2.300                                             
     0      7.2035603     23  2.300                                             
     1     -2.7211652     23  2.300                                             
     1     18.4316424     23  2.300                                             
  local pseudopotential read in
  partial core-charges read in
  partial kinetic energy density read in
  atomic valenz-charges read in
  non local Contribution for L=           2  read in
    real space projection operators read in
  non local Contribution for L=           2  read in
    real space projection operators read in
  non local Contribution for L=           0  read in
    real space projection operators read in
  non local Contribution for L=           0  read in
    real space projection operators read in
  non local Contribution for L=           1  read in
    real space projection operators read in
  non local Contribution for L=           1  read in
    real space projection operators read in
    PAW grid and wavefunctions read in
 
   number of l-projection  operators is LMAX  =           6
   number of lm-projection operators is LMMAX =          18
 
 POTCAR:    PAW_PBE Ni 02Aug2007                  
   VRHFIN =Ni:                                                                  
   LEXCH  = PE                                                                  
   EATOM  =  1077.6739 eV,   79.2068 Ry                                         
                                                                                
   TITEL  = PAW_PBE Ni 02Aug2007                                                
   LULTRA =        F    use ultrasoft PP ?                                      
   IUNSCR =        1    unscreen: 0-lin 1-nonlin 2-no                           
   RPACOR =    2.000    partial core radius                                     
   POMASS =   58.690; ZVAL   =   10.000    mass and valenz                      
   RCORE  =    2.300    outmost cutoff radius                                   
   RWIGS  =    2.430; RWIGS  =    1.286    wigner-seitz radius (au A)           
   ENMAX  =  269.532; ENMIN  =  202.149 eV                                      
   RCLOC  =    1.201    cutoff for local pot                                    
   LCOR   =        T    correct aug charges                                     
   LPAW   =        T    paw PP                                                  
   EAUG   =  544.565                                                            
   DEXC   =    0.000                                                            
   RMAX   =    2.357    core radius for proj-oper                               
   RAUG   =    1.300    factor for augmentation sphere                          
   RDEP   =    2.390    radius for radial grids                                 
   RDEPT  =    1.838    core radius for aug-charge                              
                                                                                
   Atomic configuration                                                         
    9 entries                                                                   
     n  l   j            E        occ.                                          
     1  0  0.50     -8206.4253   2.0000                                         
     2  0  0.50      -976.1748   2.0000                                         
     2  1  1.50      -839.0571   6.0000                                         
     3  0  0.50      -105.9991   2.0000                                         
     3  1  1.50       -66.4603   6.0000                                         
     3  2  2.50        -4.6458   9.0000                                         
     4  0  0.50        -4.4926   1.0000                                         
     4  1  1.50        -4.0817   0.0000                                         
     4  3  2.50        -1.3606   0.0000                                         
   Description                                                                  
     l       E           TYP  RCUT    TYP  RCUT                                 
     2     -4.6457903     23  2.300                                             
     2     -6.0063729     23  2.300                                             
     0     -4.4925590     23  2.300                                             
     0      5.0102601     23  2.300                                             
     1     -2.7211652     23  2.300                                             
     1     16.5183231     23  2.300                                             
  local pseudopotential read in
  partial core-charges read in
  partial kinetic energy density read in
  atomic valenz-charges read in
  non local Contribution for L=           2  read in
    real space projection operators read in
  non local Contribution for L=           2  read in
    real space projection operators read in
  non local Contribution for L=           0  read in
    real space projection operators read in
  non local Contribution for L=           0  read in
    real space projection operators read in
  non local Contribution for L=           1  read in
    real space projection operators read in
  non local Contribution for L=           1  read in
    real space projection operators read in
    PAW grid and wavefunctions read in
 
   number of l-projection  operators is LMAX  =           6
   number of lm-projection operators is LMMAX =          18
 
 Optimization of the real space projectors (new method)

 maximal supplied QI-value         = 16.25
 optimisation between [QCUT,QGAM] = [ 11.54, 23.24] = [ 37.28,151.24] Ry 
 Optimized for a Real-space Cutoff    1.53 Angstroem

   l    n(q)    QCUT    max X(q) W(low)/X(q) W(high)/X(q)  e(spline) 
   2     10    11.539    80.901    0.11E-03    0.14E-03    0.21E-06
   2     10    11.539    75.754    0.11E-03    0.14E-03    0.22E-06
   0     11    11.539    58.752    0.52E-04    0.18E-04    0.33E-06
   0     11    11.539    30.679    0.44E-04    0.16E-04    0.30E-06
   1     10    11.539    17.977    0.53E-04    0.29E-04    0.13E-06
   1     10    11.539    13.559    0.44E-04    0.25E-04    0.11E-06
 Optimization of the real space projectors (new method)

 maximal supplied QI-value         = 16.25
 optimisation between [QCUT,QGAM] = [ 11.54, 23.24] = [ 37.28,151.24] Ry 
 Optimized for a Real-space Cutoff    1.45 Angstroem

   l    n(q)    QCUT    max X(q) W(low)/X(q) W(high)/X(q)  e(spline) 
   2      9    11.539    60.317    0.19E-03    0.47E-04    0.16E-06
   2      9    11.539    55.921    0.19E-03    0.48E-04    0.16E-06
   0     10    11.539    51.690    0.80E-04    0.50E-04    0.24E-06
   0     10    11.539    30.015    0.73E-04    0.45E-04    0.22E-06
   1     10    11.539    18.849    0.87E-04    0.16E-03    0.71E-07
   1     10    11.539    14.624    0.73E-04    0.13E-03    0.64E-07
  PAW_PBE Fe 06Sep2000                  :
 energy of atom  1       EATOM= -594.3153
 kinetic energy error for atom=    0.0026 (will be added to EATOM!!)
  PAW_PBE Ni 02Aug2007                  :
 energy of atom  2       EATOM=-1077.6739
 kinetic energy error for atom=    0.0030 (will be added to EATOM!!)
 
 
 POSCAR: POSCAR                                  
  positions in direct lattice
  velocities in cartesian coordinates
 exchange correlation table for  LEXCH =        8
   RHO(1)=    0.500       N(1)  =     2000
   RHO(2)=  100.500       N(2)  =     4000
 


--------------------------------------------------------------------------------------------------------


 ion  position               nearest neighbor table
   1  0.001  0.997  0.997-  36 2.46  32 2.48  27 2.50   4 2.50  37 2.52   7 2.53   3 2.53  21 2.54
                            38 2.54  41 2.54   5 2.56  48 2.58
   2  0.500  0.999  0.998-  33 2.50  11 2.50  39 2.51  47 2.52  37 2.52  40 2.52  24 2.54   8 2.54
                             3 2.55   9 2.56  46 2.56  22 2.56
   3  0.750  0.995  0.004-  35 2.48  46 2.51  38 2.51  48 2.51  27 2.52   1 2.53  10 2.53  41 2.54
                             2 2.55  40 2.55  24 2.55  11 2.60
   4  0.248  0.244  0.994-   7 2.49   1 2.50  37 2.50   6 2.51  18 2.52  39 2.54  43 2.54  14 2.54
                            38 2.55  13 2.55   5 2.56  15 2.61
   5  0.080  0.168  0.331-  38 2.48  10 2.49  42 2.49  48 2.49   7 2.51  43 2.52  41 2.53  15 2.54
                             4 2.56   1 2.56  32 2.56   6 2.58
   6  0.334  0.164  0.324-  32 2.50   4 2.51  39 2.51  37 2.52   9 2.53  17 2.53  33 2.54   8 2.55
                             7 2.56   5 2.58  18 2.60  15 2.61
   7  0.165  0.085  0.661-   4 2.49  43 2.51  36 2.51   5 2.51  41 2.52   1 2.53   9 2.53  34 2.54
                            37 2.55  18 2.55  32 2.55   6 2.56
   8  0.590  0.171  0.327-  40 2.46  10 2.49  19 2.51  17 2.51  39 2.52  11 2.53   2 2.54  46 2.54
                             6 2.55  33 2.56   9 2.58  20 2.61
   9  0.416  0.086  0.664-  39 2.50  37 2.50  11 2.51   6 2.53   7 2.53  33 2.54  18 2.56   2 2.56
                            34 2.56  47 2.56  20 2.58   8 2.58
  10  0.833  0.166  0.333-   5 2.49   8 2.49  48 2.50  46 2.50  42 2.50  38 2.51  40 2.51  41 2.52
                            19 2.53   3 2.53  44 2.54  11 2.54
  11  0.664  0.085  0.667-   2 2.50  40 2.51  35 2.51  20 2.51   9 2.51  46 2.52   8 2.53  47 2.53
                            44 2.53  10 2.54  41 2.55   3 2.60
  12  0.992  0.494  0.000-  16 2.46  40 2.47  44 2.49  31 2.49  21 2.51  13 2.52  19 2.52  23 2.52
                            42 2.53  38 2.53  22 2.57  26 2.60
  13  0.241  0.493  0.996-  43 2.49  38 2.49  42 2.51  15 2.52  12 2.52  45 2.53  26 2.55   4 2.55
                            24 2.56  22 2.57  14 2.57  25 2.61
  14  0.498  0.497  0.001-  18 2.50  30 2.51  15 2.53  24 2.53  39 2.54  17 2.54  45 2.54   4 2.54
                            16 2.56  13 2.57  27 2.57  28 2.59
  15  0.330  0.420  0.333-  42 2.49  25 2.50  43 2.51  13 2.52  45 2.52  18 2.52  14 2.53   5 2.54
                            17 2.58  28 2.58   4 2.61   6 2.61
  16  0.751  0.497  0.012-  12 2.46  17 2.50  20 2.50  19 2.52  39 2.52  40 2.52  27 2.53  21 2.53
                            29 2.55  31 2.56  14 2.56  30 2.56
  17  0.583  0.416  0.338-  18 2.50  16 2.50   8 2.51   6 2.53  28 2.53  14 2.54  20 2.56  19 2.57
                            15 2.58  30 2.58  39 2.58  29 2.61
  18  0.416  0.339  0.665-  45 2.49  17 2.50  14 2.50  43 2.51   4 2.52  15 2.52  30 2.54   7 2.55
                             9 2.56  39 2.56  20 2.60   6 2.60
  19  0.838  0.418  0.344-  44 2.46  42 2.48  23 2.49   8 2.51  20 2.51  29 2.52  16 2.52  12 2.52
                            10 2.53  31 2.54  17 2.57  40 2.60
  20  0.673  0.338  0.676-  39 2.48  44 2.49  40 2.49  16 2.50  19 2.51  11 2.51  31 2.53  30 2.54
                            17 2.56   9 2.58  18 2.60   8 2.61
  21  0.001  0.746  0.990-  31 2.38  22 2.45  34 2.48  27 2.50  12 2.51  16 2.53  36 2.53  23 2.53
                            37 2.53   1 2.54  32 2.55  29 2.58
  22  0.244  0.749  0.993-  21 2.45  37 2.49  23 2.51  47 2.52  34 2.52  26 2.54  24 2.55  33 2.55
                             2 2.56  12 2.57  13 2.57  25 2.58
  23  0.083  0.665  0.328-  29 2.45  19 2.49  26 2.49  22 2.51  42 2.52  12 2.52  25 2.53  34 2.53
                            21 2.53  32 2.54  33 2.56  31 2.58
  24  0.495  0.746  0.001-  25 2.48  45 2.50  14 2.53  47 2.53  35 2.53   2 2.54   3 2.55  22 2.55
                            13 2.56  46 2.57  28 2.58  27 2.61
  25  0.336  0.671  0.334-  33 2.46  24 2.48  47 2.50  15 2.50  26 2.51  46 2.51  45 2.53  23 2.53
                            28 2.57  22 2.58  42 2.59  13 2.61
  26  0.164  0.581  0.658-  42 2.49  23 2.49  44 2.50  31 2.51  25 2.51  43 2.52  45 2.52  22 2.54
                            47 2.55  34 2.55  13 2.55  12 2.60
  27  0.755  0.749  0.009-   1 2.50  30 2.50  21 2.50  28 2.51   3 2.52  16 2.53  29 2.53  36 2.54
                            48 2.55  14 2.57  24 2.61  35 2.62
  28  0.590  0.670  0.340-  48 2.50  27 2.51  35 2.52  30 2.52  46 2.53  17 2.53  45 2.55  29 2.56
                            25 2.57  15 2.58  24 2.58  14 2.59
  29  0.844  0.671  0.343-  23 2.45  31 2.48  32 2.48  36 2.50  19 2.52  27 2.53  16 2.55  28 2.56
                            30 2.57  48 2.57  21 2.58  17 2.61
  30  0.669  0.587  0.676-  27 2.50  14 2.51  36 2.51  28 2.52  31 2.53  20 2.54  18 2.54  35 2.55
                            45 2.56  16 2.56  29 2.57  17 2.58
  31  0.920  0.590  0.676-  21 2.38  34 2.45  29 2.48  12 2.49  26 2.51  20 2.53  30 2.53  36 2.54
                            19 2.54  16 2.56  44 2.57  23 2.58
  32  0.086  0.918  0.324-  29 2.48   1 2.48   6 2.50  37 2.51  34 2.52  23 2.54   7 2.55  21 2.55
                            48 2.56   5 2.56  33 2.57  36 2.61
  33  0.339  0.915  0.331-  25 2.46  46 2.49   2 2.50  47 2.50   9 2.54   6 2.54  22 2.55   8 2.56
                            23 2.56  34 2.56  32 2.57  37 2.58
  34  0.162  0.833  0.660-  31 2.45  21 2.48  37 2.51  32 2.52  36 2.52  22 2.52  23 2.53   7 2.54
                            26 2.55   9 2.56  33 2.56  47 2.58
  35  0.665  0.837  0.670-   3 2.48  47 2.49  46 2.49  11 2.51  28 2.52  48 2.53  24 2.53  36 2.53
                            45 2.55  30 2.55  41 2.55  27 2.62
  36  0.915  0.838  0.668-   1 2.46  48 2.48  29 2.50   7 2.51  30 2.51  34 2.52  41 2.52  35 2.53
                            21 2.53  27 2.54  31 2.54  32 2.61
  37  0.250  0.998  0.992-  22 2.49   9 2.50   4 2.50  32 2.51  34 2.51   1 2.52   2 2.52   6 2.52
                            39 2.53  21 2.53   7 2.55  33 2.58
  38  0.996  0.245  0.001-  41 2.46   5 2.48  13 2.49  40 2.50  10 2.51   3 2.51  42 2.53  12 2.53
                             1 2.54  44 2.54   4 2.55  43 2.56
  39  0.501  0.248  0.995-  20 2.48   9 2.50   6 2.51   2 2.51   8 2.52  16 2.52  40 2.53  37 2.53
                            14 2.54   4 2.54  18 2.56  17 2.58
  40  0.750  0.247  0.000-   8 2.46  12 2.47  20 2.49  38 2.50  11 2.51  10 2.51   2 2.52  44 2.52
                            16 2.52  39 2.53   3 2.55  19 2.60
  41  0.918  0.089  0.670-  38 2.46  44 2.48  43 2.48   7 2.52  48 2.52  10 2.52  36 2.52   5 2.53
                             3 2.54   1 2.54  11 2.55  35 2.55
  42  0.081  0.414  0.332-  19 2.48  26 2.49   5 2.49  15 2.49  10 2.50  13 2.51  43 2.51  23 2.52
                            44 2.53  12 2.53  38 2.53  25 2.59
  43  0.165  0.333  0.664-  41 2.48  13 2.49   7 2.51  18 2.51  15 2.51  42 2.51   5 2.52  26 2.52
                            44 2.52  45 2.53   4 2.54  38 2.56
  44  0.916  0.334  0.668-  19 2.46  41 2.48  20 2.49  12 2.49  26 2.50  43 2.52  40 2.52  42 2.53
                            11 2.53  10 2.54  38 2.54  31 2.57
  45  0.414  0.583  0.668-  18 2.49  24 2.50  47 2.51  15 2.52  26 2.52  43 2.53  25 2.53  13 2.53
                            14 2.54  28 2.55  35 2.55  30 2.56
  46  0.586  0.918  0.337-  33 2.49  35 2.49  48 2.50  10 2.50   3 2.51  25 2.51  11 2.52  47 2.53
                            28 2.53   8 2.54   2 2.56  24 2.57
  47  0.416  0.833  0.666-  35 2.49  25 2.50  33 2.50  45 2.51   2 2.52  22 2.52  46 2.53  11 2.53
                            24 2.53  26 2.55   9 2.56  34 2.58
  48  0.835  0.920  0.341-  36 2.48   5 2.49  10 2.50  46 2.50  28 2.50   3 2.51  41 2.52  35 2.53
                            27 2.55  32 2.56  29 2.57   1 2.58
 

IMPORTANT INFORMATION: All symmetrisations will be switched off!
NOSYMM: (Re-)initialisation of all symmetry stuff for point group C_1.

 
 

Automatic generation of k-mesh.
 generate k-points for:    4    4    6
Space group operators:
 irot       det(A)        alpha          n_x          n_y          n_z        tau_x        tau_y        tau_z
    1     1.000000     0.000001     1.000000     0.000000     0.000000     0.000000     0.000000     0.000000
 
 Subroutine IBZKPT returns following result:
 ===========================================
 
 Found     52 irreducible k-points:
 
 Following reciprocal coordinates:
            Coordinates               Weight
  0.000000  0.000000  0.000000      1.000000
  0.250000  0.000000  0.000000      2.000000
  0.500000  0.000000  0.000000      1.000000
  0.000000  0.250000  0.000000      2.000000
  0.250000  0.250000  0.000000      2.000000
  0.500000  0.250000  0.000000      2.000000
 -0.250000  0.250000  0.000000      2.000000
  0.000000  0.500000  0.000000      1.000000
  0.250000  0.500000  0.000000      2.000000
  0.500000  0.500000  0.000000      1.000000
  0.000000  0.000000  0.166667      2.000000
  0.250000  0.000000  0.166667      2.000000
  0.500000  0.000000  0.166667      2.000000
 -0.250000  0.000000  0.166667      2.000000
  0.000000  0.250000  0.166667      2.000000
  0.250000  0.250000  0.166667      2.000000
  0.500000  0.250000  0.166667      2.000000
 -0.250000  0.250000  0.166667      2.000000
  0.000000  0.500000  0.166667      2.000000
  0.250000  0.500000  0.166667      2.000000
  0.500000  0.500000  0.166667      2.000000
 -0.250000  0.500000  0.166667      2.000000
  0.000000 -0.250000  0.166667      2.000000
  0.250000 -0.250000  0.166667      2.000000
  0.500000 -0.250000  0.166667      2.000000
 -0.250000 -0.250000  0.166667      2.000000
  0.000000  0.000000  0.333333      2.000000
  0.250000  0.000000  0.333333      2.000000
  0.500000  0.000000  0.333333      2.000000
 -0.250000  0.000000  0.333333      2.000000
  0.000000  0.250000  0.333333      2.000000
  0.250000  0.250000  0.333333      2.000000
  0.500000  0.250000  0.333333      2.000000
 -0.250000  0.250000  0.333333      2.000000
  0.000000  0.500000  0.333333      2.000000
  0.250000  0.500000  0.333333      2.000000
  0.500000  0.500000  0.333333      2.000000
 -0.250000  0.500000  0.333333      2.000000
  0.000000 -0.250000  0.333333      2.000000
  0.250000 -0.250000  0.333333      2.000000
  0.500000 -0.250000  0.333333      2.000000
 -0.250000 -0.250000  0.333333      2.000000
  0.000000  0.000000  0.500000      1.000000
  0.250000  0.000000  0.500000      2.000000
  0.500000  0.000000  0.500000      1.000000
  0.000000  0.250000  0.500000      2.000000
  0.250000  0.250000  0.500000      2.000000
  0.500000  0.250000  0.500000      2.000000
 -0.250000  0.250000  0.500000      2.000000
  0.000000  0.500000  0.500000      1.000000
  0.250000  0.500000  0.500000      2.000000
  0.500000  0.500000  0.500000      1.000000
 
 Following cartesian coordinates:
            Coordinates               Weight
  0.000000  0.000000 -0.000000      1.000000
  0.083333 -0.041667 -0.041667      2.000000
  0.166667 -0.083333 -0.083333      1.000000
  0.041667  0.041667 -0.083333      2.000000
  0.125000  0.000000 -0.125000      2.000000
  0.208333 -0.041667 -0.166667      2.000000
 -0.041667  0.083333 -0.041667      2.000000
  0.083333  0.083333 -0.166667      1.000000
  0.166667  0.041667 -0.208333      2.000000
  0.250000  0.000000 -0.250000      1.000000
  0.055556  0.055556  0.055556      2.000000
  0.138889  0.013889  0.013889      2.000000
  0.222222 -0.027778 -0.027778      2.000000
 -0.027778  0.097222  0.097222      2.000000
  0.097222  0.097222 -0.027778      2.000000
  0.180556  0.055556 -0.069444      2.000000
  0.263889  0.013889 -0.111111      2.000000
  0.013889  0.138889  0.013889      2.000000
  0.138889  0.138889 -0.111111      2.000000
  0.222222  0.097222 -0.152778      2.000000
  0.305556  0.055556 -0.194444      2.000000
  0.055556  0.180556 -0.069444      2.000000
  0.013889  0.013889  0.138889      2.000000
  0.097222 -0.027778  0.097222      2.000000
  0.180556 -0.069444  0.055556      2.000000
 -0.069444  0.055556  0.180556      2.000000
  0.111111  0.111111  0.111111      2.000000
  0.194444  0.069444  0.069444      2.000000
  0.277778  0.027778  0.027778      2.000000
  0.027778  0.152778  0.152778      2.000000
  0.152778  0.152778  0.027778      2.000000
  0.236111  0.111111 -0.013889      2.000000
  0.319444  0.069444 -0.055556      2.000000
  0.069444  0.194444  0.069444      2.000000
  0.194444  0.194444 -0.055556      2.000000
  0.277778  0.152778 -0.097222      2.000000
  0.361111  0.111111 -0.138889      2.000000
  0.111111  0.236111 -0.013889      2.000000
  0.069444  0.069444  0.194444      2.000000
  0.152778  0.027778  0.152778      2.000000
  0.236111 -0.013889  0.111111      2.000000
 -0.013889  0.111111  0.236111      2.000000
  0.166667  0.166667  0.166667      1.000000
  0.250000  0.125000  0.125000      2.000000
  0.333333  0.083333  0.083333      1.000000
  0.208333  0.208333  0.083333      2.000000
  0.291667  0.166667  0.041667      2.000000
  0.375000  0.125000 -0.000000      2.000000
  0.125000  0.250000  0.125000      2.000000
  0.250000  0.250000 -0.000000      1.000000
  0.333333  0.208333 -0.041667      2.000000
  0.416667  0.166667 -0.083333      1.000000
 
 TETIRR: Found    288 inequivalent tetrahedra from      576


--------------------------------------------------------------------------------------------------------




 Dimension of arrays:
   k-points           NKPTS =     52   k-points in BZ     NKDIM =     52   number of bands    NBANDS=    306
   number of dos      NEDOS =    301   number of ions     NIONS =     48
   non local maximal  LDIM  =      6   non local SUM 2l+1 LMDIM =     18
   total plane-waves  NPLWV = 307200
   max r-space proj   IRMAX =   8518   max aug-charges    IRDMAX=  20156
   dimension x,y,z NGX =    80 NGY =   80 NGZ =   48
   dimension x,y,z NGXF=   160 NGYF=  160 NGZF=   96
   support grid    NGXF=   160 NGYF=  160 NGZF=   96
   ions per type =              36  12
   NGX,Y,Z   is equivalent  to a cutoff of  13.15, 13.15, 12.89 a.u.
   NGXF,Y,Z  is equivalent  to a cutoff of  26.31, 26.31, 25.77 a.u.

 SYSTEM =  SQS-NiFe                                
 POSCAR =  POSCAR                                  

 Startparameter for this run:
   NWRITE =      2    write-flag & timer
   PREC   = accura    normal or accurate (medium, high low for compatibility)
   ISTART =      0    job   : 0-new  1-cont  2-samecut
   ICHARG =     11    charge: 1-file 2-atom 10-const
   ISPIN  =      2    spin polarized calculation?
   LNONCOLLINEAR =      F non collinear calculations
   LSORBIT =      F    spin-orbit coupling
   INIWAV =      1    electr: 0-lowe 1-rand  2-diag
   LASPH  =      F    aspherical Exc in radial PAW
   METAGGA=      F    non-selfconsistent MetaGGA calc.

 Electronic Relaxation 1
   ENCUT  =  520.0 eV  38.22 Ry    6.18 a.u.  18.80 18.80 11.51*2*pi/ulx,y,z
   ENINI  =  520.0     initial cutoff
   ENAUG  =  544.6 eV  augmentation charge cutoff
   NELM   =    200;   NELMIN=  2; NELMDL= -5     # of ELM steps 
   EDIFF  = 0.1E-05   stopping-criterion for ELM
   LREAL  =      T    real-space projection
   NLSPLINE    = F    spline interpolate recip. space projectors
   LCOMPAT=      F    compatible to vasp.4.4
   GGA_COMPAT  = T    GGA compatible to vasp.4.4-vasp.4.6
   LMAXPAW     = -100 max onsite density
   LMAXMIX     =    2 max onsite mixed and CHGCAR
   VOSKOWN=      0    Vosko Wilk Nusair interpolation
   ROPT   =   -0.00025  -0.00025
 Ionic relaxation
   EDIFFG = -.2E-01   stopping-criterion for IOM
   NSW    =      0    number of steps for IOM
   NBLOCK =      1;   KBLOCK =      1    inner block; outer block 
   IBRION =     -1    ionic relax: 0-MD 1-quasi-New 2-CG
   NFREE  =      0    steps in history (QN), initial steepest desc. (CG)
   ISIF   =      2    stress and relaxation
   IWAVPR =     10    prediction:  0-non 1-charg 2-wave 3-comb
   ISYM   =      0    0-nonsym 1-usesym 2-fastsym
   LCORR  =      T    Harris-Foulkes like correction to forces

   POTIM  = 0.5000    time-step for ionic-motion
   TEIN   =    0.0    initial temperature
   TEBEG  =    0.0;   TEEND  =   0.0 temperature during run
   SMASS  =  -3.00    Nose mass-parameter (am)
   estimated Nose-frequenzy (Omega)   =  0.10E-29 period in steps =****** mass=  -0.234E-26a.u.
   SCALEE = 1.0000    scale energy and forces
   NPACO  =    256;   APACO  = 16.0  distance and # of slots for P.C.
   PSTRESS=    0.0 pullay stress

  Mass of Ions in am
   POMASS =  55.85 58.69
  Ionic Valenz
   ZVAL   =   8.00 10.00
  Atomic Wigner-Seitz radii
   RWIGS  =  -1.00 -1.00
  virtual crystal weights 
   VCA    =   1.00  1.00
   NELECT =     408.0000    total number of electrons
   NUPDOWN=      -1.0000    fix difference up-down

 DOS related values:
   EMIN   =  10.00;   EMAX   =-10.00  energy-range for DOS
   EFERMI =   0.00
   ISMEAR =    -5;   SIGMA  =   0.20  broadening in eV -4-tet -1-fermi 0-gaus

 Electronic relaxation 2 (details)
   IALGO  =     68    algorithm
   LDIAG  =      T    sub-space diagonalisation (order eigenvalues)
   LSUBROT=      F    optimize rotation matrix (better conditioning)
   TURBO    =      0    0=normal 1=particle mesh
   IRESTART =      0    0=no restart 2=restart with 2 vectors
   NREBOOT  =      0    no. of reboots
   NMIN     =      0    reboot dimension
   EREF     =   0.00    reference energy to select bands
   IMIX   =      4    mixing-type and parameters
     AMIX     =   0.40;   BMIX     =  1.00
     AMIX_MAG =   1.60;   BMIX_MAG =  1.00
     AMIN     =   0.10
     WC   =   100.;   INIMIX=   1;  MIXPRE=   1;  MAXMIX= -45

 Intra band minimization:
   WEIMIN = 0.0000     energy-eigenvalue tresh-hold
   EBREAK =  0.82E-09  absolut break condition
   DEPER  =   0.30     relativ break condition  

   TIME   =   0.40     timestep for ELM

  volume/ion in A,a.u.               =      11.42        77.08
  Fermi-wavevector in a.u.,A,eV,Ry     =   1.483514  2.803436 29.943904  2.200815
  Thomas-Fermi vector in A             =   2.597166
 
 Write flags
   LWAVE        =      F    write WAVECAR
   LDOWNSAMPLE  =      F    k-point downsampling of WAVECAR
   LCHARG       =      F    write CHGCAR
   LVTOT        =      F    write LOCPOT, total local potential
   LVHAR        =      F    write LOCPOT, Hartree potential only
   LELF         =      F    write electronic localiz. function (ELF)
   LORBIT       =     11    0 simple, 1 ext, 2 COOP (PROOUT), +10 PAW based schemes


 Dipole corrections
   LMONO  =      F    monopole corrections only (constant potential shift)
   LDIPOL =      F    correct potential (dipole corrections)
   IDIPOL =      0    1-x, 2-y, 3-z, 4-all directions 
   EPSILON=  1.0000000 bulk dielectric constant

 Exchange correlation treatment:
   GGA     =    --    GGA type
   LEXCH   =     8    internal setting for exchange type
   VOSKOWN=      0    Vosko Wilk Nusair interpolation
   LHFCALC =     F    Hartree Fock is set to
   LHFONE  =     F    Hartree Fock one center treatment
   AEXX    =    0.0000 exact exchange contribution

 Linear response parameters
   LEPSILON=     F    determine dielectric tensor
   LRPA    =     F    only Hartree local field effects (RPA)
   LNABLA  =     F    use nabla operator in PAW spheres
   LVEL    =     F    velocity operator in full k-point grid
   LINTERFAST=   F  fast interpolation
   KINTER  =     0    interpolate to denser k-point grid
   CSHIFT  =0.1000    complex shift for real part using Kramers Kronig
   OMEGAMAX=  -1.0    maximum frequency
   DEG_THRESHOLD= 0.2000000E-02 threshold for treating states as degnerate
   RTIME   =   -0.100 relaxation time in fs
  (WPLASMAI=    0.000 imaginary part of plasma frequency in eV, 0.658/RTIME)
   DFIELD  = 0.0000000 0.0000000 0.0000000 field for delta impulse in time
 
 Orbital magnetization related:
   ORBITALMAG=     F  switch on orbital magnetization
   LCHIMAG   =     F  perturbation theory with respect to B field
   DQ        =  0.001000  dq finite difference perturbation B field
   LLRAUG    =     F  two centre corrections for induced B field



--------------------------------------------------------------------------------------------------------


 Static calculation
 charge density and potential remain constant during run
 spin polarized calculation
 RMM-DIIS sequential band-by-band and
  variant of blocked Davidson during initial phase
 perform sub-space diagonalisation
    before iterative eigenvector-optimisation
 no mixing
 using additional bands          102
 real space projection scheme for non local part
 use partial core corrections
 calculate Harris-corrections to forces 
   (improved forces if not selfconsistent)
 use gradient corrections 
 WARNING: stress and forces are not correct
  (second derivative of E(xc) not defined)
 use of overlap-Matrix (Vanderbilt PP)
 Fermi weights with tetrahedron method with Bloechl corrections


--------------------------------------------------------------------------------------------------------


  energy-cutoff  :      520.00
  volume of cell :      548.29
      direct lattice vectors                 reciprocal lattice vectors
     7.150000000 -7.150000000  0.000000000     0.093240093 -0.046620047 -0.046620047
     0.000000000  7.150000000 -7.150000000     0.046620047  0.046620047 -0.093240093
     3.575000000  3.575000000  3.575000000     0.093240093  0.093240093  0.093240093

  length of vectors
    10.111626971 10.111626971  6.192081637     0.114195326  0.114195326  0.161496579


 
 k-points in units of 2pi/SCALE and weight: read from INCAR                         
   0.00000000  0.00000000 -0.00000000       0.010
   0.08333333 -0.04166667 -0.04166667       0.021
   0.16666667 -0.08333333 -0.08333333       0.010
   0.04166667  0.04166667 -0.08333333       0.021
   0.12500000  0.00000000 -0.12500000       0.021
   0.20833333 -0.04166667 -0.16666667       0.021
  -0.04166667  0.08333333 -0.04166667       0.021
   0.08333333  0.08333333 -0.16666667       0.010
   0.16666667  0.04166667 -0.20833333       0.021
   0.25000000  0.00000000 -0.25000000       0.010
   0.05555556  0.05555556  0.05555556       0.021
   0.13888889  0.01388889  0.01388889       0.021
   0.22222222 -0.02777778 -0.02777778       0.021
  -0.02777778  0.09722222  0.09722222       0.021
   0.09722222  0.09722222 -0.02777778       0.021
   0.18055556  0.05555556 -0.06944444       0.021
   0.26388889  0.01388889 -0.11111111       0.021
   0.01388889  0.13888889  0.01388889       0.021
   0.13888889  0.13888889 -0.11111111       0.021
   0.22222222  0.09722222 -0.15277778       0.021
   0.30555556  0.05555556 -0.19444444       0.021
   0.05555556  0.18055556 -0.06944444       0.021
   0.01388889  0.01388889  0.13888889       0.021
   0.09722222 -0.02777778  0.09722222       0.021
   0.18055556 -0.06944444  0.05555556       0.021
  -0.06944444  0.05555556  0.18055556       0.021
   0.11111111  0.11111111  0.11111111       0.021
   0.19444444  0.06944444  0.06944444       0.021
   0.27777778  0.02777778  0.02777778       0.021
   0.02777778  0.15277778  0.15277778       0.021
   0.15277778  0.15277778  0.02777778       0.021
   0.23611111  0.11111111 -0.01388889       0.021
   0.31944444  0.06944444 -0.05555556       0.021
   0.06944444  0.19444444  0.06944444       0.021
   0.19444444  0.19444444 -0.05555556       0.021
   0.27777778  0.15277778 -0.09722222       0.021
   0.36111111  0.11111111 -0.13888889       0.021
   0.11111111  0.23611111 -0.01388889       0.021
   0.06944444  0.06944444  0.19444444       0.021
   0.15277778  0.02777778  0.15277778       0.021
   0.23611111 -0.01388889  0.11111111       0.021
  -0.01388889  0.11111111  0.23611111       0.021
   0.16666667  0.16666667  0.16666667       0.010
   0.25000000  0.12500000  0.12500000       0.021
   0.33333333  0.08333333  0.08333333       0.010
   0.20833333  0.20833333  0.08333333       0.021
   0.29166667  0.16666667  0.04166667       0.021
   0.37500000  0.12500000 -0.00000000       0.021
   0.12500000  0.25000000  0.12500000       0.021
   0.25000000  0.25000000 -0.00000000       0.010
   0.33333333  0.20833333 -0.04166667       0.021
   0.41666667  0.16666667 -0.08333333       0.010
 
 k-points in reciprocal lattice and weights: read from INCAR                         
   0.00000000  0.00000000  0.00000000       0.010
   0.25000000  0.00000000  0.00000000       0.021
   0.50000000  0.00000000  0.00000000       0.010
   0.00000000  0.25000000  0.00000000       0.021
   0.25000000  0.25000000  0.00000000       0.021
   0.50000000  0.25000000  0.00000000       0.021
  -0.25000000  0.25000000  0.00000000       0.021
   0.00000000  0.50000000  0.00000000       0.010
   0.25000000  0.50000000  0.00000000       0.021
   0.50000000  0.50000000  0.00000000       0.010
   0.00000000  0.00000000  0.16666667       0.021
   0.25000000  0.00000000  0.16666667       0.021
   0.50000000  0.00000000  0.16666667       0.021
  -0.25000000  0.00000000  0.16666667       0.021
   0.00000000  0.25000000  0.16666667       0.021
   0.25000000  0.25000000  0.16666667       0.021
   0.50000000  0.25000000  0.16666667       0.021
  -0.25000000  0.25000000  0.16666667       0.021
   0.00000000  0.50000000  0.16666667       0.021
   0.25000000  0.50000000  0.16666667       0.021
   0.50000000  0.50000000  0.16666667       0.021
  -0.25000000  0.50000000  0.16666667       0.021
   0.00000000 -0.25000000  0.16666667       0.021
   0.25000000 -0.25000000  0.16666667       0.021
   0.50000000 -0.25000000  0.16666667       0.021
  -0.25000000 -0.25000000  0.16666667       0.021
   0.00000000  0.00000000  0.33333333       0.021
   0.25000000  0.00000000  0.33333333       0.021
   0.50000000  0.00000000  0.33333333       0.021
  -0.25000000  0.00000000  0.33333333       0.021
   0.00000000  0.25000000  0.33333333       0.021
   0.25000000  0.25000000  0.33333333       0.021
   0.50000000  0.25000000  0.33333333       0.021
  -0.25000000  0.25000000  0.33333333       0.021
   0.00000000  0.50000000  0.33333333       0.021
   0.25000000  0.50000000  0.33333333       0.021
   0.50000000  0.50000000  0.33333333       0.021
  -0.25000000  0.50000000  0.33333333       0.021
   0.00000000 -0.25000000  0.33333333       0.021
   0.25000000 -0.25000000  0.33333333       0.021
   0.50000000 -0.25000000  0.33333333       0.021
  -0.25000000 -0.25000000  0.33333333       0.021
   0.00000000  0.00000000  0.50000000       0.010
   0.25000000  0.00000000  0.50000000       0.021
   0.50000000  0.00000000  0.50000000       0.010
   0.00000000  0.25000000  0.50000000       0.021
   0.25000000  0.25000000  0.50000000       0.021
   0.50000000  0.25000000  0.50000000       0.021
  -0.25000000  0.25000000  0.50000000       0.021
   0.00000000  0.50000000  0.50000000       0.010
   0.25000000  0.50000000  0.50000000       0.021
   0.50000000  0.50000000  0.50000000       0.010
 
 position of ions in fractional coordinates (direct lattice) 
   0.00097296  0.99655494  0.99683677
   0.50017285  0.99897494  0.99777747
   0.74986045  0.99500153  0.00381461
   0.24807617  0.24401975  0.99387951
   0.08021590  0.16778852  0.33129701
   0.33388435  0.16431674  0.32438362
   0.16484373  0.08519595  0.66135872
   0.58979005  0.17105250  0.32730500
   0.41554765  0.08570555  0.66351962
   0.83344040  0.16624240  0.33344671
   0.66391819  0.08530033  0.66680559
   0.99218702  0.49367044  0.00021167
   0.24140787  0.49317872  0.99631271
   0.49790271  0.49720158  0.00080615
   0.33009896  0.42033008  0.33259403
   0.75050802  0.49690390  0.01159470
   0.58252974  0.41586999  0.33773167
   0.41582499  0.33861426  0.66452290
   0.83790933  0.41837985  0.34433695
   0.67266701  0.33791988  0.67581651
   0.00084171  0.74579377  0.99035693
   0.24444197  0.74887082  0.99308398
   0.08312044  0.66461109  0.32811727
   0.49508369  0.74573769  0.00115130
   0.33630361  0.67087361  0.33362137
   0.16357104  0.58128905  0.65766406
   0.75522684  0.74894067  0.00892825
   0.59002651  0.66999623  0.34016277
   0.84383673  0.67051590  0.34297856
   0.66924571  0.58743458  0.67647253
   0.92020678  0.58981289  0.67588583
   0.08624960  0.91776965  0.32365347
   0.33911061  0.91532353  0.33100260
   0.16178261  0.83271041  0.66048336
   0.66455361  0.83739942  0.67025466
   0.91543532  0.83841864  0.66804015
   0.25037806  0.99756732  0.99200367
   0.99647468  0.24515337  0.00100602
   0.50085520  0.24786795  0.99489461
   0.75024686  0.24723601  0.00031445
   0.91778521  0.08890886  0.67014888
   0.08076263  0.41436892  0.33241388
   0.16502292  0.33304699  0.66369182
   0.91635282  0.33378025  0.66751298
   0.41399907  0.58347506  0.66809828
   0.58626670  0.91812650  0.33660369
   0.41637057  0.83259081  0.66621067
   0.83469015  0.92015815  0.34089205
 
 position of ions in cartesian coordinates  (Angst):
   3.57064815 10.68210257 -3.56167636
   7.14329031  7.13348945 -3.57561637
   5.37513943  1.76639597 -7.10062366
   5.32686384  3.52411585  1.80837802
   1.75793047  1.81053108 -0.01530112
   3.54694453 -0.05273700 -0.01519322
   3.54299011  1.79487571  1.75520640
   5.38711424 -1.82385810 -0.05291001
   5.34324831  0.01371168  1.75928794
   7.15117090 -3.57839373  0.00343884
   7.13084504 -1.75328766  1.77393260
   7.09489392 -3.56363690 -3.52898690
   5.28788419  5.36197953  0.03559013
   3.56288638 -0.00213105 -3.55210932
   3.54923126  1.83417617 -1.81633643
   5.40758342 -1.77181839 -3.51141185
   5.37247834  0.01577356 -1.76607973
   5.34881802  1.82361266 -0.04542258
   7.22205631 -1.76863119 -1.76041135
   7.22561315  0.02260203 -0.00008313
   3.54654426  8.86693329 -1.79189945
   5.29803534  7.15694145 -1.80415113
   1.76733039  5.33067736 -3.57895005
   3.54396430  1.79629197 -5.32790857
   3.59726723  3.58487185 -3.60404990
   3.52068196  5.33783274 -1.80506769
   5.43179039 -0.01302758 -5.32300732
   5.43477143  1.78786548 -3.57439116
   7.25958093 -0.01309560 -3.56804031
   7.20349613  1.83343965 -1.78176793
   8.99577029  0.05397554 -1.80087035
   1.77374575  7.10242954 -5.40499186
   3.60797515  5.30325668 -5.36122897
   3.51797366  7.15836182 -3.59265145
   7.14771875  3.63200793 -3.59124547
   8.93360610  1.83757426 -3.60644973
   5.33661627  8.88881634 -3.58619321
   7.12839045 -5.36835081 -1.74925010
   7.13786290  1.74788938  1.78449242
   5.36538922 -3.59540344 -1.76661327
   8.95794651 -3.53068368  1.76008387
   1.76583240  3.57366463 -1.77435820
   3.55261213  3.57407035 -0.00858770
   8.93828161 -1.77903497 -0.00016989
   5.34854466  3.60020469 -1.78339533
   5.39516510  3.57615573 -5.36124628
   5.35875270  5.35767789 -3.57132119
   7.18672366  1.82978525 -5.36044167
 


--------------------------------------------------------------------------------------------------------


 k-point  1 :   0.0000 0.0000 0.0000  plane waves:   14789
 k-point  2 :   0.2500 0.0000 0.0000  plane waves:   14769
 k-point  3 :   0.5000 0.0000 0.0000  plane waves:   14782
 k-point  4 :   0.0000 0.2500 0.0000  plane waves:   14769
 k-point  5 :   0.2500 0.2500 0.0000  plane waves:   14801
 k-point  6 :   0.5000 0.2500 0.0000  plane waves:   14801
 k-point  7 :  -0.2500 0.2500 0.0000  plane waves:   14769
 k-point  8 :   0.0000 0.5000 0.0000  plane waves:   14782
 k-point  9 :   0.2500 0.5000 0.0000  plane waves:   14801
 k-point 10 :   0.5000 0.5000 0.0000  plane waves:   14782
 k-point 11 :   0.0000 0.0000 0.1667  plane waves:   14765
 k-point 12 :   0.2500 0.0000 0.1667  plane waves:   14763
 k-point 13 :   0.5000 0.0000 0.1667  plane waves:   14780
 k-point 14 :  -0.2500 0.0000 0.1667  plane waves:   14763
 k-point 15 :   0.0000 0.2500 0.1667  plane waves:   14763
 k-point 16 :   0.2500 0.2500 0.1667  plane waves:   14780
 k-point 17 :   0.5000 0.2500 0.1667  plane waves:   14780
 k-point 18 :  -0.2500 0.2500 0.1667  plane waves:   14763
 k-point 19 :   0.0000 0.5000 0.1667  plane waves:   14780
 k-point 20 :   0.2500 0.5000 0.1667  plane waves:   14780
 k-point 21 :   0.5000 0.5000 0.1667  plane waves:   14780
 k-point 22 :  -0.2500 0.5000 0.1667  plane waves:   14780
 k-point 23 :   0.0000-0.2500 0.1667  plane waves:   14763
 k-point 24 :   0.2500-0.2500 0.1667  plane waves:   14763
 k-point 25 :   0.5000-0.2500 0.1667  plane waves:   14780
 k-point 26 :  -0.2500-0.2500 0.1667  plane waves:   14780
 k-point 27 :   0.0000 0.0000 0.3333  plane waves:   14771
 k-point 28 :   0.2500 0.0000 0.3333  plane waves:   14748
 k-point 29 :   0.5000 0.0000 0.3333  plane waves:   14746
 k-point 30 :  -0.2500 0.0000 0.3333  plane waves:   14748
 k-point 31 :   0.0000 0.2500 0.3333  plane waves:   14748
 k-point 32 :   0.2500 0.2500 0.3333  plane waves:   14766
 k-point 33 :   0.5000 0.2500 0.3333  plane waves:   14766
 k-point 34 :  -0.2500 0.2500 0.3333  plane waves:   14748
 k-point 35 :   0.0000 0.5000 0.3333  plane waves:   14746
 k-point 36 :   0.2500 0.5000 0.3333  plane waves:   14766
 k-point 37 :   0.5000 0.5000 0.3333  plane waves:   14746
 k-point 38 :  -0.2500 0.5000 0.3333  plane waves:   14766
 k-point 39 :   0.0000-0.2500 0.3333  plane waves:   14748
 k-point 40 :   0.2500-0.2500 0.3333  plane waves:   14748
 k-point 41 :   0.5000-0.2500 0.3333  plane waves:   14766
 k-point 42 :  -0.2500-0.2500 0.3333  plane waves:   14766
 k-point 43 :   0.0000 0.0000 0.5000  plane waves:   14748
 k-point 44 :   0.2500 0.0000 0.5000  plane waves:   14748
 k-point 45 :   0.5000 0.0000 0.5000  plane waves:   14748
 k-point 46 :   0.0000 0.2500 0.5000  plane waves:   14748
 k-point 47 :   0.2500 0.2500 0.5000  plane waves:   14734
 k-point 48 :   0.5000 0.2500 0.5000  plane waves:   14734
 k-point 49 :  -0.2500 0.2500 0.5000  plane waves:   14748
 k-point 50 :   0.0000 0.5000 0.5000  plane waves:   14748
 k-point 51 :   0.2500 0.5000 0.5000  plane waves:   14734
 k-point 52 :   0.5000 0.5000 0.5000  plane waves:   14748

 maximum and minimum number of plane-waves per node :       955      887

 maximum number of plane-waves:     14801
 maximum index in each direction: 
   IXMAX=   19   IYMAX=   19   IZMAX=   11
   IXMIN=  -19   IYMIN=  -19   IZMIN=  -12


 real space projection operators:
  total allocation   :      53222.62 KBytes
  max/ min on nodes  :       3334.50       3315.94


 parallel 3D FFT for wavefunctions:
    minimum data exchange during FFTs selected (reduces bandwidth)
 parallel 3D FFT for charge:
    minimum data exchange during FFTs selected (reduces bandwidth)


 total amount of memory used by VASP MPI-rank0   221372. kBytes
=======================================================================

   base      :      30000. kBytes
   nonlr-proj:      11049. kBytes
   fftplans  :       2600. kBytes
   grid      :       6545. kBytes
   one-center:         93. kBytes
   wavefun   :     171085. kBytes
 
     INWAV:  cpu time    0.0000: real time    0.0002
 initial charge density was supplied:
 number of electron     408.0000019 magnetization      91.5523818
 keeping initial charge density in first step


--------------------------------------------------------------------------------------------------------


 Maximum index for non-local projection operator          591
 Maximum index for augmentation-charges         1174 (set IRDMAX)


--------------------------------------------------------------------------------------------------------


 First call to EWALD:  gamma=   0.217
 Maximum number of real-space cells 3x 3x 3
 Maximum number of reciprocal cells 3x 3x 2

    FEWALD:  cpu time    0.0030: real time    0.0021


--------------------------------------- Iteration      1(   1)  ---------------------------------------


    POTLOK:  cpu time    0.1080: real time    0.1160
    SETDIJ:  cpu time    0.0160: real time    0.0170
     EDDAV:  cpu time   96.5883: real time   97.7377
 BZINTS: Fermi energy: 20.473961;408.000000 electrons
         Band energy:5747.724016;  BLOECHL correction: -0.033417
       DOS:  cpu time    0.4419: real time    0.4431
    --------------------------------------------
      LOOP:  cpu time   97.1542: real time   98.3138

 eigenvalue-minimisations  : 63666
 total energy-change (2. order) : 0.3638778E+04  (-0.1648267E+05)
 number of electron     408.0000019 magnetization      91.5523818
 augmentation part      408.0000019 magnetization      91.5523818

 Free energy of the ion-electron system (eV)
  ---------------------------------------------------
  alpha Z        PSCENC =      2769.74827871
  Ewald energy   TEWEN  =    -32030.89420778
  -Hartree energ DENC   =     -6548.90834650
  -exchange      EXHF   =         0.00000000
  -V(xc)+E(xc)   XCENC  =       528.03137383
  PAW double counting   =     39502.08955942   -40656.32041008
  entropy T*S    EENTRO =         0.00000000
  eigenvalues    EBANDS =      5747.72401558
  atomic energy  EATOM  =     34327.30753815
  Solvation  Ediel_sol  =         0.00000000
  ---------------------------------------------------
  free energy    TOTEN  =      3638.77780133 eV

  energy without entropy =     3638.77780133  energy(sigma->0) =     3638.77780133


--------------------------------------------------------------------------------------------------------




--------------------------------------- Iteration      1(   2)  ---------------------------------------


     EDDAV:  cpu time   93.9087: real time   96.2378
 BZINTS: Fermi energy:  8.590989;408.000000 electrons
         Band energy:2231.944346;  BLOECHL correction: -0.013412
       DOS:  cpu time    0.4519: real time    0.4578
    --------------------------------------------
      LOOP:  cpu time   94.3607: real time   96.6955

 eigenvalue-minimisations  : 63648
 total energy-change (2. order) :-0.3515780E+04  (-0.3301708E+04)
 number of electron     408.0000019 magnetization      91.5523818
 augmentation part      408.0000019 magnetization      91.5523818

 Free energy of the ion-electron system (eV)
  ---------------------------------------------------
  alpha Z        PSCENC =      2769.74827871
  Ewald energy   TEWEN  =    -32030.89420778
  -Hartree energ DENC   =     -6548.90834650
  -exchange      EXHF   =         0.00000000
  -V(xc)+E(xc)   XCENC  =       528.03137383
  PAW double counting   =     39502.08955942   -40656.32041008
  entropy T*S    EENTRO =         0.00000000
  eigenvalues    EBANDS =      2231.94434618
  atomic energy  EATOM  =     34327.30753815
  Solvation  Ediel_sol  =         0.00000000
  ---------------------------------------------------
  free energy    TOTEN  =       122.99813193 eV

  energy without entropy =      122.99813193  energy(sigma->0) =      122.99813193


--------------------------------------------------------------------------------------------------------




--------------------------------------- Iteration      1(   3)  ---------------------------------------


     EDDAV:  cpu time   94.2877: real time   97.0768
 BZINTS: Fermi energy:  6.704673;408.000000 electrons
         Band energy:1776.964216;  BLOECHL correction: -0.028960
       DOS:  cpu time    0.4319: real time    0.4375
    --------------------------------------------
      LOOP:  cpu time   94.7196: real time   97.5143

 eigenvalue-minimisations  : 63648
 total energy-change (2. order) :-0.4549801E+03  (-0.3510325E+03)
 number of electron     408.0000019 magnetization      91.5523818
 augmentation part      408.0000019 magnetization      91.5523818

 Free energy of the ion-electron system (eV)
  ---------------------------------------------------
  alpha Z        PSCENC =      2769.74827871
  Ewald energy   TEWEN  =    -32030.89420778
  -Hartree energ DENC   =     -6548.90834650
  -exchange      EXHF   =         0.00000000
  -V(xc)+E(xc)   XCENC  =       528.03137383
  PAW double counting   =     39502.08955942   -40656.32041008
  entropy T*S    EENTRO =         0.00000000
  eigenvalues    EBANDS =      1776.96421558
  atomic energy  EATOM  =     34327.30753815
  Solvation  Ediel_sol  =         0.00000000
  ---------------------------------------------------
  free energy    TOTEN  =      -331.98199867 eV

  energy without entropy =     -331.98199867  energy(sigma->0) =     -331.98199867


--------------------------------------------------------------------------------------------------------




--------------------------------------- Iteration      1(   4)  ---------------------------------------


     EDDAV:  cpu time  100.1238: real time  102.6987
 BZINTS: Fermi energy:  6.635168;408.000000 electrons
         Band energy:1750.626398;  BLOECHL correction: -0.031222
       DOS:  cpu time    0.4139: real time    0.4222
    --------------------------------------------
      LOOP:  cpu time  100.5377: real time  103.1209

 eigenvalue-minimisations  : 67671
 total energy-change (2. order) :-0.2633782E+02  (-0.2535056E+02)
 number of electron     408.0000019 magnetization      91.5523818
 augmentation part      408.0000019 magnetization      91.5523818

 Free energy of the ion-electron system (eV)
  ---------------------------------------------------
  alpha Z        PSCENC =      2769.74827871
  Ewald energy   TEWEN  =    -32030.89420778
  -Hartree energ DENC   =     -6548.90834650
  -exchange      EXHF   =         0.00000000
  -V(xc)+E(xc)   XCENC  =       528.03137383
  PAW double counting   =     39502.08955942   -40656.32041008
  entropy T*S    EENTRO =         0.00000000
  eigenvalues    EBANDS =      1750.62639794
  atomic energy  EATOM  =     34327.30753815
  Solvation  Ediel_sol  =         0.00000000
  ---------------------------------------------------
  free energy    TOTEN  =      -358.31981631 eV

  energy without entropy =     -358.31981631  energy(sigma->0) =     -358.31981631


--------------------------------------------------------------------------------------------------------




--------------------------------------- Iteration      1(   5)  ---------------------------------------


     EDDAV:  cpu time  100.1048: real time  102.3883
 BZINTS: Fermi energy:  6.634389;408.000000 electrons
         Band energy:1750.321971;  BLOECHL correction: -0.031254
       DOS:  cpu time    0.4109: real time    0.4114
    --------------------------------------------
      LOOP:  cpu time  100.5157: real time  102.7998

 eigenvalue-minimisations  : 69660
 total energy-change (2. order) :-0.3044271E+00  (-0.3040294E+00)
 number of electron     408.0000019 magnetization      91.5523818
 augmentation part      408.0000019 magnetization      91.5523818

 Free energy of the ion-electron system (eV)
  ---------------------------------------------------
  alpha Z        PSCENC =      2769.74827871
  Ewald energy   TEWEN  =    -32030.89420778
  -Hartree energ DENC   =     -6548.90834650
  -exchange      EXHF   =         0.00000000
  -V(xc)+E(xc)   XCENC  =       528.03137383
  PAW double counting   =     39502.08955942   -40656.32041008
  entropy T*S    EENTRO =         0.00000000
  eigenvalues    EBANDS =      1750.32197087
  atomic energy  EATOM  =     34327.30753815
  Solvation  Ediel_sol  =         0.00000000
  ---------------------------------------------------
  free energy    TOTEN  =      -358.62424338 eV

  energy without entropy =     -358.62424338  energy(sigma->0) =     -358.62424338


--------------------------------------------------------------------------------------------------------




--------------------------------------- Iteration      1(   6)  ---------------------------------------


    EDDIAG:  cpu time   13.8289: real time   13.8925
  RMM-DIIS:  cpu time   52.4440: real time   52.7430
    ORTHCH:  cpu time    2.3466: real time    2.3537
 BZINTS: Fermi energy:  6.634366;408.000000 electrons
         Band energy:1750.312256;  BLOECHL correction: -0.031256
       DOS:  cpu time    0.4019: real time    0.4048
    --------------------------------------------
      LOOP:  cpu time   69.0215: real time   69.3940

 eigenvalue-minimisations  : 66768
 total energy-change (2. order) :-0.9715165E-02  (-0.9714086E-02)
 number of electron     408.0000019 magnetization      91.5523818
 augmentation part      408.0000019 magnetization      91.5523818

 Free energy of the ion-electron system (eV)
  ---------------------------------------------------
  alpha Z        PSCENC =      2769.74827871
  Ewald energy   TEWEN  =    -32030.89420778
  -Hartree energ DENC   =     -6548.90834650
  -exchange      EXHF   =         0.00000000
  -V(xc)+E(xc)   XCENC  =       528.03137383
  PAW double counting   =     39502.08955942   -40656.32041008
  entropy T*S    EENTRO =         0.00000000
  eigenvalues    EBANDS =      1750.31225571
  atomic energy  EATOM  =     34327.30753815
  Solvation  Ediel_sol  =         0.00000000
  ---------------------------------------------------
  free energy    TOTEN  =      -358.63395854 eV

  energy without entropy =     -358.63395854  energy(sigma->0) =     -358.63395854


--------------------------------------------------------------------------------------------------------




--------------------------------------- Iteration      1(   7)  ---------------------------------------


    EDDIAG:  cpu time   14.1409: real time   14.2042
  RMM-DIIS:  cpu time   77.4362: real time   78.2491
    ORTHCH:  cpu time    2.3746: real time    2.4030
 BZINTS: Fermi energy:  6.634359;408.000000 electrons
         Band energy:1750.309248;  BLOECHL correction: -0.031256
       DOS:  cpu time    0.4109: real time    0.4130
    --------------------------------------------
      LOOP:  cpu time   94.3627: real time   95.2693

 eigenvalue-minimisations  : 97757
 total energy-change (2. order) :-0.3007610E-02  (-0.2997456E-02)
 number of electron     408.0000019 magnetization      91.5523818
 augmentation part      408.0000019 magnetization      91.5523818

 Free energy of the ion-electron system (eV)
  ---------------------------------------------------
  alpha Z        PSCENC =      2769.74827871
  Ewald energy   TEWEN  =    -32030.89420778
  -Hartree energ DENC   =     -6548.90834650
  -exchange      EXHF   =         0.00000000
  -V(xc)+E(xc)   XCENC  =       528.03137383
  PAW double counting   =     39502.08955942   -40656.32041008
  entropy T*S    EENTRO =         0.00000000
  eigenvalues    EBANDS =      1750.30924810
  atomic energy  EATOM  =     34327.30753815
  Solvation  Ediel_sol  =         0.00000000
  ---------------------------------------------------
  free energy    TOTEN  =      -358.63696615 eV

  energy without entropy =     -358.63696615  energy(sigma->0) =     -358.63696615


--------------------------------------------------------------------------------------------------------




--------------------------------------- Iteration      1(   8)  ---------------------------------------


    EDDIAG:  cpu time   14.8177: real time   14.9788
  RMM-DIIS:  cpu time   75.4735: real time   76.5906
    ORTHCH:  cpu time    2.4346: real time    2.4455
 BZINTS: Fermi energy:  6.634359;408.000000 electrons
         Band energy:1750.309231;  BLOECHL correction: -0.031256
       DOS:  cpu time    0.3929: real time    0.3933
    --------------------------------------------
      LOOP:  cpu time   93.1188: real time   94.4081

 eigenvalue-minimisations  : 89444
 total energy-change (2. order) :-0.1703513E-04  (-0.3188085E-04)
 number of electron     408.0000019 magnetization      91.5523818
 augmentation part      408.0000019 magnetization      91.5523818

 Free energy of the ion-electron system (eV)
  ---------------------------------------------------
  alpha Z        PSCENC =      2769.74827871
  Ewald energy   TEWEN  =    -32030.89420778
  -Hartree energ DENC   =     -6548.90834650
  -exchange      EXHF   =         0.00000000
  -V(xc)+E(xc)   XCENC  =       528.03137383
  PAW double counting   =     39502.08955942   -40656.32041008
  entropy T*S    EENTRO =         0.00000000
  eigenvalues    EBANDS =      1750.30923106
  atomic energy  EATOM  =     34327.30753815
  Solvation  Ediel_sol  =         0.00000000
  ---------------------------------------------------
  free energy    TOTEN  =      -358.63698319 eV

  energy without entropy =     -358.63698319  energy(sigma->0) =     -358.63698319


--------------------------------------------------------------------------------------------------------




--------------------------------------- Iteration      1(   9)  ---------------------------------------


    EDDIAG:  cpu time   14.6638: real time   14.7377
  RMM-DIIS:  cpu time   67.3568: real time   68.0018
    ORTHCH:  cpu time    2.4176: real time    2.4400
 BZINTS: Fermi energy:  6.634359;408.000000 electrons
         Band energy:1750.309228;  BLOECHL correction: -0.031256
       DOS:  cpu time    0.4019: real time    0.4027
    --------------------------------------------
      LOOP:  cpu time   84.8401: real time   85.5822

 eigenvalue-minimisations  : 77852
 total energy-change (2. order) :-0.3341629E-05  (-0.3328143E-05)
 number of electron     408.0000019 magnetization      91.5523818
 augmentation part      408.0000019 magnetization      91.5523818

 Free energy of the ion-electron system (eV)
  ---------------------------------------------------
  alpha Z        PSCENC =      2769.74827871
  Ewald energy   TEWEN  =    -32030.89420778
  -Hartree energ DENC   =     -6548.90834650
  -exchange      EXHF   =         0.00000000
  -V(xc)+E(xc)   XCENC  =       528.03137383
  PAW double counting   =     39502.08955942   -40656.32041008
  entropy T*S    EENTRO =         0.00000000
  eigenvalues    EBANDS =      1750.30922772
  atomic energy  EATOM  =     34327.30753815
  Solvation  Ediel_sol  =         0.00000000
  ---------------------------------------------------
  free energy    TOTEN  =      -358.63698653 eV

  energy without entropy =     -358.63698653  energy(sigma->0) =     -358.63698653


--------------------------------------------------------------------------------------------------------




--------------------------------------- Iteration      1(  10)  ---------------------------------------


    EDDIAG:  cpu time   14.8627: real time   14.9981
  RMM-DIIS:  cpu time   39.1550: real time   39.4550
    ORTHCH:  cpu time    2.4156: real time    2.4257
 BZINTS: Fermi energy:  6.634359;408.000000 electrons
         Band energy:1750.309228;  BLOECHL correction: -0.031256
       DOS:  cpu time    0.4109: real time    0.4109
    --------------------------------------------
      LOOP:  cpu time   56.8444: real time   57.2898

 eigenvalue-minimisations  : 43378
 total energy-change (2. order) :-0.1825756E-06  (-0.1834875E-06)
 number of electron     408.0000019 magnetization      91.5523818
 augmentation part      408.0000019 magnetization      91.5523818

 Free energy of the ion-electron system (eV)
  ---------------------------------------------------
  alpha Z        PSCENC =      2769.74827871
  Ewald energy   TEWEN  =    -32030.89420778
  -Hartree energ DENC   =     -6548.90834650
  -exchange      EXHF   =         0.00000000
  -V(xc)+E(xc)   XCENC  =       528.03137383
  PAW double counting   =     39502.08955942   -40656.32041008
  entropy T*S    EENTRO =         0.00000000
  eigenvalues    EBANDS =      1750.30922754
  atomic energy  EATOM  =     34327.30753815
  Solvation  Ediel_sol  =         0.00000000
  ---------------------------------------------------
  free energy    TOTEN  =      -358.63698671 eV

  energy without entropy =     -358.63698671  energy(sigma->0) =     -358.63698671


--------------------------------------------------------------------------------------------------------




 average (electrostatic) potential at core
  the test charge radii are     1.0103  0.9791
  (the norm of the test charge is              1.0000)
       1 -42.6246       2 -42.6452       3 -42.6373       4 -42.5658       5 -42.6879
       6 -42.5740       7 -42.5653       8 -42.5866       9 -42.5886      10 -42.6966
      11 -42.5857      12 -42.6614      13 -42.6718      14 -42.5898      15 -42.6068
      16 -42.5787      17 -42.5475      18 -42.5850      19 -42.5632      20 -42.6515
      21 -42.6406      22 -42.5969      23 -42.5317      24 -42.5996      25 -42.5569
      26 -42.6777      27 -42.5655      28 -42.6308      29 -42.6111      30 -42.5516
      31 -42.6859      32 -42.5861      33 -42.5507      34 -42.6128      35 -42.6073
      36 -42.5397      37 -84.7869      38 -84.8036      39 -84.7863      40 -84.7708
      41 -84.7970      42 -84.7354      43 -84.7820      44 -84.7929      45 -84.7179
      46 -84.7296      47 -84.7244      48 -84.8001
 
 
 
 E-fermi :   6.6344     XC(G=0): -13.0502     alpha+bet :-14.0976


 spin component 1

 k-point     1 :       0.0000    0.0000    0.0000
  band No.  band energies     occupation 
      1      -1.9984      1.00000
      2      -0.1431      1.00000
      3      -0.0691      1.00000
      4      -0.0550      1.00000
      5      -0.0199      1.00000
      6       0.0492      1.00000
      7       0.0585      1.00000
      8       1.1710      1.00000
      9       1.1950      1.00000
     10       1.5992      1.00000
     11       1.6426      1.00000
     12       1.7006      1.00000
     13       1.9769      1.00000
     14       2.0029      1.00000
     15       2.0222      1.00000
     16       2.0494      1.00000
     17       2.0606      1.00000
     18       2.0895      1.00000
     19       2.1202      1.00000
     20       2.1529      1.00000
     21       2.1857      1.00000
     22       2.2130      1.00000
     23       2.2304      1.00000
     24       2.2430      1.00000
     25       2.2547      1.00000
     26       2.2765      1.00000
     27       2.3045      1.00000
     28       2.4110      1.00000
     29       2.4180      1.00000
     30       2.4229      1.00000
     31       2.4354      1.00000
     32       2.4486      1.00000
     33       2.4549      1.00000
     34       2.4668      1.00000
     35       2.4733      1.00000
     36       2.4901      1.00000
     37       2.5033      1.00000
     38       2.5061      1.00000
     39       2.5153      1.00000
     40       2.5209      1.00000
     41       2.5284      1.00000
     42       2.5309      1.00000
     43       2.5360      1.00000
     44       2.5483      1.00000
     45       2.5574      1.00000
     46       2.5685      1.00000
     47       2.5741      1.00000
     48       2.5911      1.00000
     49       2.6010      1.00000
     50       2.6245      1.00000
     51       2.6405      1.00000
     52       2.8419      1.00000
     53       2.8692      1.00000
     54       2.8811      1.00000
     55       2.8943      1.00000
     56       2.9026      1.00000
     57       2.9121      1.00000
     58       2.9210      1.00000
     59       2.9255      1.00000
     60       2.9296      1.00000
     61       2.9383      1.00000
     62       2.9393      1.00000
     63       2.9616      1.00000
     64       2.9667      1.00000
     65       2.9838      1.00000
     66       2.9864      1.00000
     67       3.0126      1.00000
     68       3.0396      1.00000
     69       3.0452      1.00000
     70       3.4265      1.00000
     71       3.4527      1.00000
     72       3.4569      1.00000
     73       3.4601      1.00000
     74       3.4777      1.00000
     75       3.4839      1.00000
     76       3.4943      1.00000
     77       3.5067      1.00000
     78       3.5222      1.00000
     79       3.5280      1.00000
     80       3.5334      1.00000
     81       3.5423      1.00000
     82       3.5482      1.00000
     83       3.5586      1.00000
     84       3.5926      1.00000
     85       3.5963      1.00000
     86       3.6095      1.00000
     87       3.6158      1.00000
     88       3.6319      1.00000
     89       3.6431      1.00000
     90       3.6549      1.00000
     91       3.6645      1.00000
     92       3.6724      1.00000
     93       3.6848      1.00000
     94       3.6944      1.00000
     95       3.7011      1.00000
     96       3.7124      1.00000
     97       3.7208      1.00000
     98       3.7248      1.00000
     99       3.7324      1.00000
    100       3.7394      1.00000
    101       3.7561      1.00000
    102       3.7797      1.00000
    103       3.7993      1.00000
    104       3.8087      1.00000
    105       3.8357      1.00000
    106       4.1234      1.00000
    107       4.1511      1.00000
    108       4.1606      1.00000
    109       4.1650      1.00000
    110       4.1770      1.00000
    111       4.1782      1.00000
    112       4.1820      1.00000
    113       4.1901      1.00000
    114       4.1949      1.00000
    115       4.2043      1.00000
    116       4.2171      1.00000
    117       4.2299      1.00000
    118       4.2322      1.00000
    119       4.2438      1.00000
    120       4.2533      1.00000
    121       4.2623      1.00000
    122       4.2677      1.00000
    123       4.2832      1.00000
    124       4.2998      1.00000
    125       4.3068      1.00000
    126       4.3170      1.00000
    127       4.3244      1.00000
    128       4.3336      1.00000
    129       4.3460      1.00000
    130       4.3527      1.00000
    131       4.3674      1.00000
    132       4.3717      1.00000
    133       4.3898      1.00000
    134       4.3982      1.00000
    135       4.4059      1.00000
    136       4.4102      1.00000
    137       4.4205      1.00000
    138       4.4300      1.00000
    139       4.4372      1.00000
    140       4.4442      1.00000
    141       4.4540      1.00000
    142       4.4636      1.00000
    143       4.4774      1.00000
    144       4.4916      1.00000
    145       4.4966      1.00000
    146       4.5088      1.00000
    147       4.5231      1.00000
    148       4.5253      1.00000
    149       4.5414      1.00000
    150       4.5503      1.00000
    151       4.5635      1.00000
    152       4.6179      1.00000
    153       4.6346      1.00000
    154       4.6499      1.00000
    155       4.7155      1.00000
    156       4.7403      1.00000
    157       4.7654      1.00000
    158       4.7755      1.00000
    159       4.7856      1.00000
    160       4.7906      1.00000
    161       4.7999      1.00000
    162       4.8082      1.00000
    163       4.8181      1.00000
    164       4.8231      1.00000
    165       4.8676      1.00000
    166       4.8967      1.00000
    167       4.9107      1.00000
    168       4.9250      1.00000
    169       5.1157      1.00000
    170       5.1277      1.00000
    171       5.1553      1.00000
    172       5.1602      1.00000
    173       5.1626      1.00000
    174       5.1719      1.00000
    175       5.1893      1.00000
    176       5.1916      1.00000
    177       5.1971      1.00000
    178       5.2072      1.00000
    179       5.2181      1.00000
    180       5.2239      1.00000
    181       5.2364      1.00000
    182       5.2399      1.00000
    183       5.2522      1.00000
    184       5.2599      1.00000
    185       5.2637      1.00000
    186       5.2699      1.00000
    187       5.2769      1.00000
    188       5.2891      1.00000
    189       5.2940      1.00000
    190       5.3055      1.00000
    191       5.3125      1.00000
    192       5.3251      1.00000
    193       5.3283      1.00000
    194       5.3330      1.00000
    195       5.3371      1.00000
    196       5.3657      1.00000
    197       5.3837      1.00000
    198       5.3860      1.00000
    199       5.3969      1.00000
    200       5.4133      1.00000
    201       5.4438      1.00000
    202       5.4523      1.00000
    203       5.4725      1.00000
    204       5.4742      1.00000
    205       5.5027      1.00000
    206       5.5097      1.00000
    207       5.5227      1.00000
    208       5.5756      1.00000
    209       5.5831      1.00000
    210       5.5978      1.00000
    211       5.6896      1.00000
    212       5.7367      1.00000
    213       5.7643      1.00000
    214       5.7952      1.00000
    215       5.8268      1.00000
    216       5.8364      1.00000
    217       6.0008      1.00000
    218       6.0229      1.00000
    219       6.0439      1.00000
    220       6.0583      1.00000
    221       6.0735      1.00000
    222       6.0871      1.00000
    223       6.0941      1.00000
    224       6.1150      1.00000
    225       6.1211      1.00000
    226       6.1267      1.00000
    227       6.1426      1.00000
    228       6.1573      1.00000
    229       6.1686      1.00000
    230       6.1849      1.00000
    231       6.1963      1.00000
    232       6.2090      1.00000
    233       6.2238      1.00000
    234       6.2323      1.00000
    235       6.2454      1.00000
    236       6.2550      1.00000
    237       6.2797      1.00000
    238       6.3063      1.00000
    239       6.3384      1.00000
    240       6.3653      1.00000
    241       6.4476      1.00000
    242       6.4558      1.00000
    243       6.4892      1.00000
    244       6.5488      1.00000
    245       6.5702      1.00000
    246       6.5775      1.00000
    247       6.6295      1.00000
    248       6.7222     -0.06428
    249       6.7727     -0.16130
    250       7.1658      0.00000
    251       7.2268      0.00000
    252       7.2351      0.00000
    253       7.2628      0.00000
    254       7.3111      0.00000
    255       7.3388      0.00000
    256       7.8594      0.00000
    257       7.8940      0.00000
    258       7.9085      0.00000
    259       7.9142      0.00000
    260       7.9225      0.00000
    261       7.9319      0.00000
    262       7.9381      0.00000
    263       7.9502      0.00000
    264       7.9680      0.00000
    265       7.9757      0.00000
    266       8.0082      0.00000
    267       8.0166      0.00000
    268       8.5072      0.00000
    269       8.5348      0.00000
    270       8.5493      0.00000
    271       8.6085      0.00000
    272       8.6418      0.00000
    273       8.6870      0.00000
    274       9.2219      0.00000
    275       9.2297      0.00000
    276       9.2395      0.00000
    277      10.6228      0.00000
    278      10.6631      0.00000
    279      10.6733      0.00000
    280      10.6956      0.00000
    281      10.7254      0.00000
    282      10.7302      0.00000
    283      10.7468      0.00000
    284      10.7674      0.00000
    285      10.7763      0.00000
    286      10.7847      0.00000
    287      10.8344      0.00000
    288      10.8639      0.00000
    289      13.7039      0.00000
    290      13.7180      0.00000
    291      13.7481      0.00000
    292      13.8609      0.00000
    293      13.9358      0.00000
    294      13.9591      0.00000
    295      14.7312      0.00000
    296      14.8007      0.00000
    297      14.8468      0.00000
    298      14.8614      0.00000
    299      14.9044      0.00000
    300      14.9290      0.00000
    301      14.9797      0.00000
    302      14.9910      0.00000
    303      15.0407      0.00000
    304      15.0540      0.00000
    305      15.0815      0.00000
    306      15.1352      0.00000

 k-point     2 :       0.2500    0.0000    0.0000
  band No.  band energies     occupation 
      1      -1.8647      1.00000
      2      -0.8473      1.00000
      3      -0.3725      1.00000
      4      -0.3321      1.00000
      5       0.4673      1.00000
      6       0.4998      1.00000
      7       0.8470      1.00000
      8       1.2742      1.00000
      9       1.2989      1.00000
     10       1.6539      1.00000
     11       1.6980      1.00000
     12       1.7529      1.00000
     13       1.8270      1.00000
     14       1.8509      1.00000
     15       1.8961      1.00000
     16       1.9646      1.00000
     17       1.9944      1.00000
     18       2.0154      1.00000
     19       2.0586      1.00000
     20       2.0816      1.00000
     21       2.1046      1.00000
     22       2.1190      1.00000
     23       2.1656      1.00000
     24       2.1685      1.00000
     25       2.1989      1.00000
     26       2.2325      1.00000
     27       2.2752      1.00000
     28       2.2861      1.00000
     29       2.3002      1.00000
     30       2.3126      1.00000
     31       2.3265      1.00000
     32       2.3394      1.00000
     33       2.3489      1.00000
     34       2.3618      1.00000
     35       2.3907      1.00000
     36       2.4106      1.00000
     37       2.4253      1.00000
     38       2.4334      1.00000
     39       2.4433      1.00000
     40       2.4538      1.00000
     41       2.6043      1.00000
     42       2.6091      1.00000
     43       2.6310      1.00000
     44       2.6412      1.00000
     45       2.6548      1.00000
     46       2.6688      1.00000
     47       2.6792      1.00000
     48       2.6868      1.00000
     49       2.7100      1.00000
     50       2.7276      1.00000
     51       2.7431      1.00000
     52       2.7761      1.00000
     53       2.7982      1.00000
     54       2.8057      1.00000
     55       2.8182      1.00000
     56       2.8302      1.00000
     57       2.8363      1.00000
     58       2.8553      1.00000
     59       2.8867      1.00000
     60       2.8953      1.00000
     61       3.0060      1.00000
     62       3.0361      1.00000
     63       3.0885      1.00000
     64       3.0950      1.00000
     65       3.1173      1.00000
     66       3.1284      1.00000
     67       3.1421      1.00000
     68       3.1611      1.00000
     69       3.2832      1.00000
     70       3.3823      1.00000
     71       3.3957      1.00000
     72       3.4199      1.00000
     73       3.4349      1.00000
     74       3.4486      1.00000
     75       3.4619      1.00000
     76       3.4759      1.00000
     77       3.4827      1.00000
     78       3.4970      1.00000
     79       3.5085      1.00000
     80       3.5220      1.00000
     81       3.5375      1.00000
     82       3.5648      1.00000
     83       3.5715      1.00000
     84       3.5838      1.00000
     85       3.5917      1.00000
     86       3.6117      1.00000
     87       3.6190      1.00000
     88       3.6296      1.00000
     89       3.6363      1.00000
     90       3.6562      1.00000
     91       3.6609      1.00000
     92       3.6683      1.00000
     93       3.6949      1.00000
     94       3.7023      1.00000
     95       3.7177      1.00000
     96       3.7362      1.00000
     97       3.7483      1.00000
     98       3.7632      1.00000
     99       3.7830      1.00000
    100       3.7858      1.00000
    101       3.8242      1.00000
    102       3.8607      1.00000
    103       3.8846      1.00000
    104       3.9031      1.00000
    105       3.9077      1.00000
    106       3.9553      1.00000
    107       3.9785      1.00000
    108       3.9916      1.00000
    109       4.0183      1.00000
    110       4.0684      1.00000
    111       4.0782      1.00000
    112       4.0861      1.00000
    113       4.1005      1.00000
    114       4.1101      1.00000
    115       4.1293      1.00000
    116       4.1476      1.00000
    117       4.1703      1.00000
    118       4.1863      1.00000
[...]
   44       -0.021  -0.043   0.709   0.645
   45       -0.030  -0.065   0.708   0.613
   46       -0.033  -0.067   0.728   0.628
   47       -0.030  -0.062   0.721   0.629
   48       -0.030  -0.064   0.762   0.669
--------------------------------------------------
tot         -0.720  -2.017  94.556  91.820
 
    CHARGE:  cpu time    1.9317: real time    1.9357
    FORLOC:  cpu time    0.0140: real time    0.0133
    FORNL :  cpu time   23.8414: real time   24.0545
    STRESS:  cpu time   66.9528: real time   67.5294
    FORCOR:  cpu time    0.0960: real time    0.0964
    FORHAR:  cpu time    0.0220: real time    0.0215
    OFIELD:  cpu time    0.0000: real time    0.0005

  FORCE on cell =-STRESS in cart. coord.  units (eV):
  Direction    XX          YY          ZZ          XY          YZ          ZX
  --------------------------------------------------------------------------------------
  Alpha Z  2769.74828  2769.74828  2769.74828
  Ewald  -10648.49551-10718.58302-10663.96770    22.75833    70.84543    -8.74992
  Hartree  2210.83254  2144.02843  2194.17614    20.50130    68.00180    -8.36538
  E(xc)   -2092.55011 -2092.62101 -2092.47189     0.04993     0.07845    -0.03205
  Local    1723.07867  1858.75741  1754.82993   -42.60514  -137.30584    16.04534
  n-local -1012.79946 -1013.87073 -1012.98901     0.41560     0.13862    -0.07405
  augment  3507.64493  3508.80205  3507.74220    -0.11695    -0.43991     1.13623
  Kinetic  3549.38046  3548.59103  3547.62226     0.47638    -1.52121     2.04518
  Fock        0.00000     0.00000     0.00000     0.00000     0.00000     0.00000
  -------------------------------------------------------------------------------------
  Total       6.83979     4.85244     4.69022     1.47946    -0.20266     2.00535
  in kB      19.98684    14.17951    13.70548     4.32318    -0.59219     5.85991
  external pressure =       15.96 kB  Pullay stress =        0.00 kB


 VOLUME and BASIS-vectors are now :
 -----------------------------------------------------------------------------
  energy-cutoff  :      520.00
  volume of cell :      548.29
      direct lattice vectors                 reciprocal lattice vectors
     7.150000000 -7.150000000  0.000000000     0.093240093 -0.046620047 -0.046620047
     0.000000000  7.150000000 -7.150000000     0.046620047  0.046620047 -0.093240093
     3.575000000  3.575000000  3.575000000     0.093240093  0.093240093  0.093240093

  length of vectors
    10.111626971 10.111626971  6.192081637     0.114195326  0.114195326  0.161496579


 FORCES acting on ions
    electron-ion (+dipol)            ewald-force                    non-local-force                 convergence-correction
 -----------------------------------------------------------------------------------------------
   -.858E+01 0.423E+02 -.588E+02   0.864E+01 -.430E+02 0.592E+02   -.185E-01 0.343E+00 -.462E-01   -.227E-01 0.338E+00 -.385E+00
   0.239E+02 -.856E+00 -.335E+02   -.240E+02 0.902E+00 0.338E+02   0.176E-01 0.136E+00 -.140E+00   0.417E-01 -.193E+00 -.135E+00
   0.503E+02 0.328E+02 -.590E+02   -.508E+02 -.332E+02 0.594E+02   0.610E+00 0.172E+00 -.303E+00   -.132E+00 0.205E+00 -.887E-01
   -.663E+02 0.364E+01 -.180E+01   0.663E+02 -.340E+01 0.177E+01   -.110E+00 -.280E+00 0.127E+00   0.188E-01 0.394E-01 -.904E-01
   -.499E+02 0.102E+03 -.127E+02   0.502E+02 -.103E+03 0.128E+02   -.189E+00 0.737E+00 0.277E-01   -.944E-01 0.252E+00 -.200E+00
   -.356E+02 -.293E+02 -.111E+02   0.357E+02 0.298E+02 0.116E+02   -.209E+00 -.442E+00 -.283E+00   0.109E+00 -.772E-01 -.165E+00
   -.154E+02 0.844E+02 -.725E+01   0.153E+02 -.850E+02 0.774E+01   -.140E+00 0.349E+00 -.263E+00   0.278E+00 0.270E+00 -.234E+00
   0.144E+02 -.861E+02 -.105E+02   -.143E+02 0.867E+02 0.105E+02   -.124E+00 -.378E+00 -.351E+00   0.173E-01 -.205E+00 0.370E+00
   0.427E+02 0.600E+01 0.468E+02   -.432E+02 -.625E+01 -.472E+02   0.337E-01 0.360E+00 0.343E+00   0.420E+00 -.105E+00 0.337E-01
   0.383E+02 -.258E+02 -.677E+01   -.383E+02 0.261E+02 0.644E+01   0.118E+00 -.238E+00 0.506E-01   -.845E-01 -.394E-01 0.282E+00
   0.513E+02 -.344E+02 -.787E+01   -.515E+02 0.347E+02 0.790E+01   0.273E+00 -.331E+00 -.129E+00   -.886E-01 -.473E-02 0.875E-01
   -.329E+02 -.668E+02 0.800E+02   0.334E+02 0.676E+02 -.806E+02   -.356E+00 -.337E+00 0.445E+00   -.625E-01 -.510E+00 0.233E+00
   -.828E+02 -.151E+02 0.376E+02   0.831E+02 0.156E+02 -.379E+02   -.536E+00 -.174E+00 0.214E+00   0.137E+00 -.266E+00 0.993E-01
   -.504E+02 -.126E+02 0.140E+01   0.508E+02 0.126E+02 -.157E+01   -.568E-01 -.147E+00 0.935E-01   -.315E+00 0.231E+00 0.835E-01
   -.427E+02 0.915E+02 0.322E+02   0.429E+02 -.922E+02 -.325E+02   0.863E-02 0.674E+00 0.291E+00   -.178E+00 0.409E-01 -.572E-01
   -.691E+00 -.693E+02 0.462E+02   0.131E+01 0.697E+02 -.468E+02   -.114E+00 -.197E+00 0.414E+00   -.468E+00 -.167E+00 0.231E+00
   -.167E+02 -.315E+02 0.149E+02   0.174E+02 0.316E+02 -.152E+02   -.248E+00 -.171E+00 0.136E-01   -.447E+00 0.674E-01 0.331E+00
   -.234E+02 0.656E+02 0.159E+02   0.236E+02 -.659E+02 -.161E+02   -.981E-01 0.293E+00 -.759E-01   -.231E-01 0.701E-01 0.231E+00
   0.431E+02 -.918E+02 0.496E+02   -.436E+02 0.923E+02 -.507E+02   0.509E+00 -.155E+00 0.405E+00   -.480E-01 -.310E+00 0.723E+00
   0.725E+02 -.435E+02 0.676E+02   -.728E+02 0.438E+02 -.684E+02   0.456E+00 0.227E-02 0.292E+00   -.203E+00 -.235E+00 0.605E+00
   0.132E+02 -.260E+02 -.218E+02   -.133E+02 0.264E+02 0.223E+02   -.508E-01 -.378E+00 -.194E+00   0.229E-01 -.371E-01 -.303E+00
   -.446E+01 -.827E+01 -.270E+02   0.422E+01 0.854E+01 0.278E+02   -.257E+00 0.187E+00 -.547E+00   0.474E+00 -.430E+00 -.292E+00
   0.311E+01 -.380E+02 0.473E+02   -.316E+01 0.385E+02 -.477E+02   -.252E+00 -.117E+00 0.304E+00   0.300E+00 -.391E+00 0.123E+00
   -.205E+02 0.163E+02 -.415E+02   0.208E+02 -.163E+02 0.417E+02   -.295E+00 -.117E+00 -.156E-01   0.203E-01 0.128E+00 -.167E+00
   0.365E+02 0.333E+02 0.294E+02   -.371E+02 -.330E+02 -.294E+02   0.288E+00 0.562E-02 0.146E+00   0.323E+00 -.304E+00 -.725E-01
   -.212E+02 -.699E+02 0.513E+02   0.210E+02 0.708E+02 -.518E+02   -.826E-01 -.452E+00 0.331E+00   0.273E+00 -.376E+00 0.230E+00
   0.257E+02 0.299E+02 -.420E+02   -.258E+02 -.306E+02 0.420E+02   0.482E+00 0.110E+00 0.237E+00   -.309E+00 0.526E+00 -.257E+00
   0.217E+02 0.742E+02 -.366E+02   -.215E+02 -.749E+02 0.371E+02   0.196E+00 0.327E+00 -.234E+00   -.369E+00 0.388E+00 -.256E+00
   0.264E+02 0.527E+01 -.202E+02   -.264E+02 -.564E+01 0.204E+02   0.203E+00 0.102E+00 -.139E+00   -.262E+00 0.271E+00 -.648E-01
   -.838E+01 0.249E+02 -.507E+01   0.872E+01 -.253E+02 0.484E+01   -.446E-01 0.102E+00 -.334E-02   -.285E+00 0.368E+00 0.230E+00
   0.297E+02 -.420E+02 0.384E+02   -.299E+02 0.422E+02 -.389E+02   0.266E+00 0.128E-01 0.284E-01   0.281E-01 -.167E+00 0.420E+00
   -.202E+02 0.184E+02 -.327E+02   0.204E+02 -.184E+02 0.337E+02   -.284E+00 -.232E+00 -.331E+00   0.115E+00 0.177E+00 -.597E+00
   0.370E+02 -.441E+02 0.258E+01   -.379E+02 0.446E+02 -.241E+01   0.247E+00 -.146E+00 0.166E+00   0.578E+00 -.331E+00 -.338E+00
   0.317E+02 0.473E+01 0.211E+02   -.325E+02 -.479E+01 -.210E+02   0.266E+00 0.564E-01 0.592E-02   0.607E+00 -.183E-01 -.156E+00
   -.295E+02 0.270E+02 -.794E+02   0.300E+02 -.276E+02 0.801E+02   -.298E+00 0.832E-01 -.336E+00   -.153E+00 0.503E+00 -.305E+00
   -.927E+00 0.426E+02 -.569E+02   0.115E+01 -.434E+02 0.576E+02   -.256E+00 0.278E+00 -.444E+00   0.377E-01 0.568E+00 -.234E+00
   0.126E+02 -.300E+01 -.326E+02   -.132E+02 0.316E+01 0.334E+02   0.143E+00 0.508E-02 -.181E+00   0.409E+00 -.162E+00 -.584E+00
   -.628E+02 0.142E+02 -.294E+02   0.631E+02 -.142E+02 0.295E+02   -.222E+00 0.719E-01 -.218E+00   -.724E-01 -.155E+00 0.136E+00
   0.297E+01 -.598E+02 0.375E+02   -.259E+01 0.605E+02 -.378E+02   -.397E-01 -.374E+00 0.145E+00   -.345E+00 -.314E+00 0.178E+00
   0.329E+02 -.739E+02 -.502E+01   -.324E+02 0.744E+02 0.477E+01   -.559E-01 -.701E-01 -.195E+00   -.427E+00 -.401E+00 0.442E+00
   0.225E+02 0.607E+02 -.881E+02   -.225E+02 -.613E+02 0.886E+02   0.212E+00 0.132E+00 -.326E+00   -.198E+00 0.360E+00 -.167E+00
   -.237E+02 -.119E+01 0.976E+02   0.236E+02 0.177E+01 -.984E+02   -.954E-01 -.128E+00 0.313E+00   0.176E+00 -.451E+00 0.491E+00
   -.890E+02 0.703E+02 0.158E+02   0.894E+02 -.706E+02 -.158E+02   -.282E+00 0.272E+00 -.507E-01   -.691E-01 0.627E-01 0.750E-01
   0.452E+02 -.791E+02 0.679E+02   -.452E+02 0.797E+02 -.686E+02   0.143E+00 -.264E+00 0.175E+00   -.186E+00 -.351E+00 0.461E+00
   -.644E+02 0.468E+02 -.196E+01   0.646E+02 -.473E+02 0.174E+01   -.211E+00 0.171E+00 0.188E+00   -.198E-01 0.236E+00 0.280E-01
   0.626E+02 0.108E+02 -.515E+01   -.629E+02 -.109E+02 0.524E+01   0.214E+00 0.143E-01 0.865E-01   0.107E+00 0.924E-01 -.187E+00
   0.197E+02 -.577E+02 -.755E+01   -.203E+02 0.582E+02 0.780E+01   0.425E-01 -.417E+00 -.136E-01   0.567E+00 -.705E-01 -.233E+00
   0.106E+02 0.102E+03 -.587E+02   -.104E+02 -.104E+03 0.593E+02   0.175E+00 0.497E+00 -.616E-01   -.333E+00 0.757E+00 -.504E+00
 -----------------------------------------------------------------------------------------------
   0.149E+00 0.170E+00 -.167E-01   0.135E-12 -.853E-13 0.682E-12   -.223E-01 -.514E-01 -.377E-01   -.134E+00 -.120E+00 0.532E-01
 
 
 POSITION                                       TOTAL-FORCE (eV/Angst)
 -----------------------------------------------------------------------------------
      3.57065     10.68210     -3.56168         0.018137     -0.005157     -0.009014
      7.14329      7.13349     -3.57562        -0.012103     -0.011035     -0.014623
      5.37514      1.76640     -7.10062        -0.018358     -0.011726     -0.003591
      5.32686      3.52412      1.80838        -0.010948      0.001756      0.012360
      1.75793      1.81053     -0.01530         0.001976     -0.001404     -0.003343
      3.54694     -0.05274     -0.01519        -0.006921      0.006793      0.009443
      3.54299      1.79488      1.75521        -0.005004      0.003187     -0.006197
      5.38711     -1.82386     -0.05291         0.007286     -0.009004     -0.008694
      5.34325      0.01371      1.75929        -0.026057      0.005864     -0.009956
      7.15117     -3.57839      0.00344         0.005300      0.013609      0.004608
      7.13085     -1.75329      1.77393        -0.015207      0.008656     -0.015796
      7.09489     -3.56364     -3.52899         0.011968     -0.000436      0.006521
      5.28788      5.36198      0.03559        -0.010478      0.007607      0.004719
      3.56289     -0.00213     -3.55211         0.025028      0.005926      0.014256
      3.54923      1.83418     -1.81634        -0.000492     -0.017612      0.023686
      5.40758     -1.77182     -3.51141         0.037977      0.017341     -0.004922
      5.37248      0.01577     -1.76608         0.002352      0.001001      0.019689
      5.34882      1.82361     -0.04542         0.002066     -0.000557     -0.006178
      7.22206     -1.76863     -1.76041        -0.002561      0.008356     -0.013639
      7.22561      0.02260     -0.00008         0.009114     -0.004349      0.011097
      3.54654      8.86693     -1.79190        -0.077609     -0.054742     -0.003866
      5.29804      7.15694     -1.80415        -0.022953      0.024235      0.025110
      1.76733      5.33068     -3.57895        -0.003829      0.006646     -0.024157
      3.54396      1.79629     -5.32791         0.009091     -0.004782     -0.005204
      3.59727      3.58487     -3.60405        -0.019956      0.001891     -0.000279
      3.52068      5.33783     -1.80507        -0.013373      0.012559     -0.024250
      5.43179     -0.01303     -5.32301         0.010389     -0.004110     -0.000370
      5.43477      1.78787     -3.57439         0.005894      0.011606      0.009574
      7.25958     -0.01310     -3.56804        -0.007204      0.002874      0.007831
      7.20350      1.83344     -1.78177         0.017461      0.000952     -0.008380
      8.99577      0.05398     -1.80087         0.081518      0.082234     -0.012096
      1.77375      7.10243     -5.40499         0.010117     -0.007090      0.010193
      3.60798      5.30326     -5.36123         0.001696     -0.001963      0.000255
      3.51797      7.15836     -3.59265        -0.014242     -0.020531     -0.003246
      7.14772      3.63201     -3.59125         0.013752     -0.018696      0.003059
      8.93361      1.83757     -3.60645         0.010353     -0.027519      0.023805
      5.33662      8.88882     -3.58619        -0.023222      0.005553      0.017849
      7.12839     -5.36835     -1.74925         0.000092     -0.006106     -0.018426
      7.13786      1.74789      1.78449         0.001781     -0.000527     -0.012527
      5.36539     -3.59540     -1.76661         0.012714     -0.005664     -0.002396
      8.95795     -3.53068      1.76008        -0.009412     -0.010990      0.000301
      1.76583      3.57366     -1.77436         0.003969      0.003553     -0.014010
      3.55261      3.57407     -0.00859         0.001700      0.011651      0.021506
      8.93828     -1.77903     -0.00017        -0.005365      0.008805     -0.000399
      5.34854      3.60020     -1.78340         0.010694     -0.005553      0.000634
      5.39517      3.57616     -5.36125         0.004443     -0.005498     -0.011654
      5.35875      5.35768     -3.57132        -0.014870     -0.001708      0.002714
      7.18672      1.82979     -5.36044         0.003294     -0.015895      0.008004
 -----------------------------------------------------------------------------------
    total drift:                               -0.007497     -0.001188     -0.001156


--------------------------------------------------------------------------------------------------------



  FREE ENERGIE OF THE ION-ELECTRON SYSTEM (eV)
  ---------------------------------------------------
  free  energy   TOTEN  =      -358.63698671 eV

  energy  without entropy=     -358.63698671  energy(sigma->0) =     -358.63698671
 


--------------------------------------------------------------------------------------------------------


    POTLOK:  cpu time    0.1070: real time    0.1070


--------------------------------------------------------------------------------------------------------


     LOOP+:  cpu time  978.7202: real time  994.4414
    4ORBIT:  cpu time    0.0000: real time    0.0000
 


 total charge     
 
# of ion       s       p       d       tot
------------------------------------------
    1        0.485   0.519   6.217   7.222
    2        0.475   0.508   6.194   7.177
    3        0.475   0.505   6.201   7.181
    4        0.477   0.510   6.210   7.197
    5        0.479   0.512   6.194   7.185
    6        0.478   0.509   6.207   7.194
    7        0.484   0.520   6.217   7.222
    8        0.482   0.518   6.207   7.207
    9        0.477   0.506   6.196   7.179
   10        0.479   0.509   6.200   7.189
   11        0.477   0.505   6.206   7.189
   12        0.486   0.523   6.221   7.229
   13        0.474   0.505   6.184   7.163
   14        0.479   0.513   6.199   7.191
   15        0.478   0.508   6.196   7.182
   16        0.486   0.527   6.227   7.240
   17        0.481   0.513   6.214   7.207
   18        0.479   0.512   6.209   7.200
   19        0.488   0.523   6.234   7.246
   20        0.481   0.515   6.199   7.195
   21        0.497   0.547   6.289   7.333
   22        0.484   0.522   6.215   7.221
   23        0.492   0.536   6.254   7.282
   24        0.477   0.503   6.197   7.176
   25        0.480   0.510   6.220   7.210
   26        0.476   0.508   6.196   7.180
   27        0.486   0.523   6.218   7.227
   28        0.475   0.506   6.190   7.171
   29        0.487   0.526   6.235   7.249
   30        0.484   0.520   6.223   7.227
   31        0.496   0.547   6.279   7.322
   32        0.482   0.518   6.223   7.222
   33        0.480   0.511   6.216   7.207
   34        0.486   0.526   6.229   7.241
   35        0.475   0.507   6.206   7.188
   36        0.489   0.530   6.239   7.258
   37        0.523   0.542   8.304   9.369
   38        0.513   0.518   8.308   9.339
   39        0.517   0.530   8.303   9.350
   40        0.520   0.535   8.315   9.370
   41        0.515   0.525   8.302   9.343
   42        0.521   0.535   8.318   9.373
   43        0.512   0.520   8.311   9.343
   44        0.513   0.521   8.307   9.341
   45        0.517   0.527   8.314   9.358
   46        0.520   0.537   8.310   9.367
   47        0.516   0.529   8.307   9.352
   48        0.519   0.535   8.302   9.355
--------------------------------------------------
tot         23.553  24.957 323.460 371.970
 


 magnetization (x)
 
# of ion       s       p       d       tot
------------------------------------------
    1       -0.007  -0.029   2.505   2.468
    2       -0.007  -0.032   2.641   2.601
    3       -0.008  -0.030   2.623   2.584
    4       -0.011  -0.037   2.573   2.526
    5       -0.007  -0.031   2.644   2.605
    6       -0.013  -0.041   2.582   2.528
    7       -0.014  -0.039   2.558   2.505
    8       -0.013  -0.042   2.579   2.524
    9       -0.010  -0.041   2.604   2.552
   10       -0.004  -0.021   2.632   2.607
   11       -0.009  -0.030   2.590   2.551
   12       -0.003  -0.023   2.455   2.429
   13       -0.009  -0.034   2.652   2.609
   14       -0.013  -0.042   2.595   2.540
   15       -0.012  -0.038   2.625   2.574
   16       -0.008  -0.031   2.437   2.398
   17       -0.016  -0.046   2.556   2.493
   18       -0.011  -0.039   2.591   2.541
   19       -0.010  -0.032   2.449   2.406
   20       -0.006  -0.032   2.550   2.512
   21       -0.028  -0.059  -0.018  -0.105
   22       -0.012  -0.042   2.429   2.375
   23       -0.012  -0.038   2.205   2.155
   24       -0.010  -0.039   2.619   2.570
   25       -0.010  -0.032   2.536   2.494
   26       -0.003  -0.026   2.544   2.514
   27       -0.014  -0.045   2.445   2.386
   28       -0.010  -0.036   2.635   2.588
   29       -0.008  -0.034   2.325   2.283
   30       -0.014  -0.042   2.433   2.377
   31       -0.030  -0.059  -0.206  -0.296
   32       -0.011  -0.036   2.489   2.442
   33       -0.011  -0.038   2.546   2.497
   34       -0.006  -0.031   2.372   2.335
   35       -0.007  -0.031   2.592   2.555
   36       -0.008  -0.031   2.386   2.347
   37       -0.029  -0.061   0.716   0.626
   38       -0.023  -0.052   0.752   0.677
   39       -0.028  -0.063   0.758   0.667
   40       -0.030  -0.060   0.732   0.641
   41       -0.025  -0.059   0.751   0.667
   42       -0.029  -0.059   0.702   0.614
   43       -0.025  -0.050   0.746   0.670
   44       -0.021  -0.043   0.709   0.645
   45       -0.030  -0.065   0.708   0.613
   46       -0.033  -0.067   0.728   0.628
   47       -0.030  -0.062   0.721   0.629
   48       -0.030  -0.064   0.762   0.669
--------------------------------------------------
tot         -0.720  -2.017  94.556  91.820
 
 BZINTS: Fermi energy:  6.634359;408.000000 electrons
         Band energy:1750.309228;  BLOECHL correction: -0.031256

 total amount of memory used by VASP MPI-rank0   221372. kBytes
=======================================================================

   base      :      30000. kBytes
   nonlr-proj:      11049. kBytes
   fftplans  :       2600. kBytes
   grid      :       6545. kBytes
   one-center:         93. kBytes
   wavefun   :     171085. kBytes
 
  
  
 General timing and accounting informations for this job:
 ========================================================
  
                  Total CPU time used (sec):     1075.612
                            User time (sec):     1047.221
                          System time (sec):       28.392
                         Elapsed time (sec):     1108.438
  
                   Maximum memory used (kb):      363316.
                   Average memory used (kb):           0.
  
                          Minor page faults:        16422
                          Major page faults:            0
                 Voluntary context switches:         7210
