  32  32   1   0
  0.1142268E+02  0.7150000E-09  0.7150000E-09  0.7150000E-09  0.5000000E-15
  1.000000000000000E-004
  CAR 
 SQS-NiFe                                
     19.07353280     -3.99164055  301      6.62110907      1.00000000
     -3.992  0.0000E+00  0.0000E+00  0.0000E+00  0.0000E+00
     -3.915  0.0000E+00  0.0000E+00  0.0000E+00  0.0000E+00
     -3.838  0.0000E+00  0.0000E+00  0.0000E+00  0.0000E+00
     -3.761  0.0000E+00  0.0000E+00  0.0000E+00  0.0000E+00
     -3.684  0.0000E+00  0.0000E+00  0.0000E+00  0.0000E+00
     -3.607 -0.5082E-30  0.0000E+00 -0.3907E-31  0.0000E+00
     -3.530 -0.2074E-27 -0.9505E-32 -0.1599E-28 -0.7308E-33
     -3.453 -0.6294E-25 -0.4690E-29 -0.4855E-26 -0.3614E-30
     -3.377 -0.1417E-22 -0.1721E-26 -0.1094E-23 -0.1326E-27
     -3.300 -0.2365E-20 -0.4683E-24 -0.1829E-21 -0.3614E-25
     -3.223 -0.2926E-18 -0.9454E-22 -0.2268E-19 -0.7305E-23
     -3.146 -0.2600E-16 -0.1415E-19 -0.2021E-17 -0.1095E-20
     -3.069 -0.1756E-14 -0.1569E-17 -0.1370E-15 -0.1218E-18
     -2.992 -0.8754E-13 -0.1248E-15 -0.6867E-14 -0.9719E-17
     -2.915 -0.3217E-11 -0.7550E-14 -0.2542E-12 -0.5902E-15
     -2.838 -0.8697E-10 -0.3369E-12 -0.6941E-11 -0.2650E-13
     -2.761 -0.1724E-08 -0.1108E-10 -0.1395E-09 -0.8781E-12
     -2.685 -0.2492E-07 -0.2675E-09 -0.2056E-08 -0.2145E-10
     -2.608 -0.2611E-06 -0.4730E-08 -0.2213E-07 -0.3851E-09
     -2.531 -0.1958E-05 -0.6088E-07 -0.1726E-06 -0.5066E-08
     -2.454 -0.1030E-04 -0.5656E-06 -0.9642E-06 -0.4855E-07
     -2.377 -0.3636E-04 -0.3739E-05 -0.3760E-05 -0.3360E-06
     -2.300 -0.7664E-04 -0.1713E-04 -0.9652E-05 -0.1653E-05
     -2.223 -0.4744E-04 -0.5123E-04 -0.1330E-04 -0.5591E-05
     -2.146  0.2276E-03 -0.8239E-04  0.4197E-05 -0.1193E-04
     -2.070  0.7663E-03  0.1552E-04  0.6312E-04 -0.1073E-04
     -1.993  0.1141E-02  0.4057E-03  0.1508E-03  0.2046E-04
     -1.916  0.9752E-03  0.9536E-03  0.2258E-03  0.9378E-04
     -1.839  0.1058E-02  0.1134E-02  0.3072E-03  0.1810E-03
     -1.762  0.2965E-02  0.8920E-03  0.5351E-03  0.2495E-03
     -1.685  0.6415E-02  0.1494E-02  0.1028E-02  0.3644E-03
     -1.608  0.8311E-02  0.4182E-02  0.1667E-02  0.6859E-03
     -1.531  0.7025E-02  0.7480E-02  0.2207E-02  0.1261E-02
     -1.454  0.6254E-02  0.8124E-02  0.2688E-02  0.1886E-02
     -1.378  0.1026E-01  0.6348E-02  0.3477E-02  0.2374E-02
     -1.301  0.1618E-01  0.7077E-02  0.4721E-02  0.2918E-02
     -1.224  0.1689E-01  0.1256E-01  0.6020E-02  0.3883E-02
     -1.147  0.1200E-01  0.1729E-01  0.6942E-02  0.5213E-02
     -1.070  0.8508E-02  0.1545E-01  0.7596E-02  0.6400E-02
     -0.993  0.9696E-02  0.1008E-01  0.8342E-02  0.7175E-02
     -0.916  0.1092E-01  0.8327E-02  0.9181E-02  0.7815E-02
     -0.839  0.8481E-02  0.1039E-01  0.9833E-02  0.8614E-02
     -0.763  0.5417E-02  0.1052E-01  0.1025E-01  0.9423E-02
     -0.686  0.5338E-02  0.7073E-02  0.1066E-01  0.9966E-02
     -0.609  0.6657E-02  0.4468E-02  0.1117E-01  0.1031E-01
     -0.532  0.7568E-02  0.5325E-02  0.1175E-01  0.1072E-01
     -0.455  0.1193E-01  0.7059E-02  0.1267E-01  0.1126E-01
     -0.378  0.2271E-01  0.8275E-02  0.1442E-01  0.1190E-01
     -0.301  0.3308E-01  0.1290E-01  0.1696E-01  0.1289E-01
     -0.224  0.3474E-01  0.2294E-01  0.1963E-01  0.1465E-01
     -0.147  0.3168E-01  0.3200E-01  0.2207E-01  0.1711E-01
     -0.071  0.3239E-01  0.3341E-01  0.2456E-01  0.1968E-01
      0.006  0.3381E-01  0.3044E-01  0.2716E-01  0.2202E-01
      0.083  0.2721E-01  0.3001E-01  0.2925E-01  0.2433E-01
      0.160  0.1374E-01  0.3090E-01  0.3030E-01  0.2671E-01
      0.237  0.2200E-02  0.2663E-01  0.3047E-01  0.2875E-01
      0.314 -0.2728E-02  0.1626E-01  0.3026E-01  0.3000E-01
      0.391 -0.1598E-02  0.5418E-02  0.3014E-01  0.3042E-01
      0.468  0.5052E-02 -0.9815E-03  0.3053E-01  0.3035E-01
      0.545  0.1683E-01 -0.1980E-02  0.3182E-01  0.3019E-01
      0.621  0.3083E-01  0.2082E-02  0.3419E-01  0.3035E-01
      0.698  0.4215E-01  0.1044E-01  0.3743E-01  0.3116E-01
      0.775  0.4635E-01  0.2019E-01  0.4100E-01  0.3271E-01
      0.852  0.4305E-01  0.2824E-01  0.4431E-01  0.3488E-01
      0.929  0.3784E-01  0.3429E-01  0.4722E-01  0.3752E-01
      1.006  0.3742E-01  0.3842E-01  0.5009E-01  0.4047E-01
      1.083  0.4377E-01  0.3934E-01  0.5346E-01  0.4349E-01
      1.160  0.5300E-01  0.3735E-01  0.5753E-01  0.4637E-01
      1.236  0.5502E-01  0.3488E-01  0.6176E-01  0.4905E-01
      1.313  0.4064E-01  0.3380E-01  0.6489E-01  0.5165E-01
      1.390  0.1591E-01  0.3583E-01  0.6611E-01  0.5440E-01
      1.467  0.2420E-02  0.4167E-01  0.6630E-01  0.5760E-01
      1.544  0.2046E-01  0.4593E-01  0.6787E-01  0.6114E-01
      1.621  0.7224E-01  0.4024E-01  0.7343E-01  0.6423E-01
      1.698  0.1375E+00  0.2443E-01  0.8399E-01  0.6611E-01
      1.775  0.1880E+00  0.7870E-02  0.9845E-01  0.6671E-01
      1.852  0.2088E+00  0.9938E-03  0.1145E+00  0.6679E-01
      1.928  0.2008E+00  0.1039E-01  0.1299E+00  0.6759E-01
      2.005  0.1751E+00  0.3661E-01  0.1434E+00  0.7040E-01
      2.082  0.1503E+00  0.6904E-01  0.1550E+00  0.7571E-01
      2.159  0.1424E+00  0.8810E-01  0.1659E+00  0.8248E-01
      2.236  0.1546E+00  0.8292E-01  0.1778E+00  0.8886E-01
      2.313  0.1861E+00  0.6448E-01  0.1921E+00  0.9382E-01
      2.390  0.2375E+00  0.5239E-01  0.2104E+00  0.9784E-01
      2.467  0.2944E+00  0.5383E-01  0.2330E+00  0.1020E+00
      2.543  0.3261E+00  0.6429E-01  0.2581E+00  0.1069E+00
      2.620  0.3174E+00  0.7901E-01  0.2825E+00  0.1130E+00
      2.697  0.2851E+00  0.9219E-01  0.3044E+00  0.1201E+00
      2.774  0.2607E+00  0.9628E-01  0.3244E+00  0.1275E+00
      2.851  0.2655E+00  0.9522E-01  0.3449E+00  0.1348E+00
      2.928  0.2919E+00  0.1072E+00  0.3673E+00  0.1431E+00
      3.005  0.3067E+00  0.1420E+00  0.3909E+00  0.1540E+00
      3.082  0.2892E+00  0.1850E+00  0.4131E+00  0.1682E+00
      3.159  0.2618E+00  0.2103E+00  0.4332E+00  0.1844E+00
      3.235  0.2597E+00  0.2009E+00  0.4532E+00  0.1998E+00
      3.312  0.2789E+00  0.1615E+00  0.4746E+00  0.2122E+00
      3.389  0.2836E+00  0.1244E+00  0.4965E+00  0.2218E+00
      3.466  0.2617E+00  0.1292E+00  0.5166E+00  0.2317E+00
      3.543  0.2450E+00  0.1792E+00  0.5354E+00  0.2455E+00
      3.620  0.2653E+00  0.2348E+00  0.5558E+00  0.2636E+00
      3.697  0.3108E+00  0.2598E+00  0.5797E+00  0.2835E+00
      3.774  0.3401E+00  0.2543E+00  0.6058E+00  0.3031E+00
      3.851  0.3368E+00  0.2420E+00  0.6317E+00  0.3217E+00
      3.927  0.3313E+00  0.2433E+00  0.6572E+00  0.3404E+00
      4.004  0.3539E+00  0.2584E+00  0.6844E+00  0.3603E+00
      4.081  0.3927E+00  0.2689E+00  0.7146E+00  0.3809E+00
      4.158  0.4250E+00  0.2598E+00  0.7473E+00  0.4009E+00
      4.235  0.4531E+00  0.2376E+00  0.7821E+00  0.4192E+00
      4.312  0.4829E+00  0.2213E+00  0.8192E+00  0.4362E+00
      4.389  0.5022E+00  0.2230E+00  0.8579E+00  0.4533E+00
      4.466  0.4989E+00  0.2368E+00  0.8962E+00  0.4715E+00
      4.542  0.4736E+00  0.2454E+00  0.9326E+00  0.4904E+00
      4.619  0.4332E+00  0.2408E+00  0.9659E+00  0.5089E+00
      4.696  0.3878E+00  0.2332E+00  0.9958E+00  0.5269E+00
      4.773  0.3520E+00  0.2357E+00  0.1023E+01  0.5450E+00
      4.850  0.3372E+00  0.2493E+00  0.1049E+01  0.5641E+00
      4.927  0.3428E+00  0.2693E+00  0.1075E+01  0.5849E+00
      5.004  0.3589E+00  0.2918E+00  0.1103E+01  0.6073E+00
      5.081  0.3785E+00  0.3102E+00  0.1132E+01  0.6311E+00
      5.158  0.4007E+00  0.3189E+00  0.1163E+01  0.6557E+00
      5.234  0.4167E+00  0.3198E+00  0.1195E+01  0.6802E+00
      5.311  0.4102E+00  0.3168E+00  0.1226E+01  0.7046E+00
      5.388  0.3773E+00  0.3113E+00  0.1255E+01  0.7285E+00
      5.465  0.3383E+00  0.3070E+00  0.1281E+01  0.7521E+00
      5.542  0.3197E+00  0.3099E+00  0.1306E+01  0.7760E+00
      5.619  0.3281E+00  0.3212E+00  0.1331E+01  0.8007E+00
      5.696  0.3454E+00  0.3337E+00  0.1358E+01  0.8263E+00
      5.773  0.3536E+00  0.3402E+00  0.1385E+01  0.8525E+00
      5.850  0.3546E+00  0.3392E+00  0.1412E+01  0.8785E+00
      5.926  0.3596E+00  0.3319E+00  0.1440E+01  0.9041E+00
      6.003  0.3685E+00  0.3191E+00  0.1468E+01  0.9286E+00
      6.080  0.3686E+00  0.3029E+00  0.1496E+01  0.9519E+00
      6.157  0.3540E+00  0.2889E+00  0.1524E+01  0.9741E+00
      6.234  0.3301E+00  0.2826E+00  0.1549E+01  0.9958E+00
      6.311  0.3030E+00  0.2832E+00  0.1572E+01  0.1018E+01
      6.388  0.2757E+00  0.2842E+00  0.1593E+01  0.1039E+01
      6.465  0.2496E+00  0.2798E+00  0.1613E+01  0.1061E+01
      6.541  0.2240E+00  0.2683E+00  0.1630E+01  0.1082E+01
      6.618  0.2008E+00  0.2523E+00  0.1645E+01  0.1101E+01
      6.695  0.1877E+00  0.2363E+00  0.1660E+01  0.1119E+01
      6.772  0.1876E+00  0.2252E+00  0.1674E+01  0.1136E+01
      6.849  0.1905E+00  0.2247E+00  0.1689E+01  0.1154E+01
      6.926  0.1813E+00  0.2356E+00  0.1703E+01  0.1172E+01
      7.003  0.1540E+00  0.2486E+00  0.1715E+01  0.1191E+01
      7.080  0.1141E+00  0.2535E+00  0.1723E+01  0.1210E+01
      7.157  0.7491E-01  0.2513E+00  0.1729E+01  0.1230E+01
      7.233  0.5212E-01  0.2493E+00  0.1733E+01  0.1249E+01
      7.310  0.5090E-01  0.2507E+00  0.1737E+01  0.1268E+01
      7.387  0.5710E-01  0.2532E+00  0.1741E+01  0.1288E+01
      7.464  0.5232E-01  0.2550E+00  0.1745E+01  0.1307E+01
      7.541  0.3552E-01  0.2588E+00  0.1748E+01  0.1327E+01
      7.618  0.2101E-01  0.2710E+00  0.1750E+01  0.1348E+01
      7.695  0.1942E-01  0.2911E+00  0.1751E+01  0.1370E+01
      7.772  0.2644E-01  0.3074E+00  0.1753E+01  0.1394E+01
      7.848  0.3032E-01  0.3093E+00  0.1756E+01  0.1418E+01
      7.925  0.2771E-01  0.3017E+00  0.1758E+01  0.1441E+01
      8.002  0.2717E-01  0.2977E+00  0.1760E+01  0.1464E+01
      8.079  0.3754E-01  0.3035E+00  0.1763E+01  0.1487E+01
      8.156  0.5824E-01  0.3169E+00  0.1767E+01  0.1512E+01
      8.233  0.7917E-01  0.3355E+00  0.1773E+01  0.1537E+01
      8.310  0.8680E-01  0.3591E+00  0.1780E+01  0.1565E+01
      8.387  0.7485E-01  0.3827E+00  0.1786E+01  0.1594E+01
      8.464  0.5208E-01  0.3917E+00  0.1790E+01  0.1625E+01
      8.540  0.3602E-01  0.3688E+00  0.1792E+01  0.1653E+01
      8.617  0.3831E-01  0.3134E+00  0.1795E+01  0.1677E+01
      8.694  0.5709E-01  0.2508E+00  0.1800E+01  0.1696E+01
      8.771  0.7827E-01  0.2091E+00  0.1806E+01  0.1712E+01
      8.848  0.8292E-01  0.1861E+00  0.1812E+01  0.1727E+01
      8.925  0.6275E-01  0.1556E+00  0.1817E+01  0.1739E+01
      9.002  0.3042E-01  0.1058E+00  0.1819E+01  0.1747E+01
      9.079  0.6340E-02  0.5290E-01  0.1820E+01  0.1751E+01
      9.156 -0.2073E-02  0.1654E-01  0.1820E+01  0.1752E+01
      9.232 -0.4443E-03  0.6851E-03  0.1820E+01  0.1752E+01
      9.309  0.6528E-02  0.1794E-03  0.1820E+01  0.1752E+01
      9.386  0.1969E-01  0.1268E-01  0.1822E+01  0.1753E+01
      9.463  0.4031E-01  0.3940E-01  0.1825E+01  0.1756E+01
      9.540  0.6759E-01  0.7606E-01  0.1830E+01  0.1762E+01
      9.617  0.9520E-01  0.1076E+00  0.1837E+01  0.1770E+01
      9.694  0.1065E+00  0.1209E+00  0.1845E+01  0.1780E+01
      9.771  0.8752E-01  0.1209E+00  0.1852E+01  0.1789E+01
      9.847  0.4818E-01  0.1207E+00  0.1856E+01  0.1798E+01
      9.924  0.1337E-01  0.1183E+00  0.1857E+01  0.1807E+01
     10.001 -0.3247E-02  0.9850E-01  0.1857E+01  0.1815E+01
     10.078 -0.4701E-02  0.5924E-01  0.1856E+01  0.1819E+01
     10.155  0.2744E-02  0.1983E-01  0.1857E+01  0.1821E+01
     10.232  0.1565E-01 -0.7795E-03  0.1858E+01  0.1821E+01
     10.309  0.2922E-01 -0.3985E-04  0.1860E+01  0.1821E+01
     10.386  0.3681E-01  0.1299E-01  0.1863E+01  0.1822E+01
     10.463  0.3573E-01  0.2574E-01  0.1866E+01  0.1824E+01
     10.539  0.3127E-01  0.3005E-01  0.1868E+01  0.1826E+01
     10.616  0.3361E-01  0.3300E-01  0.1871E+01  0.1829E+01
     10.693  0.4731E-01  0.5086E-01  0.1874E+01  0.1833E+01
     10.770  0.6375E-01  0.8180E-01  0.1879E+01  0.1839E+01
     10.847  0.7092E-01  0.1000E+00  0.1885E+01  0.1847E+01
     10.924  0.6803E-01  0.8834E-01  0.1890E+01  0.1853E+01
     11.001  0.6074E-01  0.5777E-01  0.1894E+01  0.1858E+01
     11.078  0.4892E-01  0.2900E-01  0.1898E+01  0.1860E+01
     11.154  0.3083E-01  0.1279E-01  0.1901E+01  0.1861E+01
     11.231  0.1207E-01  0.9591E-02  0.1902E+01  0.1862E+01
     11.308  0.3206E-03  0.1382E-01  0.1902E+01  0.1863E+01
     11.385 -0.3626E-02  0.1988E-01  0.1901E+01  0.1864E+01
     11.462 -0.3286E-02  0.2864E-01  0.1901E+01  0.1867E+01
     11.539  0.7466E-03  0.4330E-01  0.1901E+01  0.1870E+01
     11.616  0.1129E-01  0.6072E-01  0.1902E+01  0.1875E+01
     11.693  0.2827E-01  0.7317E-01  0.1904E+01  0.1880E+01
     11.770  0.4371E-01  0.7581E-01  0.1907E+01  0.1886E+01
     11.846  0.4594E-01  0.6919E-01  0.1911E+01  0.1891E+01
     11.923  0.3242E-01  0.5676E-01  0.1913E+01  0.1896E+01
     12.000  0.1591E-01  0.4113E-01  0.1915E+01  0.1899E+01
     12.077  0.1252E-01  0.2412E-01  0.1916E+01  0.1901E+01
     12.154  0.2478E-01  0.9288E-02  0.1918E+01  0.1901E+01
     12.231  0.4026E-01  0.1194E-03  0.1921E+01  0.1901E+01
     12.308  0.4464E-01 -0.3613E-02  0.1924E+01  0.1901E+01
     12.385  0.3410E-01 -0.3663E-02  0.1927E+01  0.1901E+01
     12.462  0.1643E-01  0.1948E-02  0.1928E+01  0.1901E+01
     12.538  0.2242E-02  0.1745E-01  0.1928E+01  0.1902E+01
     12.615 -0.2204E-02  0.3974E-01  0.1928E+01  0.1905E+01
     12.692  0.5264E-02  0.5525E-01  0.1928E+01  0.1910E+01
     12.769  0.2323E-01  0.5349E-01  0.1930E+01  0.1914E+01
     12.846  0.4421E-01  0.3939E-01  0.1934E+01  0.1917E+01
     12.923  0.5790E-01  0.2623E-01  0.1938E+01  0.1919E+01
     13.000  0.5907E-01  0.2196E-01  0.1943E+01  0.1921E+01
     13.077  0.4968E-01  0.2465E-01  0.1946E+01  0.1922E+01
     13.153  0.3584E-01  0.2648E-01  0.1949E+01  0.1924E+01
     13.230  0.2376E-01  0.2238E-01  0.1951E+01  0.1926E+01
     13.307  0.1672E-01  0.1635E-01  0.1952E+01  0.1927E+01
     13.384  0.1706E-01  0.1742E-01  0.1954E+01  0.1929E+01
     13.461  0.2879E-01  0.2748E-01  0.1956E+01  0.1931E+01
     13.538  0.5085E-01  0.3535E-01  0.1960E+01  0.1934E+01
     13.615  0.6919E-01  0.2926E-01  0.1965E+01  0.1936E+01
     13.692  0.6831E-01  0.1301E-01  0.1970E+01  0.1937E+01
     13.769  0.5236E-01  0.2369E-02  0.1974E+01  0.1937E+01
     13.845  0.3899E-01  0.9231E-02  0.1977E+01  0.1938E+01
     13.922  0.3353E-01  0.3150E-01  0.1980E+01  0.1940E+01
     13.999  0.3007E-01  0.5221E-01  0.1982E+01  0.1944E+01
     14.076  0.3229E-01  0.5361E-01  0.1985E+01  0.1948E+01
     14.153  0.4930E-01  0.3750E-01  0.1988E+01  0.1951E+01
     14.230  0.7569E-01  0.2360E-01  0.1994E+01  0.1953E+01
     14.307  0.9319E-01  0.2624E-01  0.2001E+01  0.1955E+01
     14.384  0.8921E-01  0.4005E-01  0.2008E+01  0.1958E+01
     14.460  0.6672E-01  0.5003E-01  0.2013E+01  0.1962E+01
     14.537  0.3916E-01  0.5095E-01  0.2016E+01  0.1966E+01
     14.614  0.1883E-01  0.5018E-01  0.2018E+01  0.1970E+01
     14.691  0.1073E-01  0.5349E-01  0.2019E+01  0.1974E+01
     14.768  0.1525E-01  0.5959E-01  0.2020E+01  0.1978E+01
     14.845  0.3115E-01  0.6646E-01  0.2022E+01  0.1984E+01
     14.922  0.5407E-01  0.7371E-01  0.2026E+01  0.1989E+01
     14.999  0.7445E-01  0.7963E-01  0.2032E+01  0.1995E+01
     15.076  0.7986E-01  0.8115E-01  0.2038E+01  0.2002E+01
     15.152  0.6539E-01  0.7640E-01  0.2043E+01  0.2007E+01
     15.229  0.4188E-01  0.6528E-01  0.2047E+01  0.2012E+01
     15.306  0.2475E-01  0.5000E-01  0.2048E+01  0.2016E+01
     15.383  0.1630E-01  0.3726E-01  0.2050E+01  0.2019E+01
     15.460  0.9592E-02  0.3460E-01  0.2050E+01  0.2022E+01
     15.537  0.4147E-02  0.4230E-01  0.2051E+01  0.2025E+01
     15.614  0.6901E-02  0.5406E-01  0.2051E+01  0.2029E+01
     15.691  0.1971E-01  0.6346E-01  0.2053E+01  0.2034E+01
     15.768  0.3269E-01  0.6458E-01  0.2055E+01  0.2039E+01
     15.844  0.3334E-01  0.5283E-01  0.2058E+01  0.2043E+01
     15.921  0.2130E-01  0.3215E-01  0.2060E+01  0.2046E+01
     15.998  0.7873E-02  0.1530E-01  0.2060E+01  0.2047E+01
     16.075  0.1603E-02  0.1097E-01  0.2060E+01  0.2048E+01
     16.152  0.1260E-02  0.1412E-01  0.2060E+01  0.2049E+01
     16.229  0.1886E-02  0.1410E-01  0.2060E+01  0.2050E+01
     16.306  0.1353E-02  0.1024E-01  0.2061E+01  0.2051E+01
     16.383  0.3978E-03  0.1222E-01  0.2061E+01  0.2052E+01
     16.459 -0.9862E-04  0.2387E-01  0.2061E+01  0.2053E+01
     16.536 -0.1467E-03  0.3446E-01  0.2061E+01  0.2056E+01
     16.613 -0.6925E-04  0.3166E-01  0.2061E+01  0.2058E+01
     16.690 -0.1972E-04  0.1760E-01  0.2061E+01  0.2060E+01
     16.767 -0.3791E-05  0.4463E-02  0.2061E+01  0.2060E+01
     16.844 -0.5135E-06 -0.8513E-03  0.2061E+01  0.2060E+01
     16.921 -0.5000E-07 -0.3296E-03  0.2061E+01  0.2060E+01
     16.998 -0.3539E-08  0.1664E-02  0.2061E+01  0.2060E+01
     17.075 -0.1833E-09  0.2639E-02  0.2061E+01  0.2060E+01
     17.151 -0.6984E-11  0.2168E-02  0.2061E+01  0.2061E+01
     17.228 -0.1962E-12  0.1042E-02  0.2061E+01  0.2061E+01
     17.305 -0.4071E-14  0.1883E-03  0.2061E+01  0.2061E+01
     17.382 -0.6267E-16 -0.1143E-03  0.2061E+01  0.2061E+01
     17.459 -0.1080E-17 -0.1064E-03  0.2061E+01  0.2061E+01
     17.536  0.0000E+00 -0.4425E-04  0.2061E+01  0.2061E+01
     17.613  0.0000E+00 -0.1171E-04  0.2061E+01  0.2061E+01
     17.690  0.0000E+00 -0.2135E-05  0.2061E+01  0.2061E+01
     17.767  0.0000E+00 -0.2771E-06  0.2061E+01  0.2061E+01
     17.843  0.0000E+00 -0.2597E-07  0.2061E+01  0.2061E+01
     17.920  0.0000E+00 -0.1774E-08  0.2061E+01  0.2061E+01
     17.997  0.0000E+00 -0.8873E-10  0.2061E+01  0.2061E+01
     18.074  0.0000E+00 -0.3263E-11  0.2061E+01  0.2061E+01
     18.151  0.0000E+00 -0.8840E-13  0.2061E+01  0.2061E+01
     18.228  0.0000E+00 -0.1769E-14  0.2061E+01  0.2061E+01
     18.305  0.0000E+00 -0.2593E-16  0.2061E+01  0.2061E+01
     18.382  0.0000E+00  0.0000E+00  0.2061E+01  0.2061E+01
     18.458  0.0000E+00  0.0000E+00  0.2061E+01  0.2061E+01
     18.535  0.0000E+00  0.0000E+00  0.2061E+01  0.2061E+01
     18.612  0.0000E+00  0.0000E+00  0.2061E+01  0.2061E+01
     18.689  0.0000E+00  0.0000E+00  0.2061E+01  0.2061E+01
     18.766  0.0000E+00  0.0000E+00  0.2061E+01  0.2061E+01
     18.843  0.0000E+00  0.0000E+00  0.2061E+01  0.2061E+01
     18.920  0.0000E+00  0.0000E+00  0.2061E+01  0.2061E+01
     18.997  0.0000E+00  0.0000E+00  0.2061E+01  0.2061E+01
     19.074  0.0000E+00  0.0000E+00  0.2061E+01  0.2061E+01
     19.07353280     -3.99164055  301      6.62110907      1.00000000
     -3.992  0.0000E+00  0.0000E+00  0.0000E+00  0.0000E+00  0.0000E+00  0.0000E+00
     -3.915  0.0000E+00  0.0000E+00  0.0000E+00  0.0000E+00  0.0000E+00  0.0000E+00
     -3.838  0.0000E+00  0.0000E+00  0.0000E+00  0.0000E+00  0.0000E+00  0.0000E+00
     -3.761  0.0000E+00  0.0000E+00  0.0000E+00  0.0000E+00  0.0000E+00  0.0000E+00
     -3.684  0.0000E+00  0.0000E+00  0.0000E+00  0.0000E+00  0.0000E+00  0.0000E+00
     -3.607 -0.1309E-29  0.0000E+00 -0.3014E-33  0.0000E+00 -0.9693E-34  0.0000E+00
     -3.530 -0.5343E-27 -0.2637E-31 -0.1230E-30 -0.1327E-34 -0.3956E-31 -0.6979E-35
     -3.453 -0.1621E-24 -0.1302E-28 -0.3732E-28 -0.6548E-32 -0.1200E-28 -0.3444E-32
     -3.377 -0.3649E-22 -0.4774E-26 -0.8402E-26 -0.2402E-29 -0.2702E-26 -0.1263E-29
     -3.300 -0.6091E-20 -0.1299E-23 -0.1402E-23 -0.6538E-27 -0.4510E-24 -0.3438E-27
     -3.223 -0.7535E-18 -0.2623E-21 -0.1735E-21 -0.1320E-24 -0.5579E-22 -0.6941E-25
     -3.146 -0.6695E-16 -0.3927E-19 -0.1542E-19 -0.1976E-22 -0.4958E-20 -0.1039E-22
     -3.069 -0.4523E-14 -0.4355E-17 -0.1041E-17 -0.2191E-20 -0.3349E-18 -0.1152E-20
     -2.992 -0.2255E-12 -0.3464E-15 -0.5191E-16 -0.1743E-18 -0.1670E-16 -0.9166E-19
     -2.915 -0.8287E-11 -0.2095E-13 -0.1908E-14 -0.1054E-16 -0.6136E-15 -0.5544E-17
     -2.838 -0.2240E-09 -0.9349E-12 -0.5158E-13 -0.4704E-15 -0.1659E-13 -0.2474E-15
     -2.761 -0.4439E-08 -0.3074E-10 -0.1022E-11 -0.1546E-13 -0.3287E-12 -0.8133E-14
     -2.685 -0.6419E-07 -0.7424E-09 -0.1478E-10 -0.3735E-12 -0.4753E-11 -0.1964E-12
     -2.608 -0.6724E-06 -0.1313E-07 -0.1550E-09 -0.6604E-11 -0.4979E-10 -0.3473E-11
     -2.531 -0.5042E-05 -0.1689E-06 -0.1166E-08 -0.8501E-10 -0.3735E-09 -0.4470E-10
     -2.454 -0.2652E-04 -0.1569E-05 -0.6232E-08 -0.7902E-09 -0.1968E-08 -0.4153E-09
     -2.377 -0.9365E-04 -0.1038E-04 -0.2378E-07 -0.5238E-08 -0.7007E-08 -0.2746E-08
     -2.300 -0.1974E-03 -0.4753E-04 -0.7371E-07 -0.2429E-07 -0.1554E-07 -0.1259E-07
     -2.223 -0.1223E-03 -0.1421E-03 -0.2880E-06 -0.7742E-07 -0.1749E-07 -0.3782E-07
     -2.146  0.5853E-03 -0.2287E-03 -0.1564E-05 -0.1819E-06 -0.1174E-07 -0.6281E-07
     -2.070  0.1970E-02  0.4247E-04 -0.7233E-05 -0.5219E-06 -0.1030E-06 -0.7334E-08
     -1.993  0.2927E-02  0.1122E-02 -0.2196E-04 -0.2553E-05 -0.5152E-06  0.1910E-06
     -1.916  0.2496E-02  0.2633E-02 -0.3480E-04 -0.1086E-04 -0.9635E-06  0.2850E-06
     -1.839  0.2732E-02  0.3115E-02  0.1097E-04 -0.2808E-04  0.4654E-06 -0.1698E-06
     -1.762  0.7722E-02  0.2444E-02  0.1874E-03 -0.2902E-04  0.6118E-05 -0.3587E-06
     -1.685  0.1671E-01  0.4212E-02  0.4380E-03  0.6063E-04  0.1355E-04  0.3015E-05
     -1.608  0.2163E-01  0.1190E-01  0.5433E-03  0.2866E-03  0.1519E-04  0.1200E-04
     -1.531  0.1829E-01  0.2128E-01  0.4649E-03  0.5153E-03  0.1336E-04  0.2059E-04
     -1.454  0.1642E-01  0.2307E-01  0.6330E-03  0.5328E-03  0.3150E-04  0.2013E-04
     -1.378  0.2719E-01  0.1810E-01  0.1422E-02  0.4740E-03  0.8537E-04  0.2013E-04
     -1.301  0.4290E-01  0.2064E-01  0.2327E-02  0.8710E-03  0.1404E-03  0.4880E-04
     -1.224  0.4478E-01  0.3699E-01  0.2419E-02  0.1842E-02  0.1448E-03  0.1086E-03
     -1.147  0.3188E-01  0.5094E-01  0.1793E-02  0.2559E-02  0.1214E-03  0.1495E-03
     -1.070  0.2292E-01  0.4549E-01  0.1557E-02  0.2287E-02  0.1534E-03  0.1342E-03
     -0.993  0.2652E-01  0.2992E-01  0.2058E-02  0.1641E-02  0.2421E-03  0.1129E-03
     -0.916  0.3002E-01  0.2543E-01  0.2334E-02  0.1729E-02  0.2780E-03  0.1565E-03
     -0.839  0.2312E-01  0.3227E-01  0.1821E-02  0.2353E-02  0.2146E-03  0.2291E-03
     -0.763  0.1339E-01  0.3285E-01  0.1341E-02  0.2357E-02  0.1572E-03  0.2282E-03
     -0.686  0.1085E-01  0.2169E-01  0.1620E-02  0.1610E-02  0.1857E-03  0.1545E-03
     -0.609  0.1299E-01  0.1149E-01  0.2066E-02  0.1258E-02  0.2299E-03  0.1231E-03
     -0.532  0.1556E-01  0.1082E-01  0.2342E-02  0.1800E-02  0.2977E-03  0.1762E-03
     -0.455  0.2571E-01  0.1430E-01  0.4003E-02  0.2372E-02  0.6556E-03  0.2335E-03
     -0.378  0.4821E-01  0.1836E-01  0.8129E-02  0.2743E-02  0.1412E-02  0.3260E-03
     -0.301  0.6847E-01  0.3059E-01  0.1220E-01  0.4548E-02  0.2106E-02  0.6892E-03
     -0.224  0.7130E-01  0.5298E-01  0.1311E-01  0.8662E-02  0.2366E-02  0.1368E-02
     -0.147  0.6621E-01  0.7046E-01  0.1233E-01  0.1266E-01  0.2696E-02  0.1955E-02
     -0.071  0.6810E-01  0.7189E-01  0.1315E-01  0.1372E-01  0.3589E-02  0.2151E-02
      0.006  0.6837E-01  0.6740E-01  0.1420E-01  0.1293E-01  0.4268E-02  0.2317E-02
      0.083  0.5185E-01  0.6820E-01  0.1172E-01  0.1322E-01  0.3621E-02  0.2885E-02
      0.160  0.2441E-01  0.6676E-01  0.6055E-02  0.1421E-01  0.1889E-02  0.3472E-02
      0.237  0.3157E-02  0.5209E-01  0.1009E-02  0.1276E-01  0.2803E-03  0.3262E-02
      0.314 -0.5158E-02  0.2839E-01 -0.1209E-02  0.8079E-02 -0.5119E-03  0.2117E-02
      0.391 -0.3166E-02  0.8077E-02 -0.6669E-03  0.2807E-02 -0.4315E-03  0.7360E-03
      0.468  0.7949E-02 -0.2410E-02  0.2509E-02 -0.4386E-03  0.7127E-03 -0.1708E-03
      0.545  0.2810E-01 -0.3805E-02  0.8071E-02 -0.9952E-03  0.3386E-02 -0.3329E-03
      0.621  0.5144E-01  0.2752E-02  0.1445E-01  0.1044E-02  0.7820E-02  0.3550E-03
      0.698  0.6691E-01  0.1699E-01  0.1932E-01  0.5350E-02  0.1312E-01  0.1857E-02
      0.775  0.6796E-01  0.3537E-01  0.2103E-01  0.1048E-01  0.1677E-01  0.3870E-02
      0.852  0.6057E-01  0.5125E-01  0.2009E-01  0.1471E-01  0.1677E-01  0.6405E-02
      0.929  0.5701E-01  0.5945E-01  0.1924E-01  0.1766E-01  0.1468E-01  0.9794E-02
      1.006  0.6167E-01  0.5927E-01  0.2086E-01  0.1967E-01  0.1474E-01  0.1323E-01
      1.083  0.7101E-01  0.5582E-01  0.2479E-01  0.2087E-01  0.1994E-01  0.1487E-01
      1.160  0.8038E-01  0.5635E-01  0.2888E-01  0.2154E-01  0.2852E-01  0.1436E-01
      1.236  0.7964E-01  0.6144E-01  0.2894E-01  0.2190E-01  0.3243E-01  0.1345E-01
      1.313  0.5793E-01  0.6565E-01  0.2128E-01  0.2222E-01  0.2388E-01  0.1390E-01
      1.390  0.2461E-01  0.6988E-01  0.9093E-02  0.2402E-01  0.6780E-02  0.1684E-01
      1.467  0.9534E-02  0.7939E-01  0.2475E-02  0.2779E-01 -0.1668E-02  0.2242E-01
      1.544  0.3515E-01  0.8531E-01  0.9661E-02  0.2927E-01  0.1858E-01  0.2749E-01
      1.621  0.9152E-01  0.7065E-01  0.2889E-01  0.2343E-01  0.7626E-01  0.2664E-01
      1.698  0.1397E+00  0.3803E-01  0.4825E-01  0.1210E-01  0.1595E+00  0.1814E-01
      1.775  0.1474E+00  0.9186E-02  0.5594E-01  0.2489E-02  0.2417E+00  0.6688E-02
      1.852  0.1193E+00  0.1144E-02  0.5122E-01  0.2717E-03  0.2962E+00  0.4972E-03
      1.928  0.8389E-01  0.1859E-01  0.4162E-01  0.7818E-02  0.3078E+00  0.7670E-02
      2.005  0.6131E-01  0.5737E-01  0.3286E-01  0.2429E-01  0.2839E+00  0.3154E-01
      2.082  0.5391E-01  0.9994E-01  0.2659E-01  0.4317E-01  0.2564E+00  0.6315E-01
      2.159  0.5635E-01  0.1183E+00  0.2380E-01  0.5347E-01  0.2542E+00  0.8324E-01
      2.236  0.6125E-01  0.9960E-01  0.2544E-01  0.4878E-01  0.2821E+00  0.8327E-01
      2.313  0.6177E-01  0.6282E-01  0.3195E-01  0.3403E-01  0.3437E+00  0.7891E-01
      2.390  0.5731E-01  0.3731E-01  0.4302E-01  0.2072E-01  0.4518E+00  0.9016E-01
      2.467  0.5173E-01  0.3449E-01  0.5473E-01  0.1676E-01  0.5877E+00  0.1197E+00
      2.543  0.4586E-01  0.4839E-01  0.5997E-01  0.2187E-01  0.6912E+00  0.1646E+00
      2.620  0.3839E-01  0.6889E-01  0.5577E-01  0.3024E-01  0.7214E+00  0.2251E+00
      2.697  0.2993E-01  0.8414E-01  0.4664E-01  0.3611E-01  0.6939E+00  0.2812E+00
      2.774  0.2153E-01  0.8311E-01  0.3996E-01  0.3769E-01  0.6658E+00  0.2971E+00
      2.851  0.1427E-01  0.6855E-01  0.4178E-01  0.3728E-01  0.7007E+00  0.2843E+00
      2.928  0.1044E-01  0.5961E-01  0.5320E-01  0.3834E-01  0.7982E+00  0.3230E+00
      3.005  0.1069E-01  0.6867E-01  0.6646E-01  0.4271E-01  0.8638E+00  0.4724E+00
      3.082  0.1173E-01  0.8285E-01  0.7024E-01  0.5060E-01  0.8186E+00  0.6754E+00
      3.159  0.1038E-01  0.8104E-01  0.6283E-01  0.6024E-01  0.7163E+00  0.7898E+00
      3.235  0.7388E-02  0.6092E-01  0.5358E-01  0.6513E-01  0.6806E+00  0.7186E+00
      3.312  0.5076E-02  0.3714E-01  0.4973E-01  0.5817E-01  0.7410E+00  0.5194E+00
      3.389  0.3863E-02  0.2202E-01  0.4939E-01  0.4319E-01  0.7988E+00  0.3961E+00
      3.466  0.2974E-02  0.1792E-01  0.4932E-01  0.3387E-01  0.7671E+00  0.5405E+00
      3.543  0.2598E-02  0.2084E-01  0.5106E-01  0.3696E-01  0.6944E+00  0.9285E+00
      3.620  0.3879E-02  0.2519E-01  0.5634E-01  0.4640E-01  0.6988E+00  0.1308E+01
      3.697  0.7230E-02  0.2738E-01  0.6175E-01  0.5517E-01  0.8009E+00  0.1437E+01
      3.774  0.1129E-01  0.2634E-01  0.6189E-01  0.6173E-01  0.8966E+00  0.1294E+01
      3.851  0.1405E-01  0.2235E-01  0.5678E-01  0.6619E-01  0.9154E+00  0.1044E+01
      3.927  0.1482E-01  0.1705E-01  0.5379E-01  0.6905E-01  0.9286E+00  0.8639E+00
      4.004  0.1441E-01  0.1278E-01  0.5952E-01  0.7110E-01  0.1022E+01  0.8220E+00
      4.081  0.1414E-01  0.1042E-01  0.7148E-01  0.7038E-01  0.1152E+01  0.8601E+00
      4.158  0.1510E-01  0.9029E-02  0.8108E-01  0.6434E-01  0.1249E+01  0.8792E+00
      4.235  0.1731E-01  0.7721E-02  0.8226E-01  0.5593E-01  0.1352E+01  0.8471E+00
      4.312  0.1897E-01  0.6649E-02  0.7486E-01  0.5167E-01  0.1511E+01  0.8220E+00
      4.389  0.1829E-01  0.6233E-02  0.6384E-01  0.5408E-01  0.1673E+01  0.8730E+00
      4.466  0.1617E-01  0.6355E-02  0.5634E-01  0.5940E-01  0.1730E+01  0.9921E+00
      4.542  0.1494E-01  0.6450E-02  0.5534E-01  0.6233E-01  0.1628E+01  0.1093E+01
      4.619  0.1469E-01  0.6282E-02  0.5577E-01  0.6187E-01  0.1403E+01  0.1107E+01
      4.696  0.1342E-01  0.6140E-02  0.5082E-01  0.6185E-01  0.1158E+01  0.1061E+01
      4.773  0.1052E-01  0.6132E-02  0.4101E-01  0.6484E-01  0.9950E+00  0.1038E+01
      4.850  0.7571E-02  0.5970E-02  0.3333E-01  0.6821E-01  0.9625E+00  0.1091E+01
      4.927  0.5945E-02  0.5621E-02  0.3261E-01  0.6888E-01  0.1038E+01  0.1229E+01
      5.004  0.5549E-02  0.5593E-02  0.3697E-01  0.6842E-01  0.1166E+01  0.1428E+01
      5.081  0.5674E-02  0.6419E-02  0.4090E-01  0.6983E-01  0.1301E+01  0.1629E+01
      5.158  0.5947E-02  0.8107E-02  0.4109E-01  0.7263E-01  0.1412E+01  0.1751E+01
      5.234  0.6262E-02  0.1003E-01  0.3826E-01  0.7385E-01  0.1468E+01  0.1737E+01
      5.311  0.6455E-02  0.1136E-01  0.3421E-01  0.7238E-01  0.1442E+01  0.1588E+01
      5.388  0.6596E-02  0.1189E-01  0.2966E-01  0.7055E-01  0.1338E+01  0.1369E+01
      5.465  0.7161E-02  0.1222E-01  0.2577E-01  0.7157E-01  0.1214E+01  0.1183E+01
      5.542  0.8132E-02  0.1286E-01  0.2401E-01  0.7593E-01  0.1157E+01  0.1099E+01
      5.619  0.8542E-02  0.1354E-01  0.2352E-01  0.8095E-01  0.1187E+01  0.1097E+01
      5.696  0.7801E-02  0.1382E-01  0.2209E-01  0.8408E-01  0.1228E+01  0.1112E+01
      5.773  0.6618E-02  0.1366E-01  0.1962E-01  0.8580E-01  0.1201E+01  0.1106E+01
      5.850  0.5972E-02  0.1296E-01  0.1788E-01  0.8713E-01  0.1123E+01  0.1075E+01
      5.926  0.5951E-02  0.1167E-01  0.1756E-01  0.8556E-01  0.1070E+01  0.1012E+01
      6.003  0.5917E-02  0.1028E-01  0.1748E-01  0.7673E-01  0.1079E+01  0.9156E+00
      6.080  0.5471E-02  0.9413E-02  0.1648E-01  0.6058E-01  0.1095E+01  0.8156E+00
      6.157  0.5109E-02  0.8997E-02  0.1501E-01  0.4340E-01  0.1047E+01  0.7588E+00
      6.234  0.5653E-02  0.8529E-02  0.1449E-01  0.3201E-01  0.9225E+00  0.7606E+00
      6.311  0.6987E-02  0.7908E-02  0.1602E-01  0.2812E-01  0.7533E+00  0.7825E+00
      6.388  0.7902E-02  0.7404E-02  0.1994E-01  0.2979E-01  0.5849E+00  0.7710E+00
      6.465  0.7465E-02  0.7019E-02  0.2479E-01  0.3484E-01  0.4495E+00  0.7130E+00
      6.541  0.6077E-02  0.6421E-02  0.2722E-01  0.4022E-01  0.3552E+00  0.6350E+00