       N       E                     dE             d eps       ncg     rms          rms(c)
DAV:   1     0.251076853076E+04    0.25108E+04   -0.10873E+05 11433   0.181E+03
DAV:   2     0.602543836952E+02   -0.24505E+04   -0.22998E+04 11424   0.389E+02
DAV:   3    -0.252484996753E+03   -0.31274E+03   -0.24623E+03 11424   0.181E+02
DAV:   4    -0.269029565109E+03   -0.16545E+02   -0.15826E+02 12210   0.494E+01
DAV:   5    -0.269244269466E+03   -0.21470E+00   -0.21417E+00 12633   0.557E+00    0.641E+01
RMM:   6    -0.283727615590E+03   -0.14483E+02   -0.34164E+02 11424   0.763E+01    0.901E+01
RMM:   7    -0.296936701955E+03   -0.13209E+02   -0.10720E+02 11424   0.384E+01    0.104E+02
RMM:   8    -0.281148279262E+03    0.15788E+02   -0.57290E+01 11424   0.290E+01    0.107E+02
RMM:   9    -0.242324587523E+03    0.38824E+02   -0.32555E+01 11424   0.217E+01    0.341E+01
RMM:  10    -0.254025258987E+03   -0.11701E+02   -0.15398E+01 11424   0.140E+01    0.614E+01
RMM:  11    -0.246391623883E+03    0.76336E+01   -0.99780E+00 11424   0.119E+01    0.429E+01
RMM:  12    -0.239078556573E+03    0.73131E+01   -0.42554E+00 11424   0.785E+00    0.224E+01
RMM:  13    -0.237112498445E+03    0.19661E+01   -0.10366E+00 11424   0.351E+00    0.144E+01
RMM:  14    -0.237233986676E+03   -0.12149E+00   -0.50157E-01 11424   0.238E+00    0.148E+01
RMM:  15    -0.236821299736E+03    0.41269E+00   -0.34495E-01 11424   0.219E+00    0.992E+00
RMM:  16    -0.236936030299E+03   -0.11473E+00   -0.14670E-01 11424   0.132E+00    0.105E+01
RMM:  17    -0.236989749599E+03   -0.53719E-01   -0.20660E-01 11424   0.152E+00    0.961E+00
RMM:  18    -0.236925991897E+03    0.63758E-01   -0.10840E-01 11424   0.116E+00    0.711E+00
RMM:  19    -0.237003855049E+03   -0.77863E-01   -0.68427E-02 11424   0.853E-01    0.679E+00
RMM:  20    -0.237024152721E+03   -0.20298E-01   -0.33504E-02 11424   0.644E-01    0.603E+00
RMM:  21    -0.237058163944E+03   -0.34011E-01   -0.10553E-02 11424   0.333E-01    0.619E+00
RMM:  22    -0.237092477298E+03   -0.34313E-01   -0.34524E-03 11424   0.179E-01    0.614E+00
RMM:  23    -0.237119203866E+03   -0.26727E-01   -0.32317E-03 11424   0.188E-01    0.629E+00
RMM:  24    -0.237088268635E+03    0.30935E-01   -0.66979E-03 11424   0.278E-01    0.643E+00
RMM:  25    -0.237020353012E+03    0.67916E-01   -0.16190E-02 11424   0.418E-01    0.603E+00
RMM:  26    -0.237035759789E+03   -0.15407E-01   -0.59300E-02 11424   0.827E-01    0.687E+00
RMM:  27    -0.236963757280E+03    0.72003E-01   -0.16010E-01 11424   0.125E+00    0.618E+00
RMM:  28    -0.236957678401E+03    0.60789E-02   -0.48854E-02 11424   0.743E-01    0.579E+00
RMM:  29    -0.236970813994E+03   -0.13136E-01   -0.14428E-02 11424   0.394E-01    0.525E+00
RMM:  30    -0.236984897957E+03   -0.14084E-01   -0.63585E-03 11424   0.278E-01    0.515E+00
RMM:  31    -0.237043026178E+03   -0.58128E-01   -0.14855E-02 11424   0.390E-01    0.515E+00
RMM:  32    -0.237142903771E+03   -0.99878E-01   -0.41983E-02 11424   0.650E-01    0.487E+00
RMM:  33    -0.237212329709E+03   -0.69426E-01   -0.40351E-02 11424   0.629E-01    0.473E+00
RMM:  34    -0.237275789063E+03   -0.63459E-01   -0.74721E-02 11424   0.856E-01    0.379E+00
RMM:  35    -0.237349857004E+03   -0.74068E-01   -0.70067E-02 11424   0.874E-01    0.445E+00
RMM:  36    -0.237353700582E+03   -0.38436E-02   -0.59269E-02 11424   0.815E-01    0.366E+00
RMM:  37    -0.237382476293E+03   -0.28776E-01   -0.32529E-02 11424   0.597E-01    0.380E+00
RMM:  38    -0.237390050551E+03   -0.75743E-02   -0.20870E-02 11424   0.491E-01    0.374E+00
RMM:  39    -0.237380787879E+03    0.92627E-02   -0.16966E-03 11424   0.149E-01    0.360E+00
RMM:  40    -0.237359449881E+03    0.21338E-01   -0.72141E-03 11424   0.291E-01    0.327E+00
RMM:  41    -0.237314829363E+03    0.44621E-01   -0.45753E-02 11424   0.644E-01    0.279E+00
RMM:  42    -0.237307007298E+03    0.78221E-02   -0.23824E-02 11424   0.496E-01    0.253E+00
RMM:  43    -0.237309618459E+03   -0.26112E-02   -0.15286E-02 11424   0.396E-01    0.180E+00
RMM:  44    -0.237314326494E+03   -0.47080E-02   -0.38815E-03 11424   0.208E-01    0.175E+00
RMM:  45    -0.237324554366E+03   -0.10228E-01   -0.42234E-03 11424   0.206E-01    0.166E+00
RMM:  46    -0.237338575324E+03   -0.14021E-01   -0.64965E-03 11424   0.252E-01    0.166E+00
RMM:  47    -0.237347212129E+03   -0.86368E-02   -0.61050E-03 11424   0.247E-01    0.148E+00
RMM:  48    -0.237363554528E+03   -0.16342E-01   -0.13363E-02 11424   0.333E-01    0.141E+00
RMM:  49    -0.237367752950E+03   -0.41984E-02   -0.78810E-03 11424   0.276E-01    0.130E+00
RMM:  50    -0.237374990887E+03   -0.72379E-02   -0.16436E-02 11424   0.368E-01    0.809E-01
RMM:  51    -0.237376476662E+03   -0.14858E-02   -0.10148E-02 11424   0.324E-01    0.105E+00
RMM:  52    -0.237373143936E+03    0.33327E-02   -0.53557E-03 11424   0.265E-01    0.476E-01
RMM:  53    -0.237374461226E+03   -0.13173E-02   -0.23583E-03 11424   0.162E-01    0.636E-01
RMM:  54    -0.237373742442E+03    0.71878E-03   -0.95976E-04 11424   0.113E-01    0.456E-01
RMM:  55    -0.237374457928E+03   -0.71549E-03   -0.56556E-04 11424   0.746E-02    0.390E-01
RMM:  56    -0.237375033916E+03   -0.57599E-03   -0.45399E-04 11424   0.677E-02    0.489E-01
RMM:  57    -0.237374845870E+03    0.18805E-03   -0.18061E-04 11424   0.484E-02    0.408E-01
RMM:  58    -0.237374764927E+03    0.80942E-04   -0.13397E-05  6431   0.112E-02    0.400E-01
RMM:  59    -0.237374294739E+03    0.47019E-03   -0.40464E-04 11424   0.677E-02    0.385E-01
RMM:  60    -0.237373352282E+03    0.94246E-03   -0.99568E-04 11424   0.974E-02    0.252E-01
RMM:  61    -0.237372895697E+03    0.45659E-03   -0.10984E-03 11424   0.938E-02    0.182E-01
RMM:  62    -0.237372934222E+03   -0.38525E-04   -0.21923E-04 11424   0.488E-02    0.170E-01
RMM:  63    -0.237372896177E+03    0.38045E-04   -0.18029E-04 11424   0.443E-02    0.132E-01
RMM:  64    -0.237372871825E+03    0.24352E-04   -0.98054E-05 11285   0.302E-02    0.759E-02
RMM:  65    -0.237372870861E+03    0.96404E-06   -0.35961E-05  9186   0.202E-02
   1 F= -.23737287E+03 E0= -.23738632E+03  d E =-.237373E+03  mag=    53.3915
       N       E                     dE             d eps       ncg     rms          rms(c)
DAV:   1    -0.237028623148E+03    0.34425E+00   -0.19631E+02 11430   0.289E+01    0.974E+00
RMM:   2    -0.246395221763E+03   -0.93666E+01   -0.96625E+00 11424   0.125E+01    0.454E+01
RMM:   3    -0.238769951511E+03    0.76253E+01   -0.36818E+00 11424   0.705E+00    0.156E+01
RMM:   4    -0.238695501880E+03    0.74450E-01   -0.10225E+00 11424   0.352E+00    0.137E+01
RMM:   5    -0.238290997652E+03    0.40450E+00   -0.40137E-01 11424   0.233E+00    0.713E+00
RMM:   6    -0.238139568440E+03    0.15143E+00   -0.11216E-01 11424   0.124E+00    0.296E+00
RMM:   7    -0.238184880916E+03   -0.45312E-01   -0.68444E-02 11424   0.910E-01    0.483E+00
RMM:   8    -0.238135980523E+03    0.48900E-01   -0.20193E-02 11424   0.538E-01    0.265E+00
RMM:   9    -0.238139476010E+03   -0.34955E-02   -0.74580E-03 11424   0.298E-01    0.290E+00
RMM:  10    -0.238145972693E+03   -0.64967E-02   -0.40301E-03 11424   0.208E-01    0.290E+00
RMM:  11    -0.238149814292E+03   -0.38416E-02   -0.94878E-04 11424   0.988E-02    0.298E+00
RMM:  12    -0.238139927830E+03    0.98865E-02   -0.52414E-03 11424   0.249E-01    0.279E+00
RMM:  13    -0.238110051963E+03    0.29876E-01   -0.14558E-02 11424   0.397E-01    0.185E+00
RMM:  14    -0.238118341249E+03   -0.82893E-02   -0.20703E-02 11424   0.471E-01    0.239E+00
RMM:  15    -0.238111582030E+03    0.67592E-02   -0.88301E-03 11424   0.335E-01    0.215E+00
RMM:  16    -0.238107076871E+03    0.45052E-02   -0.16080E-03 11424   0.133E-01    0.209E+00
RMM:  17    -0.238097168551E+03    0.99083E-02   -0.48271E-03 11424   0.233E-01    0.172E+00
RMM:  18    -0.238085253825E+03    0.11915E-01   -0.24359E-02 11424   0.472E-01    0.131E+00
RMM:  19    -0.238077759513E+03    0.74943E-02   -0.79503E-03 11424   0.286E-01    0.683E-01
RMM:  20    -0.238079041272E+03   -0.12818E-02   -0.26369E-03 11424   0.153E-01    0.742E-01
RMM:  21    -0.238078687385E+03    0.35389E-03   -0.11356E-03 11424   0.117E-01    0.643E-01
RMM:  22    -0.238080561415E+03   -0.18740E-02   -0.87824E-04 11424   0.967E-02    0.764E-01
RMM:  23    -0.238080726880E+03   -0.16546E-03   -0.27190E-04 11424   0.557E-02    0.733E-01
RMM:  24    -0.238079555980E+03    0.11709E-02   -0.32377E-04 11424   0.593E-02    0.666E-01
RMM:  25    -0.238078732630E+03    0.82335E-03   -0.68444E-04 11424   0.875E-02    0.599E-01
RMM:  26    -0.238076395164E+03    0.23375E-02   -0.32633E-03 11424   0.168E-01    0.236E-01
RMM:  27    -0.238076563188E+03   -0.16802E-03   -0.10935E-03 11424   0.105E-01    0.294E-01
RMM:  28    -0.238076265537E+03    0.29765E-03   -0.41155E-04 11424   0.695E-02    0.127E-01
RMM:  29    -0.238076321565E+03   -0.56028E-04   -0.15271E-04 11424   0.419E-02    0.143E-01
RMM:  30    -0.238076260994E+03    0.60571E-04   -0.85582E-05 11413   0.319E-02    0.595E-02
RMM:  31    -0.238076258451E+03    0.25431E-05   -0.23345E-05  7968   0.177E-02
   2 F= -.23807626E+03 E0= -.23808968E+03  d E =-.703388E+00  mag=    53.6229
       N       E                     dE             d eps       ncg     rms          rms(c)
DAV:   1    -0.237845696360E+03    0.23056E+00   -0.64016E+01 11424   0.163E+01    0.540E+00
RMM:   2    -0.240514353497E+03   -0.26687E+01   -0.24294E+00 11424   0.635E+00    0.268E+01
RMM:   3    -0.238505353499E+03    0.20090E+01   -0.93419E-01 11424   0.349E+00    0.111E+01
RMM:   4    -0.238330602767E+03    0.17475E+00   -0.39122E-01 11424   0.220E+00    0.656E+00
RMM:   5    -0.238264665295E+03    0.65937E-01   -0.10435E-01 11424   0.123E+00    0.469E+00
RMM:   6    -0.238195518892E+03    0.69146E-01   -0.27546E-02 11424   0.600E-01    0.126E+00
RMM:   7    -0.238204181274E+03   -0.86624E-02   -0.14688E-02 11424   0.431E-01    0.212E+00
RMM:   8    -0.238202249175E+03    0.19321E-02   -0.77741E-03 11424   0.316E-01    0.199E+00
RMM:   9    -0.238192496297E+03    0.97529E-02   -0.49927E-03 11424   0.253E-01    0.991E-01
RMM:  10    -0.238196782224E+03   -0.42859E-02   -0.35603E-03 11424   0.199E-01    0.130E+00
RMM:  11    -0.238197374641E+03   -0.59242E-03   -0.16150E-03 11424   0.137E-01    0.130E+00
RMM:  12    -0.238195976191E+03    0.13984E-02   -0.36547E-04 11424   0.662E-02    0.123E+00
RMM:  13    -0.238191076277E+03    0.48999E-02   -0.18091E-03 11424   0.142E-01    0.901E-01
RMM:  14    -0.238190116549E+03    0.95973E-03   -0.57861E-03 11424   0.245E-01    0.981E-01
RMM:  15    -0.238187907605E+03    0.22089E-02   -0.24387E-03 11424   0.172E-01    0.824E-01
RMM:  16    -0.238188307504E+03   -0.39990E-03   -0.12397E-04 11414   0.290E-02    0.861E-01
RMM:  17    -0.238187917742E+03    0.38976E-03   -0.10109E-04 11423   0.352E-02    0.830E-01
RMM:  18    -0.238185441232E+03    0.24765E-02   -0.28333E-03 11424   0.162E-01    0.572E-01
RMM:  19    -0.238184404599E+03    0.10366E-02   -0.12732E-03 11424   0.115E-01    0.373E-01
RMM:  20    -0.238184550342E+03   -0.14574E-03   -0.43274E-04 11424   0.663E-02    0.290E-01
RMM:  21    -0.238184568094E+03   -0.17752E-04   -0.26471E-04 11424   0.565E-02    0.270E-01
RMM:  22    -0.238184732372E+03   -0.16428E-03   -0.16886E-04 11424   0.420E-02    0.282E-01
RMM:  23    -0.238184759448E+03   -0.27076E-04   -0.28586E-05  8313   0.184E-02    0.286E-01
RMM:  24    -0.238184704388E+03    0.55060E-04   -0.54111E-06  5972   0.909E-03    0.273E-01
RMM:  25    -0.238184632843E+03    0.71545E-04   -0.51320E-05 10363   0.245E-02    0.255E-01
RMM:  26    -0.238184311619E+03    0.32122E-03   -0.29952E-04 11424   0.536E-02    0.123E-01
RMM:  27    -0.238184315013E+03   -0.33946E-05   -0.12645E-04 11421   0.348E-02    0.120E-01
RMM:  28    -0.238184267577E+03    0.47437E-04   -0.87103E-05 11334   0.286E-02    0.372E-02
RMM:  29    -0.238184288538E+03   -0.20961E-04   -0.24602E-05  7763   0.180E-02    0.603E-02
RMM:  30    -0.238184273875E+03    0.14663E-04   -0.16071E-05  6121   0.170E-02    0.154E-02
RMM:  31    -0.238184277075E+03   -0.32007E-05   -0.54919E-06  5810   0.887E-03
   3 F= -.23818428E+03 E0= -.23819499E+03  d E =-.811406E+00  mag=    53.6614
       N       E                     dE             d eps       ncg     rms          rms(c)
DAV:   1    -0.238152527725E+03    0.31746E-01   -0.26759E+01 11448   0.106E+01    0.306E+00
RMM:   2    -0.239253862637E+03   -0.11013E+01   -0.78948E-01 11424   0.359E+00    0.182E+01
RMM:   3    -0.238373028327E+03    0.88083E+00   -0.33296E-01 11424   0.207E+00    0.662E+00
RMM:   4    -0.238313654149E+03    0.59374E-01   -0.12222E-01 11424   0.124E+00    0.399E+00
RMM:   5    -0.238332542430E+03   -0.18888E-01   -0.49432E-02 11424   0.797E-01    0.446E+00
RMM:   6    -0.238265201506E+03    0.67341E-01   -0.20387E-02 11424   0.527E-01    0.723E-01
RMM:   7    -0.238269569716E+03   -0.43682E-02   -0.43214E-03 11424   0.223E-01    0.144E+00
RMM:   8    -0.238268603766E+03    0.96595E-03   -0.35776E-03 11424   0.203E-01    0.136E+00
RMM:   9    -0.238265018514E+03    0.35853E-02   -0.17413E-03 11424   0.153E-01    0.759E-01
RMM:  10    -0.238266824319E+03   -0.18058E-02   -0.82751E-04 11424   0.924E-02    0.996E-01
RMM:  11    -0.238267105266E+03   -0.28095E-03   -0.11642E-04 11415   0.342E-02    0.103E+00
RMM:  12    -0.238264967261E+03    0.21380E-02   -0.14081E-03 11424   0.125E-01    0.802E-01
RMM:  13    -0.238262507058E+03    0.24602E-02   -0.19403E-03 11424   0.149E-01    0.449E-01
RMM:  14    -0.238262657653E+03   -0.15059E-03   -0.10784E-03 11424   0.102E-01    0.493E-01
RMM:  15    -0.238262563601E+03    0.94052E-04   -0.24297E-04 11424   0.543E-02    0.478E-01
RMM:  16    -0.238262499163E+03    0.64439E-04   -0.11964E-05  6454   0.107E-02    0.465E-01
RMM:  17    -0.238262307397E+03    0.19177E-03   -0.12604E-04 11424   0.391E-02    0.431E-01
RMM:  18    -0.238261616798E+03    0.69060E-03   -0.49581E-04 11424   0.690E-02    0.219E-01
RMM:  19    -0.238261551587E+03    0.65211E-04   -0.26950E-04 11424   0.539E-02    0.196E-01
RMM:  20    -0.238261431954E+03    0.11963E-03   -0.18562E-04 11424   0.425E-02    0.978E-02
RMM:  21    -0.238261464194E+03   -0.32240E-04   -0.64724E-05 11079   0.274E-02    0.108E-01
RMM:  22    -0.238261455255E+03    0.89384E-05   -0.25185E-05  7578   0.193E-02
   4 F= -.23826146E+03 E0= -.23827077E+03  d E =-.771782E-01  mag=    53.7522
       N       E                     dE             d eps       ncg     rms          rms(c)
DAV:   1    -0.238239318811E+03    0.22145E-01   -0.83453E+00 11448   0.589E+00    0.171E+00
RMM:   2    -0.238599676062E+03   -0.36036E+00   -0.24013E-01 11424   0.197E+00    0.106E+01
RMM:   3    -0.238310017992E+03    0.28966E+00   -0.10362E-01 11424   0.115E+00    0.383E+00
RMM:   4    -0.238289378897E+03    0.20639E-01   -0.39243E-02 11424   0.702E-01    0.223E+00
RMM:   5    -0.238299421007E+03   -0.10042E-01   -0.16717E-02 11424   0.453E-01    0.275E+00
RMM:   6    -0.238274654402E+03    0.24767E-01   -0.78220E-03 11424   0.327E-01    0.593E-01
RMM:   7    -0.238274287667E+03    0.36674E-03   -0.83881E-04 11424   0.939E-02    0.467E-01
RMM:   8    -0.238275428737E+03   -0.11411E-02   -0.11240E-03 11424   0.115E-01    0.798E-01
RMM:   9    -0.238274476945E+03    0.95179E-03   -0.60044E-04 11424   0.896E-02    0.585E-01
RMM:  10    -0.238274943897E+03   -0.46695E-03   -0.15798E-04 11424   0.389E-02    0.681E-01
RMM:  11    -0.238274952650E+03   -0.87530E-05   -0.87298E-06  6097   0.771E-03
   5 F= -.23827495E+03 E0= -.23828344E+03  d E =-.906756E-01  mag=    53.9454
       N       E                     dE             d eps       ncg     rms          rms(c)
DAV:   1    -0.238274073584E+03    0.87031E-03   -0.11085E-01 11736   0.696E-01    0.684E-01
RMM:   2    -0.238396538820E+03   -0.12247E+00   -0.41493E-02 11424   0.686E-01    0.678E+00
RMM:   3    -0.238279999912E+03    0.11654E+00   -0.32464E-02 11424   0.649E-01    0.140E+00
RMM:   4    -0.238278389401E+03    0.16105E-02   -0.22854E-03 11424   0.154E-01    0.115E+00
RMM:   5    -0.238278020539E+03    0.36886E-03   -0.21648E-04 11424   0.447E-02    0.108E+00
RMM:   6    -0.238277582449E+03    0.43809E-03   -0.46361E-05  9525   0.213E-02    0.104E+00
RMM:   7    -0.238277065071E+03    0.51738E-03   -0.25665E-04 11424   0.519E-02    0.976E-01
RMM:   8    -0.238275422896E+03    0.16422E-02   -0.24077E-03 11424   0.163E-01    0.788E-01
RMM:   9    -0.238273100036E+03    0.23229E-02   -0.16644E-03 11424   0.138E-01    0.298E-01
RMM:  10    -0.238273360859E+03   -0.26082E-03   -0.33431E-04 11424   0.566E-02    0.354E-01
RMM:  11    -0.238273344913E+03    0.15946E-04   -0.11280E-04 11416   0.383E-02    0.353E-01
RMM:  12    -0.238273352672E+03   -0.77589E-05   -0.41681E-06  6074   0.627E-03
   6 F= -.23827335E+03 E0= -.23828226E+03  d E =-.890756E-01  mag=    53.7716
       N       E                     dE             d eps       ncg     rms          rms(c)
DAV:   1    -0.238273258488E+03    0.86426E-04   -0.28766E-02 11616   0.353E-01    0.365E-01
RMM:   2    -0.238317900736E+03   -0.44642E-01   -0.13614E-02 11424   0.390E-01    0.411E+00
RMM:   3    -0.238274411949E+03    0.43489E-01   -0.10261E-02 11424   0.362E-01    0.617E-01
RMM:   4    -0.238274277459E+03    0.13449E-03   -0.55944E-04 11424   0.716E-02    0.556E-01
RMM:   5    -0.238274297102E+03   -0.19643E-04   -0.85693E-05 11122   0.302E-02    0.558E-01
RMM:   6    -0.238274334024E+03   -0.36922E-04   -0.45608E-06  6216   0.718E-03    0.565E-01
RMM:   7    -0.238273939160E+03    0.39486E-03   -0.48715E-04 11424   0.754E-02    0.482E-01
RMM:   8    -0.238273232254E+03    0.70691E-03   -0.50672E-04 11424   0.763E-02    0.335E-01
RMM:   9    -0.238273127719E+03    0.10453E-03   -0.11836E-04 11353   0.354E-02    0.262E-01
RMM:  10    -0.238273162089E+03   -0.34370E-04   -0.66161E-05 10630   0.249E-02    0.281E-01
RMM:  11    -0.238273165691E+03   -0.36021E-05   -0.37198E-06  5889   0.654E-03
   7 F= -.23827317E+03 E0= -.23828191E+03  d E =-.888886E-01  mag=    53.8131
       N       E                     dE             d eps       ncg     rms          rms(c)
DAV:   1    -0.238268141072E+03    0.50210E-02   -0.39269E+00 11436   0.402E+00    0.122E+00
RMM:   2    -0.238443354660E+03   -0.17521E+00   -0.12187E-01 11424   0.140E+00    0.718E+00
RMM:   3    -0.238305573504E+03    0.13778E+00   -0.55384E-02 11424   0.853E-01    0.299E+00
RMM:   4    -0.238290726893E+03    0.14847E-01   -0.18261E-02 11424   0.485E-01    0.153E+00
RMM:   5    -0.238300912838E+03   -0.10186E-01   -0.80401E-03 11424   0.307E-01    0.244E+00
RMM:   6    -0.238285042999E+03    0.15870E-01   -0.45474E-03 11424   0.249E-01    0.636E-01
RMM:   7    -0.238284254682E+03    0.78832E-03   -0.49900E-04 11424   0.747E-02    0.366E-01
RMM:   8    -0.238284969595E+03   -0.71491E-03   -0.47525E-04 11424   0.741E-02    0.621E-01
RMM:   9    -0.238284938711E+03    0.30884E-04   -0.16523E-04 11424   0.443E-02    0.590E-01
RMM:  10    -0.238284764122E+03    0.17459E-03   -0.27311E-05  8284   0.190E-02    0.554E-01
RMM:  11    -0.238284213233E+03    0.55089E-03   -0.17461E-04 11424   0.463E-02    0.442E-01
RMM:  12    -0.238284026480E+03    0.18675E-03   -0.78531E-04 11424   0.907E-02    0.397E-01
RMM:  13    -0.238283350492E+03    0.67599E-03   -0.66088E-04 11424   0.877E-02    0.198E-01
RMM:  14    -0.238283492428E+03   -0.14194E-03   -0.12135E-04 11424   0.335E-02    0.256E-01
RMM:  15    -0.238283504907E+03   -0.12479E-04   -0.18353E-05  6618   0.155E-02    0.265E-01
RMM:  16    -0.238283362495E+03    0.14241E-03   -0.64197E-05 10946   0.273E-02    0.206E-01
RMM:  17    -0.238283237364E+03    0.12513E-03   -0.65364E-05 11145   0.271E-02    0.132E-01
RMM:  18    -0.238283219247E+03    0.18117E-04   -0.50151E-05  9732   0.216E-02    0.881E-02
RMM:  19    -0.238283212746E+03    0.65017E-05   -0.31879E-05  8725   0.206E-02
   8 F= -.23828321E+03 E0= -.23829167E+03  d E =-.100471E-01  mag=    53.7632
       N       E                     dE             d eps       ncg     rms          rms(c)
DAV:   1    -0.238276830990E+03    0.63883E-02   -0.22415E+00 11436   0.304E+00    0.894E-01
RMM:   2    -0.238356317904E+03   -0.79487E-01   -0.61677E-02 11424   0.100E+00    0.467E+00
RMM:   3    -0.238297861723E+03    0.58456E-01   -0.26317E-02 11424   0.586E-01    0.225E+00
RMM:   4    -0.238290379223E+03    0.74825E-02   -0.10049E-02 11424   0.357E-01    0.126E+00
RMM:   5    -0.238294386405E+03   -0.40072E-02   -0.47938E-03 11424   0.238E-01    0.168E+00
RMM:   6    -0.238286368510E+03    0.80179E-02   -0.24115E-03 11424   0.183E-01    0.433E-01
RMM:   7    -0.238285891301E+03    0.47721E-03   -0.40030E-04 11424   0.674E-02    0.244E-01
RMM:   8    -0.238285967393E+03   -0.76093E-04   -0.30638E-04 11424   0.610E-02    0.260E-01
RMM:   9    -0.238285662391E+03    0.30500E-03   -0.20240E-04 11424   0.499E-02    0.116E-01
RMM:  10    -0.238285745119E+03   -0.82727E-04   -0.15047E-04 11424   0.410E-02    0.178E-01
RMM:  11    -0.238285700485E+03    0.44634E-04   -0.78265E-05 11342   0.301E-02    0.151E-01
RMM:  12    -0.238285703984E+03   -0.34988E-05   -0.53230E-06  5981   0.680E-03
   9 F= -.23828570E+03 E0= -.23829369E+03  d E =-.125383E-01  mag=    53.7578
       N       E                     dE             d eps       ncg     rms          rms(c)
DAV:   1    -0.238283862197E+03    0.18383E-02   -0.98183E-01 11460   0.201E+00    0.556E-01
RMM:   2    -0.238293713274E+03   -0.98511E-02   -0.14383E-02 11424   0.496E-01    0.148E+00
RMM:   3    -0.238291998130E+03    0.17151E-02   -0.45380E-03 11424   0.231E-01    0.131E+00
RMM:   4    -0.238291653186E+03    0.34494E-03   -0.37763E-03 11424   0.218E-01    0.939E-01
RMM:   5    -0.238288975200E+03    0.26780E-02   -0.13378E-03 11424   0.142E-01    0.415E-01
RMM:   6    -0.238288611017E+03    0.36418E-03   -0.24740E-04 11424   0.549E-02    0.311E-01
RMM:   7    -0.238288608604E+03    0.24131E-05   -0.31812E-05  8732   0.190E-02
  10 F= -.23828861E+03 E0= -.23829659E+03  d E =-.290462E-02  mag=    53.7304
       N       E                     dE             d eps       ncg     rms          rms(c)
DAV:   1    -0.238288067031E+03    0.54399E-03   -0.33225E-01 11490   0.117E+00    0.417E-01
RMM:   2    -0.238306437246E+03   -0.18370E-01   -0.98238E-03 11424   0.370E-01    0.252E+00
RMM:   3    -0.238291269236E+03    0.15168E-01   -0.55225E-03 11424   0.263E-01    0.903E-01
RMM:   4    -0.238291552756E+03   -0.28352E-03   -0.13904E-03 11424   0.129E-01    0.805E-01
RMM:   5    -0.238291318076E+03    0.23468E-03   -0.64261E-04 11424   0.876E-02    0.763E-01
RMM:   6    -0.238290878189E+03    0.43989E-03   -0.20344E-04 11424   0.535E-02    0.666E-01
RMM:   7    -0.238290894564E+03   -0.16375E-04   -0.13071E-05  6842   0.112E-02    0.676E-01
RMM:   8    -0.238289724680E+03    0.11699E-02   -0.53822E-04 11424   0.729E-02    0.399E-01
RMM:   9    -0.238289448035E+03    0.27665E-03   -0.20205E-04 11424   0.460E-02    0.278E-01
RMM:  10    -0.238289171974E+03    0.27606E-03   -0.33746E-04 11424   0.533E-02    0.206E-01
RMM:  11    -0.238289158526E+03    0.13447E-04   -0.14721E-04 11424   0.411E-02    0.188E-01
RMM:  12    -0.238289224072E+03   -0.65545E-04   -0.82639E-05 11413   0.280E-02    0.218E-01
RMM:  13    -0.238289227957E+03   -0.38853E-05   -0.54879E-06  5947   0.689E-03
  11 F= -.23828923E+03 E0= -.23829770E+03  d E =-.352397E-02  mag=    53.6949
       N       E                     dE             d eps       ncg     rms          rms(c)
DAV:   1    -0.238283400168E+03    0.58239E-02   -0.13272E+00 11436   0.234E+00    0.694E-01
RMM:   2    -0.238321822247E+03   -0.38422E-01   -0.27372E-02 11424   0.660E-01    0.360E+00
RMM:   3    -0.238292298106E+03    0.29524E-01   -0.11145E-02 11424   0.365E-01    0.121E+00
RMM:   4    -0.238295346084E+03   -0.30480E-02   -0.57609E-03 11424   0.268E-01    0.128E+00
RMM:   5    -0.238291477760E+03    0.38683E-02   -0.22661E-03 11424   0.174E-01    0.636E-01
RMM:   6    -0.238290139031E+03    0.13387E-02   -0.80174E-04 11424   0.106E-01    0.423E-01
RMM:   7    -0.238290131103E+03    0.79283E-05   -0.27843E-05  8450   0.143E-02
  12 F= -.23829013E+03 E0= -.23829904E+03  d E =-.442712E-02  mag=    53.6397
       N       E                     dE             d eps       ncg     rms          rms(c)
DAV:   1    -0.238282814063E+03    0.73250E-02   -0.16271E+00 11424   0.257E+00    0.910E-01
RMM:   2    -0.238375741954E+03   -0.92928E-01   -0.48693E-02 11424   0.838E-01    0.580E+00
RMM:   3    -0.238296004640E+03    0.79737E-01   -0.25282E-02 11424   0.559E-01    0.154E+00
RMM:   4    -0.238302502273E+03   -0.64976E-02   -0.90785E-03 11424   0.332E-01    0.191E+00
RMM:   5    -0.238295768443E+03    0.67338E-02   -0.35428E-03 11424   0.211E-01    0.102E+00
RMM:   6    -0.238293550100E+03    0.22183E-02   -0.12236E-03 11424   0.130E-01    0.760E-01
RMM:   7    -0.238293588112E+03   -0.38012E-04   -0.15321E-04 11416   0.406E-02    0.796E-01
RMM:   8    -0.238292107887E+03    0.14802E-02   -0.72757E-04 11424   0.859E-02    0.652E-01
RMM:   9    -0.238291297714E+03    0.81017E-03   -0.56223E-04 11424   0.791E-02    0.464E-01
RMM:  10    -0.238290789405E+03    0.50831E-03   -0.81856E-04 11424   0.900E-02    0.383E-01
RMM:  11    -0.238290421750E+03    0.36766E-03   -0.54816E-04 11424   0.804E-02    0.269E-01
RMM:  12    -0.238290666238E+03   -0.24449E-03   -0.39003E-04 11424   0.598E-02    0.366E-01
RMM:  13    -0.238290561843E+03    0.10440E-03   -0.16190E-04 11424   0.427E-02    0.335E-01
RMM:  14    -0.238290632327E+03   -0.70484E-04   -0.13879E-05  6220   0.105E-02    0.357E-01
RMM:  15    -0.238290569318E+03    0.63009E-04   -0.25750E-05  7927   0.180E-02    0.338E-01
RMM:  16    -0.238290141431E+03    0.42789E-03   -0.40217E-04 11424   0.608E-02    0.176E-01
RMM:  17    -0.238290085061E+03    0.56370E-04   -0.11243E-04 11415   0.335E-02    0.110E-01
RMM:  18    -0.238290082771E+03    0.22901E-05   -0.40475E-05  8850   0.182E-02
  13 F= -.23829008E+03 E0= -.23829943E+03  d E =0.483326E-04  mag=    53.7396
       N       E                     dE             d eps       ncg     rms          rms(c)
DAV:   1    -0.238289989495E+03    0.95566E-04   -0.23547E-02 11580   0.314E-01    0.121E-01
RMM:   2    -0.238291866366E+03   -0.18769E-02   -0.90414E-04 11424   0.110E-01    0.793E-01
RMM:   3    -0.238290212448E+03    0.16539E-02   -0.54869E-04 11423   0.822E-02    0.200E-01
RMM:   4    -0.238290265360E+03   -0.52912E-04   -0.12984E-04 11423   0.396E-02    0.213E-01
RMM:   5    -0.238290240283E+03    0.25077E-04   -0.43378E-05  9087   0.230E-02    0.187E-01
RMM:   6    -0.238290198709E+03    0.41574E-04   -0.17348E-05  6857   0.168E-02    0.135E-01
RMM:   7    -0.238290198628E+03    0.80639E-07   -0.15999E-06  5761   0.407E-03
  14 F= -.23829020E+03 E0= -.23829970E+03  d E =-.675248E-04  mag=    53.7554
       N       E                     dE             d eps       ncg     rms          rms(c)
DAV:   1    -0.238288756855E+03    0.14419E-02   -0.53662E-01 11436   0.149E+00    0.465E-01
RMM:   2    -0.238328913883E+03   -0.40157E-01   -0.18835E-02 11424   0.538E-01    0.391E+00
RMM:   3    -0.238292088200E+03    0.36826E-01   -0.95832E-03 11424   0.347E-01    0.669E-01
RMM:   4    -0.238293217732E+03   -0.11295E-02   -0.26695E-03 11424   0.181E-01    0.909E-01
RMM:   5    -0.238292385961E+03    0.83177E-03   -0.94517E-04 11424   0.105E-01    0.591E-01
RMM:   6    -0.238291229550E+03    0.11564E-02   -0.54277E-04 11424   0.881E-02    0.264E-01
RMM:   7    -0.238291231079E+03   -0.15290E-05   -0.27619E-05  8333   0.161E-02
  15 F= -.23829123E+03 E0= -.23830091E+03  d E =-.103245E-02  mag=    53.7925
