 vasp.5.4.4.18Apr17-6-g9f103f2a35 (build Sep 06 2021 19:49:22) complex          
  
 executed on             LinuxIFC date 2021.12.29  15:27:32
 running on   24 total cores
 distrk:  each k-point on   24 cores,    1 groups
 distr:  one band on NCORES_PER_BAND=   8 cores,    3 groups


--------------------------------------------------------------------------------------------------------


 INCAR:
 POTCAR:    PAW_PBE Ni 02Aug2007                  
 POTCAR:    PAW_PBE Fe 06Sep2000                  
 POTCAR:    PAW_PBE Ni 02Aug2007                  
   VRHFIN =Ni:                                                                  
   LEXCH  = PE                                                                  
   EATOM  =  1077.6739 eV,   79.2068 Ry                                         
                                                                                
   TITEL  = PAW_PBE Ni 02Aug2007                                                
   LULTRA =        F    use ultrasoft PP ?                                      
   IUNSCR =        1    unscreen: 0-lin 1-nonlin 2-no                           
   RPACOR =    2.000    partial core radius                                     
   POMASS =   58.690; ZVAL   =   10.000    mass and valenz                      
   RCORE  =    2.300    outmost cutoff radius                                   
   RWIGS  =    2.430; RWIGS  =    1.286    wigner-seitz radius (au A)           
   ENMAX  =  269.532; ENMIN  =  202.149 eV                                      
   RCLOC  =    1.201    cutoff for local pot                                    
   LCOR   =        T    correct aug charges                                     
   LPAW   =        T    paw PP                                                  
   EAUG   =  544.565                                                            
   DEXC   =    0.000                                                            
   RMAX   =    2.357    core radius for proj-oper                               
   RAUG   =    1.300    factor for augmentation sphere                          
   RDEP   =    2.390    radius for radial grids                                 
   RDEPT  =    1.838    core radius for aug-charge                              
                                                                                
   Atomic configuration                                                         
    9 entries                                                                   
     n  l   j            E        occ.                                          
     1  0  0.50     -8206.4253   2.0000                                         
     2  0  0.50      -976.1748   2.0000                                         
     2  1  1.50      -839.0571   6.0000                                         
     3  0  0.50      -105.9991   2.0000                                         
     3  1  1.50       -66.4603   6.0000                                         
     3  2  2.50        -4.6458   9.0000                                         
     4  0  0.50        -4.4926   1.0000                                         
     4  1  1.50        -4.0817   0.0000                                         
     4  3  2.50        -1.3606   0.0000                                         
   Description                                                                  
     l       E           TYP  RCUT    TYP  RCUT                                 
     2     -4.6457903     23  2.300                                             
     2     -6.0063729     23  2.300                                             
     0     -4.4925590     23  2.300                                             
     0      5.0102601     23  2.300                                             
     1     -2.7211652     23  2.300                                             
     1     16.5183231     23  2.300                                             
  local pseudopotential read in
  partial core-charges read in
  partial kinetic energy density read in
  atomic valenz-charges read in
  non local Contribution for L=           2  read in
    real space projection operators read in
  non local Contribution for L=           2  read in
    real space projection operators read in
  non local Contribution for L=           0  read in
    real space projection operators read in
  non local Contribution for L=           0  read in
    real space projection operators read in
  non local Contribution for L=           1  read in
    real space projection operators read in
  non local Contribution for L=           1  read in
    real space projection operators read in
    PAW grid and wavefunctions read in
 
   number of l-projection  operators is LMAX  =           6
   number of lm-projection operators is LMMAX =          18
 
 POTCAR:    PAW_PBE Fe 06Sep2000                  
   VRHFIN =Fe:  d7 s1                                                           
   LEXCH  = PE                                                                  
   EATOM  =   594.3153 eV,   43.6809 Ry                                         
                                                                                
   TITEL  = PAW_PBE Fe 06Sep2000                                                
   LULTRA =        F    use ultrasoft PP ?                                      
   IUNSCR =        1    unscreen: 0-lin 1-nonlin 2-no                           
   RPACOR =    2.000    partial core radius                                     
   POMASS =   55.847; ZVAL   =    8.000    mass and valenz                      
   RCORE  =    2.300    outmost cutoff radius                                   
   RWIGS  =    2.460; RWIGS  =    1.302    wigner-seitz radius (au A)           
   ENMAX  =  267.882; ENMIN  =  200.911 eV                                      
   RCLOC  =    1.701    cutoff for local pot                                    
   LCOR   =        T    correct aug charges                                     
   LPAW   =        T    paw PP                                                  
   EAUG   =  511.368                                                            
   DEXC   =    0.000                                                            
   RMAX   =    2.356    core radius for proj-oper                               
   RAUG   =    1.300    factor for augmentation sphere                          
   RDEP   =    2.442    radius for radial grids                                 
   RDEPT  =    1.890    core radius for aug-charge                              
                                                                                
   Atomic configuration                                                         
    9 entries                                                                   
     n  l   j            E        occ.                                          
     1  0  0.50     -6993.8440   2.0000                                         
     2  0  0.50      -814.6047   2.0000                                         
     2  1  1.50      -693.3689   6.0000                                         
     3  0  0.50       -89.4732   2.0000                                         
     3  1  1.50       -55.6373   6.0000                                         
     3  2  2.50        -3.8151   7.0000                                         
     4  0  0.50        -4.2551   1.0000                                         
     4  1  1.50        -3.4015   0.0000                                         
     4  3  2.50        -1.3606   0.0000                                         
   Description                                                                  
     l       E           TYP  RCUT    TYP  RCUT                                 
     2     -3.8151135     23  2.300                                             
     2     -5.1756961     23  2.300                                             
     0     -4.2550963     23  2.300                                             
     0      7.2035603     23  2.300                                             
     1     -2.7211652     23  2.300                                             
     1     18.4316424     23  2.300                                             
  local pseudopotential read in
  partial core-charges read in
  partial kinetic energy density read in
  atomic valenz-charges read in
  non local Contribution for L=           2  read in
    real space projection operators read in
  non local Contribution for L=           2  read in
    real space projection operators read in
  non local Contribution for L=           0  read in
    real space projection operators read in
  non local Contribution for L=           0  read in
    real space projection operators read in
  non local Contribution for L=           1  read in
    real space projection operators read in
  non local Contribution for L=           1  read in
    real space projection operators read in
    PAW grid and wavefunctions read in
 
   number of l-projection  operators is LMAX  =           6
   number of lm-projection operators is LMMAX =          18
 
 Optimization of the real space projectors (new method)

 maximal supplied QI-value         = 16.25
 optimisation between [QCUT,QGAM] = [ 11.54, 23.24] = [ 37.28,151.24] Ry 
 Optimized for a Real-space Cutoff    1.45 Angstroem

   l    n(q)    QCUT    max X(q) W(low)/X(q) W(high)/X(q)  e(spline) 
   2      9    11.539    60.317    0.19E-03    0.47E-04    0.16E-06
   2      9    11.539    55.921    0.19E-03    0.48E-04    0.16E-06
   0     10    11.539    51.690    0.80E-04    0.50E-04    0.24E-06
   0     10    11.539    30.015    0.73E-04    0.45E-04    0.22E-06
   1     10    11.539    18.849    0.87E-04    0.16E-03    0.71E-07
   1     10    11.539    14.624    0.73E-04    0.13E-03    0.64E-07
 Optimization of the real space projectors (new method)

 maximal supplied QI-value         = 16.25
 optimisation between [QCUT,QGAM] = [ 11.54, 23.24] = [ 37.28,151.24] Ry 
 Optimized for a Real-space Cutoff    1.53 Angstroem

   l    n(q)    QCUT    max X(q) W(low)/X(q) W(high)/X(q)  e(spline) 
   2     10    11.539    80.901    0.11E-03    0.14E-03    0.21E-06
   2     10    11.539    75.754    0.11E-03    0.14E-03    0.22E-06
   0     11    11.539    58.752    0.52E-04    0.18E-04    0.33E-06
   0     11    11.539    30.679    0.44E-04    0.16E-04    0.30E-06
   1     10    11.539    17.977    0.53E-04    0.29E-04    0.13E-06
   1     10    11.539    13.559    0.44E-04    0.25E-04    0.11E-06
  PAW_PBE Ni 02Aug2007                  :
 energy of atom  1       EATOM=-1077.6739
 kinetic energy error for atom=    0.0030 (will be added to EATOM!!)
  PAW_PBE Fe 06Sep2000                  :
 energy of atom  2       EATOM= -594.3153
 kinetic energy error for atom=    0.0026 (will be added to EATOM!!)
 
 
 POSCAR: POSCAR                                  
  positions in direct lattice
  velocities in cartesian coordinates
 exchange correlation table for  LEXCH =        8
   RHO(1)=    0.500       N(1)  =     2000
   RHO(2)=  100.500       N(2)  =     4000
 


--------------------------------------------------------------------------------------------------------


 ion  position               nearest neighbor table
   1  0.999  0.999  0.496-  18 2.53  25 2.55  10 2.55   7 2.55  11 2.55   5 2.55  31 2.56  20 2.57
                             2 2.57   3 2.58  12 2.59  16 2.60
   2  0.001  0.251  0.753-   8 2.55   3 2.55  17 2.55   4 2.55  19 2.56  13 2.56   1 2.57   7 2.58
                             9 2.58  26 2.60  16 2.61  12 2.61
   3  0.255  0.001  0.752-  14 2.51  21 2.53  27 2.53  15 2.53  19 2.54  20 2.55   2 2.55  24 2.56
                            12 2.56   5 2.56   1 2.58   9 2.60
   4  0.000  0.501  0.499-   5 2.53  30 2.55   6 2.55   2 2.55   7 2.55  18 2.56  20 2.57  12 2.58
                            31 2.58  10 2.58  13 2.60  26 2.61
   5  1.000  0.749  0.752-  17 2.53  27 2.53   4 2.53  16 2.55   1 2.55  32 2.56  26 2.56   3 2.56
                             9 2.57  13 2.58  20 2.59  31 2.60
   6  0.253  0.502  0.248-  27 2.50  19 2.50  17 2.50  22 2.51  12 2.52  20 2.52  23 2.53  29 2.54
                            10 2.54  28 2.54   4 2.55  18 2.57
   7  0.746  0.250  0.498-  15 2.51  22 2.52  23 2.55  14 2.55   1 2.55   4 2.55  30 2.56  25 2.56
                            26 2.58  16 2.58   2 2.58  10 2.61
   8  0.746  0.250  0.002-  28 2.51  10 2.51  21 2.52  25 2.52  15 2.52  26 2.53  30 2.53  22 2.54
                             2 2.55  16 2.56   9 2.56  17 2.56
   9  1.000  0.997  0.011-  18 2.41  10 2.43  25 2.47  11 2.48  27 2.51  32 2.53   8 2.56   5 2.57
                            19 2.57   2 2.58   3 2.60  16 2.61
  10  0.005  0.248  0.241-   9 2.43  19 2.46  17 2.48   8 2.51  11 2.52   6 2.54   1 2.55  12 2.57
                            25 2.58   4 2.58  30 2.60   7 2.61
  11  0.254  0.999  0.246-  22 2.46  21 2.47   9 2.48  19 2.49  14 2.49  27 2.49  29 2.49  10 2.52
                            12 2.53  20 2.54   1 2.55  18 2.56
  12  0.259  0.250  0.495-  22 2.42  14 2.50  23 2.50  15 2.51   6 2.52  11 2.53   3 2.56  13 2.57
                            10 2.57   4 2.58   1 2.59   2 2.61
  13  0.259  0.499  0.754-  28 2.44  15 2.45  23 2.47  24 2.48  19 2.53  27 2.53   2 2.56  20 2.56
                            12 2.57  17 2.57   5 2.58   4 2.60
  14  0.496  0.994  0.496-  20 2.44  29 2.46  31 2.47  11 2.49  12 2.50  22 2.51   3 2.51  25 2.53
                            16 2.53  24 2.55   7 2.55  15 2.60
  15  0.501  0.256  0.749-  13 2.45  26 2.46  28 2.49  23 2.49  12 2.51   7 2.51   8 2.52   3 2.53
                            19 2.54  16 2.54  14 2.60  21 2.61
  16  0.741  0.995  0.752-  24 2.47  21 2.49  32 2.51  31 2.53  14 2.53  15 2.54   5 2.55   8 2.56
                             7 2.58   1 2.60   2 2.61   9 2.61
  17  0.001  0.503  0.006-  18 2.46  10 2.48  30 2.50   6 2.50  27 2.51   5 2.53  32 2.54   2 2.55
                             8 2.56  19 2.56  13 2.57  26 2.59
  18  0.996  0.752  0.242-   9 2.41  17 2.46  32 2.47  25 2.49  30 2.50  27 2.50   1 2.53  11 2.56
                             4 2.56   6 2.57  31 2.57  20 2.63
  19  0.255  0.250  0.005-  22 2.45  10 2.46  11 2.49   6 2.50  21 2.53  13 2.53  28 2.53  15 2.54
                             3 2.54   2 2.56  17 2.56   9 2.57
  20  0.259  0.750  0.499-  14 2.44  23 2.44  29 2.49  24 2.51   6 2.52  11 2.54   3 2.55  13 2.56
                             1 2.57   4 2.57   5 2.59  18 2.63
  21  0.502  0.997  0.005-  25 2.45  29 2.46  11 2.47  32 2.48  16 2.49  22 2.50  27 2.52   8 2.52
                            19 2.53   3 2.53  24 2.57  15 2.61
  22  0.493  0.246  0.251-  12 2.42  19 2.45  11 2.46  21 2.50   6 2.51  14 2.51   7 2.52   8 2.54
                            25 2.54  23 2.60  30 2.60  28 2.60
  23  0.497  0.505  0.505-  20 2.44  24 2.44  13 2.47  31 2.47  26 2.48  15 2.49  12 2.50   6 2.53
                             7 2.55  29 2.55  30 2.57  22 2.60
  24  0.504  0.744  0.750-  26 2.41  23 2.44  28 2.45  16 2.47  13 2.48  31 2.48  32 2.51  20 2.51
                            14 2.55   3 2.56  27 2.56  21 2.57
  25  0.746  0.995  0.246-  29 2.45  21 2.45  32 2.46   9 2.47  18 2.49  31 2.50   8 2.52  14 2.53
                            22 2.54   1 2.55   7 2.56  10 2.58
  26  0.740  0.503  0.754-  24 2.41  28 2.41  15 2.46  23 2.48  32 2.51   8 2.53   5 2.56  31 2.56
                             7 2.58  17 2.59   2 2.60   4 2.61
  27  0.250  0.751  0.002-  11 2.49  18 2.50   6 2.50   9 2.51  17 2.51  21 2.52  28 2.53  13 2.53
                             3 2.53  29 2.53   5 2.53  24 2.56
  28  0.502  0.503  0.994-  26 2.41  13 2.44  24 2.45  32 2.48  15 2.49   8 2.51  30 2.53  19 2.53
                            27 2.53   6 2.54  29 2.57  22 2.60
  29  0.503  0.755  0.250-  31 2.45  25 2.45  14 2.46  21 2.46  32 2.47  20 2.49  11 2.49  30 2.50
                            27 2.53   6 2.54  23 2.55  28 2.57
  30  0.748  0.506  0.247-  32 2.47  18 2.50  31 2.50  29 2.50  17 2.50  28 2.53   8 2.53   4 2.55
                             7 2.56  23 2.57  22 2.60  10 2.60
  31  0.741  0.751  0.496-  29 2.45  14 2.47  23 2.47  24 2.48  30 2.50  25 2.50  16 2.53  26 2.56
                             1 2.56  18 2.57   4 2.58   5 2.60
  32  0.746  0.750  0.004-  25 2.46  30 2.47  18 2.47  29 2.47  28 2.48  21 2.48  24 2.51  16 2.51
                            26 2.51   9 2.53  17 2.54   5 2.56
 

IMPORTANT INFORMATION: All symmetrisations will be switched off!
NOSYMM: (Re-)initialisation of all symmetry stuff for point group C_1.

 
 

Automatic generation of k-mesh.
 generate k-points for:    3    3    3
Space group operators:
 irot       det(A)        alpha          n_x          n_y          n_z        tau_x        tau_y        tau_z
    1     1.000000     0.000000     1.000000     0.000000     0.000000     0.000000     0.000000     0.000000
 
 Subroutine IBZKPT returns following result:
 ===========================================
 
 Found     14 irreducible k-points:
 
 Following reciprocal coordinates:
            Coordinates               Weight
  0.000000  0.000000  0.000000      1.000000
  0.333333  0.000000  0.000000      2.000000
  0.000000  0.333333  0.000000      2.000000
  0.333333  0.333333  0.000000      2.000000
 -0.333333  0.333333  0.000000      2.000000
  0.000000  0.000000  0.333333      2.000000
  0.333333  0.000000  0.333333      2.000000
 -0.333333  0.000000  0.333333      2.000000
  0.000000  0.333333  0.333333      2.000000
  0.333333  0.333333  0.333333      2.000000
 -0.333333  0.333333  0.333333      2.000000
  0.000000 -0.333333  0.333333      2.000000
  0.333333 -0.333333  0.333333      2.000000
 -0.333333 -0.333333  0.333333      2.000000
 
 Following cartesian coordinates:
            Coordinates               Weight
  0.000000  0.000000  0.000000      1.000000
  0.166667  0.000000  0.000000      2.000000
  0.000000  0.166667  0.000000      2.000000
  0.166667  0.166667  0.000000      2.000000
 -0.166667  0.166667  0.000000      2.000000
  0.000000  0.000000  0.166667      2.000000
  0.166667  0.000000  0.166667      2.000000
 -0.166667  0.000000  0.166667      2.000000
  0.000000  0.166667  0.166667      2.000000
  0.166667  0.166667  0.166667      2.000000
 -0.166667  0.166667  0.166667      2.000000
  0.000000 -0.166667  0.166667      2.000000
  0.166667 -0.166667  0.166667      2.000000
 -0.166667 -0.166667  0.166667      2.000000
 


--------------------------------------------------------------------------------------------------------




 Dimension of arrays:
   k-points           NKPTS =     14   k-points in BZ     NKDIM =     14   number of bands    NBANDS=    204
   number of dos      NEDOS =    301   number of ions     NIONS =     32
   non local maximal  LDIM  =      6   non local SUM 2l+1 LMDIM =     18
   total plane-waves  NPLWV = 157464
   max r-space proj   IRMAX =   6561   max aug-charges    IRDMAX=  15543
   dimension x,y,z NGX =    54 NGY =   54 NGZ =   54
   dimension x,y,z NGXF=   108 NGYF=  108 NGZF=  108
   support grid    NGXF=   108 NGYF=  108 NGZF=  108
   ions per type =               8  24
   NGX,Y,Z   is equivalent  to a cutoff of  12.56, 12.56, 12.56 a.u.
   NGXF,Y,Z  is equivalent  to a cutoff of  25.11, 25.11, 25.11 a.u.

 SYSTEM =  SQS-NiFe                                
 POSCAR =  POSCAR                                  

 Startparameter for this run:
   NWRITE =      2    write-flag & timer
   PREC   = accura    normal or accurate (medium, high low for compatibility)
   ISTART =      0    job   : 0-new  1-cont  2-samecut
   ICHARG =      2    charge: 1-file 2-atom 10-const
   ISPIN  =      2    spin polarized calculation?
   LNONCOLLINEAR =      F non collinear calculations
   LSORBIT =      F    spin-orbit coupling
   INIWAV =      1    electr: 0-lowe 1-rand  2-diag
   LASPH  =      F    aspherical Exc in radial PAW
   METAGGA=      F    non-selfconsistent MetaGGA calc.

 Electronic Relaxation 1
   ENCUT  =  520.0 eV  38.22 Ry    6.18 a.u.  13.29 13.29 13.29*2*pi/ulx,y,z
   ENINI  =  520.0     initial cutoff
   ENAUG  =  544.6 eV  augmentation charge cutoff
   NELM   =    200;   NELMIN=  2; NELMDL= -5     # of ELM steps 
   EDIFF  = 0.1E-04   stopping-criterion for ELM
   LREAL  =      T    real-space projection
   NLSPLINE    = F    spline interpolate recip. space projectors
   LCOMPAT=      F    compatible to vasp.4.4
   GGA_COMPAT  = T    GGA compatible to vasp.4.4-vasp.4.6
   LMAXPAW     = -100 max onsite density
   LMAXMIX     =    2 max onsite mixed and CHGCAR
   VOSKOWN=      0    Vosko Wilk Nusair interpolation
   ROPT   =   -0.00025  -0.00025
 Ionic relaxation
   EDIFFG = -.2E-01   stopping-criterion for IOM
   NSW    =     99    number of steps for IOM
   NBLOCK =      1;   KBLOCK =     99    inner block; outer block 
   IBRION =      2    ionic relax: 0-MD 1-quasi-New 2-CG
   NFREE  =      1    steps in history (QN), initial steepest desc. (CG)
   ISIF   =      2    stress and relaxation
   IWAVPR =     11    prediction:  0-non 1-charg 2-wave 3-comb
   ISYM   =      0    0-nonsym 1-usesym 2-fastsym
   LCORR  =      T    Harris-Foulkes like correction to forces

   POTIM  = 0.5000    time-step for ionic-motion
   TEIN   =    0.0    initial temperature
   TEBEG  =    0.0;   TEEND  =   0.0 temperature during run
   SMASS  =  -3.00    Nose mass-parameter (am)
   estimated Nose-frequenzy (Omega)   =  0.10E-29 period in steps =****** mass=  -0.117E-26a.u.
   SCALEE = 1.0000    scale energy and forces
   NPACO  =    256;   APACO  = 16.0  distance and # of slots for P.C.
   PSTRESS=    0.0 pullay stress

  Mass of Ions in am
   POMASS =  58.69 55.85
  Ionic Valenz
   ZVAL   =  10.00  8.00
  Atomic Wigner-Seitz radii
   RWIGS  =  -1.00 -1.00
  virtual crystal weights 
   VCA    =   1.00  1.00
   NELECT =     272.0000    total number of electrons
   NUPDOWN=      -1.0000    fix difference up-down

 DOS related values:
   EMIN   =  10.00;   EMAX   =-10.00  energy-range for DOS
   EFERMI =   0.00
   ISMEAR =     1;   SIGMA  =   0.20  broadening in eV -4-tet -1-fermi 0-gaus

 Electronic relaxation 2 (details)
   IALGO  =     68    algorithm
   LDIAG  =      T    sub-space diagonalisation (order eigenvalues)
   LSUBROT=      F    optimize rotation matrix (better conditioning)
   TURBO    =      0    0=normal 1=particle mesh
   IRESTART =      0    0=no restart 2=restart with 2 vectors
   NREBOOT  =      0    no. of reboots
   NMIN     =      0    reboot dimension
   EREF     =   0.00    reference energy to select bands
   IMIX   =      4    mixing-type and parameters
     AMIX     =   0.40;   BMIX     =  1.00
     AMIX_MAG =   1.60;   BMIX_MAG =  1.00
     AMIN     =   0.10
     WC   =   100.;   INIMIX=   1;  MIXPRE=   1;  MAXMIX= -45

 Intra band minimization:
   WEIMIN = 0.0010     energy-eigenvalue tresh-hold
   EBREAK =  0.12E-07  absolut break condition
   DEPER  =   0.30     relativ break condition  

   TIME   =   0.40     timestep for ELM

  volume/ion in A,a.u.               =      11.42        77.08
  Fermi-wavevector in a.u.,A,eV,Ry     =   1.483514  2.803436 29.943904  2.200815
  Thomas-Fermi vector in A             =   2.597166
 
 Write flags
   LWAVE        =      F    write WAVECAR
   LDOWNSAMPLE  =      F    k-point downsampling of WAVECAR
   LCHARG       =      F    write CHGCAR
   LVTOT        =      F    write LOCPOT, total local potential
   LVHAR        =      F    write LOCPOT, Hartree potential only
   LELF         =      F    write electronic localiz. function (ELF)
   LORBIT       =     10    0 simple, 1 ext, 2 COOP (PROOUT), +10 PAW based schemes


 Dipole corrections
   LMONO  =      F    monopole corrections only (constant potential shift)
   LDIPOL =      F    correct potential (dipole corrections)
   IDIPOL =      0    1-x, 2-y, 3-z, 4-all directions 
   EPSILON=  1.0000000 bulk dielectric constant

 Exchange correlation treatment:
   GGA     =    --    GGA type
   LEXCH   =     8    internal setting for exchange type
   VOSKOWN=      0    Vosko Wilk Nusair interpolation
   LHFCALC =     F    Hartree Fock is set to
   LHFONE  =     F    Hartree Fock one center treatment
   AEXX    =    0.0000 exact exchange contribution

 Linear response parameters
   LEPSILON=     F    determine dielectric tensor
   LRPA    =     F    only Hartree local field effects (RPA)
   LNABLA  =     F    use nabla operator in PAW spheres
   LVEL    =     F    velocity operator in full k-point grid
   LINTERFAST=   F  fast interpolation
   KINTER  =     0    interpolate to denser k-point grid
   CSHIFT  =0.1000    complex shift for real part using Kramers Kronig
   OMEGAMAX=  -1.0    maximum frequency
   DEG_THRESHOLD= 0.2000000E-02 threshold for treating states as degnerate
   RTIME   =   -0.100 relaxation time in fs
  (WPLASMAI=    0.000 imaginary part of plasma frequency in eV, 0.658/RTIME)
   DFIELD  = 0.0000000 0.0000000 0.0000000 field for delta impulse in time
 
 Orbital magnetization related:
   ORBITALMAG=     F  switch on orbital magnetization
   LCHIMAG   =     F  perturbation theory with respect to B field
   DQ        =  0.001000  dq finite difference perturbation B field
   LLRAUG    =     F  two centre corrections for induced B field



--------------------------------------------------------------------------------------------------------


 conjugate gradient relaxation of ions
 charge density and potential will be updated during run
 spin polarized calculation
 RMM-DIIS sequential band-by-band and
  variant of blocked Davidson during initial phase
 perform sub-space diagonalisation
    before iterative eigenvector-optimisation
 modified Broyden-mixing scheme, WC =      100.0
 initial mixing is a Kerker type mixing with AMIX =  0.4000 and BMIX =      1.0000
 Hartree-type preconditioning will be used
 using additional bands           68
 real space projection scheme for non local part
 use partial core corrections
 calculate Harris-corrections to forces 
   (improved forces if not selfconsistent)
 use gradient corrections 
 use of overlap-Matrix (Vanderbilt PP)
 Methfessel and Paxton  Order N= 1 SIGMA  =   0.20


--------------------------------------------------------------------------------------------------------


  energy-cutoff  :      520.00
  volume of cell :      365.53
      direct lattice vectors                 reciprocal lattice vectors
     7.150000000  0.000000000  0.000000000     0.139860140  0.000000000  0.000000000
     0.000000000  7.150000000  0.000000000     0.000000000  0.139860140  0.000000000
     0.000000000  0.000000000  7.150000000     0.000000000  0.000000000  0.139860140

  length of vectors
     7.150000000  7.150000000  7.150000000     0.139860140  0.139860140  0.139860140


 
 k-points in units of 2pi/SCALE and weight: read from INCAR                         
   0.00000000  0.00000000  0.00000000       0.037
   0.16666667  0.00000000  0.00000000       0.074
   0.00000000  0.16666667  0.00000000       0.074
   0.16666667  0.16666667  0.00000000       0.074
  -0.16666667  0.16666667  0.00000000       0.074
   0.00000000  0.00000000  0.16666667       0.074
   0.16666667  0.00000000  0.16666667       0.074
  -0.16666667  0.00000000  0.16666667       0.074
   0.00000000  0.16666667  0.16666667       0.074
   0.16666667  0.16666667  0.16666667       0.074
  -0.16666667  0.16666667  0.16666667       0.074
   0.00000000 -0.16666667  0.16666667       0.074
   0.16666667 -0.16666667  0.16666667       0.074
  -0.16666667 -0.16666667  0.16666667       0.074
 
 k-points in reciprocal lattice and weights: read from INCAR                         
   0.00000000  0.00000000  0.00000000       0.037
   0.33333333  0.00000000  0.00000000       0.074
   0.00000000  0.33333333  0.00000000       0.074
   0.33333333  0.33333333  0.00000000       0.074
  -0.33333333  0.33333333  0.00000000       0.074
   0.00000000  0.00000000  0.33333333       0.074
   0.33333333  0.00000000  0.33333333       0.074
  -0.33333333  0.00000000  0.33333333       0.074
   0.00000000  0.33333333  0.33333333       0.074
   0.33333333  0.33333333  0.33333333       0.074
  -0.33333333  0.33333333  0.33333333       0.074
   0.00000000 -0.33333333  0.33333333       0.074
   0.33333333 -0.33333333  0.33333333       0.074
  -0.33333333 -0.33333333  0.33333333       0.074
 
 position of ions in fractional coordinates (direct lattice) 
   0.99940163  0.99855908  0.49627216
   0.00104861  0.25055959  0.75309831
   0.25500516  0.00061327  0.75167482
   0.00006413  0.50088432  0.49876939
   0.99964747  0.74889352  0.75185719
   0.25346139  0.50162097  0.24823423
   0.74587037  0.24981456  0.49762890
   0.74647287  0.25039731  0.00205913
   0.99963531  0.99747534  0.01067417
   0.00459858  0.24769613  0.24091913
   0.25428938  0.99926608  0.24620762
   0.25882156  0.25040804  0.49516435
   0.25884999  0.49879106  0.75424479
   0.49647955  0.99448290  0.49621708
   0.50076310  0.25601470  0.74884752
   0.74145762  0.99465198  0.75244470
   0.00102020  0.50260527  0.00560597
   0.99584800  0.75174770  0.24237602
   0.25531947  0.24984597  0.00492988
   0.25916470  0.75010660  0.49856195
   0.50176681  0.99688634  0.00513907
   0.49343700  0.24579562  0.25119478
   0.49749191  0.50538170  0.50515693
   0.50398716  0.74404555  0.74994942
   0.74633927  0.99542684  0.24550717
   0.74001162  0.50298269  0.75403745
   0.24999801  0.75081254  0.00237054
   0.50203028  0.50290308  0.99368264
   0.50310611  0.75486075  0.25001907
   0.74800682  0.50579698  0.24732178
   0.74053444  0.75076213  0.49613541
   0.74607150  0.74991137  0.00369842
 
 position of ions in cartesian coordinates  (Angst):
   7.14572162  7.13969745  3.54834596
   0.00749757  1.79150109  5.38465290
   1.82328689  0.00438491  5.37447499
   0.00045852  3.58132287  3.56620114
   7.14747944  5.35458866  5.37577893
   1.81224891  3.58658992  1.77487472
   5.33297312  1.78617414  3.55804660
   5.33728100  1.79034080  0.01472276
   7.14739249  7.13194866  0.07632035
   0.03287984  1.77102731  1.72257178
   1.81816906  7.14475248  1.76038452
   1.85057414  1.79041749  3.54042513
   1.85077743  3.56635611  5.39285022
   3.54982876  7.11055271  3.54795210
   3.58045617  1.83050508  5.35425976
   5.30142195  7.11176169  5.37997962
   0.00729447  3.59362769  0.04008272
   7.12031321  5.37499605  1.73298853
   1.82553423  1.78639866  0.03524864
   1.85302762  5.36326217  3.56471794
   3.58763269  7.12773737  0.03674433
   3.52807453  1.75743869  1.79604270
   3.55706713  3.61347919  3.61187204
   3.60350820  5.31992566  5.36213836
   5.33632579  7.11730192  1.75537630
   5.29108312  3.59632626  5.39136774
   1.78748576  5.36830966  0.01694934
   3.58951651  3.59575703  7.10483084
   3.59720869  5.39725435  1.78763638
   5.34824873  3.61644842  1.76835075
   5.29482122  5.36794926  3.54736821
   5.33441119  5.36186628  0.02644370
 


--------------------------------------------------------------------------------------------------------


 k-point  1 :   0.0000 0.0000 0.0000  plane waves:    9795
 k-point  2 :   0.3333 0.0000 0.0000  plane waves:    9838
 k-point  3 :   0.0000 0.3333 0.0000  plane waves:    9838
 k-point  4 :   0.3333 0.3333 0.0000  plane waves:    9847
 k-point  5 :  -0.3333 0.3333 0.0000  plane waves:    9847
 k-point  6 :   0.0000 0.0000 0.3333  plane waves:    9838
 k-point  7 :   0.3333 0.0000 0.3333  plane waves:    9847
 k-point  8 :  -0.3333 0.0000 0.3333  plane waves:    9847
 k-point  9 :   0.0000 0.3333 0.3333  plane waves:    9847
 k-point 10 :   0.3333 0.3333 0.3333  plane waves:    9871
 k-point 11 :  -0.3333 0.3333 0.3333  plane waves:    9871
 k-point 12 :   0.0000-0.3333 0.3333  plane waves:    9847
 k-point 13 :   0.3333-0.3333 0.3333  plane waves:    9871
 k-point 14 :  -0.3333-0.3333 0.3333  plane waves:    9871

 maximum and minimum number of plane-waves per node :      1255     1184

 maximum number of plane-waves:      9871
 maximum index in each direction: 
   IXMAX=   13   IYMAX=   13   IZMAX=   13
   IXMIN=  -13   IYMIN=  -13   IZMIN=  -13


 real space projection operators:
  total allocation   :      27278.30 KBytes
  max/ min on nodes  :       3565.97       3123.00


 parallel 3D FFT for wavefunctions:
    minimum data exchange during FFTs selected (reduces bandwidth)
 parallel 3D FFT for charge:
    minimum data exchange during FFTs selected (reduces bandwidth)


 total amount of memory used by VASP MPI-rank0    86961. kBytes
=======================================================================

   base      :      30000. kBytes
   nonlr-proj:       7957. kBytes
   fftplans  :       2563. kBytes
   grid      :       6379. kBytes
   one-center:        124. kBytes
   wavefun   :      39938. kBytes
 
     INWAV:  cpu time    0.0000: real time    0.0002
 Broyden mixing: mesh for mixing (old mesh)
   NGX = 27   NGY = 27   NGZ = 27
  (NGX  =108   NGY  =108   NGZ  =108)
  gives a total of  19683 points

 initial charge density was supplied:
 charge density of overlapping atoms calculated
 number of electron     272.0000000 magnetization      80.0000000
 keeping initial charge density in first step


--------------------------------------------------------------------------------------------------------


 Maximum index for non-local projection operator          929
 Maximum index for augmentation-charges         1042 (set IRDMAX)


--------------------------------------------------------------------------------------------------------


 First call to EWALD:  gamma=   0.248
 Maximum number of real-space cells 3x 3x 3
 Maximum number of reciprocal cells 3x 3x 3

    FEWALD:  cpu time    0.0030: real time    0.0027


--------------------------------------- Iteration      1(   1)  ---------------------------------------


    POTLOK:  cpu time    0.1010: real time    0.1058
    SETDIJ:  cpu time    0.0180: real time    0.0185
     EDDAV:  cpu time   13.2960: real time   13.3560
       DOS:  cpu time    0.0060: real time    0.0062
    --------------------------------------------
      LOOP:  cpu time   13.4210: real time   13.4865

 eigenvalue-minimisations  : 11433
 total energy-change (2. order) : 0.2510769E+04  (-0.1087309E+05)
 number of electron     272.0000000 magnetization      80.0000000
 augmentation part      272.0000000 magnetization      80.0000000

 Free energy of the ion-electron system (eV)
  ---------------------------------------------------
  alpha Z        PSCENC =      1846.49885247
  Ewald energy   TEWEN  =    -21448.44541896
  -Hartree energ DENC   =     -4830.04824233
  -exchange      EXHF   =         0.00000000
  -V(xc)+E(xc)   XCENC  =       374.36477113
  PAW double counting   =     20992.88779333   -21713.01258880
  entropy T*S    EENTRO =         0.00815351
  eigenvalues    EBANDS =      4403.64351830
  atomic energy  EATOM  =     22884.87169210
  Solvation  Ediel_sol  =         0.00000000
  ---------------------------------------------------
  free energy    TOTEN  =      2510.76853076 eV

  energy without entropy =     2510.76037725  energy(sigma->0) =     2510.76581292


--------------------------------------------------------------------------------------------------------




--------------------------------------- Iteration      1(   2)  ---------------------------------------


     EDDAV:  cpu time   13.3060: real time   13.3754
       DOS:  cpu time    0.0080: real time    0.0084
    --------------------------------------------
      LOOP:  cpu time   13.3140: real time   13.3838

 eigenvalue-minimisations  : 11424
 total energy-change (2. order) :-0.2450514E+04  (-0.2299783E+04)
 number of electron     272.0000000 magnetization      80.0000000
 augmentation part      272.0000000 magnetization      80.0000000

 Free energy of the ion-electron system (eV)
  ---------------------------------------------------
  alpha Z        PSCENC =      1846.49885247
  Ewald energy   TEWEN  =    -21448.44541896
  -Hartree energ DENC   =     -4830.04824233
  -exchange      EXHF   =         0.00000000
  -V(xc)+E(xc)   XCENC  =       374.36477113
  PAW double counting   =     20992.88779333   -21713.01258880
  entropy T*S    EENTRO =         0.00323661
  eigenvalues    EBANDS =      1953.13428814
  atomic energy  EATOM  =     22884.87169210
  Solvation  Ediel_sol  =         0.00000000
  ---------------------------------------------------
  free energy    TOTEN  =        60.25438370 eV

  energy without entropy =       60.25114708  energy(sigma->0) =       60.25330482


--------------------------------------------------------------------------------------------------------




--------------------------------------- Iteration      1(   3)  ---------------------------------------


     EDDAV:  cpu time   13.3170: real time   13.4498
       DOS:  cpu time    0.0090: real time    0.0095
    --------------------------------------------
      LOOP:  cpu time   13.3260: real time   13.4593

 eigenvalue-minimisations  : 11424
 total energy-change (2. order) :-0.3127394E+03  (-0.2462339E+03)
 number of electron     272.0000000 magnetization      80.0000000
 augmentation part      272.0000000 magnetization      80.0000000

 Free energy of the ion-electron system (eV)
  ---------------------------------------------------
  alpha Z        PSCENC =      1846.49885247
  Ewald energy   TEWEN  =    -21448.44541896
  -Hartree energ DENC   =     -4830.04824233
  -exchange      EXHF   =         0.00000000
  -V(xc)+E(xc)   XCENC  =       374.36477113
  PAW double counting   =     20992.88779333   -21713.01258880
  entropy T*S    EENTRO =        -0.04917578
  eigenvalues    EBANDS =      1640.44732008
  atomic energy  EATOM  =     22884.87169210
  Solvation  Ediel_sol  =         0.00000000
  ---------------------------------------------------
  free energy    TOTEN  =      -252.48499675 eV

  energy without entropy =     -252.43582097  energy(sigma->0) =     -252.46860483


--------------------------------------------------------------------------------------------------------




--------------------------------------- Iteration      1(   4)  ---------------------------------------


     EDDAV:  cpu time   14.1428: real time   14.2502
       DOS:  cpu time    0.0100: real time    0.0096
    --------------------------------------------
      LOOP:  cpu time   14.1528: real time   14.2597

 eigenvalue-minimisations  : 12210
 total energy-change (2. order) :-0.1654457E+02  (-0.1582645E+02)
 number of electron     272.0000000 magnetization      80.0000000
 augmentation part      272.0000000 magnetization      80.0000000

 Free energy of the ion-electron system (eV)
  ---------------------------------------------------
  alpha Z        PSCENC =      1846.49885247
  Ewald energy   TEWEN  =    -21448.44541896
  -Hartree energ DENC   =     -4830.04824233
  -exchange      EXHF   =         0.00000000
  -V(xc)+E(xc)   XCENC  =       374.36477113
  PAW double counting   =     20992.88779333   -21713.01258880
  entropy T*S    EENTRO =        -0.06558268
  eigenvalues    EBANDS =      1623.91915862
  atomic energy  EATOM  =     22884.87169210
  Solvation  Ediel_sol  =         0.00000000
  ---------------------------------------------------
  free energy    TOTEN  =      -269.02956511 eV

  energy without entropy =     -268.96398243  energy(sigma->0) =     -269.00770422


--------------------------------------------------------------------------------------------------------




--------------------------------------- Iteration      1(   5)  ---------------------------------------


     EDDAV:  cpu time   14.4168: real time   14.4681
       DOS:  cpu time    0.0100: real time    0.0099
    CHARGE:  cpu time    0.5279: real time    0.5286
    MIXING:  cpu time    0.0020: real time    0.0019
    --------------------------------------------
      LOOP:  cpu time   14.9567: real time   15.0085

 eigenvalue-minimisations  : 12633
 total energy-change (2. order) :-0.2147044E+00  (-0.2141665E+00)
 number of electron     271.9999947 magnetization      62.8068154
 augmentation part      131.1145047 magnetization      47.8774518

 Broyden mixing:
  rms(total) = 0.64087E+01    rms(broyden)= 0.64085E+01
  rms(prec ) = 0.84698E+01
  weight for this iteration     100.00

 Free energy of the ion-electron system (eV)
  ---------------------------------------------------
  alpha Z        PSCENC =      1846.49885247
  Ewald energy   TEWEN  =    -21448.44541896
  -Hartree energ DENC   =     -4830.04824233
  -exchange      EXHF   =         0.00000000
  -V(xc)+E(xc)   XCENC  =       374.36477113
  PAW double counting   =     20992.88779333   -21713.01258880
  entropy T*S    EENTRO =        -0.06567014
  eigenvalues    EBANDS =      1623.70454173
  atomic energy  EATOM  =     22884.87169210
  Solvation  Ediel_sol  =         0.00000000
  ---------------------------------------------------
  free energy    TOTEN  =      -269.24426947 eV

  energy without entropy =     -269.17859933  energy(sigma->0) =     -269.22237942


--------------------------------------------------------------------------------------------------------




--------------------------------------- Iteration      1(   6)  ---------------------------------------


    POTLOK:  cpu time    0.0760: real time    0.0775
    SETDIJ:  cpu time    0.0190: real time    0.0181
    EDDIAG:  cpu time    1.7397: real time    1.7448
  RMM-DIIS:  cpu time    8.7147: real time    8.7598
    ORTHCH:  cpu time    0.2920: real time    0.2940
       DOS:  cpu time    0.0100: real time    0.0102
    CHARGE:  cpu time    0.5229: real time    0.5236
    MIXING:  cpu time    0.0020: real time    0.0019
    --------------------------------------------
      LOOP:  cpu time   11.3763: real time   11.4299

 eigenvalue-minimisations  : 11424
 total energy-change (2. order) :-0.1448335E+02  (-0.3416361E+02)
 number of electron     271.9999949 magnetization      58.9469147
 augmentation part      155.2370373 magnetization      48.2668171

 Broyden mixing:
  rms(total) = 0.90096E+01    rms(broyden)= 0.90095E+01
  rms(prec ) = 0.15894E+02
  weight for this iteration     100.00

 eigenvalues of (default mixing * dielectric matrix)
  average eigenvalue GAMMA=   0.3206
  0.3206

 Free energy of the ion-electron system (eV)
  ---------------------------------------------------
  alpha Z        PSCENC =      1846.49885247
  Ewald energy   TEWEN  =    -21448.44541896
  -Hartree energ DENC   =     -4194.28131794
  -exchange      EXHF   =         0.00000000
  -V(xc)+E(xc)   XCENC  =       334.71762327
  PAW double counting   =     22700.39248657   -23324.14924025
  entropy T*S    EENTRO =        -0.01199807
  eigenvalues    EBANDS =       916.67970522
  atomic energy  EATOM  =     22884.87169210
  Solvation  Ediel_sol  =         0.00000000
  ---------------------------------------------------
  free energy    TOTEN  =      -283.72761559 eV

  energy without entropy =     -283.71561752  energy(sigma->0) =     -283.72361623


--------------------------------------------------------------------------------------------------------




--------------------------------------- Iteration      1(   7)  ---------------------------------------


    POTLOK:  cpu time    0.0760: real time    0.0773
    SETDIJ:  cpu time    0.0350: real time    0.0345
    EDDIAG:  cpu time    1.6817: real time    1.6831
  RMM-DIIS:  cpu time    8.7087: real time    8.7326
    ORTHCH:  cpu time    0.2930: real time    0.2935
       DOS:  cpu time    0.0100: real time    0.0099
    CHARGE:  cpu time    0.5349: real time    0.5349
    MIXING:  cpu time    0.0020: real time    0.0020
    --------------------------------------------
      LOOP:  cpu time   11.3413: real time   11.3679

 eigenvalue-minimisations  : 11424
 total energy-change (2. order) :-0.1320909E+02  (-0.1071987E+02)
 number of electron     271.9999915 magnetization      52.4596256
 augmentation part      153.3684724 magnetization      42.6858802

 Broyden mixing:
  rms(total) = 0.10357E+02    rms(broyden)= 0.10357E+02
  rms(prec ) = 0.18622E+02
  weight for this iteration     100.00

 eigenvalues of (default mixing * dielectric matrix)
  average eigenvalue GAMMA=   0.3181
  0.5126  0.1236

 Free energy of the ion-electron system (eV)
  ---------------------------------------------------
  alpha Z        PSCENC =      1846.49885247
  Ewald energy   TEWEN  =    -21448.44541896
  -Hartree energ DENC   =     -4272.73223313
  -exchange      EXHF   =         0.00000000
  -V(xc)+E(xc)   XCENC  =       336.59516860
  PAW double counting   =     23210.66716422   -23874.29399435
  entropy T*S    EENTRO =         0.01756696
  eigenvalues    EBANDS =      1019.88450014
  atomic energy  EATOM  =     22884.87169210
  Solvation  Ediel_sol  =         0.00000000
  ---------------------------------------------------
  free energy    TOTEN  =      -296.93670196 eV

  energy without entropy =     -296.95426892  energy(sigma->0) =     -296.94255761


--------------------------------------------------------------------------------------------------------




--------------------------------------- Iteration      1(   8)  ---------------------------------------


    POTLOK:  cpu time    0.0760: real time    0.0780
    SETDIJ:  cpu time    0.0190: real time    0.0181
    EDDIAG:  cpu time    1.6877: real time    1.6921
  RMM-DIIS:  cpu time    8.7027: real time    8.7231
    ORTHCH:  cpu time    0.2940: real time    0.2943
       DOS:  cpu time    0.0100: real time    0.0100
    CHARGE:  cpu time    0.5259: real time    0.5269
    MIXING:  cpu time    0.0020: real time    0.0019
    --------------------------------------------
      LOOP:  cpu time   11.3173: real time   11.3444

 eigenvalue-minimisations  : 11424
 total energy-change (2. order) : 0.1578842E+02  (-0.5728956E+01)
 number of electron     271.9999973 magnetization      48.9206192
 augmentation part      147.2002908 magnetization      40.3058849

 Broyden mixing:
  rms(total) = 0.10687E+02    rms(broyden)= 0.10687E+02
  rms(prec ) = 0.19804E+02
  weight for this iteration     100.00

 eigenvalues of (default mixing * dielectric matrix)
  average eigenvalue GAMMA=   0.3090
  0.6276  0.1652  0.1342

 Free energy of the ion-electron system (eV)
  ---------------------------------------------------
  alpha Z        PSCENC =      1846.49885247
  Ewald energy   TEWEN  =    -21448.44541896
  -Hartree energ DENC   =     -4348.03265106
  -exchange      EXHF   =         0.00000000
  -V(xc)+E(xc)   XCENC  =       337.51041984
  PAW double counting   =     23961.54466677   -24672.22062809
  entropy T*S    EENTRO =         0.00751804
  eigenvalues    EBANDS =      1157.11726962
  atomic energy  EATOM  =     22884.87169210
  Solvation  Ediel_sol  =         0.00000000
  ---------------------------------------------------
  free energy    TOTEN  =      -281.14827926 eV

  energy without entropy =     -281.15579730  energy(sigma->0) =     -281.15078528


--------------------------------------------------------------------------------------------------------




--------------------------------------- Iteration      1(   9)  ---------------------------------------


    POTLOK:  cpu time    0.0780: real time    0.0777
    SETDIJ:  cpu time    0.0180: real time    0.0180
    EDDIAG:  cpu time    1.7787: real time    1.7811
  RMM-DIIS:  cpu time    8.7717: real time    8.7888
    ORTHCH:  cpu time    0.3110: real time    0.3118
       DOS:  cpu time    0.0100: real time    0.0094
    CHARGE:  cpu time    0.5269: real time    0.5283
    MIXING:  cpu time    0.0030: real time    0.0020
    --------------------------------------------
      LOOP:  cpu time   11.4973: real time   11.5172

 eigenvalue-minimisations  : 11424
 total energy-change (2. order) : 0.3882369E+02  (-0.3255455E+01)
 number of electron     271.9999935 magnetization      46.7257332
 augmentation part      147.6930514 magnetization      36.5065640

 Broyden mixing:
  rms(total) = 0.34133E+01    rms(broyden)= 0.34127E+01
  rms(prec ) = 0.59716E+01
  weight for this iteration     100.00

 eigenvalues of (default mixing * dielectric matrix)
  average eigenvalue GAMMA=   0.4194
  0.8359  0.6191  0.1114  0.1114

 Free energy of the ion-electron system (eV)
  ---------------------------------------------------
  alpha Z        PSCENC =      1846.49885247
  Ewald energy   TEWEN  =    -21448.44541896
  -Hartree energ DENC   =     -4322.65071662
  -exchange      EXHF   =         0.00000000
  -V(xc)+E(xc)   XCENC  =       335.88933486
  PAW double counting   =     24287.67479080   -25007.25607476
  entropy T*S    EENTRO =        -0.04784226
  eigenvalues    EBANDS =      1181.14079485
  atomic energy  EATOM  =     22884.87169210
  Solvation  Ediel_sol  =         0.00000000
  ---------------------------------------------------
  free energy    TOTEN  =      -242.32458752 eV

  energy without entropy =     -242.27674526  energy(sigma->0) =     -242.30864010


--------------------------------------------------------------------------------------------------------




--------------------------------------- Iteration      1(  10)  ---------------------------------------


    POTLOK:  cpu time    0.0770: real time    0.0779
    SETDIJ:  cpu time    0.0180: real time    0.0182
    EDDIAG:  cpu time    1.7007: real time    1.7023
  RMM-DIIS:  cpu time    8.7357: real time    8.7539
    ORTHCH:  cpu time    0.2920: real time    0.2933
       DOS:  cpu time    0.0100: real time    0.0098
    CHARGE:  cpu time    0.5269: real time    0.5276
    MIXING:  cpu time    0.0030: real time    0.0021
    --------------------------------------------
      LOOP:  cpu time   11.3633: real time   11.3851

 eigenvalue-minimisations  : 11424
 total energy-change (2. order) :-0.1170067E+02  (-0.1539780E+01)
 number of electron     271.9999938 magnetization      42.3548421
 augmentation part      148.4432886 magnetization      34.4349423

 Broyden mixing:
  rms(total) = 0.61378E+01    rms(broyden)= 0.61376E+01
  rms(prec ) = 0.11050E+02
  weight for this iteration     100.00

 eigenvalues of (default mixing * dielectric matrix)
  average eigenvalue GAMMA=   0.4168
  1.1285  0.6215  0.1173  0.1084  0.1084

 Free energy of the ion-electron system (eV)
  ---------------------------------------------------
  alpha Z        PSCENC =      1846.49885247
  Ewald energy   TEWEN  =    -21448.44541896
  -Hartree energ DENC   =     -4308.36781581
  -exchange      EXHF   =         0.00000000
  -V(xc)+E(xc)   XCENC  =       335.58026901
  PAW double counting   =     24552.52159444   -25279.63016581
  entropy T*S    EENTRO =         0.00812144
  eigenvalues    EBANDS =      1162.93761213
  atomic energy  EATOM  =     22884.87169210
  Solvation  Ediel_sol  =         0.00000000
  ---------------------------------------------------
  free energy    TOTEN  =      -254.02525899 eV

  energy without entropy =     -254.03338043  energy(sigma->0) =     -254.02796614


--------------------------------------------------------------------------------------------------------




--------------------------------------- Iteration      1(  11)  ---------------------------------------


    POTLOK:  cpu time    0.0760: real time    0.0772
    SETDIJ:  cpu time    0.0190: real time    0.0183
    EDDIAG:  cpu time    1.6927: real time    1.6951
  RMM-DIIS:  cpu time    8.7217: real time    8.7460
    ORTHCH:  cpu time    0.2920: real time    0.2932
       DOS:  cpu time    0.0100: real time    0.0099
    CHARGE:  cpu time    0.5269: real time    0.5519
    MIXING:  cpu time    0.0030: real time    0.0021
    --------------------------------------------
      LOOP:  cpu time   11.3413: real time   11.3937

 eigenvalue-minimisations  : 11424
 total energy-change (2. order) : 0.7633635E+01  (-0.9977981E+00)
 number of electron     271.9999939 magnetization      41.0999999
 augmentation part      148.4980241 magnetization      32.6923718

 Broyden mixing:
  rms(total) = 0.42919E+01    rms(broyden)= 0.42917E+01
  rms(prec ) = 0.79979E+01
  weight for this iteration     100.00

 eigenvalues of (default mixing * dielectric matrix)
  average eigenvalue GAMMA=   0.3837
  1.1912  0.6139  0.1705  0.1120  0.1120  0.1028

 Free energy of the ion-electron system (eV)
  ---------------------------------------------------
  alpha Z        PSCENC =      1846.49885247
  Ewald energy   TEWEN  =    -21448.44541896
  -Hartree energ DENC   =     -4282.27156537
  -exchange      EXHF   =         0.00000000
  -V(xc)+E(xc)   XCENC  =       334.28354593
  PAW double counting   =     25001.26002581   -25740.33190078
  entropy T*S    EENTRO =        -0.00175921
  eigenvalues    EBANDS =      1157.74490412
  atomic energy  EATOM  =     22884.87169210
  Solvation  Ediel_sol  =         0.00000000
  ---------------------------------------------------
  free energy    TOTEN  =      -246.39162388 eV

  energy without entropy =     -246.38986468  energy(sigma->0) =     -246.39103748


--------------------------------------------------------------------------------------------------------




--------------------------------------- Iteration      1(  12)  ---------------------------------------


    POTLOK:  cpu time    0.0770: real time    0.0779
    SETDIJ:  cpu time    0.0180: real time    0.0182
    EDDIAG:  cpu time    1.6947: real time    1.6973
  RMM-DIIS:  cpu time    8.7807: real time    9.0769
    ORTHCH:  cpu time    0.3130: real time    0.3144
       DOS:  cpu time    0.0110: real time    0.0100
    CHARGE:  cpu time    0.5189: real time    0.5198
    MIXING:  cpu time    0.0020: real time    0.0023
    --------------------------------------------
      LOOP:  cpu time   11.4153: real time   11.7166

 eigenvalue-minimisations  : 11424
 total energy-change (2. order) : 0.7313067E+01  (-0.4255361E+00)
 number of electron     271.9999939 magnetization      40.8440205
 augmentation part      148.4335528 magnetization      32.4641580

 Broyden mixing:
  rms(total) = 0.22418E+01    rms(broyden)= 0.22416E+01
  rms(prec ) = 0.41581E+01
  weight for this iteration     100.00

 eigenvalues of (default mixing * dielectric matrix)
  average eigenvalue GAMMA=   0.3702
  1.2115  0.5898  0.3466  0.1425  0.1075  0.1075  0.0856

 Free energy of the ion-electron system (eV)
  ---------------------------------------------------
  alpha Z        PSCENC =      1846.49885247
  Ewald energy   TEWEN  =    -21448.44541896
  -Hartree energ DENC   =     -4280.35024053
  -exchange      EXHF   =         0.00000000
  -V(xc)+E(xc)   XCENC  =       334.16102305
  PAW double counting   =     25153.02008962   -25897.30172023
  entropy T*S    EENTRO =        -0.02465252
  eigenvalues    EBANDS =      1168.49181842
  atomic energy  EATOM  =     22884.87169210
  Solvation  Ediel_sol  =         0.00000000
  ---------------------------------------------------
  free energy    TOTEN  =      -239.07855657 eV

  energy without entropy =     -239.05390405  energy(sigma->0) =     -239.07033907


--------------------------------------------------------------------------------------------------------




--------------------------------------- Iteration      1(  13)  ---------------------------------------


    POTLOK:  cpu time    0.0770: real time    0.0781
    SETDIJ:  cpu time    0.0190: real time    0.0181
    EDDIAG:  cpu time    1.6967: real time    1.6986
  RMM-DIIS:  cpu time    8.7067: real time    8.7410
    ORTHCH:  cpu time    0.2920: real time    0.2934
       DOS:  cpu time    0.0100: real time    0.0100
    CHARGE:  cpu time    0.5199: real time    0.5214
    MIXING:  cpu time    0.0030: real time    0.0025
    --------------------------------------------
      LOOP:  cpu time   11.3243: real time   11.3630

 eigenvalue-minimisations  : 11424
 total energy-change (2. order) : 0.1966058E+01  (-0.1036611E+00)
 number of electron     271.9999941 magnetization      40.6023672
 augmentation part      148.2637349 magnetization      32.5499625

 Broyden mixing:
  rms(total) = 0.14358E+01    rms(broyden)= 0.14357E+01
  rms(prec ) = 0.25493E+01
  weight for this iteration     100.00

 eigenvalues of (default mixing * dielectric matrix)
  average eigenvalue GAMMA=   0.3695
  1.2650  0.5573  0.5573  0.1821  0.1054  0.1054  0.1039  0.0795

 Free energy of the ion-electron system (eV)
  ---------------------------------------------------
  alpha Z        PSCENC =      1846.49885247
  Ewald energy   TEWEN  =    -21448.44541896
  -Hartree energ DENC   =     -4282.28277641
  -exchange      EXHF   =         0.00000000
  -V(xc)+E(xc)   XCENC  =       334.34511509
  PAW double counting   =     25204.69110031   -25951.07354636
  entropy T*S    EENTRO =        -0.03414502
  eigenvalues    EBANDS =      1174.31662833
  atomic energy  EATOM  =     22884.87169210
  Solvation  Ediel_sol  =         0.00000000
  ---------------------------------------------------
  free energy    TOTEN  =      -237.11249845 eV

  energy without entropy =     -237.07835343  energy(sigma->0) =     -237.10111677


--------------------------------------------------------------------------------------------------------




--------------------------------------- Iteration      1(  14)  ---------------------------------------


    POTLOK:  cpu time    0.0770: real time    0.0778
    SETDIJ:  cpu time    0.0190: real time    0.0181
    EDDIAG:  cpu time    1.7017: real time    1.7051
  RMM-DIIS:  cpu time    8.7217: real time    8.7883
    ORTHCH:  cpu time    0.2930: real time    0.2938
       DOS:  cpu time    0.0100: real time    0.0101
    CHARGE:  cpu time    0.5349: real time    0.5354
    MIXING:  cpu time    0.0030: real time    0.0025
    --------------------------------------------
      LOOP:  cpu time   11.3603: real time   11.4312

 eigenvalue-minimisations  : 11424
 total energy-change (2. order) :-0.1214882E+00  (-0.5015671E-01)
 number of electron     271.9999940 magnetization      40.5430631
 augmentation part      148.2736869 magnetization      32.6495118

 Broyden mixing:
  rms(total) = 0.14761E+01    rms(broyden)= 0.14761E+01
  rms(prec ) = 0.25800E+01
  weight for this iteration     100.00

 eigenvalues of (default mixing * dielectric matrix)
  average eigenvalue GAMMA=   0.3521
  1.2740  0.5539  0.5539  0.1921  0.1921  0.1102  0.1102  0.1025  0.0798

 Free energy of the ion-electron system (eV)
  ---------------------------------------------------
  alpha Z        PSCENC =      1846.49885247
  Ewald energy   TEWEN  =    -21448.44541896
  -Hartree energ DENC   =     -4280.59446428
  -exchange      EXHF   =         0.00000000
  -V(xc)+E(xc)   XCENC  =       334.64192498
  PAW double counting   =     25294.08047945   -26042.45465446
  entropy T*S    EENTRO =        -0.02628584
  eigenvalues    EBANDS =      1174.19388787
  atomic energy  EATOM  =     22884.87169210
  Solvation  Ediel_sol  =         0.00000000
  ---------------------------------------------------
  free energy    TOTEN  =      -237.23398668 eV

  energy without entropy =     -237.20770083  energy(sigma->0) =     -237.22522473


--------------------------------------------------------------------------------------------------------




--------------------------------------- Iteration      1(  15)  ---------------------------------------


    POTLOK:  cpu time    0.0770: real time    0.0773
    SETDIJ:  cpu time    0.0180: real time    0.0183
    EDDIAG:  cpu time    1.6847: real time    1.6871
  RMM-DIIS:  cpu time    8.7277: real time    8.7443
    ORTHCH:  cpu time    0.2940: real time    0.2939
       DOS:  cpu time    0.0090: real time    0.0098
    CHARGE:  cpu time    0.5199: real time    0.5207
    MIXING:  cpu time    0.0030: real time    0.0026
    --------------------------------------------
      LOOP:  cpu time   11.3333: real time   11.3541

 eigenvalue-minimisations  : 11424
 total energy-change (2. order) : 0.4126869E+00  (-0.3449468E-01)
 number of electron     271.9999939 magnetization      40.8666987
 augmentation part      148.4537438 magnetization      32.8611595

 Broyden mixing:
  rms(total) = 0.99243E+00    rms(broyden)= 0.99241E+00
  rms(prec ) = 0.15367E+01
  weight for this iteration     100.00

 eigenvalues of (default mixing * dielectric matrix)
  average eigenvalue GAMMA=   0.3904
  1.1761  0.7688  0.7688  0.4792  0.2097  0.1082  0.1082  0.1179  0.0897  0.0775

 Free energy of the ion-electron system (eV)
  ---------------------------------------------------
  alpha Z        PSCENC =      1846.49885247
  Ewald energy   TEWEN  =    -21448.44541896
  -Hartree energ DENC   =     -4277.26300952
  -exchange      EXHF   =         0.00000000
  -V(xc)+E(xc)   XCENC  =       334.75060151
  PAW double counting   =     25351.45308456   -26100.47816682
  entropy T*S    EENTRO =        -0.03884192
  eigenvalues    EBANDS =      1171.82990685
  atomic energy  EATOM  =     22884.87169210
  Solvation  Ediel_sol  =         0.00000000
  ---------------------------------------------------
  free energy    TOTEN  =      -236.82129974 eV

  energy without entropy =     -236.78245781  energy(sigma->0) =     -236.80835243


--------------------------------------------------------------------------------------------------------




--------------------------------------- Iteration      1(  16)  ---------------------------------------


    POTLOK:  cpu time    0.0780: real time    0.0780
    SETDIJ:  cpu time    0.0180: real time    0.0181
    EDDIAG:  cpu time    1.6957: real time    1.6989
  RMM-DIIS:  cpu time    8.7457: real time    8.7665
    ORTHCH:  cpu time    0.3120: real time    0.3126
       DOS:  cpu time    0.0100: real time    0.0101
    CHARGE:  cpu time    0.5209: real time    0.5211
    MIXING:  cpu time    0.0030: real time    0.0029
    --------------------------------------------
      LOOP:  cpu time   11.3833: real time   11.4083

 eigenvalue-minimisations  : 11424
 total energy-change (2. order) :-0.1147306E+00  (-0.1466974E-01)
 number of electron     271.9999939 magnetization      41.8184420
 augmentation part      148.4915157 magnetization      33.8442072

 Broyden mixing:
  rms(total) = 0.10503E+01    rms(broyden)= 0.10503E+01
  rms(prec ) = 0.16943E+01
  weight for this iteration     100.00

 eigenvalues of (default mixing * dielectric matrix)
  average eigenvalue GAMMA=   0.4046
  1.0613  1.0267  1.0267  0.5173  0.2128  0.1266  0.1075  0.1075  0.0929  0.0929
  0.0782

 Free energy of the ion-electron system (eV)
  ---------------------------------------------------
  alpha Z        PSCENC =      1846.49885247
  Ewald energy   TEWEN  =    -21448.44541896
  -Hartree energ DENC   =     -4276.33702019
  -exchange      EXHF   =         0.00000000
  -V(xc)+E(xc)   XCENC  =       335.11588584
  PAW double counting   =     25388.20319082   -26137.74092588
  entropy T*S    EENTRO =        -0.04186088
  eigenvalues    EBANDS =      1170.93957437
  atomic energy  EATOM  =     22884.87169210
  Solvation  Ediel_sol  =         0.00000000
  ---------------------------------------------------
  free energy    TOTEN  =      -236.93603030 eV

  energy without entropy =     -236.89416942  energy(sigma->0) =     -236.92207667


--------------------------------------------------------------------------------------------------------




--------------------------------------- Iteration      1(  17)  ---------------------------------------


    POTLOK:  cpu time    0.0770: real time    0.0779
    SETDIJ:  cpu time    0.0190: real time    0.0180
    EDDIAG:  cpu time    1.7187: real time    1.7213
  RMM-DIIS:  cpu time    8.7297: real time    8.7576
    ORTHCH:  cpu time    0.2940: real time    0.2950
       DOS:  cpu time    0.0110: real time    0.0100
    CHARGE:  cpu time    0.5219: real time    0.5238
    MIXING:  cpu time    0.0040: real time    0.0030
    --------------------------------------------
      LOOP:  cpu time   11.3753: real time   11.4066

 eigenvalue-minimisations  : 11424
 total energy-change (2. order) :-0.5371930E-01  (-0.2066029E-01)
 number of electron     271.9999941 magnetization      42.2330133
 augmentation part      148.5446370 magnetization      34.3682966

 Broyden mixing:
  rms(total) = 0.96068E+00    rms(broyden)= 0.96065E+00
  rms(prec ) = 0.15322E+01
  weight for this iteration     100.00

 eigenvalues of (default mixing * dielectric matrix)
  average eigenvalue GAMMA=   0.3918
  1.0862  1.0862  1.0611  0.5087  0.2322  0.1501  0.1095  0.1095  0.1127  0.1005
  0.0785  0.0666

 Free energy of the ion-electron system (eV)
  ---------------------------------------------------
  alpha Z        PSCENC =      1846.49885247
  Ewald energy   TEWEN  =    -21448.44541896
  -Hartree energ DENC   =     -4274.82709745
  -exchange      EXHF   =         0.00000000
  -V(xc)+E(xc)   XCENC  =       336.17985883
  PAW double counting   =     25480.67150492   -26231.69628354
  entropy T*S    EENTRO =        -0.04953561
  eigenvalues    EBANDS =      1169.80667763
  atomic energy  EATOM  =     22884.87169210
  Solvation  Ediel_sol  =         0.00000000
  ---------------------------------------------------
  free energy    TOTEN  =      -236.98974960 eV

  energy without entropy =     -236.94021399  energy(sigma->0) =     -236.97323773


--------------------------------------------------------------------------------------------------------




--------------------------------------- Iteration      1(  18)  ---------------------------------------


    POTLOK:  cpu time    0.0960: real time    0.0967
    SETDIJ:  cpu time    0.0180: real time    0.0181
    EDDIAG:  cpu time    1.6677: real time    1.6686
  RMM-DIIS:  cpu time    8.6977: real time    8.7241
    ORTHCH:  cpu time    0.2930: real time    0.2939
       DOS:  cpu time    0.0100: real time    0.0101
    CHARGE:  cpu time    0.5219: real time    0.5229
    MIXING:  cpu time    0.0040: real time    0.0031
    --------------------------------------------
      LOOP:  cpu time   11.3083: real time   11.3375

 eigenvalue-minimisations  : 11424
 total energy-change (2. order) : 0.6375770E-01  (-0.1084015E-01)
 number of electron     271.9999941 magnetization      42.9567434
 augmentation part      148.5926096 magnetization      34.9938472

 Broyden mixing:
  rms(total) = 0.71051E+00    rms(broyden)= 0.71049E+00
  rms(prec ) = 0.10226E+01
  weight for this iteration     100.00

 eigenvalues of (default mixing * dielectric matrix)
  average eigenvalue GAMMA=   0.3970
  1.1777  1.1777  1.0785  0.4227  0.4227  0.1837  0.1297  0.1087  0.1087  0.1120
  0.0839  0.0775  0.0775

 Free energy of the ion-electron system (eV)
  ---------------------------------------------------
  alpha Z        PSCENC =      1846.49885247
  Ewald energy   TEWEN  =    -21448.44541896
  -Hartree energ DENC   =     -4274.29854107
  -exchange      EXHF   =         0.00000000
  -V(xc)+E(xc)   XCENC  =       336.61487579
  PAW double counting   =     25520.63178003   -26272.40923453
  entropy T*S    EENTRO =        -0.05924587
  eigenvalues    EBANDS =      1169.66924814
  atomic energy  EATOM  =     22884.87169210
  Solvation  Ediel_sol  =         0.00000000
  ---------------------------------------------------
  free energy    TOTEN  =      -236.92599190 eV

  energy without entropy =     -236.86674603  energy(sigma->0) =     -236.90624328


--------------------------------------------------------------------------------------------------------




--------------------------------------- Iteration      1(  19)  ---------------------------------------


    POTLOK:  cpu time    0.0760: real time    0.0775
    SETDIJ:  cpu time    0.0190: real time    0.0181
    EDDIAG:  cpu time    1.6897: real time    1.6926
  RMM-DIIS:  cpu time    8.7597: real time    8.8573
    ORTHCH:  cpu time    0.2970: real time    0.2971
       DOS:  cpu time    0.0100: real time    0.0098
    CHARGE:  cpu time    0.5299: real time    0.5375
    MIXING:  cpu time    0.0040: real time    0.0032
    --------------------------------------------
      LOOP:  cpu time   11.3853: real time   11.4931

 eigenvalue-minimisations  : 11424
 total energy-change (2. order) :-0.7786315E-01  (-0.6842701E-02)
 number of electron     271.9999941 magnetization      43.4167470
 augmentation part      148.6026378 magnetization      35.3899897

 Broyden mixing:
  rms(total) = 0.67904E+00    rms(broyden)= 0.67903E+00
  rms(prec ) = 0.95376E+00
  weight for this iteration     100.00

 eigenvalues of (default mixing * dielectric matrix)
  average eigenvalue GAMMA=   0.3765
  1.1797  1.1797  1.0885  0.4497  0.3466  0.1791  0.1791  0.1216  0.1065  0.1065
  0.0956  0.0956  0.0785  0.0647

 Free energy of the ion-electron system (eV)
  ---------------------------------------------------
  alpha Z        PSCENC =      1846.49885247
  Ewald energy   TEWEN  =    -21448.44541896
  -Hartree energ DENC   =     -4274.04518949
  -exchange      EXHF   =         0.00000000
  -V(xc)+E(xc)   XCENC  =       337.27828175
  PAW double counting   =     25577.49249835   -26330.49797496
  entropy T*S    EENTRO =        -0.05968030
  eigenvalues    EBANDS =      1169.90308399
  atomic energy  EATOM  =     22884.87169210
  Solvation  Ediel_sol  =         0.00000000
  ---------------------------------------------------
  free energy    TOTEN  =      -237.00385505 eV

  energy without entropy =     -236.94417475  energy(sigma->0) =     -236.98396162


--------------------------------------------------------------------------------------------------------




--------------------------------------- Iteration      1(  20)  ---------------------------------------


    POTLOK:  cpu time    0.0790: real time    0.0797
    SETDIJ:  cpu time    0.0350: real time    0.0345
    EDDIAG:  cpu time    1.7407: real time    1.7441
  RMM-DIIS:  cpu time    8.7107: real time    8.7464
    ORTHCH:  cpu time    0.2940: real time    0.2958
       DOS:  cpu time    0.0100: real time    0.0099
    CHARGE:  cpu time    0.5229: real time    0.5248
    MIXING:  cpu time    0.0040: real time    0.0035
    --------------------------------------------
      LOOP:  cpu time   11.3963: real time   11.4387

 eigenvalue-minimisations  : 11424
 total energy-change (2. order) :-0.2029767E-01  (-0.3350423E-02)
 number of electron     271.9999941 magnetization      43.6688839
 augmentation part      148.6221085 magnetization      35.5686413

 Broyden mixing:
  rms(total) = 0.60331E+00    rms(broyden)= 0.60330E+00
  rms(prec ) = 0.77241E+00
  weight for this iteration     100.00

 eigenvalues of (default mixing * dielectric matrix)
  average eigenvalue GAMMA=   0.3639
  1.1677  1.1677  1.0946  0.4709  0.2651  0.2651  0.2394  0.1230  0.1092  0.1092
  0.1070  0.1070  0.0813  0.0754  0.0754

 Free energy of the ion-electron system (eV)
  ---------------------------------------------------
  alpha Z        PSCENC =      1846.49885247
  Ewald energy   TEWEN  =    -21448.44541896
  -Hartree energ DENC   =     -4273.81449020
  -exchange      EXHF   =         0.00000000
  -V(xc)+E(xc)   XCENC  =       337.65553988
  PAW double counting   =     25606.86872377   -26360.49996462
  entropy T*S    EENTRO =        -0.06037539
  eigenvalues    EBANDS =      1169.90128823
  atomic energy  EATOM  =     22884.87169210
  Solvation  Ediel_sol  =         0.00000000
  ---------------------------------------------------
  free energy    TOTEN  =      -237.02415272 eV

  energy without entropy =     -236.96377733  energy(sigma->0) =     -237.00402759


--------------------------------------------------------------------------------------------------------




--------------------------------------- Iteration      1(  21)  ---------------------------------------


    POTLOK:  cpu time    0.0770: real time    0.0773
    SETDIJ:  cpu time    0.0180: real time    0.0182
    EDDIAG:  cpu time    1.7027: real time    1.7059
  RMM-DIIS:  cpu time    8.7657: real time    8.8205
    ORTHCH:  cpu time    0.2940: real time    0.2982
       DOS:  cpu time    0.0100: real time    0.0102
    CHARGE:  cpu time    0.5309: real time    0.5325
    MIXING:  cpu time    0.0040: real time    0.0037
    --------------------------------------------
      LOOP:  cpu time   11.4023: real time   11.4665

 eigenvalue-minimisations  : 11424
 total energy-change (2. order) :-0.3401122E-01  (-0.1055317E-02)
 number of electron     271.9999941 magnetization      43.9306539
 augmentation part      148.6317531 magnetization      35.7955726

 Broyden mixing:
  rms(total) = 0.61874E+00    rms(broyden)= 0.61874E+00
  rms(prec ) = 0.80633E+00
  weight for this iteration     100.00

 eigenvalues of (default mixing * dielectric matrix)
  average eigenvalue GAMMA=   0.3748
  1.2052  1.2052  1.0854  0.3830  0.4335  0.3337  0.3337  0.2233  0.1084  0.1084
  0.1254  0.1075  0.1075  0.0879  0.0775  0.0706

 Free energy of the ion-electron system (eV)
  ---------------------------------------------------
  alpha Z        PSCENC =      1846.49885247
  Ewald energy   TEWEN  =    -21448.44541896
  -Hartree energ DENC   =     -4273.82363630
  -exchange      EXHF   =         0.00000000
  -V(xc)+E(xc)   XCENC  =       337.85122610
  PAW double counting   =     25616.76886312   -26370.61829189
  entropy T*S    EENTRO =        -0.06073796
  eigenvalues    EBANDS =      1169.89928738
  atomic energy  EATOM  =     22884.87169210
  Solvation  Ediel_sol  =         0.00000000
  ---------------------------------------------------
  free energy    TOTEN  =      -237.05816394 eV

  energy without entropy =     -236.99742598  energy(sigma->0) =     -237.03791796


--------------------------------------------------------------------------------------------------------




--------------------------------------- Iteration      1(  22)  ---------------------------------------


    POTLOK:  cpu time    0.0760: real time    0.0777
    SETDIJ:  cpu time    0.0190: real time    0.0182
    EDDIAG:  cpu time    1.7007: real time    1.7061
  RMM-DIIS:  cpu time    8.6957: real time    8.7516
    ORTHCH:  cpu time    0.2940: real time    0.2972
       DOS:  cpu time    0.0100: real time    0.0101
    CHARGE:  cpu time    0.5309: real time    0.5341
    MIXING:  cpu time    0.0040: real time    0.0037
    --------------------------------------------
      LOOP:  cpu time   11.3303: real time   11.3987

 eigenvalue-minimisations  : 11424
 total energy-change (2. order) :-0.3431335E-01  (-0.3452351E-03)
 number of electron     271.9999941 magnetization      44.0965634
 augmentation part      148.6380407 magnetization      35.9168568

 Broyden mixing:
  rms(total) = 0.61415E+00    rms(broyden)= 0.61415E+00
  rms(prec ) = 0.79591E+00
  weight for this iteration     100.00

 eigenvalues of (default mixing * dielectric matrix)
  average eigenvalue GAMMA=   0.3652
  1.1757  1.1757  1.0840  0.4363  0.4363  0.3658  0.3658  0.1923  0.1923  0.1082
  0.1082  0.1236  0.1046  0.1046  0.0881  0.0776  0.0703

 Free energy of the ion-electron system (eV)
  ---------------------------------------------------
  alpha Z        PSCENC =      1846.49885247
  Ewald energy   TEWEN  =    -21448.44541896
  -Hartree energ DENC   =     -4273.86743442
  -exchange      EXHF   =         0.00000000
  -V(xc)+E(xc)   XCENC  =       338.05459515
  PAW double counting   =     25625.16892523   -26379.20747126
  entropy T*S    EENTRO =        -0.05946032
  eigenvalues    EBANDS =      1169.89324271
  atomic energy  EATOM  =     22884.87169210
  Solvation  Ediel_sol  =         0.00000000
  ---------------------------------------------------
  free energy    TOTEN  =      -237.09247730 eV

  energy without entropy =     -237.03301697  energy(sigma->0) =     -237.07265719


--------------------------------------------------------------------------------------------------------




--------------------------------------- Iteration      1(  23)  ---------------------------------------


    POTLOK:  cpu time    0.0790: real time    0.0797
    SETDIJ:  cpu time    0.0180: real time    0.0182
    EDDIAG:  cpu time    2.2217: real time    2.2356
  RMM-DIIS:  cpu time    8.8037: real time    8.8756
    ORTHCH:  cpu time    0.2940: real time    0.2967
       DOS:  cpu time    0.0100: real time    0.0101
    CHARGE:  cpu time    0.5409: real time    0.5452
    MIXING:  cpu time    0.0040: real time    0.0039
    --------------------------------------------
      LOOP:  cpu time   11.9712: real time   12.0649

 eigenvalue-minimisations  : 11424
 total energy-change (2. order) :-0.2672657E-01  (-0.3231708E-03)
 number of electron     271.9999941 magnetization      43.8294097
 augmentation part      148.6453930 magnetization      35.6161083

 Broyden mixing:
  rms(total) = 0.62929E+00    rms(broyden)= 0.62928E+00
  rms(prec ) = 0.82940E+00
  weight for this iteration     100.00

 eigenvalues of (default mixing * dielectric matrix)
  average eigenvalue GAMMA=   0.4239
  1.3015  1.3015  1.1341  1.1055  0.5233  0.5233  0.4758  0.2101  0.1430  0.1430
  0.1082  0.1082  0.1192  0.1012  0.0969  0.0876  0.0777  0.0701

 Free energy of the ion-electron system (eV)
  ---------------------------------------------------
  alpha Z        PSCENC =      1846.49885247
  Ewald energy   TEWEN  =    -21448.44541896
  -Hartree energ DENC   =     -4273.92147623
  -exchange      EXHF   =         0.00000000
  -V(xc)+E(xc)   XCENC  =       338.18803663
  PAW double counting   =     25630.26491518   -26384.42750160
  entropy T*S    EENTRO =        -0.05890788
  eigenvalues    EBANDS =      1169.91060442
  atomic energy  EATOM  =     22884.87169210
  Solvation  Ediel_sol  =         0.00000000
  ---------------------------------------------------
  free energy    TOTEN  =      -237.11920387 eV

  energy without entropy =     -237.06029599  energy(sigma->0) =     -237.09956791


--------------------------------------------------------------------------------------------------------




--------------------------------------- Iteration      1(  24)  ---------------------------------------


    POTLOK:  cpu time    0.0770: real time    0.0778
    SETDIJ:  cpu time    0.0180: real time    0.0186
    EDDIAG:  cpu time    1.6837: real time    1.6960
  RMM-DIIS:  cpu time    8.7767: real time    8.9106
    ORTHCH:  cpu time    0.2950: real time    0.2958
       DOS:  cpu time    0.0100: real time    0.0099
    CHARGE:  cpu time    0.5259: real time    0.5281
    MIXING:  cpu time    0.0040: real time    0.0041
    --------------------------------------------
      LOOP:  cpu time   11.3903: real time   11.5409

 eigenvalue-minimisations  : 11424
 total energy-change (2. order) : 0.3093523E-01  (-0.6697867E-03)
 number of electron     271.9999941 magnetization      43.4595958
 augmentation part      148.6438462 magnetization      35.2932255

 Broyden mixing:
  rms(total) = 0.64253E+00    rms(broyden)= 0.64252E+00
  rms(prec ) = 0.87129E+00
  weight for this iteration     100.00

 eigenvalues of (default mixing * dielectric matrix)
  average eigenvalue GAMMA=   0.4487
  1.5671  1.3663  1.3663  1.1190  0.5777  0.5777  0.4759  0.2773  0.1954  0.1480
  0.1082  0.1082  0.1219  0.1032  0.1015  0.0885  0.0697  0.0776  0.0756

 Free energy of the ion-electron system (eV)
  ---------------------------------------------------
  alpha Z        PSCENC =      1846.49885247
  Ewald energy   TEWEN  =    -21448.44541896
  -Hartree energ DENC   =     -4273.66977205
  -exchange      EXHF   =         0.00000000
  -V(xc)+E(xc)   XCENC  =       337.94966410
  PAW double counting   =     25622.55693233   -26376.51509373
  entropy T*S    EENTRO =        -0.06043352
  eigenvalues    EBANDS =      1169.72530862
  atomic energy  EATOM  =     22884.87169210
  Solvation  Ediel_sol  =         0.00000000
  ---------------------------------------------------
  free energy    TOTEN  =      -237.08826864 eV

  energy without entropy =     -237.02783511  energy(sigma->0) =     -237.06812413


--------------------------------------------------------------------------------------------------------




[...]
 -0.015   0.000   0.013   0.012  -0.023   0.009  -0.004  -0.007  -0.006   0.015  -0.172   0.039   0.010   0.004   0.000   0.000
  0.000   0.006  -0.000  -0.001  -0.002  -0.002  -0.006   0.002   0.002  -0.001   0.039  -0.007   0.002   0.001  -0.000  -0.000
 -0.028   0.011   0.010   0.001  -0.002   0.020  -0.005  -0.008  -0.000  -0.002   0.010   0.002  -0.027  -0.000   0.002   0.002
 -0.002   0.026   0.006   0.030   0.011   0.001  -0.013  -0.003  -0.020  -0.007   0.004   0.001  -0.000  -0.026  -0.000  -0.000
  0.009  -0.001   0.034   0.028   0.019  -0.001   0.001  -0.022  -0.016  -0.012   0.000  -0.000   0.002  -0.000  -0.021  -0.000
  0.001   0.000  -0.000  -0.000   0.000  -0.002   0.000   0.000   0.000  -0.001   0.000  -0.000   0.002  -0.000  -0.000  -0.000
  0.000  -0.001   0.000  -0.001  -0.000  -0.000   0.002  -0.000   0.002   0.000   0.000  -0.000  -0.000   0.002   0.000   0.000
 -0.001  -0.000  -0.001  -0.000  -0.001   0.001  -0.000   0.002   0.001   0.001   0.000  -0.000  -0.000   0.000   0.001   0.000


------------------------ aborting loop because EDIFF is reached ----------------------------------------


 


 total charge     
 
# of ion       s       p       d       tot
------------------------------------------
    1        0.519   0.533   8.314   9.365
    2        0.515   0.520   8.319   9.354
    3        0.513   0.525   8.312   9.351
    4        0.518   0.531   8.316   9.365
    5        0.517   0.520   8.314   9.351
    6        0.516   0.532   8.307   9.355
    7        0.518   0.531   8.310   9.359
    8        0.515   0.527   8.307   9.349
    9        0.478   0.515   6.203   7.195
   10        0.484   0.520   6.273   7.277
   11        0.488   0.530   6.220   7.239
   12        0.479   0.514   6.198   7.190
   13        0.483   0.518   6.205   7.206
   14        0.486   0.525   6.221   7.232
   15        0.478   0.500   6.204   7.182
   16        0.481   0.514   6.199   7.194
   17        0.478   0.514   6.206   7.198
   18        0.480   0.515   6.211   7.206
   19        0.480   0.515   6.209   7.204
   20        0.482   0.516   6.210   7.208
   21        0.479   0.513   6.204   7.196
   22        0.474   0.504   6.206   7.184
   23        0.482   0.519   6.212   7.213
   24        0.484   0.530   6.289   7.302
   25        0.478   0.516   6.207   7.202
   26        0.471   0.506   6.188   7.165
   27        0.480   0.509   6.215   7.204
   28        0.476   0.508   6.199   7.182
   29        0.480   0.521   6.262   7.262
   30        0.483   0.519   6.204   7.206
   31        0.488   0.522   6.219   7.229
   32        0.480   0.514   6.204   7.199
--------------------------------------------------
tot         15.663  16.594 215.667 247.923
 


 magnetization (x)
 
# of ion       s       p       d       tot
------------------------------------------
    1       -0.024  -0.043   0.627   0.560
    2       -0.025  -0.051   0.741   0.665
    3       -0.025  -0.044   0.647   0.578
    4       -0.025  -0.043   0.619   0.551
    5       -0.024  -0.061   0.706   0.621
    6       -0.024  -0.046   0.592   0.522
    7       -0.025  -0.047   0.645   0.573
    8       -0.028  -0.055   0.630   0.548
    9       -0.006  -0.026   2.467   2.435
   10       -0.025  -0.054  -0.172  -0.251
   11       -0.011  -0.031   2.258   2.216
   12       -0.004  -0.023   2.451   2.424
   13       -0.010  -0.027   2.437   2.400
   14       -0.008  -0.030   2.295   2.257
   15       -0.007  -0.042   2.559   2.509
   16       -0.006  -0.019   2.495   2.470
   17       -0.006  -0.026   2.446   2.414
   18       -0.012  -0.038   2.540   2.490
   19       -0.008  -0.028   2.408   2.372
   20       -0.000  -0.016   2.370   2.353
   21       -0.005  -0.028   2.367   2.334
   22       -0.011  -0.035   2.546   2.500
   23       -0.007  -0.030   2.343   2.305
   24       -0.033  -0.065  -0.118  -0.216
   25       -0.005  -0.023   2.370   2.341
   26       -0.004  -0.022   2.581   2.555
   27       -0.005  -0.023   2.321   2.293
   28       -0.005  -0.029   2.394   2.359
   29       -0.032  -0.064  -0.263  -0.359
   30       -0.007  -0.021   2.377   2.349
   31       -0.007  -0.024   2.324   2.293
   32       -0.009  -0.035   2.380   2.336
--------------------------------------------------
tot         -0.436  -1.150  55.382  53.796
 
    CHARGE:  cpu time    0.5249: real time    0.5256
    FORLOC:  cpu time    0.0100: real time    0.0095
    FORNL :  cpu time    3.9674: real time    4.0287
    STRESS:  cpu time   11.9592: real time   12.0456
    FORCOR:  cpu time    0.0830: real time    0.0833
    FORHAR:  cpu time    0.0170: real time    0.0169
    MIXING:  cpu time    0.0020: real time    0.0021
    OFIELD:  cpu time    0.0000: real time    0.0001

  FORCE on cell =-STRESS in cart. coord.  units (eV):
  Direction    XX          YY          ZZ          XY          YZ          ZX
  --------------------------------------------------------------------------------------
  Alpha Z  1846.49885  1846.49885  1846.49885
  Ewald   -7175.43523 -7067.74466 -7116.53242     2.18733     0.65674     0.28087
  Hartree  1400.31209  1503.04709  1454.22562     1.80208     1.58288     0.43834
  E(xc)   -1391.05598 -1391.02269 -1390.75413    -0.00591    -0.02914    -0.04030
  Local    1292.82971  1084.36757  1184.15249    -3.68837    -2.85044    -0.72402
  n-local  -682.50836  -682.74675  -681.62141    -0.27961    -0.28867    -0.19591
  augment  2337.60049  2336.08108  2334.59361    -0.13392     0.49397    -0.00349
  Kinetic  2368.41808  2367.10355  2364.34055     0.02475     0.64991     0.15713
  Fock        0.00000     0.00000     0.00000     0.00000     0.00000     0.00000
  -------------------------------------------------------------------------------------
  Total      -3.34034    -4.41596    -5.09683    -0.09365     0.21525    -0.08738
  in kB     -14.64142   -19.35610   -22.34050    -0.41049     0.94347    -0.38301
  external pressure =      -18.78 kB  Pullay stress =        0.00 kB


 VOLUME and BASIS-vectors are now :
 -----------------------------------------------------------------------------
  energy-cutoff  :      520.00
  volume of cell :      365.53
      direct lattice vectors                 reciprocal lattice vectors
     7.150000000  0.000000000  0.000000000     0.139860140  0.000000000  0.000000000
     0.000000000  7.150000000  0.000000000     0.000000000  0.139860140  0.000000000
     0.000000000  0.000000000  7.150000000     0.000000000  0.000000000  0.139860140

  length of vectors
     7.150000000  7.150000000  7.150000000     0.139860140  0.139860140  0.139860140


 FORCES acting on ions
    electron-ion (+dipol)            ewald-force                    non-local-force                 convergence-correction
 -----------------------------------------------------------------------------------------------
   -.160E+01 0.423E+02 0.752E+02   0.163E+01 -.426E+02 -.754E+02   -.355E-01 0.849E-01 0.357E+00   0.144E-02 0.170E+00 -.225E+00
   -.249E+02 -.225E+02 -.676E+02   0.250E+02 0.226E+02 0.680E+02   -.799E-01 -.949E-01 -.328E+00   0.788E-02 0.609E-02 0.183E-01
   -.957E+02 0.372E+01 -.458E+02   0.964E+02 -.396E+01 0.459E+02   -.367E+00 0.144E-02 -.178E+00   -.271E+00 0.248E+00 0.966E-02
   -.208E+01 -.450E+02 0.350E+02   0.206E+01 0.452E+02 -.349E+02   0.221E-01 -.193E-01 0.211E+00   -.272E-02 -.193E+00 -.234E+00
   0.259E+02 0.256E+02 -.813E+02   -.260E+02 -.257E+02 0.819E+02   0.620E-01 0.509E-01 -.516E+00   0.166E-01 0.117E-01 -.279E-01
   -.615E+02 -.151E+02 0.470E+02   0.618E+02 0.152E+02 -.472E+02   -.126E+00 -.243E-01 0.197E+00   -.155E+00 -.128E+00 0.307E-01
   0.120E+03 -.317E+01 0.306E+02   -.120E+03 0.312E+01 -.305E+02   0.374E+00 0.359E-01 0.160E+00   0.155E+00 0.461E-02 -.206E+00
   0.773E+02 -.365E+01 -.324E+02   -.778E+02 0.363E+01 0.324E+02   0.254E+00 -.198E-02 -.189E+00   0.167E+00 0.306E-01 0.207E+00
   0.177E+01 0.438E+02 -.680E+02   -.175E+01 -.441E+02 0.684E+02   -.411E-01 0.188E+00 -.531E+00   0.659E-02 0.880E-01 0.173E+00
   -.139E+02 0.162E+02 0.568E+02   0.139E+02 -.163E+02 -.572E+02   0.148E-01 0.465E-01 0.371E+00   0.133E-01 0.153E-01 -.478E-01
   -.541E+02 0.975E+01 0.426E+02   0.544E+02 -.990E+01 -.429E+02   -.242E+00 0.611E-01 0.256E+00   -.136E+00 0.910E-01 0.334E-01
   -.104E+03 -.128E+01 0.250E+02   0.105E+03 0.131E+01 -.249E+02   -.555E+00 -.343E-01 0.160E+00   -.122E+00 0.220E-02 -.187E+00
   -.890E+02 -.229E+01 -.418E+02   0.897E+02 0.238E+01 0.422E+02   -.490E+00 0.911E-01 -.361E+00   -.171E+00 -.194E+00 -.152E-01
   0.486E+01 0.146E+02 0.371E+02   -.488E+01 -.147E+02 -.370E+02   0.955E-02 -.381E-01 0.187E+00   -.458E-02 0.239E+00 -.270E+00
   0.157E+02 -.294E+02 -.188E+02   -.160E+02 0.295E+02 0.189E+02   0.273E+00 -.127E+00 -.984E-01   -.106E-01 0.127E-01 0.673E-01
   0.820E+02 0.466E+02 -.445E+02   -.827E+02 -.472E+02 0.448E+02   0.555E+00 0.329E+00 -.227E+00   0.204E+00 0.202E+00 -.233E-01
   0.411E+00 -.469E+02 -.254E+02   -.424E+00 0.471E+02 0.254E+02   0.694E-02 -.125E+00 -.199E+00   -.191E-02 -.109E+00 0.184E+00
   0.213E+02 -.191E+02 0.647E+02   -.215E+02 0.193E+02 -.653E+02   0.176E+00 -.211E+00 0.572E+00   0.121E-02 0.227E-02 -.620E-02
   -.633E+02 -.183E+01 -.235E+02   0.637E+02 0.183E+01 0.234E+02   -.316E+00 -.185E-01 -.650E-01   -.139E+00 0.866E-02 0.145E+00
   -.772E+02 0.791E+01 0.343E+02   0.777E+02 -.789E+01 -.342E+02   -.320E+00 -.572E-01 0.147E+00   -.181E+00 0.217E-01 -.256E+00
   -.784E+01 0.164E+02 -.395E+02   0.786E+01 -.166E+02 0.393E+02   -.427E-01 0.253E-01 -.164E+00   0.187E-01 0.186E+00 0.274E+00
   0.255E+02 0.181E+02 0.186E+02   -.256E+02 -.183E+02 -.187E+02   0.132E+00 0.196E+00 0.716E-01   -.217E-02 -.317E-01 -.308E-01
   0.208E+01 -.148E+02 -.128E+02   -.204E+01 0.150E+02 0.132E+02   -.606E-01 0.213E-01 -.159E+00   0.132E-01 -.224E+00 -.292E+00
   -.306E+02 0.340E+02 -.230E+02   0.307E+02 -.341E+02 0.232E+02   -.152E+00 0.171E+00 -.177E+00   -.339E-02 -.204E-01 -.204E-01
   0.569E+02 0.538E+02 0.489E+02   -.572E+02 -.542E+02 -.491E+02   0.209E+00 0.353E+00 0.170E+00   0.919E-01 0.976E-01 0.312E-02
   0.966E+02 -.463E+02 -.483E+02   -.972E+02 0.469E+02 0.485E+02   0.427E+00 -.369E+00 -.167E+00   0.181E+00 -.198E+00 -.258E-01
   -.318E+02 0.374E+01 -.322E+02   0.320E+02 -.378E+01 0.321E+02   -.640E-01 0.448E-01 -.161E+00   -.159E+00 0.130E-02 0.267E+00
   -.105E+02 -.153E+02 0.182E+02   0.105E+02 0.156E+02 -.185E+02   -.281E-03 -.874E-01 0.861E-01   -.169E-02 -.176E+00 0.285E+00
   -.271E+02 -.224E+02 0.227E+02   0.272E+02 0.225E+02 -.228E+02   -.109E+00 -.129E+00 0.157E+00   0.172E-01 0.301E-01 -.335E-01
   0.515E+02 -.559E+02 0.455E+02   -.519E+02 0.564E+02 -.458E+02   0.236E+00 -.380E+00 0.225E+00   0.108E+00 -.113E+00 0.264E-01
   0.768E+02 0.432E+01 0.328E+02   -.775E+02 -.434E+01 -.328E+02   0.455E+00 0.100E-01 0.249E+00   0.166E+00 0.492E-02 -.242E+00
   0.367E+02 0.377E+01 -.298E+02   -.369E+02 -.377E+01 0.297E+02   0.704E-01 0.864E-02 -.183E+00   0.154E+00 -.135E-01 0.266E+00
 -----------------------------------------------------------------------------------------------
   -.234E+00 -.754E-01 0.274E+00   -.107E-12 0.256E-12 -.313E-12   0.276E+00 0.556E-03 -.125E+00   -.394E-01 0.743E-01 -.152E+00
 
 
 POSITION                                       TOTAL-FORCE (eV/Angst)
 -----------------------------------------------------------------------------------
      7.14178      0.00039      3.58102        -0.006394      0.008993     -0.001547
      0.01694      1.80028      5.35542        -0.002769     -0.002536      0.006646
      1.78494     -0.00035      5.36038        -0.001392      0.006953      0.001873
     -0.00068      3.57172      3.56458         0.002023     -0.000593      0.006640
      7.13493      5.37005      5.32730         0.000406     -0.008781      0.002507
      1.78866      3.56825      1.81205        -0.003569      0.006638      0.002684
      5.40579      1.78974      3.57696         0.002139     -0.009434     -0.001245
      5.39643      1.78689     -0.00776         0.009013      0.000347     -0.001111
      7.14201      0.00630     -0.03402        -0.007977     -0.000608      0.001292
      0.03504      1.77183      1.79336        -0.002633     -0.002229     -0.014005
      1.76434      7.13097      1.80663        -0.006928      0.002613     -0.004474
      1.73581      1.77929      3.56795        -0.001958     -0.001164      0.004004
      1.76531      3.60473      5.33017        -0.004458     -0.005888     -0.003841
      3.59620      0.00788      3.59761        -0.007715      0.013563      0.006979
      3.56240      1.79883      5.36934         0.000058     -0.013460      0.013427
      5.37213      0.02397      5.34104         0.010263      0.002717     -0.001642
     -0.00470      3.55395      0.00580        -0.007872      0.012563     -0.007714
     -0.00498      5.33892      1.80692        -0.004696      0.002214      0.004352
      1.75161      1.79015      0.01452        -0.003702     -0.009008     -0.003603
      1.78247      5.39338      3.58649         0.000258     -0.010933      0.005853
      3.56627      7.13179     -0.01860         0.000193     -0.000391     -0.003182
      3.60307      1.75642      1.78612        -0.011579     -0.003533     -0.009564
      3.58192      3.57671      3.56384        -0.003874     -0.004435     -0.009714
      3.54953      5.38679      5.34453         0.004110     -0.003437      0.000496
      5.41315      0.01448      1.81103         0.006076      0.006267      0.004040
      5.40000      3.57256      5.33245         0.013261      0.001316     -0.000851
      1.78570      5.36098     -0.00758         0.000142      0.003595      0.001987
      3.55376      3.59738      0.03018         0.006622      0.004102      0.008902
      3.55888      5.36046      1.81226         0.000963      0.009036     -0.013925
      5.37885      3.52891      1.80942         0.006357      0.007323      0.004125
      5.34708      5.36587      3.58067         0.006369     -0.001692      0.008493
      5.34537      5.36048     -0.00010         0.009263     -0.010117     -0.007881
 -----------------------------------------------------------------------------------
    total drift:                                0.003443     -0.000572     -0.002927


--------------------------------------------------------------------------------------------------------



  FREE ENERGIE OF THE ION-ELECTRON SYSTEM (eV)
  ---------------------------------------------------
  free  energy   TOTEN  =      -238.29123108 eV

  energy  without entropy=     -238.32025493  energy(sigma->0) =     -238.30090570
 
 d Force = 0.7346784E-03[ 0.206E-03, 0.126E-02]  d Energy = 0.1032451E-02-0.298E-03
 d Force =-0.1326457E+01[-0.137E+01,-0.129E+01]  d Ewald  =-0.1326456E+01-0.716E-06


--------------------------------------------------------------------------------------------------------


    POTLOK:  cpu time    0.0970: real time    0.0972


--------------------------------------------------------------------------------------------------------


 Conjugate gradient step on ions:
 trial-energy change:   -0.001032  1 .order   -0.000735   -0.001263   -0.000206
  (g-gl).g = 0.338E-03      g.g   = 0.696E-03  gl.gl    = 0.136E-02
 g(Force)  = 0.696E-03   g(Stress)= 0.000E+00 ortho     =-0.107E-03
 gamma     =   0.24912
 trial     =   1.88857
 opt step  =   2.01956  (harmonic =   2.25619) maximal distance =0.00372809
 next E    =  -238.291238   (d E  =  -0.00104)


--------------------------------------------------------------------------------------------------------


  
 reached required accuracy - stopping structural energy minimisation
     LOOP+:  cpu time   96.6073: real time   97.3998
    4ORBIT:  cpu time    0.0000: real time    0.0000
 


 total charge     
 
# of ion       s       p       d       tot
------------------------------------------
    1        0.519   0.533   8.314   9.365
    2        0.515   0.520   8.319   9.354
    3        0.513   0.525   8.312   9.351
    4        0.518   0.531   8.316   9.365
    5        0.517   0.520   8.314   9.351
    6        0.516   0.532   8.307   9.355
    7        0.518   0.531   8.310   9.359
    8        0.515   0.527   8.307   9.349
    9        0.478   0.515   6.203   7.195
   10        0.484   0.520   6.273   7.277
   11        0.488   0.530   6.220   7.239
   12        0.479   0.514   6.198   7.190
   13        0.483   0.518   6.205   7.206
   14        0.486   0.525   6.221   7.232
   15        0.478   0.500   6.204   7.182
   16        0.481   0.514   6.199   7.194
   17        0.478   0.514   6.206   7.198
   18        0.480   0.515   6.211   7.206
   19        0.480   0.515   6.209   7.204
   20        0.482   0.516   6.210   7.208
   21        0.479   0.513   6.204   7.196
   22        0.474   0.504   6.206   7.184
   23        0.482   0.519   6.212   7.213
   24        0.484   0.530   6.289   7.302
   25        0.478   0.516   6.207   7.202
   26        0.471   0.506   6.188   7.165
   27        0.480   0.509   6.215   7.204
   28        0.476   0.508   6.199   7.182
   29        0.480   0.521   6.262   7.262
   30        0.483   0.519   6.204   7.206
   31        0.488   0.522   6.219   7.229
   32        0.480   0.514   6.204   7.199
--------------------------------------------------
tot         15.663  16.594 215.667 247.923
 


 magnetization (x)
 
# of ion       s       p       d       tot
------------------------------------------
    1       -0.024  -0.043   0.627   0.560
    2       -0.025  -0.051   0.741   0.665
    3       -0.025  -0.044   0.647   0.578
    4       -0.025  -0.043   0.619   0.551
    5       -0.024  -0.061   0.706   0.621
    6       -0.024  -0.046   0.592   0.522
    7       -0.025  -0.047   0.645   0.573
    8       -0.028  -0.055   0.630   0.548
    9       -0.006  -0.026   2.467   2.435
   10       -0.025  -0.054  -0.172  -0.251
   11       -0.011  -0.031   2.258   2.216
   12       -0.004  -0.023   2.451   2.424
   13       -0.010  -0.027   2.437   2.400
   14       -0.008  -0.030   2.295   2.257
   15       -0.007  -0.042   2.559   2.509
   16       -0.006  -0.019   2.495   2.470
   17       -0.006  -0.026   2.446   2.414
   18       -0.012  -0.038   2.540   2.490
   19       -0.008  -0.028   2.408   2.372
   20       -0.000  -0.016   2.370   2.353
   21       -0.005  -0.028   2.367   2.334
   22       -0.011  -0.035   2.546   2.500
   23       -0.007  -0.030   2.343   2.305
   24       -0.033  -0.065  -0.118  -0.216
   25       -0.005  -0.023   2.370   2.341
   26       -0.004  -0.022   2.581   2.555
   27       -0.005  -0.023   2.321   2.293
   28       -0.005  -0.029   2.394   2.359
   29       -0.032  -0.064  -0.263  -0.359
   30       -0.007  -0.021   2.377   2.349
   31       -0.007  -0.024   2.324   2.293
   32       -0.009  -0.035   2.380   2.336
--------------------------------------------------
tot         -0.436  -1.150  55.382  53.796
 

 total amount of memory used by VASP MPI-rank0    86961. kBytes
=======================================================================

   base      :      30000. kBytes
   nonlr-proj:       7957. kBytes
   fftplans  :       2563. kBytes
   grid      :       6379. kBytes
   one-center:        124. kBytes
   wavefun   :      39938. kBytes
 
  
  
 General timing and accounting informations for this job:
 ========================================================
  
                  Total CPU time used (sec):     3348.110
                            User time (sec):     3325.616
                          System time (sec):       22.494
                         Elapsed time (sec):     3370.251
  
                   Maximum memory used (kb):      138568.
                   Average memory used (kb):           0.
  
                          Minor page faults:        25750
                          Major page faults:            0
                 Voluntary context switches:         2083
