SQS-NiFe                                
           1
     7.150000    0.000000    0.000000
     0.000000    7.150000    0.000000
     0.000000    0.000000    7.150000
   Ni   Fe
   8  24
Direct configuration=     1
   0.99940163  0.99855908  0.49627216
   0.00104861  0.25055959  0.75309831
   0.25500516  0.00061327  0.75167482
   0.00006413  0.50088432  0.49876939
   0.99964747  0.74889352  0.75185719
   0.25346139  0.50162097  0.24823423
   0.74587037  0.24981456  0.49762890
   0.74647287  0.25039731  0.00205913
   0.99963531  0.99747534  0.01067417
   0.00459858  0.24769613  0.24091913
   0.25428938  0.99926608  0.24620762
   0.25882156  0.25040804  0.49516435
   0.25884999  0.49879106  0.75424479
   0.49647955  0.99448290  0.49621708
   0.50076310  0.25601470  0.74884752
   0.74145762  0.99465198  0.75244470
   0.00102020  0.50260527  0.00560597
   0.99584800  0.75174770  0.24237602
   0.25531947  0.24984597  0.00492988
   0.25916470  0.75010660  0.49856195
   0.50176681  0.99688634  0.00513907
   0.49343700  0.24579562  0.25119478
   0.49749191  0.50538170  0.50515693
   0.50398716  0.74404555  0.74994942
   0.74633927  0.99542684  0.24550717
   0.74001162  0.50298269  0.75403745
   0.24999801  0.75081254  0.00237054
   0.50203028  0.50290308  0.99368264
   0.50310611  0.75486075  0.25001907
   0.74800682  0.50579698  0.24732178
   0.74053444  0.75076213  0.49613541
   0.74607150  0.74991137  0.00369842
Direct configuration=     2
   0.99936944  0.99940103  0.49690047
   0.00096839  0.25045239  0.75240063
   0.25342531  0.00012087  0.75177995
  -0.00013634  0.50048982  0.49876418
   0.99965689  0.74935020  0.74975289
   0.25275839  0.50221336  0.24948022
   0.74904680  0.24971853  0.49714105
   0.74926913  0.25024033  0.00209940
   0.99945172  0.00143913  0.00395936
   0.00396879  0.24786240  0.24356616
   0.24999609  0.99836453  0.24967795
   0.25072289  0.25007231  0.49711701
   0.25187579  0.50001660  0.75216334
   0.49921522  0.99669713  0.49941892
   0.50093482  0.24971903  0.74903462
   0.74491685  0.99711030  0.75089308
   0.00037562  0.49873346  0.00269704
   0.99878613  0.75017366  0.24947992
   0.25129935  0.24949677  0.00262538
   0.25320196  0.75063618  0.49974698
   0.50021951  0.99644680  0.00015867
   0.49992898  0.24957493  0.25075500
   0.49988577  0.50335792  0.49987950
   0.50059971  0.74962065  0.75086981
   0.74948453  0.00060651  0.25019788
   0.74882278  0.50198470  0.75047897
   0.25190849  0.75090367  0.00018398
   0.49998086  0.50359108  0.00110898
   0.50006505  0.75090997  0.24891077
   0.74802523  0.50013153  0.25037474
   0.74564965  0.75062348  0.49800637
   0.74632619  0.74994073  0.00037678
Direct configuration=     3
   0.99935099  0.99988351  0.49726053
   0.00092242  0.25039095  0.75200082
   0.25251995 -0.00016131  0.75184019
  -0.00025122  0.50026375  0.49876120
   0.99966229  0.74961190  0.74854699
   0.25235552  0.50255283  0.25019425
   0.75086710  0.24966349  0.49686149
   0.75087156  0.25015038  0.00212248
   0.99934650  0.00371063  0.00011135
   0.00360789  0.24795768  0.24508307
   0.24753577  0.99784789  0.25166666
   0.24608184  0.24987991  0.49823600
   0.24787913  0.50071891  0.75097054
   0.50078293  0.99796602  0.50125377
   0.50103322  0.24611121  0.74914184
   0.74689921  0.99851907  0.75000390
   0.00000623  0.49651467  0.00103003
   0.00046987  0.74927163  0.25355091
   0.24899557  0.24929666  0.00130475
   0.24978494  0.75093967  0.50042608
   0.49933281  0.99619491 -0.00269541
   0.50364929  0.25174071  0.25050297
   0.50125761  0.50219816  0.49685520
   0.49865849  0.75281554  0.75139725
   0.75128696  0.00357479  0.25288595
   0.75387213  0.50141279  0.74843974
   0.25300332  0.75095590 -0.00106905
   0.49880641  0.50398534  0.00536474
   0.49832234  0.74864592  0.24827564
   0.74803579  0.49688487  0.25212428
   0.74858099  0.75054403  0.49907855
   0.74647214  0.74995756 -0.00152674
Direct configuration=     4
   0.99882947  0.00081678  0.49923143
   0.00033628  0.25005497  0.75030643
   0.25071460 -0.00051248  0.75074708
  -0.00042800  0.49927415  0.49869379
   0.99957155  0.75064253  0.74736918
   0.25065428  0.50138474  0.25097934
   0.75382901  0.24986484  0.49854717
   0.75205031  0.25018780  0.00083224
   0.99886471  0.00328510 -0.00231978
   0.00366804  0.24857936  0.24726569
   0.24781189  0.99824264  0.25229578
   0.24344072  0.24993954  0.49878560
   0.24753637  0.50134058  0.74879113
   0.50135483  0.99814251  0.50142105
   0.50051197  0.24753361  0.74942909
   0.75021385  0.00031228  0.74817606
  -0.00069286  0.49624002  0.00162210
  -0.00016805  0.74804533  0.25286723
   0.24833636  0.24942752  0.00151832
   0.24887660  0.75168770  0.50215105
   0.49893311  0.99709943 -0.00200348
   0.50320371  0.25011272  0.24994918
   0.50120373  0.50214297  0.49813989
   0.49701121  0.75292210  0.75008408
   0.75278442  0.00341433  0.25346222
   0.75526462  0.49996031  0.74669667
   0.25170707  0.75082899 -0.00130944
   0.49808065  0.50330361  0.00469074
   0.49796728  0.74909657  0.24924550
   0.75105780  0.49590282  0.25276298
   0.74939360  0.75071345  0.49992516
   0.74808087  0.75001319 -0.00035346
Direct configuration=     5
   0.99853813  0.00133815  0.50033248
   0.00000882  0.24986727  0.74935985
   0.24970603 -0.00070866  0.75013640
  -0.00052675  0.49872130  0.49865613
   0.99952086  0.75121829  0.74671118
   0.24970387  0.50073218  0.25141793
   0.75548370  0.24997733  0.49948888
   0.75270882  0.25020870  0.00011144
   0.99859555  0.00304738 -0.00367795
   0.00370165  0.24892667  0.24848503
   0.24796615  0.99846317  0.25264724
   0.24196523  0.24997285  0.49909264
   0.24734488  0.50168787  0.74757360
   0.50167433  0.99824110  0.50151450
   0.50022077  0.24832823  0.74958956
   0.75206559  0.00131407  0.74715492
  -0.00108341  0.49608658  0.00195287
  -0.00052442  0.74736025  0.25248530
   0.24796809  0.24950062  0.00163763
   0.24836914  0.75210559  0.50311471
   0.49870982  0.99760474 -0.00161694
   0.50295478  0.24920323  0.24963980
   0.50117363  0.50211214  0.49885758
   0.49609095  0.75298162  0.74935047
   0.75362099  0.00332469  0.25378416
   0.75604254  0.49914888  0.74572290
   0.25098291  0.75075810 -0.00144374
   0.49767521  0.50292276  0.00431420
   0.49776892  0.74934834  0.24978732
   0.75274606  0.49535420  0.25311979
   0.74984757  0.75080810  0.50039812
   0.74897960  0.75004427  0.00030199
Direct configuration=     6
   0.99850452  0.00139829  0.50045950
  -0.00002895  0.24984562  0.74925065
   0.24958968 -0.00073130  0.75006596
  -0.00053815  0.49865753  0.49865179
   0.99951501  0.75128471  0.74663528
   0.24959423  0.50065690  0.25146853
   0.75567459  0.24999030  0.49959752
   0.75278479  0.25021112  0.00002829
   0.99856450  0.00301996 -0.00383463
   0.00370553  0.24896673  0.24862569
   0.24798395  0.99848861  0.25268779
   0.24179502  0.24997670  0.49912806
   0.24732279  0.50172794  0.74743314
   0.50171118  0.99825247  0.50152528
   0.50018718  0.24841990  0.74960807
   0.75227920  0.00142964  0.74703713
  -0.00112846  0.49606887  0.00199103
  -0.00056553  0.74728122  0.25244124
   0.24792560  0.24950905  0.00165140
   0.24831060  0.75215380  0.50322588
   0.49868406  0.99766303 -0.00157235
   0.50292606  0.24909831  0.24960411
   0.50117016  0.50210858  0.49894038
   0.49598479  0.75298849  0.74926585
   0.75371749  0.00331434  0.25382130
   0.75613228  0.49905527  0.74561056
   0.25089937  0.75074992 -0.00145923
   0.49762843  0.50287883  0.00427077
   0.49774604  0.74937738  0.24984982
   0.75294082  0.49529091  0.25316095
   0.74989994  0.75081901  0.50045268
   0.74908328  0.75004786  0.00037760
Direct configuration=     7
   0.99852161  0.00136770  0.50039488
  -0.00000974  0.24985664  0.74930620
   0.24964887 -0.00071978  0.75010179
  -0.00053235  0.49868997  0.49865400
   0.99951798  0.75125092  0.74667389
   0.24965001  0.50069519  0.25144279
   0.75557748  0.24998370  0.49954225
   0.75274614  0.25020989  0.00007059
   0.99858030  0.00303391 -0.00375492
   0.00370355  0.24894635  0.24855413
   0.24797489  0.99847567  0.25266716
   0.24188161  0.24997474  0.49911004
   0.24733403  0.50170756  0.74750459
   0.50169244  0.99824669  0.50151979
   0.50020427  0.24837327  0.74959865
   0.75217053  0.00137085  0.74709705
  -0.00110554  0.49607788  0.00197161
  -0.00054462  0.74732142  0.25246365
   0.24794722  0.24950476  0.00164440
   0.24834038  0.75212927  0.50316933
   0.49869716  0.99763337 -0.00159503
   0.50294067  0.24915168  0.24962226
   0.50117192  0.50211039  0.49889826
   0.49603879  0.75298500  0.74930890
   0.75366840  0.00331960  0.25380241
   0.75608663  0.49910289  0.74566771
   0.25094187  0.75075408 -0.00145135
   0.49765223  0.50290118  0.00429287
   0.49775768  0.74936260  0.24981803
   0.75284174  0.49532310  0.25314001
   0.74987330  0.75081346  0.50042492
   0.74903054  0.75004603  0.00033914
Direct configuration=     8
   0.99874545  0.00096928  0.50034734
   0.00069265  0.25048140  0.74926845
   0.24944823 -0.00026197  0.74959187
  -0.00024647  0.49890858  0.49879748
   0.99908996  0.75100554  0.74620788
   0.24935925  0.50007629  0.25224745
   0.75567164  0.25002758  0.49982816
   0.75330698  0.25010736 -0.00057304
   0.99869065  0.00251483 -0.00374157
   0.00404675  0.24861217  0.24946044
   0.24726543  0.99829485  0.25311070
   0.24207414  0.24973386  0.49911383
   0.24704126  0.50186030  0.74693055
   0.50205984  0.99892544  0.50199991
   0.49960550  0.24923957  0.74948322
   0.75211335  0.00189358  0.74671594
  -0.00092048  0.49601991  0.00129203
  -0.00037601  0.74774310  0.25229886
   0.24674929  0.24981502  0.00137068
   0.24823099  0.75261451  0.50293730
   0.49904890  0.99769798 -0.00204301
   0.50301598  0.24840760  0.25046435
   0.50114645  0.50178371  0.49916213
   0.49623136  0.75292195  0.74875586
   0.75495537  0.00297884  0.25374123
   0.75592308  0.49932460  0.74562453
   0.24998179  0.75045089 -0.00131884
   0.49778904  0.50295015  0.00347322
   0.49773054  0.74938356  0.25096839
   0.75305084  0.49479606  0.25338891
   0.74945900  0.75065836  0.50080499
   0.74901926  0.75006510  0.00029078
Direct configuration=     9
   0.99891458  0.00066823  0.50031141
   0.00122339  0.25095348  0.74923993
   0.24929662  0.00008396  0.74920655
  -0.00003046  0.49907376  0.49890589
   0.99876654  0.75082012  0.74585575
   0.24913955  0.49960863  0.25285548
   0.75574279  0.25006074  0.50004420
   0.75373075  0.25002988 -0.00105939
   0.99877404  0.00212260 -0.00373148
   0.00430608  0.24835966  0.25014527
   0.24672933  0.99815821  0.25344585
   0.24221962  0.24955185  0.49911670
   0.24682004  0.50197571  0.74649679
   0.50233745  0.99943833  0.50236269
   0.49915305  0.24989417  0.74939599
   0.75207014  0.00228857  0.74642797
  -0.00078064  0.49597610  0.00077853
  -0.00024861  0.74806174  0.25217435
   0.24584411  0.25004946  0.00116385
   0.24814833  0.75298116  0.50276198
   0.49931468  0.99774680 -0.00238151
   0.50307289  0.24784536  0.25110065
   0.50112721  0.50153686  0.49936152
   0.49637687  0.75287430  0.74833797
   0.75592783  0.00272136  0.25369500
   0.75579951  0.49949212  0.74559191
   0.24925633  0.75022180 -0.00121871
   0.49789242  0.50298716  0.00285387
   0.49771003  0.74939940  0.25183762
   0.75320884  0.49439781  0.25357698
   0.74914594  0.75054116  0.50109217
   0.74901074  0.75007952  0.00025423
Direct configuration=    10
   0.99888489  0.00041823  0.50046865
   0.00157228  0.25115583  0.74919652
   0.24948174  0.00016820  0.74931868
  -0.00001631  0.49943595  0.49888682
   0.99847305  0.75076181  0.74568191
   0.24957690  0.49950972  0.25300257
   0.75571323  0.25009187  0.50006068
   0.75394348  0.24993150 -0.00107122
   0.99881288  0.00190996 -0.00405018
   0.00443828  0.24814864  0.25045215
   0.24690665  0.99801612  0.25308914
   0.24250029  0.24935523  0.49917315
   0.24674000  0.50252308  0.74616628
   0.50247099  0.99979142  0.50261544
   0.49885560  0.25022093  0.74955484
   0.75183425  0.00257819  0.74661561
  -0.00076909  0.49631191  0.00066826
  -0.00038414  0.74763786  0.25241644
   0.24572445  0.25001419  0.00147364
   0.24849711  0.75315119  0.50236394
   0.49902578  0.99775274 -0.00247971
   0.50321173  0.24740342  0.25087727
   0.50097729  0.50136420  0.49911250
   0.49640714  0.75305408  0.74809183
   0.75629120  0.00257886  0.25362692
   0.75569999  0.49964639  0.74570132
   0.24931499  0.75009639 -0.00112873
   0.49767943  0.50301951  0.00323052
   0.49764318  0.74932291  0.25243592
   0.75288015  0.49429640  0.25339285
   0.74885621  0.75042545  0.50090898
   0.74875636  0.74990784  0.00014701
Direct configuration=    11
   0.99886762  0.00027285  0.50056009
   0.00177517  0.25127349  0.74917128
   0.24958940  0.00021718  0.74938388
  -0.00000809  0.49964656  0.49887573
   0.99830238  0.75072790  0.74558082
   0.24983123  0.49945220  0.25308811
   0.75569605  0.25010997  0.50007027
   0.75406719  0.24987429 -0.00107810
   0.99883546  0.00178631 -0.00423551
   0.00451516  0.24802592  0.25063061
   0.24700976  0.99793349  0.25288170
   0.24266350  0.24924090  0.49920598
   0.24669346  0.50284138  0.74597407
   0.50254865  0.99999675  0.50276242
   0.49868262  0.25041095  0.74964721
   0.75169708  0.00274661  0.74672474
  -0.00076237  0.49650719  0.00060414
  -0.00046295  0.74739137  0.25255722
   0.24565486  0.24999368  0.00165379
   0.24869993  0.75325007  0.50213246
   0.49885778  0.99775619 -0.00253682
   0.50329247  0.24714642  0.25074738
   0.50089011  0.50126380  0.49896768
   0.49642473  0.75315862  0.74794869
   0.75650251  0.00249599  0.25358733
   0.75564211  0.49973610  0.74576494
   0.24934911  0.75002347 -0.00107641
   0.49755558  0.50303833  0.00344956
   0.49760431  0.74927842  0.25278384
   0.75268901  0.49423743  0.25328578
   0.74868773  0.75035816  0.50080244
   0.74860843  0.74980800  0.00008466
Direct configuration=    12
   0.99883308 -0.00001791  0.50074297
   0.00218094  0.25150883  0.74912079
   0.24980471  0.00031515  0.74951429
   0.00000837  0.50006780  0.49885354
   0.99796104  0.75066009  0.74537864
   0.25033988  0.49933717  0.25325918
   0.75566167  0.25014617  0.50008944
   0.75431460  0.24975986 -0.00109187
   0.99888063  0.00153900 -0.00460617
   0.00466892  0.24778049  0.25098752
   0.24721599  0.99776823  0.25246683
   0.24298993  0.24901222  0.49927164
   0.24660037  0.50347799  0.74558967
   0.50270397  0.00040742  0.50305638
   0.49833666  0.25079100  0.74983196
   0.75142273  0.00308345  0.74694298
  -0.00074893  0.49689776  0.00047590
  -0.00062057  0.74689837  0.25283878
   0.24551568  0.24995267  0.00201410
   0.24910558  0.75344782  0.50166952
   0.49852179  0.99776310 -0.00265103
   0.50345395  0.24663242  0.25048758
   0.50071576  0.50106299  0.49867805
   0.49645993  0.75336771  0.74766242
   0.75692514  0.00233025  0.25350816
   0.75552636  0.49991552  0.74589220
   0.24941734  0.74987762 -0.00097176
   0.49730786  0.50307595  0.00388762
   0.49752657  0.74918946  0.25347969
   0.75230672  0.49411948  0.25307164
   0.74835076  0.75022359  0.50058937
   0.74831257  0.74960833 -0.00004005
Direct configuration=    13
   0.99888284 -0.00022599  0.50099957
   0.00243014  0.25177075  0.74894833
   0.24976186  0.00004200  0.74968985
  -0.00009202  0.49994658  0.49868205
   0.99782999  0.75099964  0.74510910
   0.25055390  0.49916979  0.25332113
   0.75576490  0.25038119  0.50031217
   0.75447388  0.24982581 -0.00112893
   0.99893370  0.00088002 -0.00491013
   0.00486105  0.24774825  0.25105901
   0.24718681  0.99727492  0.25243009
   0.24307594  0.24885796  0.49920516
   0.24679014  0.50410628  0.74547927
   0.50296743  0.00087929  0.50313306
   0.49821630  0.25158849  0.75055634
   0.75122819  0.00335802  0.74711497
  -0.00059251  0.49719133  0.00065360
  -0.00072009  0.74659128  0.25280883
   0.24531306  0.25032102  0.00213634
   0.24937993  0.75419756  0.50138619
   0.49855583  0.99756468 -0.00259355
   0.50389914  0.24589665  0.24994786
   0.50091517  0.50043587  0.49844747
   0.49641005  0.75351898  0.74744706
   0.75699463  0.00191656  0.25327895
   0.75518609  0.49970553  0.74584778
   0.24964577  0.74976171 -0.00096823
   0.49696853  0.50301923  0.00426888
   0.49760576  0.74945373  0.25380300
   0.75198119  0.49374726  0.25296454
   0.74784762  0.75035057  0.50053037
   0.74774481  0.74972505  0.00003985
Direct configuration=    14
   0.99887686 -0.00020098  0.50096874
   0.00240019  0.25173928  0.74896906
   0.24976701  0.00007482  0.74966876
  -0.00007995  0.49996115  0.49870266
   0.99784574  0.75095883  0.74514149
   0.25052818  0.49918991  0.25331369
   0.75575249  0.25035295  0.50028540
   0.75445474  0.24981788 -0.00112448
   0.99892732  0.00095921 -0.00487360
   0.00483796  0.24775212  0.25105042
   0.24719032  0.99733420  0.25243451
   0.24306561  0.24887650  0.49921315
   0.24676733  0.50403078  0.74549254
   0.50293577  0.00082259  0.50312384
   0.49823076  0.25149266  0.75046929
   0.75125156  0.00332502  0.74709431
  -0.00061130  0.49715606  0.00063225
  -0.00070814  0.74662818  0.25281243
   0.24533741  0.25027675  0.00212165
   0.24934696  0.75410747  0.50142024
   0.49855174  0.99758852 -0.00260046
   0.50384564  0.24598507  0.25001272
   0.50089121  0.50051123  0.49847518
   0.49641605  0.75350080  0.74747294
   0.75698628  0.00196627  0.25330649
   0.75522698  0.49973076  0.74585312
   0.24961832  0.74977564 -0.00096865
   0.49700930  0.50302605  0.00422307
   0.49759625  0.74942198  0.25376415
   0.75202031  0.49379199  0.25297741
   0.74790808  0.75033531  0.50053746
   0.74781304  0.74971102  0.00003025
Direct configuration=    15
   0.99885081  0.00005405  0.50084181
   0.00236904  0.25178726  0.74901045
   0.24964203 -0.00004902  0.74970307
  -0.00009493  0.49954129  0.49854249
   0.99789166  0.75105564  0.74507677
   0.25016250  0.49905534  0.25343411
   0.75605397  0.25031301  0.50027445
   0.75474512  0.24991527 -0.00108534
   0.99888268  0.00088165 -0.00475774
   0.00490121  0.24780848  0.25081896
   0.24676048  0.99733886  0.25267555
   0.24277109  0.24885108  0.49901459
   0.24689657  0.50415762  0.74547858
   0.50296569  0.00110228  0.50316205
   0.49823724  0.25158520  0.75095688
   0.75134729  0.00335214  0.74699880
  -0.00065671  0.49705644  0.00081167
  -0.00069719  0.74670277  0.25271556
   0.24498026  0.25037064  0.00203146
   0.24929703  0.75431909  0.50160751
   0.49877865  0.99745353 -0.00260095
   0.50392525  0.24565328  0.24980665
   0.50096740  0.50023939  0.49843970
   0.49643736  0.75339683  0.74748631
   0.75708338  0.00202533  0.25329148
   0.75524541  0.49965824  0.74579741
   0.24974758  0.74978696 -0.00106083
   0.49702948  0.50312975  0.00422081
   0.49774528  0.74971477  0.25346332
   0.75228700  0.49355366  0.25306598
   0.74784352  0.75047129  0.50079242
   0.74760384  0.74971789 -0.00001398
