Automatically generated mesh
      10
Reciprocal lattice
    0.00000000000000    0.00000000000000    0.00000000000000             1
    0.33333333333333    0.00000000000000    0.00000000000000             2
    0.00000000000000    0.33333333333333    0.00000000000000             2
    0.33333333333333    0.33333333333333    0.00000000000000             2
   -0.33333333333333    0.33333333333333    0.00000000000000             2
    0.00000000000000    0.00000000000000    0.50000000000000             1
    0.33333333333333    0.00000000000000    0.50000000000000             2
    0.00000000000000    0.33333333333333    0.50000000000000             2
    0.33333333333333    0.33333333333333    0.50000000000000             2
   -0.33333333333333    0.33333333333333    0.50000000000000             2
Tetrahedra
        51    0.00925925925926
         2         1         2         4         6
         2         1         3         4         6
         2         3         4         6         8
         2         2         4         6         7
         2         4         6         7         9
         2         4         6         8         9
         2         2         2         5         7
         2         2         4         5         7
         2         4         5         7         9
         2         2         5         7         7
         2         5         7         7        10
         2         5         7         9        10
         2         1         2         3         7
         2         2         3         5         7
         2         3         5         7        10
         2         1         3         6         7
         2         3         6         7         8
         2         3         7         8        10
         2         3         4         5         8
         2         3         3         5         8
         2         3         5         8         8
         2         4         5         8         9
         2         5         8         9        10
         2         5         8         8        10
         4         4         4         5         9
         4         4         5         9        10
         4         4         9         9        10
         2         3         3         5        10
         2         3         4         5        10
         2         3         4         9        10
         2         3         3         8        10
         2         3         8         8        10
         2         3         8         9        10
         2         2         3         5         8
         2         1         2         3         8
         2         1         2         6         8
         2         2         5         8        10
         2         2         7         8        10
         2         2         6         7         8
         2         2         4         5        10
         2         2         2         5        10
         2         2         2         7        10
         2         2         4         9        10
         2         2         7         9        10
         2         2         7         7        10
         2         1         3         4         9
         2         1         2         4         9
         2         1         2         7         9
         2         1         3         8         9
         2         1         6         8         9
         2         1         6         7         9
