       N       E                     dE             d eps       ncg     rms          rms(c)
DAV:   1     0.864374900158E+04    0.86437E+04   -0.35970E+05 27480   0.182E+03
DAV:   2     0.340294795114E+03   -0.83035E+04   -0.77737E+04 27480   0.394E+02
DAV:   3    -0.830019196087E+03   -0.11703E+04   -0.90509E+03 27480   0.191E+02
DAV:   4    -0.911182379535E+03   -0.81163E+02   -0.75423E+02 29202   0.585E+01
DAV:   5    -0.912481819534E+03   -0.12994E+01   -0.12933E+01 29994   0.756E+00    0.114E+02
RMM:   6    -0.893396681092E+03    0.19085E+02   -0.10047E+03 29016   0.731E+01    0.142E+02
RMM:   7    -0.126697983946E+04   -0.37358E+03   -0.28732E+02 30250   0.311E+01    0.256E+02
RMM:   8    -0.109863994939E+04    0.16834E+03   -0.10738E+02 29330   0.193E+01    0.224E+02
RMM:   9    -0.852075120293E+03    0.24656E+03   -0.90819E+01 28980   0.199E+01    0.981E+01
RMM:  10    -0.867447335129E+03   -0.15372E+02   -0.11255E+02 29066   0.209E+01    0.142E+02
RMM:  11    -0.890778896546E+03   -0.23332E+02   -0.64174E+01 29290   0.166E+01    0.143E+02
RMM:  12    -0.819142955745E+03    0.71636E+02   -0.30216E+01 29281   0.111E+01    0.708E+01
RMM:  13    -0.811004794499E+03    0.81382E+01   -0.22289E+01 28965   0.917E+00    0.600E+01
RMM:  14    -0.811439959987E+03   -0.43517E+00   -0.14893E+01 28378   0.760E+00    0.601E+01
RMM:  15    -0.802412871362E+03    0.90271E+01   -0.93800E+00 28004   0.635E+00    0.330E+01
RMM:  16    -0.802924263776E+03   -0.51139E+00   -0.34656E+00 27966   0.357E+00    0.287E+01
RMM:  17    -0.804683831761E+03   -0.17596E+01   -0.24230E+00 28049   0.305E+00    0.253E+01
RMM:  18    -0.805808069533E+03   -0.11242E+01   -0.21908E+00 28071   0.286E+00    0.240E+01
RMM:  19    -0.809993151626E+03   -0.41851E+01   -0.33191E+00 28191   0.334E+00    0.316E+01
RMM:  20    -0.808569515580E+03    0.14236E+01   -0.37249E+00 28098   0.377E+00    0.204E+01
RMM:  21    -0.808616410675E+03   -0.46895E-01   -0.21759E+00 27947   0.279E+00    0.194E+01
RMM:  22    -0.808931341547E+03   -0.31493E+00   -0.14775E+00 28036   0.236E+00    0.174E+01
RMM:  23    -0.808357928464E+03    0.57341E+00   -0.10786E+00 27998   0.210E+00    0.121E+01
RMM:  24    -0.808869330567E+03   -0.51140E+00   -0.65644E-01 28202   0.155E+00    0.161E+01
RMM:  25    -0.808347201704E+03    0.52213E+00   -0.46755E-01 28001   0.138E+00    0.962E+00
RMM:  26    -0.808225418924E+03    0.12178E+00   -0.20906E-01 28248   0.907E-01    0.655E+00
RMM:  27    -0.808415883681E+03   -0.19046E+00   -0.20440E-01 28180   0.863E-01    0.864E+00
RMM:  28    -0.808263882517E+03    0.15200E+00   -0.10202E-01 28087   0.649E-01    0.446E+00
RMM:  29    -0.808376717772E+03   -0.11284E+00   -0.86643E-02 28450   0.547E-01    0.641E+00
RMM:  30    -0.808386574581E+03   -0.98568E-02   -0.45504E-02 28220   0.423E-01    0.542E+00
RMM:  31    -0.808453070997E+03   -0.66496E-01   -0.38873E-02 28487   0.368E-01    0.628E+00
RMM:  32    -0.808503224077E+03   -0.50153E-01   -0.20577E-02 28208   0.260E-01    0.631E+00
RMM:  33    -0.808527988245E+03   -0.24764E-01   -0.10024E-02 28794   0.178E-01    0.637E+00
RMM:  34    -0.808541068342E+03   -0.13080E-01   -0.49481E-03 28612   0.123E-01    0.622E+00
RMM:  35    -0.808575050715E+03   -0.33982E-01   -0.88035E-03 28636   0.160E-01    0.612E+00
RMM:  36    -0.808647354289E+03   -0.72304E-01   -0.51390E-02 28310   0.371E-01    0.539E+00
RMM:  37    -0.808656174684E+03   -0.88204E-02   -0.14150E-01 28578   0.607E-01    0.390E+00
RMM:  38    -0.808609472057E+03    0.46703E-01   -0.50579E-02 28592   0.438E-01    0.239E+00
RMM:  39    -0.808612090589E+03   -0.26185E-02   -0.90438E-03 28672   0.185E-01    0.223E+00
RMM:  40    -0.808616635742E+03   -0.45452E-02   -0.87404E-03 28672   0.185E-01    0.227E+00
RMM:  41    -0.808628086350E+03   -0.11451E-01   -0.63962E-03 28534   0.145E-01    0.246E+00
RMM:  42    -0.808630845861E+03   -0.27595E-02   -0.29535E-03 28461   0.104E-01    0.250E+00
RMM:  43    -0.808636233941E+03   -0.53881E-02   -0.23788E-03 28249   0.812E-02    0.261E+00
RMM:  44    -0.808635031307E+03    0.12026E-02   -0.39340E-04 29028   0.359E-02    0.260E+00
RMM:  45    -0.808623681871E+03    0.11349E-01   -0.47085E-03 27910   0.116E-01    0.252E+00
RMM:  46    -0.808620365127E+03    0.33167E-02   -0.18643E-03 28656   0.715E-02    0.243E+00
RMM:  47    -0.808616257851E+03    0.41073E-02   -0.75422E-03 28625   0.151E-01    0.224E+00
RMM:  48    -0.808616059021E+03    0.19883E-03   -0.15517E-02 28598   0.218E-01    0.173E+00
RMM:  49    -0.808606841917E+03    0.92171E-02   -0.81081E-03 28124   0.177E-01    0.101E+00
RMM:  50    -0.808610375497E+03   -0.35336E-02   -0.34562E-03 28427   0.110E-01    0.953E-01
RMM:  51    -0.808609199580E+03    0.11759E-02   -0.32291E-03 28348   0.112E-01    0.586E-01
RMM:  52    -0.808610633784E+03   -0.14342E-02   -0.24396E-03 28743   0.903E-02    0.616E-01
RMM:  53    -0.808609396367E+03    0.12374E-02   -0.15670E-03 28427   0.779E-02    0.354E-01
RMM:  54    -0.808609946198E+03   -0.54983E-03   -0.10339E-03 28768   0.578E-02    0.342E-01
RMM:  55    -0.808609653139E+03    0.29306E-03   -0.51879E-04 28481   0.452E-02    0.163E-01
RMM:  56    -0.808609753732E+03   -0.10059E-03   -0.47851E-04 28889   0.387E-02    0.200E-01
RMM:  57    -0.808609717998E+03    0.35733E-04   -0.16186E-04 28973   0.260E-02    0.122E-01
RMM:  58    -0.808609842974E+03   -0.12498E-03   -0.78287E-05 29045   0.165E-02    0.132E-01
RMM:  59    -0.808609831157E+03    0.11817E-04   -0.90745E-05 28636   0.181E-02    0.784E-02
RMM:  60    -0.808609819506E+03    0.11651E-04   -0.37941E-05 28583   0.116E-02    0.599E-02
RMM:  61    -0.808609818008E+03    0.14985E-05   -0.28240E-05 28539   0.106E-02    0.563E-02
RMM:  62    -0.808609824708E+03   -0.67009E-05   -0.11825E-05 28440   0.703E-03    0.346E-02
RMM:  63    -0.808609824765E+03   -0.56170E-07   -0.83031E-06 28469   0.549E-03
   1 F= -.80860982E+03 E0= -.80860982E+03  d E =0.000000E+00  mag=   212.8074
