 vasp.5.4.4.18Apr17-6-g9f103f2a35 (build Sep 06 2021 19:49:22) complex          
  
 executed on             LinuxIFC date 2021.12.30  11:28:03
 running on   96 total cores
 distrk:  each k-point on   96 cores,    1 groups
 distr:  one band on NCORES_PER_BAND=  32 cores,    3 groups


--------------------------------------------------------------------------------------------------------


 INCAR:
 POTCAR:    PAW_PBE Fe 06Sep2000                  
 POTCAR:    PAW_PBE Ni 02Aug2007                  

 ----------------------------------------------------------------------------- 
|                                                                             |
|           W    W    AA    RRRRR   N    N  II  N    N   GGGG   !!!           |
|           W    W   A  A   R    R  NN   N  II  NN   N  G    G  !!!           |
|           W    W  A    A  R    R  N N  N  II  N N  N  G       !!!           |
|           W WW W  AAAAAA  RRRRR   N  N N  II  N  N N  G  GGG   !            |
|           WW  WW  A    A  R   R   N   NN  II  N   NN  G    G                |
|           W    W  A    A  R    R  N    N  II  N    N   GGGG   !!!           |
|                                                                             |
|      For optimal performance we recommend to set                            |
|        NCORE= 4 - approx SQRT( number of cores)                             |
|      NCORE specifies how many cores store one orbital (NPAR=cpu/NCORE).     |
|      This setting can  greatly improve the performance of VASP for DFT.     |
|      The default,   NCORE=1            might be grossly inefficient         |
|      on modern multi-core architectures or massively parallel machines.     |
|      Do your own testing !!!!                                               |
|      Unfortunately you need to use the default for GW and RPA calculations. |
|      (for HF NCORE is supported but not extensively tested yet)             |
|                                                                             |
 ----------------------------------------------------------------------------- 

 POTCAR:    PAW_PBE Fe 06Sep2000                  
   VRHFIN =Fe:  d7 s1                                                           
   LEXCH  = PE                                                                  
   EATOM  =   594.3153 eV,   43.6809 Ry                                         
                                                                                
   TITEL  = PAW_PBE Fe 06Sep2000                                                
   LULTRA =        F    use ultrasoft PP ?                                      
   IUNSCR =        1    unscreen: 0-lin 1-nonlin 2-no                           
   RPACOR =    2.000    partial core radius                                     
   POMASS =   55.847; ZVAL   =    8.000    mass and valenz                      
   RCORE  =    2.300    outmost cutoff radius                                   
   RWIGS  =    2.460; RWIGS  =    1.302    wigner-seitz radius (au A)           
   ENMAX  =  267.882; ENMIN  =  200.911 eV                                      
   RCLOC  =    1.701    cutoff for local pot                                    
   LCOR   =        T    correct aug charges                                     
   LPAW   =        T    paw PP                                                  
   EAUG   =  511.368                                                            
   DEXC   =    0.000                                                            
   RMAX   =    2.356    core radius for proj-oper                               
   RAUG   =    1.300    factor for augmentation sphere                          
   RDEP   =    2.442    radius for radial grids                                 
   RDEPT  =    1.890    core radius for aug-charge                              
                                                                                
   Atomic configuration                                                         
    9 entries                                                                   
     n  l   j            E        occ.                                          
     1  0  0.50     -6993.8440   2.0000                                         
     2  0  0.50      -814.6047   2.0000                                         
     2  1  1.50      -693.3689   6.0000                                         
     3  0  0.50       -89.4732   2.0000                                         
     3  1  1.50       -55.6373   6.0000                                         
     3  2  2.50        -3.8151   7.0000                                         
     4  0  0.50        -4.2551   1.0000                                         
     4  1  1.50        -3.4015   0.0000                                         
     4  3  2.50        -1.3606   0.0000                                         
   Description                                                                  
     l       E           TYP  RCUT    TYP  RCUT                                 
     2     -3.8151135     23  2.300                                             
     2     -5.1756961     23  2.300                                             
     0     -4.2550963     23  2.300                                             
     0      7.2035603     23  2.300                                             
     1     -2.7211652     23  2.300                                             
     1     18.4316424     23  2.300                                             
  local pseudopotential read in
  partial core-charges read in
  partial kinetic energy density read in
  atomic valenz-charges read in
  non local Contribution for L=           2  read in
    real space projection operators read in
  non local Contribution for L=           2  read in
    real space projection operators read in
  non local Contribution for L=           0  read in
    real space projection operators read in
  non local Contribution for L=           0  read in
    real space projection operators read in
  non local Contribution for L=           1  read in
    real space projection operators read in
  non local Contribution for L=           1  read in
    real space projection operators read in
    PAW grid and wavefunctions read in
 
   number of l-projection  operators is LMAX  =           6
   number of lm-projection operators is LMMAX =          18
 
 POTCAR:    PAW_PBE Ni 02Aug2007                  
   VRHFIN =Ni:                                                                  
   LEXCH  = PE                                                                  
   EATOM  =  1077.6739 eV,   79.2068 Ry                                         
                                                                                
   TITEL  = PAW_PBE Ni 02Aug2007                                                
   LULTRA =        F    use ultrasoft PP ?                                      
   IUNSCR =        1    unscreen: 0-lin 1-nonlin 2-no                           
   RPACOR =    2.000    partial core radius                                     
   POMASS =   58.690; ZVAL   =   10.000    mass and valenz                      
   RCORE  =    2.300    outmost cutoff radius                                   
   RWIGS  =    2.430; RWIGS  =    1.286    wigner-seitz radius (au A)           
   ENMAX  =  269.532; ENMIN  =  202.149 eV                                      
   RCLOC  =    1.201    cutoff for local pot                                    
   LCOR   =        T    correct aug charges                                     
   LPAW   =        T    paw PP                                                  
   EAUG   =  544.565                                                            
   DEXC   =    0.000                                                            
   RMAX   =    2.357    core radius for proj-oper                               
   RAUG   =    1.300    factor for augmentation sphere                          
   RDEP   =    2.390    radius for radial grids                                 
   RDEPT  =    1.838    core radius for aug-charge                              
                                                                                
   Atomic configuration                                                         
    9 entries                                                                   
     n  l   j            E        occ.                                          
     1  0  0.50     -8206.4253   2.0000                                         
     2  0  0.50      -976.1748   2.0000                                         
     2  1  1.50      -839.0571   6.0000                                         
     3  0  0.50      -105.9991   2.0000                                         
     3  1  1.50       -66.4603   6.0000                                         
     3  2  2.50        -4.6458   9.0000                                         
     4  0  0.50        -4.4926   1.0000                                         
     4  1  1.50        -4.0817   0.0000                                         
     4  3  2.50        -1.3606   0.0000                                         
   Description                                                                  
     l       E           TYP  RCUT    TYP  RCUT                                 
     2     -4.6457903     23  2.300                                             
     2     -6.0063729     23  2.300                                             
     0     -4.4925590     23  2.300                                             
     0      5.0102601     23  2.300                                             
     1     -2.7211652     23  2.300                                             
     1     16.5183231     23  2.300                                             
  local pseudopotential read in
  partial core-charges read in
  partial kinetic energy density read in
  atomic valenz-charges read in
  non local Contribution for L=           2  read in
    real space projection operators read in
  non local Contribution for L=           2  read in
    real space projection operators read in
  non local Contribution for L=           0  read in
    real space projection operators read in
  non local Contribution for L=           0  read in
    real space projection operators read in
  non local Contribution for L=           1  read in
    real space projection operators read in
  non local Contribution for L=           1  read in
    real space projection operators read in
    PAW grid and wavefunctions read in
 
   number of l-projection  operators is LMAX  =           6
   number of lm-projection operators is LMMAX =          18
 
 Optimization of the real space projectors (new method)

 maximal supplied QI-value         = 16.25
 optimisation between [QCUT,QGAM] = [ 11.54, 23.24] = [ 37.28,151.24] Ry 
 Optimized for a Real-space Cutoff    1.53 Angstroem

   l    n(q)    QCUT    max X(q) W(low)/X(q) W(high)/X(q)  e(spline) 
   2     10    11.539    80.901    0.11E-03    0.14E-03    0.21E-06
   2     10    11.539    75.754    0.11E-03    0.14E-03    0.22E-06
   0     11    11.539    58.752    0.52E-04    0.18E-04    0.33E-06
   0     11    11.539    30.679    0.44E-04    0.16E-04    0.30E-06
   1     10    11.539    17.977    0.53E-04    0.29E-04    0.13E-06
   1     10    11.539    13.559    0.44E-04    0.25E-04    0.11E-06
 Optimization of the real space projectors (new method)

 maximal supplied QI-value         = 16.25
 optimisation between [QCUT,QGAM] = [ 11.54, 23.24] = [ 37.28,151.24] Ry 
 Optimized for a Real-space Cutoff    1.45 Angstroem

   l    n(q)    QCUT    max X(q) W(low)/X(q) W(high)/X(q)  e(spline) 
   2      9    11.539    60.317    0.19E-03    0.47E-04    0.16E-06
   2      9    11.539    55.921    0.19E-03    0.48E-04    0.16E-06
   0     10    11.539    51.690    0.80E-04    0.50E-04    0.24E-06
   0     10    11.539    30.015    0.73E-04    0.45E-04    0.22E-06
   1     10    11.539    18.849    0.87E-04    0.16E-03    0.71E-07
   1     10    11.539    14.624    0.73E-04    0.13E-03    0.64E-07
  PAW_PBE Fe 06Sep2000                  :
 energy of atom  1       EATOM= -594.3153
 kinetic energy error for atom=    0.0026 (will be added to EATOM!!)
  PAW_PBE Ni 02Aug2007                  :
 energy of atom  2       EATOM=-1077.6739
 kinetic energy error for atom=    0.0030 (will be added to EATOM!!)
 
 
 POSCAR: POSCAR                                  
  positions in direct lattice
  velocities in cartesian coordinates
 exchange correlation table for  LEXCH =        8
   RHO(1)=    0.500       N(1)  =     2000
   RHO(2)=  100.500       N(2)  =     4000
 


--------------------------------------------------------------------------------------------------------


 ion  position               nearest neighbor table
   1  0.129  0.981  0.235-  47 2.47   2 2.48 101 2.49  11 2.51  66 2.51  82 2.51   6 2.52  10 2.52
                            64 2.55  95 2.58   3 2.58  49 2.63
   2  0.383  0.950  0.197-  48 2.48   1 2.48  49 2.51  64 2.53  14 2.53   4 2.54  10 2.56  13 2.56
                             5 2.56  65 2.57  94 2.59   3 2.60
   3  0.158  0.830  0.082-  98 2.47  15 2.47   6 2.47  97 2.51   5 2.52  49 2.53  89 2.53  50 2.56
                            11 2.57  14 2.57   1 2.58   2 2.60
   4  0.642  0.915  0.157-  52 2.49  94 2.50  65 2.51   2 2.54  96 2.54   7 2.55  17 2.55   5 2.56
                            13 2.57   6 2.58  66 2.58  16 2.60
   5  0.417  0.800  0.046-  89 2.46  53 2.50  97 2.50  94 2.51   3 2.52  35 2.53  17 2.55  14 2.56
                             4 2.56   2 2.56  18 2.59   7 2.65
   6  0.908  0.876  0.122-   3 2.47  95 2.48   7 2.49  50 2.50   1 2.52  66 2.53  96 2.54  16 2.55
                             4 2.58  19 2.58  98 2.59  11 2.61
   7  0.692  0.769  0.010-  96 2.47  35 2.48  98 2.49   6 2.49  90 2.50  56 2.52  17 2.53   4 2.55
                            53 2.55  19 2.59  67 2.60   5 2.65
   8  0.251  0.967  0.463-  10 2.44 101 2.46  23 2.48  82 2.49  73 2.49  64 2.50  74 2.51  24 2.52
                             9 2.53  61 2.54  83 2.54  76 2.59
   9  0.509  0.927  0.423-  10 2.36  64 2.43  13 2.49  26 2.49  23 2.51   8 2.53  12 2.53  76 2.54
                            65 2.54  25 2.56  63 2.57  77 2.58
  10  0.298  0.821  0.323-   9 2.36  24 2.44   8 2.44  26 2.45  64 2.49  13 2.52   1 2.52  11 2.54
                            82 2.55   2 2.56  14 2.58  27 2.63
  11  0.077  0.705  0.211-  82 2.49  31 2.50   1 2.51  14 2.51  27 2.52  16 2.54  10 2.54  85 2.55
                             3 2.57  19 2.57  15 2.57   6 2.61
  12  0.769  0.886  0.388-  13 2.47  77 2.50  65 2.50  16 2.52  86 2.52  28 2.53   9 2.53  25 2.54
                            74 2.54  66 2.54  82 2.55 102 2.57
  13  0.552  0.779  0.279-  26 2.45  12 2.47  14 2.48   9 2.49  10 2.52  29 2.55  16 2.55  86 2.56
                             2 2.56  65 2.56   4 2.57  17 2.59
  14  0.334  0.670  0.171-  13 2.48  27 2.48  11 2.51   2 2.53  15 2.55  29 2.55   5 2.56  17 2.57
                             3 2.57  87 2.57  10 2.58  18 2.59
  15  0.111  0.557  0.058-  19 2.45   3 2.47  18 2.47  30 2.50  97 2.51  85 2.52  87 2.53  14 2.55
                            98 2.55  70 2.56 103 2.57  11 2.57
  16  0.813  0.741  0.242-  12 2.52  86 2.52  82 2.53  66 2.54  32 2.54  17 2.54  11 2.54  13 2.55
                             6 2.55  31 2.57  19 2.58   4 2.60
  17  0.593  0.634  0.126-  67 2.50   7 2.53  29 2.54  16 2.54   5 2.55   4 2.55  14 2.57  33 2.57
                            18 2.58  19 2.58  13 2.59  32 2.60
  18  0.362  0.515  0.019-  15 2.47  87 2.48 103 2.48  33 2.50 106 2.50  97 2.50  53 2.54  68 2.55
                            17 2.58  14 2.59   5 2.59  67 2.62
  19  0.859  0.592  0.092-  15 2.45  98 2.51  88 2.51  32 2.53  85 2.53  67 2.54  70 2.54  11 2.57
                            16 2.58   6 2.58  17 2.58   7 2.59
  20  0.121  0.972  0.730- 108 2.48  84 2.48  37 2.49  83 2.50 105 2.50  34 2.53  69 2.54  21 2.54
                            73 2.58  36 2.59  78 2.59  80 2.62
  21  0.384  0.947  0.695-  38 2.49  73 2.50  80 2.51  22 2.52  23 2.53  20 2.54  91 2.55  72 2.55
                            83 2.58  36 2.58  81 2.59  76 2.61
  22  0.642  0.913  0.658-  81 2.49 104 2.50  76 2.51  21 2.52  25 2.52  40 2.53  84 2.53  91 2.54
                            77 2.54 108 2.55  41 2.55  23 2.57
  23  0.415  0.804  0.544-   8 2.48  83 2.50   9 2.51  24 2.51  25 2.52  21 2.53  76 2.54  38 2.55
                            42 2.55  22 2.57  26 2.57  41 2.62
  24  0.198  0.690  0.432-  10 2.44  82 2.46  31 2.48  23 2.51  39 2.51   8 2.52  83 2.53  26 2.57
                            27 2.58  28 2.58  43 2.60  42 2.61
  25  0.675  0.760  0.511-  26 2.50  41 2.50  77 2.52  23 2.52  45 2.52  22 2.52  28 2.53  12 2.54
                            84 2.54   9 2.56  44 2.59  86 2.60
  26  0.462  0.652  0.395-  13 2.45  10 2.45  42 2.49   9 2.49  25 2.50  27 2.50  86 2.54  24 2.57
                            46 2.57  23 2.57  29 2.58  45 2.61
  27  0.246  0.532  0.285-  87 2.48  14 2.48  43 2.50  26 2.50  85 2.50  11 2.52  46 2.52  47 2.55
                            29 2.56  24 2.58  31 2.59  10 2.63
  28  0.935  0.721  0.474-  44 2.48  86 2.49  84 2.50  83 2.51  74 2.53  12 2.53  25 2.53  92 2.54
                            82 2.56  39 2.56  31 2.56  24 2.58
  29  0.508  0.498  0.247-  32 2.49  86 2.50  33 2.51  46 2.52  48 2.53  93 2.53  17 2.54  13 2.55
                            87 2.55  14 2.55  27 2.56  26 2.58
  30  0.056  0.282  0.031-  88 2.47  85 2.48  87 2.49  15 2.50  49 2.51  95 2.52 103 2.52  70 2.53
                           106 2.54  78 2.55 107 2.56  50 2.57
  31  0.982  0.571  0.326-  24 2.48  92 2.48  11 2.50  86 2.51  32 2.52  51 2.53  85 2.53  43 2.54
                            28 2.56  82 2.56  16 2.57  27 2.59
  32  0.764  0.462  0.212-  29 2.49  85 2.50  52 2.50  93 2.51  88 2.52  31 2.52  19 2.53  16 2.54
                            86 2.54  51 2.55  33 2.59  17 2.60
  33  0.535  0.352  0.098-  79 2.49 106 2.50  18 2.50  67 2.51  29 2.51  87 2.52  94 2.53  52 2.53
                            48 2.54  88 2.56  17 2.57  32 2.59
  34  0.035  0.846  0.854-  98 2.45  99 2.48  90 2.49  97 2.50  89 2.50  40 2.53  20 2.53  36 2.54
                            50 2.55  78 2.56 108 2.58  37 2.58
  35  0.521  0.926  0.928-   7 2.48  94 2.48  80 2.49  91 2.49  96 2.50  53 2.52   5 2.53  90 2.53
                            79 2.53  36 2.55  81 2.55  89 2.58
  36  0.297  0.809  0.818-  89 2.50  97 2.50  53 2.50  38 2.51  91 2.51  80 2.52  54 2.53  34 2.54
                            35 2.55  21 2.58  20 2.59  37 2.60
  37  0.070  0.698  0.701-  44 2.49  20 2.49  38 2.51  83 2.51  55 2.52  99 2.53  84 2.55  40 2.55
                            39 2.57  34 2.58  54 2.60  36 2.60
  38  0.331  0.673  0.668-  21 2.49  37 2.51  36 2.51  41 2.52  83 2.53  58 2.53  23 2.55  91 2.55
                            57 2.57  39 2.57  42 2.63  54 2.63
  39  0.113  0.551  0.550-  92 2.49  24 2.51  43 2.52  59 2.54  83 2.54  28 2.56  58 2.56  37 2.57
                            42 2.57  55 2.57  38 2.57  44 2.58
  40  0.811  0.747  0.740-  84 2.46 108 2.49  90 2.50  56 2.50  91 2.52  41 2.52  22 2.53  34 2.53
                            37 2.55  60 2.56  44 2.57  99 2.62
  41  0.589  0.632  0.631-  42 2.49  57 2.49  25 2.50 100 2.51  38 2.52  40 2.52  91 2.54  22 2.55
                            44 2.57  60 2.58  23 2.62  45 2.63
  42  0.379  0.522  0.515-  41 2.49  26 2.49  45 2.53  61 2.54  23 2.55  46 2.55  43 2.56  58 2.57
                            39 2.57 100 2.57  24 2.61  38 2.63
  43  0.156  0.402  0.404-  61 2.49  27 2.50 101 2.51  39 2.52  51 2.53  47 2.54  31 2.54  46 2.55
                            42 2.56  59 2.57  92 2.58  24 2.60
  44  0.851  0.588  0.592-  45 2.48  28 2.48  37 2.49  60 2.49  62 2.53  92 2.55  84 2.55  40 2.57
                            41 2.57  39 2.58  55 2.58  25 2.59
  45  0.638  0.481  0.478-  86 2.45  92 2.47  44 2.48  63 2.50  93 2.51  25 2.52  46 2.52  42 2.53
                           100 2.55  62 2.57  26 2.61  41 2.63
  46  0.417  0.368  0.367-  48 2.49  63 2.50  64 2.50  93 2.50  29 2.52  27 2.52  45 2.52  43 2.55
                            42 2.55  26 2.57  61 2.58  47 2.61
  47  0.186  0.252  0.255-   1 2.47  95 2.49  87 2.50  85 2.51  48 2.53  49 2.53  43 2.54  64 2.54
                            27 2.55  51 2.56 101 2.57  46 2.61
  48  0.448  0.221  0.220-   2 2.48  46 2.49  65 2.52  94 2.52  87 2.53  52 2.53  29 2.53  47 2.53
                            33 2.54  93 2.56  49 2.59  64 2.60
  49  0.221  0.106  0.105-  89 2.45 106 2.47  94 2.49   2 2.51  30 2.51  50 2.53   3 2.53  47 2.53
                            87 2.56  95 2.58  48 2.59   1 2.63
  50  0.991  0.002  0.999-  96 2.45  90 2.46 107 2.48  78 2.49   6 2.50  95 2.52  49 2.53  98 2.54
                            34 2.55   3 2.56  30 2.57  89 2.58
  51  0.927  0.293  0.298-  93 2.46  66 2.48 101 2.49  92 2.49 102 2.50  95 2.51  31 2.53  43 2.53
                            85 2.54  32 2.55  47 2.56  52 2.57
  52  0.705  0.187  0.180-  96 2.45  95 2.47   4 2.49  88 2.49  32 2.50  48 2.53  33 2.53  93 2.55
                            94 2.56  51 2.57  66 2.60  65 2.60
  53  0.465  0.649  0.903-  67 2.49  36 2.50   5 2.50  35 2.52  57 2.53  18 2.54  97 2.55   7 2.55
                            54 2.56  91 2.56  56 2.57  68 2.60
  54  0.240  0.532  0.792- 103 2.47  99 2.48  97 2.50  68 2.51  55 2.51  36 2.53  53 2.56  69 2.56
                            57 2.57  58 2.58  37 2.60  38 2.63
  55  0.027  0.420  0.675-  75 2.51  54 2.51  37 2.52  59 2.53  58 2.53  69 2.53  62 2.54 105 2.55
                            60 2.57  39 2.57  99 2.58  44 2.58
  56  0.728  0.620  0.862-  98 2.45  90 2.48  40 2.50  99 2.52  91 2.52  57 2.52   7 2.52  70 2.55
                            60 2.56  67 2.56  53 2.57  71 2.58
  57  0.504  0.507  0.753-  41 2.49  91 2.51  58 2.52  71 2.52  56 2.52  53 2.53  60 2.56  72 2.56
                            54 2.57  38 2.57  68 2.59 100 2.59
  58  0.288  0.392  0.639-  61 2.50  72 2.52  57 2.52 100 2.53  55 2.53  38 2.53  39 2.56  42 2.57
                            54 2.58  73 2.59  69 2.63  59 2.63
  59  0.056  0.272  0.526- 101 2.47 102 2.50  74 2.50  62 2.50  73 2.51  92 2.52  55 2.53  61 2.53
                            39 2.54 105 2.57  43 2.57  58 2.63
  60  0.765  0.464  0.714- 100 2.49  44 2.49  99 2.50  71 2.51  75 2.52 104 2.54  62 2.55  56 2.56
                            57 2.56  40 2.56  55 2.57  41 2.58
  61  0.318  0.244  0.492-  64 2.48  76 2.48  43 2.49  58 2.50  59 2.53   8 2.54  42 2.54  63 2.55
                            73 2.56 100 2.57 101 2.58  46 2.58
  62  0.801  0.309  0.565- 100 2.49 104 2.49 105 2.50  63 2.50 102 2.50  59 2.50  77 2.51  44 2.53
                            55 2.54  92 2.55  60 2.55  45 2.57
  63  0.580  0.207  0.454- 102 2.48  46 2.50  65 2.50  45 2.50  62 2.50  76 2.50  77 2.51 100 2.52
                            64 2.52  93 2.54  61 2.55   9 2.57
  64  0.353  0.095  0.347-   9 2.43  61 2.48  10 2.49  46 2.50   8 2.50  63 2.52   2 2.53 101 2.53
                            47 2.54  65 2.55   1 2.55  48 2.60
  65  0.614  0.059  0.307- 102 2.49  93 2.49  63 2.50  12 2.50   4 2.51  66 2.51  48 2.52   9 2.54
                            64 2.55  13 2.56   2 2.57  52 2.60
  66  0.872  0.020  0.272- 101 2.48 102 2.48  51 2.48  82 2.49   1 2.51  65 2.51   6 2.53  16 2.54
                            12 2.54  95 2.56   4 2.58  52 2.60
  67  0.632  0.484  0.981-  53 2.49  17 2.50  33 2.51  88 2.52  71 2.53  19 2.54  70 2.54  79 2.54
                            56 2.56  68 2.56   7 2.60  18 2.62
  68  0.407  0.364  0.871- 106 2.49  54 2.51  69 2.52  79 2.53  80 2.53 103 2.54  72 2.54  18 2.55
                            71 2.56  67 2.56  57 2.59  53 2.60
  69  0.188  0.249  0.760-  73 2.49  75 2.51  80 2.51  68 2.52  55 2.53  20 2.54  78 2.54 105 2.55
                           103 2.56  54 2.56  72 2.57  58 2.63
  70  0.891  0.443  0.942- 103 2.48  99 2.49  71 2.49 107 2.50  88 2.52  98 2.53  30 2.53  67 2.54
                            19 2.54  75 2.55  56 2.55  15 2.56
  71  0.670  0.336  0.833-  70 2.49  72 2.51  60 2.51 107 2.52  57 2.52  67 2.53 104 2.54  79 2.54
                            81 2.55  75 2.55  68 2.56  56 2.58
  72  0.452  0.225  0.722- 104 2.50  71 2.51  76 2.51  58 2.52 100 2.53  68 2.54  81 2.54  21 2.55
                            57 2.56  69 2.57  73 2.60  80 2.64
  73  0.220  0.110  0.611-  69 2.49   8 2.49  21 2.50  59 2.51 105 2.53  83 2.54  61 2.56  76 2.57
                            74 2.57  20 2.58  58 2.59  72 2.60
  74  0.993  0.999  0.499-  77 2.47  82 2.49 102 2.49  59 2.50 105 2.51   8 2.51  83 2.52  28 2.53
                           101 2.53  84 2.54  12 2.54  73 2.57
  75  0.930  0.292  0.793- 105 2.48 108 2.49 104 2.50  69 2.51  55 2.51 107 2.52  60 2.52 103 2.53
                            78 2.54  70 2.55  71 2.55  99 2.56
  76  0.484  0.080  0.573-  61 2.48  63 2.50  77 2.51  22 2.51 100 2.51  72 2.51 104 2.53   9 2.54
                            23 2.54  73 2.57   8 2.59  21 2.61
  77  0.739  0.035  0.535-  74 2.47  12 2.50  76 2.51  62 2.51  84 2.51  63 2.51  25 2.52 102 2.52
                           105 2.53  22 2.54 104 2.54   9 2.58
  78  0.092  0.127  0.883- 107 2.49  89 2.49  50 2.49 106 2.50 103 2.52  69 2.54  75 2.54 108 2.54
                            80 2.54  30 2.55  34 2.56  20 2.59
  79  0.581  0.204  0.954-  96 2.46  33 2.49  88 2.49 107 2.49  94 2.52  81 2.52  68 2.53  35 2.53
                            67 2.54  71 2.54  80 2.57 106 2.59
  80  0.352  0.086  0.845-  89 2.49  35 2.49 106 2.51  21 2.51  69 2.51  36 2.52  68 2.53  78 2.54
                            79 2.57  81 2.57  20 2.62  72 2.64
  81  0.616  0.056  0.807-  90 2.48 108 2.48  22 2.49  91 2.49 107 2.50  79 2.52 104 2.54  72 2.54
                            35 2.55  71 2.55  80 2.57  21 2.59
  82  0.033  0.853  0.354-  24 2.46  74 2.49   8 2.49  11 2.49  66 2.49 101 2.50   1 2.51  16 2.53
                            10 2.55  12 2.55  28 2.56  31 2.56
  83  0.158  0.832  0.582-  20 2.50  23 2.50  28 2.51  37 2.51  74 2.52  84 2.52  24 2.53  38 2.53
                            73 2.54   8 2.54  39 2.54  21 2.58
  84  0.901  0.869  0.621-  40 2.46  20 2.48 105 2.49  28 2.50  77 2.51 108 2.51  83 2.52  22 2.53
                            74 2.54  25 2.54  37 2.55  44 2.55
  85  0.022  0.425  0.178-  30 2.48  32 2.50  27 2.50  47 2.51  95 2.51  87 2.52  15 2.52  31 2.53
                            19 2.53  51 2.54  88 2.55  11 2.55
  86  0.723  0.608  0.361-  45 2.45  28 2.49  29 2.50  93 2.50  31 2.51  12 2.52  16 2.52  92 2.53
                            26 2.54  32 2.54  13 2.56  25 2.60
  87  0.279  0.388  0.139-  18 2.48  27 2.48  30 2.49  47 2.50  85 2.52  33 2.52  48 2.53  15 2.53
                           106 2.53  29 2.55  49 2.56  14 2.57
  88  0.800  0.317  0.063-  30 2.47  79 2.49  52 2.49  19 2.51  96 2.51 107 2.51  70 2.52  95 2.52
                            32 2.52  67 2.52  85 2.55  33 2.56
  89  0.254  0.959  0.962-  49 2.45   5 2.46  78 2.49  80 2.49  36 2.50  34 2.50  94 2.52  97 2.52
                             3 2.53 106 2.55  50 2.58  35 2.58
  90  0.779  0.892  0.888-  50 2.46  81 2.48  56 2.48  34 2.49 108 2.50   7 2.50  40 2.50  91 2.51
                           107 2.52  35 2.53  98 2.54  96 2.54
  91  0.555  0.783  0.780-  35 2.49  81 2.49  57 2.51  90 2.51  36 2.51  40 2.52  56 2.52  22 2.54
                            41 2.54  21 2.55  38 2.55  53 2.56
  92  0.891  0.441  0.443-  45 2.47  31 2.48  93 2.49  51 2.49  39 2.49 102 2.50  59 2.52  86 2.53
                            28 2.54  44 2.55  62 2.55  43 2.58
  93  0.675  0.332  0.332-  51 2.46  92 2.49  65 2.49 102 2.50  86 2.50  46 2.50  32 2.51  45 2.51
                            29 2.53  63 2.54  52 2.55  48 2.56
  94  0.477  0.074  0.070- 106 2.47  35 2.48  49 2.49   4 2.50   5 2.51  79 2.52  89 2.52  48 2.52
                            33 2.53  96 2.54  52 2.56   2 2.59
  95  0.960  0.150  0.148-  52 2.47   6 2.48  47 2.49  96 2.51  85 2.51  51 2.51  30 2.52  88 2.52
                            50 2.52  66 2.56  49 2.58   1 2.58
  96  0.740  0.041  0.036-  50 2.45  52 2.45  79 2.46   7 2.47  35 2.50  88 2.51  95 2.51 107 2.53
                             6 2.54   4 2.54  94 2.54  90 2.54
  97  0.200  0.682  0.936-  99 2.48  54 2.50  34 2.50  98 2.50  36 2.50   5 2.50  18 2.50  15 2.51
                             3 2.51  89 2.52 103 2.52  53 2.55
  98  0.944  0.722  0.971-  56 2.45  34 2.45   3 2.47   7 2.49  97 2.50  19 2.51  99 2.51  70 2.53
                            90 2.54  50 2.54  15 2.55   6 2.59
  99  0.984  0.573  0.825-  34 2.48  54 2.48  97 2.48  70 2.49  60 2.50  98 2.51 103 2.52  56 2.52
                            37 2.53  75 2.56  55 2.58  40 2.62
 100  0.548  0.355  0.603-  62 2.49  60 2.49 104 2.50  41 2.51  76 2.51  63 2.52  72 2.53  58 2.53
                            45 2.55  42 2.57  61 2.57  57 2.59
 101  0.091  0.128  0.380-   8 2.46  59 2.47  66 2.48   1 2.49  51 2.49  82 2.50 102 2.51  43 2.51
                            74 2.53  64 2.53  47 2.57  61 2.58
 102  0.833  0.166  0.417-  66 2.48  63 2.48  65 2.49  74 2.49  93 2.50  59 2.50  51 2.50  92 2.50
                            62 2.50 101 2.51  77 2.52  12 2.57
 103  0.147  0.404  0.908-  54 2.47  70 2.48  18 2.48 106 2.52  30 2.52  99 2.52  78 2.52  97 2.52
                            75 2.53  68 2.54  69 2.56  15 2.57
 104  0.707  0.185  0.685- 105 2.48  62 2.49  72 2.50  75 2.50  22 2.50 100 2.50 108 2.50  76 2.53
                            60 2.54  71 2.54  81 2.54  77 2.54
 105  0.961  0.142  0.649- 108 2.48  75 2.48 104 2.48  84 2.49  62 2.50  20 2.50  74 2.51  73 2.53
                            77 2.53  55 2.55  69 2.55  59 2.57
 106  0.314  0.239  0.990-  94 2.47  49 2.47  68 2.49  33 2.50  78 2.50  18 2.50  80 2.51 103 2.52
                            87 2.53  30 2.54  89 2.55  79 2.59
 107  0.835  0.169  0.915-  50 2.48  78 2.49  79 2.49  81 2.50  70 2.50 108 2.51  88 2.51  90 2.52
                            71 2.52  75 2.52  96 2.53  30 2.56
 108  0.870  0.019  0.768-  20 2.48 105 2.48  81 2.48  75 2.49  40 2.49  90 2.50 104 2.50  84 2.51
                           107 2.51  78 2.54  22 2.55  34 2.58
 

IMPORTANT INFORMATION: All symmetrisations will be switched off!
NOSYMM: (Re-)initialisation of all symmetry stuff for point group C_1.

 
 

Automatic generation of k-mesh.
 generate k-points for:    3    3    2
Space group operators:
 irot       det(A)        alpha          n_x          n_y          n_z        tau_x        tau_y        tau_z
    1     1.000000     0.000000     1.000000     0.000000     0.000000     0.000000     0.000000     0.000000
 
 Subroutine IBZKPT returns following result:
 ===========================================
 
 Found     10 irreducible k-points:
 
 Following reciprocal coordinates:
            Coordinates               Weight
  0.000000  0.000000  0.000000      1.000000
  0.333333  0.000000  0.000000      2.000000
  0.000000  0.333333  0.000000      2.000000
  0.333333  0.333333  0.000000      2.000000
 -0.333333  0.333333  0.000000      2.000000
  0.000000  0.000000  0.500000      1.000000
  0.333333  0.000000  0.500000      2.000000
  0.000000  0.333333  0.500000      2.000000
  0.333333  0.333333  0.500000      2.000000
 -0.333333  0.333333  0.500000      2.000000
 
 Following cartesian coordinates:
            Coordinates               Weight
 -0.000000 -0.000000 -0.000000      1.000000
  0.067901 -0.104938 -0.043210      2.000000
 -0.104938 -0.080247  0.006173      2.000000
 -0.037037 -0.185185 -0.037037      2.000000
 -0.172840  0.024691  0.049383      2.000000
 -0.032407  0.004630 -0.115741      1.000000
  0.035494 -0.100309 -0.158951      2.000000
 -0.137346 -0.075617 -0.109568      2.000000
 -0.069444 -0.180556 -0.152778      2.000000
 -0.205247  0.029321 -0.066358      2.000000
 
 TETIRR: Found     51 inequivalent tetrahedra from      108


--------------------------------------------------------------------------------------------------------




 Dimension of arrays:
   k-points           NKPTS =     10   k-points in BZ     NKDIM =     10   number of bands    NBANDS=    687
   number of dos      NEDOS =    301   number of ions     NIONS =    108
   non local maximal  LDIM  =      6   non local SUM 2l+1 LMDIM =     18
   total plane-waves  NPLWV = 588000
   max r-space proj   IRMAX =   7254   max aug-charges    IRDMAX=  17176
   dimension x,y,z NGX =    70 NGY =   70 NGZ =  120
   dimension x,y,z NGXF=   140 NGYF=  140 NGZF=  240
   support grid    NGXF=   140 NGYF=  140 NGZF=  240
   ions per type =              81  27
   NGX,Y,Z   is equivalent  to a cutoff of  12.77, 12.77, 13.15 a.u.
   NGXF,Y,Z  is equivalent  to a cutoff of  25.54, 25.54, 26.31 a.u.

 SYSTEM =  SQS-NiFe                                
 POSCAR =  POSCAR                                  

 Startparameter for this run:
   NWRITE =      2    write-flag & timer
   PREC   = accura    normal or accurate (medium, high low for compatibility)
   ISTART =      0    job   : 0-new  1-cont  2-samecut
   ICHARG =      2    charge: 1-file 2-atom 10-const
   ISPIN  =      2    spin polarized calculation?
   LNONCOLLINEAR =      F non collinear calculations
   LSORBIT =      F    spin-orbit coupling
   INIWAV =      1    electr: 0-lowe 1-rand  2-diag
   LASPH  =      F    aspherical Exc in radial PAW
   METAGGA=      F    non-selfconsistent MetaGGA calc.

 Electronic Relaxation 1
   ENCUT  =  520.0 eV  38.22 Ry    6.18 a.u.  16.95 16.95 28.20*2*pi/ulx,y,z
   ENINI  =  520.0     initial cutoff
   ENAUG  =  544.6 eV  augmentation charge cutoff
   NELM   =    200;   NELMIN=  2; NELMDL= -5     # of ELM steps 
   EDIFF  = 0.1E-05   stopping-criterion for ELM
   LREAL  =      T    real-space projection
   NLSPLINE    = F    spline interpolate recip. space projectors
   LCOMPAT=      F    compatible to vasp.4.4
   GGA_COMPAT  = T    GGA compatible to vasp.4.4-vasp.4.6
   LMAXPAW     = -100 max onsite density
   LMAXMIX     =    2 max onsite mixed and CHGCAR
   VOSKOWN=      0    Vosko Wilk Nusair interpolation
   ROPT   =   -0.00025  -0.00025
 Ionic relaxation
   EDIFFG = -.2E-01   stopping-criterion for IOM
   NSW    =      0    number of steps for IOM
   NBLOCK =      1;   KBLOCK =      1    inner block; outer block 
   IBRION =     -1    ionic relax: 0-MD 1-quasi-New 2-CG
   NFREE  =      0    steps in history (QN), initial steepest desc. (CG)
   ISIF   =      2    stress and relaxation
   IWAVPR =     10    prediction:  0-non 1-charg 2-wave 3-comb
   ISYM   =      0    0-nonsym 1-usesym 2-fastsym
   LCORR  =      T    Harris-Foulkes like correction to forces

   POTIM  = 0.5000    time-step for ionic-motion
   TEIN   =    0.0    initial temperature
   TEBEG  =    0.0;   TEEND  =   0.0 temperature during run
   SMASS  =  -3.00    Nose mass-parameter (am)
   estimated Nose-frequenzy (Omega)   =  0.10E-29 period in steps =****** mass=  -0.190E-26a.u.
   SCALEE = 1.0000    scale energy and forces
   NPACO  =    256;   APACO  = 16.0  distance and # of slots for P.C.
   PSTRESS=    0.0 pullay stress

  Mass of Ions in am
   POMASS =  55.85 58.69
  Ionic Valenz
   ZVAL   =   8.00 10.00
  Atomic Wigner-Seitz radii
   RWIGS  =  -1.00 -1.00
  virtual crystal weights 
   VCA    =   1.00  1.00
   NELECT =     918.0000    total number of electrons
   NUPDOWN=      -1.0000    fix difference up-down

 DOS related values:
   EMIN   =  10.00;   EMAX   =-10.00  energy-range for DOS
   EFERMI =   0.00
   ISMEAR =    -5;   SIGMA  =   0.20  broadening in eV -4-tet -1-fermi 0-gaus

 Electronic relaxation 2 (details)
   IALGO  =     68    algorithm
   LDIAG  =      T    sub-space diagonalisation (order eigenvalues)
   LSUBROT=      F    optimize rotation matrix (better conditioning)
   TURBO    =      0    0=normal 1=particle mesh
   IRESTART =      0    0=no restart 2=restart with 2 vectors
   NREBOOT  =      0    no. of reboots
   NMIN     =      0    reboot dimension
   EREF     =   0.00    reference energy to select bands
   IMIX   =      4    mixing-type and parameters
     AMIX     =   0.40;   BMIX     =  1.00
     AMIX_MAG =   1.60;   BMIX_MAG =  1.00
     AMIN     =   0.10
     WC   =   100.;   INIMIX=   1;  MIXPRE=   1;  MAXMIX= -45

 Intra band minimization:
   WEIMIN = 0.0000     energy-eigenvalue tresh-hold
   EBREAK =  0.36E-09  absolut break condition
   DEPER  =   0.30     relativ break condition  

   TIME   =   0.40     timestep for ELM

  volume/ion in A,a.u.               =      11.42        77.08
  Fermi-wavevector in a.u.,A,eV,Ry     =   1.483514  2.803436 29.943904  2.200815
  Thomas-Fermi vector in A             =   2.597166
 
 Write flags
   LWAVE        =      F    write WAVECAR
   LDOWNSAMPLE  =      F    k-point downsampling of WAVECAR
   LCHARG       =      T    write CHGCAR
   LVTOT        =      F    write LOCPOT, total local potential
   LVHAR        =      F    write LOCPOT, Hartree potential only
   LELF         =      F    write electronic localiz. function (ELF)
   LORBIT       =     11    0 simple, 1 ext, 2 COOP (PROOUT), +10 PAW based schemes


 Dipole corrections
   LMONO  =      F    monopole corrections only (constant potential shift)
   LDIPOL =      F    correct potential (dipole corrections)
   IDIPOL =      0    1-x, 2-y, 3-z, 4-all directions 
   EPSILON=  1.0000000 bulk dielectric constant

 Exchange correlation treatment:
   GGA     =    --    GGA type
   LEXCH   =     8    internal setting for exchange type
   VOSKOWN=      0    Vosko Wilk Nusair interpolation
   LHFCALC =     F    Hartree Fock is set to
   LHFONE  =     F    Hartree Fock one center treatment
   AEXX    =    0.0000 exact exchange contribution

 Linear response parameters
   LEPSILON=     F    determine dielectric tensor
   LRPA    =     F    only Hartree local field effects (RPA)
   LNABLA  =     F    use nabla operator in PAW spheres
   LVEL    =     F    velocity operator in full k-point grid
   LINTERFAST=   F  fast interpolation
   KINTER  =     0    interpolate to denser k-point grid
   CSHIFT  =0.1000    complex shift for real part using Kramers Kronig
   OMEGAMAX=  -1.0    maximum frequency
   DEG_THRESHOLD= 0.2000000E-02 threshold for treating states as degnerate
   RTIME   =   -0.100 relaxation time in fs
  (WPLASMAI=    0.000 imaginary part of plasma frequency in eV, 0.658/RTIME)
   DFIELD  = 0.0000000 0.0000000 0.0000000 field for delta impulse in time
 
 Orbital magnetization related:
   ORBITALMAG=     F  switch on orbital magnetization
   LCHIMAG   =     F  perturbation theory with respect to B field
   DQ        =  0.001000  dq finite difference perturbation B field
   LLRAUG    =     F  two centre corrections for induced B field



--------------------------------------------------------------------------------------------------------


 Static calculation
 charge density and potential will be updated during run
 spin polarized calculation
 RMM-DIIS sequential band-by-band and
  variant of blocked Davidson during initial phase
 perform sub-space diagonalisation
    before iterative eigenvector-optimisation
 modified Broyden-mixing scheme, WC =      100.0
 initial mixing is a Kerker type mixing with AMIX =  0.4000 and BMIX =      1.0000
 Hartree-type preconditioning will be used
 using additional bands          228
 real space projection scheme for non local part
 use partial core corrections
 calculate Harris-corrections to forces 
   (improved forces if not selfconsistent)
 use gradient corrections 
 use of overlap-Matrix (Vanderbilt PP)
 Fermi weights with tetrahedron method with Bloechl corrections


--------------------------------------------------------------------------------------------------------


  energy-cutoff  :      520.00
  volume of cell :     1233.65
      direct lattice vectors                 reciprocal lattice vectors
     5.362500000 -7.150000000 -1.787500000     0.056980057 -0.088060088 -0.036260036
    -7.150000000 -5.362500000  1.787500000    -0.088060088 -0.067340067  0.005180005
    -3.575000000  3.575000000-14.300000000    -0.018130018  0.002590003 -0.064750065

  length of vectors
     9.114497381  9.114497381 15.167440456     0.110977909  0.110977909  0.067290241


 
 k-points in units of 2pi/SCALE and weight: read from INCAR                         
  -0.00000000 -0.00000000 -0.00000000       0.056
   0.06790123 -0.10493827 -0.04320988       0.111
  -0.10493827 -0.08024691  0.00617284       0.111
  -0.03703704 -0.18518519 -0.03703704       0.111
  -0.17283951  0.02469136  0.04938272       0.111
  -0.03240741  0.00462963 -0.11574074       0.056
   0.03549383 -0.10030864 -0.15895062       0.111
  -0.13734568 -0.07561728 -0.10956790       0.111
  -0.06944444 -0.18055556 -0.15277778       0.111
  -0.20524691  0.02932099 -0.06635802       0.111
 
 k-points in reciprocal lattice and weights: read from INCAR                         
   0.00000000  0.00000000  0.00000000       0.056
   0.33333333  0.00000000  0.00000000       0.111
   0.00000000  0.33333333  0.00000000       0.111
   0.33333333  0.33333333  0.00000000       0.111
  -0.33333333  0.33333333  0.00000000       0.111
   0.00000000  0.00000000  0.50000000       0.056
   0.33333333  0.00000000  0.50000000       0.111
   0.00000000  0.33333333  0.50000000       0.111
   0.33333333  0.33333333  0.50000000       0.111
  -0.33333333  0.33333333  0.50000000       0.111
 
 position of ions in fractional coordinates (direct lattice) 
   0.12881431  0.98062363  0.23538950
   0.38285263  0.94957659  0.19672271
   0.15756221  0.82963338  0.08207557
   0.64235300  0.91521417  0.15743539
   0.41713494  0.79970600  0.04570596
   0.90767208  0.87641894  0.12204117
   0.69177390  0.76902942  0.00969434
   0.25135843  0.96686025  0.46276150
   0.50869305  0.92678196  0.42325569
   0.29813891  0.82147818  0.32251309
   0.07723362  0.70479386  0.21062263
   0.76878177  0.88552699  0.38843774
   0.55189095  0.77865446  0.27933850
   0.33353880  0.67046990  0.17099170
   0.11110068  0.55706446  0.05818574
   0.81333602  0.74122246  0.24173582
   0.59293210  0.63431204  0.12636414
   0.36198057  0.51457801  0.01897764
   0.85868125  0.59206800  0.09184802
   0.12080067  0.97245378  0.72994706
   0.38392021  0.94665906  0.69532224
   0.64221480  0.91278544  0.65788998
   0.41540192  0.80350357  0.54411698
   0.19822587  0.68970769  0.43244236
   0.67483829  0.75972120  0.51066711
   0.46154942  0.65208211  0.39521651
   0.24592460  0.53190536  0.28539896
   0.93483706  0.72134424  0.47431382
   0.50810778  0.49763391  0.24673595
   0.05617313  0.28237123  0.03111132
   0.98179767  0.57068461  0.32629327
   0.76400217  0.46154215  0.21158032
   0.53475063  0.35172631  0.09754805
   0.03501406  0.84570084  0.85359886
   0.52137845  0.92624684  0.92775514
   0.29656363  0.80934955  0.81831588
   0.07043475  0.69801888  0.70080485
   0.33080989  0.67254334  0.66765005
   0.11339156  0.55109875  0.55030681
   0.81131850  0.74677023  0.73982293
   0.58861767  0.63169918  0.63124905
   0.37940233  0.52165518  0.51507158
   0.15564056  0.40241632  0.40428849
   0.85096977  0.58840706  0.59220630
   0.63841482  0.48080110  0.47836038
   0.41744442  0.36807824  0.36724567
   0.18597848  0.25174777  0.25497185
   0.44753328  0.22058665  0.22020820
   0.22073055  0.10645734  0.10518981
   0.99057898  0.00164245  0.99930749
   0.92733544  0.29251344  0.29760417
   0.70515005  0.18702109  0.17987065
   0.46453592  0.64944078  0.90258197
   0.23951327  0.53171733  0.79163334
   0.02666567  0.42016980  0.67529138
   0.72760473  0.61976446  0.86190400
   0.50405987  0.50674067  0.75309029
   0.28806602  0.39248024  0.63906391
   0.05561249  0.27214434  0.52561733
   0.76503528  0.46397356  0.71385752
   0.31832488  0.24360065  0.49173128
   0.80063688  0.30919072  0.56534473
   0.57961634  0.20680791  0.45381183
   0.35317539  0.09531706  0.34700507
   0.61355320  0.05939785  0.30718210
   0.87179402  0.01966171  0.27184546
   0.63222729  0.48405239  0.98137075
   0.40658994  0.36414526  0.87133397
   0.18761052  0.24940598  0.75981688
   0.89115829  0.44317799  0.94172861
   0.67015283  0.33646570  0.83291248
   0.45195126  0.22455556  0.72169304
   0.22019655  0.10968130  0.61100026
   0.99253983  0.99868958  0.49919619
   0.92951896  0.29180579  0.79342556
   0.48394977  0.08039208  0.57259798
   0.73913197  0.03490303  0.53524382
   0.09162785  0.12711770  0.88276427
   0.58092909  0.20393102  0.95441618
   0.35183045  0.08596441  0.84541487
   0.61623078  0.05594910  0.80653330
   0.03315482  0.85317755  0.35420339
   0.15815596  0.83196520  0.58193750
   0.90071341  0.86944500  0.62073153
   0.02158570  0.42473679  0.17786202
   0.72252812  0.60777628  0.36056373
   0.27857011  0.38750515  0.13896774
   0.79961225  0.31676430  0.06283304
   0.25448163  0.95895536  0.96247187
   0.77944052  0.89229057  0.88775581
   0.55511567  0.78293226  0.78037386
   0.89133049  0.44086500  0.44318251
   0.67483183  0.33223675  0.33153547
   0.47717696  0.07437914  0.07045197
   0.96049215  0.14950048  0.14825654
   0.74042644  0.04147676  0.03648513
   0.20018523  0.68190651  0.93611067
   0.94356571  0.72161332  0.97072229
   0.98422223  0.57295765  0.82481607
   0.54768489  0.35470677  0.60268734
   0.09065035  0.12798400  0.38020085
   0.83344494  0.16649041  0.41666609
   0.14661653  0.40425375  0.90796292
   0.70737200  0.18549005  0.68487546
   0.96068584  0.14214790  0.64854433
   0.31377607  0.23856493  0.99022116
   0.83535458  0.16888642  0.91539425
   0.86990560  0.01946014  0.76826915
 
 position of ions in cartesian coordinates  (Angst):
  -7.16220973 -5.33809904 -1.84346070
  -5.43970907 -7.12621708 -1.80011567
  -5.38037144 -5.28205862  0.02764652
  -3.66199486 -8.93782837 -1.76358681
  -3.64441059 -7.10753942  0.03025047
  -1.83530110-10.75335473 -1.80105370
  -1.82358009 -9.03544640 -0.00053483
  -7.21951357 -5.32762845 -5.33852999
  -5.41176357 -7.09388451 -5.30522240
  -5.42778334 -5.38388562 -3.67646821
  -5.37808675 -3.57870156 -1.89013970
  -3.59759067 -8.85676323 -5.34597763
  -3.60649930 -7.12291970 -3.58920077
  -3.61655329 -5.36890191 -1.84291697
  -3.59524747 -3.57361402 -0.03489579
  -1.80243178 -8.92595242 -3.58572522
  -1.80748450 -7.18921102 -1.73304058
  -1.80595705 -5.27974055  0.00138765
   0.04303529 -8.98617890 -1.78999793
  -8.91481162 -3.46894746 -8.91591303
  -7.19561719 -5.33571170 -8.93721229
  -5.43449570 -7.13469108 -8.92418166
  -5.46267595 -5.33369344 -7.08714118
  -5.41440524 -3.56989104 -5.30540203
  -3.63882115 -7.07346379 -7.15081141
  -3.60022732 -5.38396967 -5.31101891
  -3.50465398 -3.59040208 -3.57001457
  -1.84021949 -8.85662157 -7.16430608
  -1.71543548 -5.41945145 -3.54704609
  -1.82894881 -1.80463063 -0.04056274
   0.01799656 -8.91365109 -5.40085839
   0.04053559 -7.18123567 -3.56624584
   0.00402287 -5.36086503 -1.72209306
  -8.91061403 -1.73380542-10.75736105
  -7.14349761 -5.37813000-12.54319623
  -7.12200613 -3.53508763-10.78531228
  -7.11850599 -1.74135737 -8.89970276
  -5.42156574 -3.58495543 -8.93654717
  -5.29964061 -1.79866987 -7.08698579
  -3.63357863 -7.16061563-10.69484793
  -3.61690217 -5.33938786 -8.94985317
  -3.53667048 -3.66872165 -7.11124664
  -3.48798550 -1.82545614 -5.34021372
  -1.76092258 -7.12262922 -8.93788087
  -1.72436677 -5.43282350 -7.12228791
  -1.70611697 -3.64564393 -5.33985514
  -1.71421128 -1.76821919 -3.52853490
   0.03545837 -3.59551456 -3.55464440
   0.04644405 -1.77304736 -1.70847766
   1.72771204 -3.51892309-16.05782109
   1.81743023 -7.13511679 -5.39048399
   1.80112875 -5.40168588 -3.49830581
  -5.37915825 -3.57732746-12.57640480
  -5.34747818 -1.73376486-10.79804204
  -5.27538605 -0.02965343 -8.95327808
  -3.61084237 -5.44455392-12.51799171
  -3.61247251 -3.62912717-10.76439915
  -3.54613312 -1.87969384 -8.95197353
  -3.52669199  0.02207858 -7.12927709
  -1.76694992 -5.40601978-10.74631043
  -1.79266676 -1.82439203 -7.16532688
   0.06159420 -5.36148147 -8.96288966
   0.00713881 -3.63088693 -7.15590424
  -0.02815713 -1.79579864 -5.42309429
   1.76730837 -3.60725036 -5.38325675
   3.56256667 -5.36691563 -5.41057655
  -3.57905619 -3.60775560-14.29846439
  -3.53831897 -1.74482807-12.53594563
  -3.49353665  0.03749055-10.75492203
  -1.75656609 -5.38164398-14.26748391
  -1.78969728 -3.61822798-12.50711415
  -1.76203622 -1.85557806-10.72668032
  -1.78774322  0.02175466 -8.93484967
  -3.60276205-10.66750627 -7.12751284
   0.06163767 -5.37437275-12.48589780
  -0.02666052 -1.84430562 -8.90951046
   1.80054188 -3.55846448 -8.91279585
  -3.57341946  1.81907449-12.56009098
  -1.75491241 -1.83518521-14.32203544
  -1.75031288  0.04578630-12.56466819
   0.02114496 -1.82272055-12.53492971
  -7.18870389 -3.54594449 -3.59931778
  -7.18086643 -3.51180191 -7.11727226
  -3.60557131 -8.88338453 -8.93235317
  -3.55697149 -1.79613205 -1.82279434
  -1.76005869 -7.13626105 -5.36118021
  -1.77363927 -3.57296301 -1.79251725
   1.79842785 -7.19124804 -1.76160315
  -8.93271005 -3.52110483-12.50410094
  -5.37385485 -7.18418086-12.49318865
  -5.41099441 -5.37771480-10.75212398
   0.04319751 -7.15277413 -7.14271699
   0.05805361 -5.42142783 -5.35334593
   1.77518481 -3.55880756 -1.72746427
   3.55169359 -7.13919806 -3.56971610
   3.54354360 -5.38603381 -1.77110985
  -7.14873387 -1.74145241-12.52530575
  -3.56999633 -7.14581410-14.27806860
  -1.76747292 -7.16095691-12.53000519
  -1.75380042 -3.66345476 -8.96337734
  -1.78819114  0.02475378 -5.37013820
   1.78936074 -5.36235487 -7.15050630
  -5.35015065  0.02984856-12.52334326
   0.01859873 -3.60397039-10.72658311
   1.81677435 -5.31262589-10.73732046
  -3.56315573  0.01723730-14.29460255
  -0.00048337 -3.60590421-14.28144964
   1.77916658 -3.57761786-12.50642010
 


--------------------------------------------------------------------------------------------------------


 k-point  1 :   0.0000 0.0000 0.0000  plane waves:   33189
 k-point  2 :   0.3333 0.0000 0.0000  plane waves:   33192
 k-point  3 :   0.0000 0.3333 0.0000  plane waves:   33192
 k-point  4 :   0.3333 0.3333 0.0000  plane waves:   33260
 k-point  5 :  -0.3333 0.3333 0.0000  plane waves:   33246
 k-point  6 :   0.0000 0.0000 0.5000  plane waves:   33200
 k-point  7 :   0.3333 0.0000 0.5000  plane waves:   33187
 k-point  8 :   0.0000 0.3333 0.5000  plane waves:   33187
 k-point  9 :   0.3333 0.3333 0.5000  plane waves:   33218
 k-point 10 :  -0.3333 0.3333 0.5000  plane waves:   33246

 maximum and minimum number of plane-waves per node :      1065     1014

 maximum number of plane-waves:     33260
 maximum index in each direction: 
   IXMAX=   17   IYMAX=   16   IZMAX=   28
   IXMIN=  -17   IYMIN=  -17   IZMIN=  -28


 real space projection operators:
  total allocation   :     101858.48 KBytes
  max/ min on nodes  :       4365.28       2889.28


 parallel 3D FFT for wavefunctions:
    minimum data exchange during FFTs selected (reduces bandwidth)
 parallel 3D FFT for charge:
    minimum data exchange during FFTs selected (reduces bandwidth)


 total amount of memory used by VASP MPI-rank0   140684. kBytes
=======================================================================

   base      :      30000. kBytes
   nonlr-proj:      18693. kBytes
   fftplans  :       2873. kBytes
   grid      :       7434. kBytes
   one-center:        124. kBytes
   wavefun   :      81560. kBytes
 
     INWAV:  cpu time    0.0010: real time    0.0001
 Broyden mixing: mesh for mixing (old mesh)
   NGX = 33   NGY = 33   NGZ = 57
  (NGX  =140   NGY  =140   NGZ  =240)
  gives a total of  62073 points

 initial charge density was supplied:
 charge density of overlapping atoms calculated
 number of electron     918.0000000 magnetization     270.0000000
 keeping initial charge density in first step


--------------------------------------------------------------------------------------------------------


 Maximum index for non-local projection operator          816
 Maximum index for augmentation-charges          788 (set IRDMAX)


--------------------------------------------------------------------------------------------------------


 First call to EWALD:  gamma=   0.165
 Maximum number of real-space cells 3x 3x 2
 Maximum number of reciprocal cells 2x 2x 4

    FEWALD:  cpu time    0.0050: real time    0.0047


--------------------------------------- Iteration      1(   1)  ---------------------------------------


    POTLOK:  cpu time    0.1210: real time    0.1257
    SETDIJ:  cpu time    0.0250: real time    0.0265
     EDDAV:  cpu time   66.7429: real time   67.5421
 BZINTS: Fermi energy: 22.995874;918.000000 electrons
         Band energy:***********;  BLOECHL correction: -0.007237
       DOS:  cpu time    0.1700: real time    0.1713
    --------------------------------------------
      LOOP:  cpu time   67.0588: real time   67.8656

 eigenvalue-minimisations  : 27480
 total energy-change (2. order) : 0.8643749E+04  (-0.3596962E+05)
 number of electron     918.0000000 magnetization     270.0000000
 augmentation part      918.0000000 magnetization     270.0000000

 Free energy of the ion-electron system (eV)
  ---------------------------------------------------
  alpha Z        PSCENC =      6231.93362709
  Ewald energy   TEWEN  =    -71974.83593147
  -Hartree energ DENC   =    -16725.14220152
  -exchange      EXHF   =         0.00000000
  -V(xc)+E(xc)   XCENC  =      1263.21088140
  PAW double counting   =     70850.99630250   -73281.41748719
  entropy T*S    EENTRO =         0.00000000
  eigenvalues    EBANDS =     15042.56184993
  atomic energy  EATOM  =     77236.44196084
  Solvation  Ediel_sol  =         0.00000000
  ---------------------------------------------------
  free energy    TOTEN  =      8643.74900158 eV

  energy without entropy =     8643.74900158  energy(sigma->0) =     8643.74900158


--------------------------------------------------------------------------------------------------------




--------------------------------------- Iteration      1(   2)  ---------------------------------------


     EDDAV:  cpu time   64.4572: real time   64.6572
 BZINTS: Fermi energy: 10.977861;918.000000 electrons
         Band energy:6739.107643;  BLOECHL correction: -0.007279
       DOS:  cpu time    0.1690: real time    0.1686
    --------------------------------------------
      LOOP:  cpu time   64.6262: real time   64.8258

 eigenvalue-minimisations  : 27480
 total energy-change (2. order) :-0.8303454E+04  (-0.7773664E+04)
 number of electron     918.0000000 magnetization     270.0000000
 augmentation part      918.0000000 magnetization     270.0000000

 Free energy of the ion-electron system (eV)
  ---------------------------------------------------
  alpha Z        PSCENC =      6231.93362709
  Ewald energy   TEWEN  =    -71974.83593147
  -Hartree energ DENC   =    -16725.14220152
  -exchange      EXHF   =         0.00000000
  -V(xc)+E(xc)   XCENC  =      1263.21088140
  PAW double counting   =     70850.99630250   -73281.41748719
  entropy T*S    EENTRO =         0.00000000
  eigenvalues    EBANDS =      6739.10764347
  atomic energy  EATOM  =     77236.44196084
  Solvation  Ediel_sol  =         0.00000000
  ---------------------------------------------------
  free energy    TOTEN  =       340.29479511 eV

  energy without entropy =      340.29479511  energy(sigma->0) =      340.29479511


--------------------------------------------------------------------------------------------------------




--------------------------------------- Iteration      1(   3)  ---------------------------------------


     EDDAV:  cpu time   64.5222: real time   64.7012
 BZINTS: Fermi energy:  8.917557;918.000000 electrons
         Band energy:5568.793652;  BLOECHL correction: -0.003109
       DOS:  cpu time    0.1550: real time    0.1546
    --------------------------------------------
      LOOP:  cpu time   64.6772: real time   64.8558

 eigenvalue-minimisations  : 27480
 total energy-change (2. order) :-0.1170314E+04  (-0.9050851E+03)
 number of electron     918.0000000 magnetization     270.0000000
 augmentation part      918.0000000 magnetization     270.0000000

 Free energy of the ion-electron system (eV)
  ---------------------------------------------------
  alpha Z        PSCENC =      6231.93362709
  Ewald energy   TEWEN  =    -71974.83593147
  -Hartree energ DENC   =    -16725.14220152
  -exchange      EXHF   =         0.00000000
  -V(xc)+E(xc)   XCENC  =      1263.21088140
  PAW double counting   =     70850.99630250   -73281.41748719
  entropy T*S    EENTRO =         0.00000000
  eigenvalues    EBANDS =      5568.79365227
  atomic energy  EATOM  =     77236.44196084
  Solvation  Ediel_sol  =         0.00000000
  ---------------------------------------------------
  free energy    TOTEN  =      -830.01919609 eV

  energy without entropy =     -830.01919609  energy(sigma->0) =     -830.01919609


--------------------------------------------------------------------------------------------------------




--------------------------------------- Iteration      1(   4)  ---------------------------------------


     EDDAV:  cpu time   67.5687: real time   67.8166
 BZINTS: Fermi energy:  8.815610;918.000000 electrons
         Band energy:5487.630469;  BLOECHL correction: -0.005073
       DOS:  cpu time    0.1560: real time    0.1555
    --------------------------------------------
      LOOP:  cpu time   67.7247: real time   67.9721

 eigenvalue-minimisations  : 29202
 total energy-change (2. order) :-0.8116318E+02  (-0.7542327E+02)
 number of electron     918.0000000 magnetization     270.0000000
 augmentation part      918.0000000 magnetization     270.0000000

 Free energy of the ion-electron system (eV)
  ---------------------------------------------------
  alpha Z        PSCENC =      6231.93362709
  Ewald energy   TEWEN  =    -71974.83593147
  -Hartree energ DENC   =    -16725.14220152
  -exchange      EXHF   =         0.00000000
  -V(xc)+E(xc)   XCENC  =      1263.21088140
  PAW double counting   =     70850.99630250   -73281.41748719
  entropy T*S    EENTRO =         0.00000000
  eigenvalues    EBANDS =      5487.63046882
  atomic energy  EATOM  =     77236.44196084
  Solvation  Ediel_sol  =         0.00000000
  ---------------------------------------------------
  free energy    TOTEN  =      -911.18237954 eV

  energy without entropy =     -911.18237954  energy(sigma->0) =     -911.18237954


--------------------------------------------------------------------------------------------------------




--------------------------------------- Iteration      1(   5)  ---------------------------------------


     EDDAV:  cpu time   69.8244: real time   70.0777
 BZINTS: Fermi energy:  8.813955;918.000000 electrons
         Band energy:5486.331029;  BLOECHL correction: -0.005087
       DOS:  cpu time    0.1570: real time    0.1570
    CHARGE:  cpu time    1.3308: real time    1.3320
    MIXING:  cpu time    0.0020: real time    0.0021
    --------------------------------------------
      LOOP:  cpu time   71.3142: real time   71.5688

 eigenvalue-minimisations  : 29994
 total energy-change (2. order) :-0.1299440E+01  (-0.1293346E+01)
 number of electron     917.9999953 magnetization     251.6051683
 augmentation part      442.9202856 magnetization     198.4211485

 Broyden mixing:
  rms(total) = 0.11425E+02    rms(broyden)= 0.11425E+02
  rms(prec ) = 0.12364E+02
  weight for this iteration     100.00

 Free energy of the ion-electron system (eV)
  ---------------------------------------------------
  alpha Z        PSCENC =      6231.93362709
  Ewald energy   TEWEN  =    -71974.83593147
  -Hartree energ DENC   =    -16725.14220152
  -exchange      EXHF   =         0.00000000
  -V(xc)+E(xc)   XCENC  =      1263.21088140
  PAW double counting   =     70850.99630250   -73281.41748719
  entropy T*S    EENTRO =         0.00000000
  eigenvalues    EBANDS =      5486.33102882
  atomic energy  EATOM  =     77236.44196084
  Solvation  Ediel_sol  =         0.00000000
  ---------------------------------------------------
  free energy    TOTEN  =      -912.48181953 eV

  energy without entropy =     -912.48181953  energy(sigma->0) =     -912.48181953


--------------------------------------------------------------------------------------------------------




--------------------------------------- Iteration      1(   6)  ---------------------------------------


    POTLOK:  cpu time    0.1020: real time    0.1023
    SETDIJ:  cpu time    0.0270: real time    0.0266
    EDDIAG:  cpu time   10.5734: real time   10.5886
  RMM-DIIS:  cpu time   31.2752: real time   31.3502
    ORTHCH:  cpu time    3.6924: real time    3.6962
 BZINTS: Fermi energy:  6.174251;918.000000 electrons
         Band energy:3234.263238;  BLOECHL correction: -0.003237
       DOS:  cpu time    0.1710: real time    0.1718
    CHARGE:  cpu time    1.3108: real time    1.3114
    MIXING:  cpu time    0.0020: real time    0.0022
    --------------------------------------------
      LOOP:  cpu time   47.1538: real time   47.2492

 eigenvalue-minimisations  : 29016
 total energy-change (2. order) : 0.1908514E+02  (-0.1004748E+03)
 number of electron     917.9999931 magnetization     246.6837026
 augmentation part      526.9175277 magnetization     200.4142779

 Broyden mixing:
  rms(total) = 0.14189E+02    rms(broyden)= 0.14188E+02
  rms(prec ) = 0.22001E+02
  weight for this iteration     100.00

 eigenvalues of (default mixing * dielectric matrix)
  average eigenvalue GAMMA=   0.3414
  0.3414

 Free energy of the ion-electron system (eV)
  ---------------------------------------------------
  alpha Z        PSCENC =      6231.93362709
  Ewald energy   TEWEN  =    -71974.83593147
  -Hartree energ DENC   =    -14643.37300356
  -exchange      EXHF   =         0.00000000
  -V(xc)+E(xc)   XCENC  =      1149.89165553
  PAW double counting   =     76758.89073940   -78886.60896681
  entropy T*S    EENTRO =         0.00000000
  eigenvalues    EBANDS =      3234.26323788
  atomic energy  EATOM  =     77236.44196084
  Solvation  Ediel_sol  =         0.00000000
  ---------------------------------------------------
  free energy    TOTEN  =      -893.39668109 eV

  energy without entropy =     -893.39668109  energy(sigma->0) =     -893.39668109


--------------------------------------------------------------------------------------------------------




--------------------------------------- Iteration      1(   7)  ---------------------------------------


    POTLOK:  cpu time    0.1040: real time    0.1049
    SETDIJ:  cpu time    0.0250: real time    0.0250
    EDDIAG:  cpu time   10.4274: real time   10.4444
  RMM-DIIS:  cpu time   32.9560: real time   33.0253
    ORTHCH:  cpu time    3.6714: real time    3.6770
 BZINTS: Fermi energy:  7.103482;918.000000 electrons
         Band energy:3228.610738;  BLOECHL correction: -0.003841
       DOS:  cpu time    0.1740: real time    0.1733
    CHARGE:  cpu time    1.3088: real time    1.3117
    MIXING:  cpu time    0.0030: real time    0.0025
    --------------------------------------------
      LOOP:  cpu time   48.6696: real time   48.7640

 eigenvalue-minimisations  : 30250
 total energy-change (2. order) :-0.3735832E+03  (-0.2873206E+02)
 number of electron     917.9999955 magnetization     237.3667973
 augmentation part      513.6207043 magnetization     201.0763934

 Broyden mixing:
  rms(total) = 0.25615E+02    rms(broyden)= 0.25614E+02
  rms(prec ) = 0.45334E+02
  weight for this iteration     100.00

 eigenvalues of (default mixing * dielectric matrix)
  average eigenvalue GAMMA=   0.2753
  0.4716  0.0791

 Free energy of the ion-electron system (eV)
  ---------------------------------------------------
  alpha Z        PSCENC =      6231.93362709
  Ewald energy   TEWEN  =    -71974.83593147
  -Hartree energ DENC   =    -14905.59891797
  -exchange      EXHF   =         0.00000000
  -V(xc)+E(xc)   XCENC  =      1159.63874980
  PAW double counting   =     78376.40327857   -80619.57334404
  entropy T*S    EENTRO =         0.00000000
  eigenvalues    EBANDS =      3228.61073772
  atomic energy  EATOM  =     77236.44196084
  Solvation  Ediel_sol  =         0.00000000
  ---------------------------------------------------
  free energy    TOTEN  =     -1266.97983946 eV

  energy without entropy =    -1266.97983946  energy(sigma->0) =    -1266.97983946


--------------------------------------------------------------------------------------------------------




--------------------------------------- Iteration      1(   8)  ---------------------------------------


    POTLOK:  cpu time    0.1050: real time    0.1053
    SETDIJ:  cpu time    0.0250: real time    0.0251
    EDDIAG:  cpu time   10.5614: real time   10.5775
  RMM-DIIS:  cpu time   31.3202: real time   31.3933
    ORTHCH:  cpu time    3.7054: real time    3.7167
 BZINTS: Fermi energy:  7.142302;918.000000 electrons
         Band energy:3663.520363;  BLOECHL correction: -0.004033
       DOS:  cpu time    0.1590: real time    0.1599
    CHARGE:  cpu time    1.2878: real time    1.3006
    MIXING:  cpu time    0.0020: real time    0.0021
    --------------------------------------------
      LOOP:  cpu time   47.1658: real time   47.2804

 eigenvalue-minimisations  : 29330
 total energy-change (2. order) : 0.1683399E+03  (-0.1073849E+02)
 number of electron     917.9999963 magnetization     231.2792176
 augmentation part      503.2808923 magnetization     191.0957676

 Broyden mixing:
  rms(total) = 0.22386E+02    rms(broyden)= 0.22385E+02
  rms(prec ) = 0.31472E+02
  weight for this iteration     100.00

 eigenvalues of (default mixing * dielectric matrix)
  average eigenvalue GAMMA=   0.2385
  0.5110  0.1022  0.1022

 Free energy of the ion-electron system (eV)
  ---------------------------------------------------
  alpha Z        PSCENC =      6231.93362709
  Ewald energy   TEWEN  =    -71974.83593147
  -Hartree energ DENC   =    -15050.88560123
  -exchange      EXHF   =         0.00000000
  -V(xc)+E(xc)   XCENC  =      1158.38116390
  PAW double counting   =     80503.17108315   -82866.36661468
  entropy T*S    EENTRO =         0.00000000
  eigenvalues    EBANDS =      3663.52036301
  atomic energy  EATOM  =     77236.44196084
  Solvation  Ediel_sol  =         0.00000000
  ---------------------------------------------------
  free energy    TOTEN  =     -1098.63994939 eV

  energy without entropy =    -1098.63994939  energy(sigma->0) =    -1098.63994939


--------------------------------------------------------------------------------------------------------




--------------------------------------- Iteration      1(   9)  ---------------------------------------


    POTLOK:  cpu time    0.1020: real time    0.1041
    SETDIJ:  cpu time    0.0340: real time    0.0328
    EDDIAG:  cpu time   10.6784: real time   10.7590
  RMM-DIIS:  cpu time   31.3432: real time   31.3963
    ORTHCH:  cpu time    3.6714: real time    3.6776
 BZINTS: Fermi energy:  6.861672;918.000000 electrons
         Band energy:3928.124110;  BLOECHL correction: -0.010470
       DOS:  cpu time    0.1570: real time    0.1571
    CHARGE:  cpu time    1.2948: real time    1.2984
    MIXING:  cpu time    0.0020: real time    0.0023
    --------------------------------------------
      LOOP:  cpu time   47.2828: real time   47.4275

 eigenvalue-minimisations  : 28980
 total energy-change (2. order) : 0.2465648E+03  (-0.9081907E+01)
 number of electron     917.9999951 magnetization     227.2359664
 augmentation part      502.1175384 magnetization     175.7403380

 Broyden mixing:
  rms(total) = 0.98057E+01    rms(broyden)= 0.98053E+01
  rms(prec ) = 0.13683E+02
  weight for this iteration     100.00

 eigenvalues of (default mixing * dielectric matrix)
  average eigenvalue GAMMA=   0.3033
  0.5483  0.4638  0.1354  0.0658

 Free energy of the ion-electron system (eV)
  ---------------------------------------------------
  alpha Z        PSCENC =      6231.93362709
  Ewald energy   TEWEN  =    -71974.83593147
  -Hartree energ DENC   =    -15024.75034928
  -exchange      EXHF   =         0.00000000
  -V(xc)+E(xc)   XCENC  =      1153.48331456
  PAW double counting   =     81556.93226043   -83959.40411268
  entropy T*S    EENTRO =         0.00000000
  eigenvalues    EBANDS =      3928.12411021
  atomic energy  EATOM  =     77236.44196084
  Solvation  Ediel_sol  =         0.00000000
  ---------------------------------------------------
  free energy    TOTEN  =      -852.07512029 eV

  energy without entropy =     -852.07512029  energy(sigma->0) =     -852.07512029


--------------------------------------------------------------------------------------------------------




--------------------------------------- Iteration      1(  10)  ---------------------------------------


    POTLOK:  cpu time    0.1020: real time    0.1028
    SETDIJ:  cpu time    0.0250: real time    0.0252
    EDDIAG:  cpu time   10.4864: real time   10.5014
  RMM-DIIS:  cpu time   31.2682: real time   31.3646
    ORTHCH:  cpu time    3.6874: real time    3.6949
 BZINTS: Fermi energy:  6.930106;918.000000 electrons
         Band energy:4029.536062;  BLOECHL correction: -0.004905
       DOS:  cpu time    0.1740: real time    0.1742
    CHARGE:  cpu time    1.3328: real time    1.3340
    MIXING:  cpu time    0.0020: real time    0.0023
    --------------------------------------------
      LOOP:  cpu time   47.0778: real time   47.1993

 eigenvalue-minimisations  : 29066
 total energy-change (2. order) :-0.1537221E+02  (-0.1125474E+02)
 number of electron     917.9999939 magnetization     219.7411769
 augmentation part      495.9781947 magnetization     179.7357926

 Broyden mixing:
  rms(total) = 0.14209E+02    rms(broyden)= 0.14208E+02
  rms(prec ) = 0.19202E+02
  weight for this iteration     100.00

 eigenvalues of (default mixing * dielectric matrix)
  average eigenvalue GAMMA=   0.3373
  0.8954  0.4690  0.1283  0.1283  0.0658

 Free energy of the ion-electron system (eV)
  ---------------------------------------------------
  alpha Z        PSCENC =      6231.93362709
  Ewald energy   TEWEN  =    -71974.83593147
  -Hartree energ DENC   =    -15096.19036599
  -exchange      EXHF   =         0.00000000
  -V(xc)+E(xc)   XCENC  =      1161.40854602
  PAW double counting   =     82572.88088033   -85028.62211418
  entropy T*S    EENTRO =         0.00000000
  eigenvalues    EBANDS =      4029.53606223
  atomic energy  EATOM  =     77236.44196084
  Solvation  Ediel_sol  =         0.00000000
  ---------------------------------------------------
  free energy    TOTEN  =      -867.44733513 eV

  energy without entropy =     -867.44733513  energy(sigma->0) =     -867.44733513


--------------------------------------------------------------------------------------------------------




--------------------------------------- Iteration      1(  11)  ---------------------------------------


    POTLOK:  cpu time    0.1040: real time    0.1044
    SETDIJ:  cpu time    0.0280: real time    0.0275
    EDDIAG:  cpu time   10.4084: real time   10.4201
  RMM-DIIS:  cpu time   31.7962: real time   31.9361
    ORTHCH:  cpu time    4.1744: real time    4.1796
 BZINTS: Fermi energy:  6.993251;918.000000 electrons
         Band energy:3927.372396;  BLOECHL correction: -0.002419
       DOS:  cpu time    0.1640: real time    0.1639
    CHARGE:  cpu time    1.3128: real time    1.3157
    MIXING:  cpu time    0.0040: real time    0.0022
    --------------------------------------------
      LOOP:  cpu time   47.9917: real time   48.1495

 eigenvalue-minimisations  : 29290
 total energy-change (2. order) :-0.2333156E+02  (-0.6417418E+01)
 number of electron     917.9999950 magnetization     215.4953658
 augmentation part      499.1546126 magnetization     176.8532350

 Broyden mixing:
  rms(total) = 0.14290E+02    rms(broyden)= 0.14290E+02
  rms(prec ) = 0.22841E+02
  weight for this iteration     100.00

 eigenvalues of (default mixing * dielectric matrix)
  average eigenvalue GAMMA=   0.3174
  0.9726  0.4795  0.1487  0.1487  0.0655  0.0896

 Free energy of the ion-electron system (eV)
  ---------------------------------------------------
  alpha Z        PSCENC =      6231.93362709
  Ewald energy   TEWEN  =    -71974.83593147
  -Hartree energ DENC   =    -14989.17092580
  -exchange      EXHF   =         0.00000000
  -V(xc)+E(xc)   XCENC  =      1159.80608346
  PAW double counting   =     83768.95139837   -86251.27750552
  entropy T*S    EENTRO =         0.00000000
  eigenvalues    EBANDS =      3927.37239648
  atomic energy  EATOM  =     77236.44196084
  Solvation  Ediel_sol  =         0.00000000
  ---------------------------------------------------
  free energy    TOTEN  =      -890.77889655 eV

  energy without entropy =     -890.77889655  energy(sigma->0) =     -890.77889655


--------------------------------------------------------------------------------------------------------




--------------------------------------- Iteration      1(  12)  ---------------------------------------


    POTLOK:  cpu time    0.1010: real time    0.1029
    SETDIJ:  cpu time    0.0260: real time    0.0250
    EDDIAG:  cpu time   10.4374: real time   10.4511
  RMM-DIIS:  cpu time   31.8772: real time   31.9618
    ORTHCH:  cpu time    3.6764: real time    3.6820
 BZINTS: Fermi energy:  6.798880;918.000000 electrons
         Band energy:3962.498700;  BLOECHL correction: -0.007806
       DOS:  cpu time    0.1680: real time    0.1678
    CHARGE:  cpu time    1.2908: real time    1.2908
    MIXING:  cpu time    0.0020: real time    0.0022
    --------------------------------------------
      LOOP:  cpu time   47.5788: real time   47.6836

 eigenvalue-minimisations  : 29281
 total energy-change (2. order) : 0.7163594E+02  (-0.3021600E+01)
 number of electron     917.9999950 magnetization     212.3997111
 augmentation part      500.7949526 magnetization     168.5991705

 Broyden mixing:
  rms(total) = 0.70814E+01    rms(broyden)= 0.70810E+01
  rms(prec ) = 0.11243E+02
  weight for this iteration     100.00

 eigenvalues of (default mixing * dielectric matrix)
  average eigenvalue GAMMA=   0.3134
  1.0479  0.4011  0.3300  0.1799  0.1000  0.0647  0.0705

 Free energy of the ion-electron system (eV)
  ---------------------------------------------------
  alpha Z        PSCENC =      6231.93362709
  Ewald energy   TEWEN  =    -71974.83593147
  -Hartree energ DENC   =    -14939.03243083
  -exchange      EXHF   =         0.00000000
  -V(xc)+E(xc)   XCENC  =      1157.45374714
  PAW double counting   =     84339.17170562   -86832.77433391
  entropy T*S    EENTRO =         0.00000000
  eigenvalues    EBANDS =      3962.49869978
  atomic energy  EATOM  =     77236.44196084
  Solvation  Ediel_sol  =         0.00000000
  ---------------------------------------------------
  free energy    TOTEN  =      -819.14295575 eV

  energy without entropy =     -819.14295575  energy(sigma->0) =     -819.14295575


--------------------------------------------------------------------------------------------------------




--------------------------------------- Iteration      1(  13)  ---------------------------------------


    POTLOK:  cpu time    0.1030: real time    0.1028
    SETDIJ:  cpu time    0.0250: real time    0.0253
    EDDIAG:  cpu time   10.7214: real time   10.7310
  RMM-DIIS:  cpu time   31.3742: real time   31.4444
    ORTHCH:  cpu time    3.6824: real time    3.6944
 BZINTS: Fermi energy:  6.730948;918.000000 electrons
         Band energy:3977.881927;  BLOECHL correction: -0.007006
       DOS:  cpu time    0.1640: real time    0.1639
    CHARGE:  cpu time    1.3218: real time    1.3235
    MIXING:  cpu time    0.0020: real time    0.0025
    --------------------------------------------
      LOOP:  cpu time   47.3938: real time   47.4879

 eigenvalue-minimisations  : 28965
 total energy-change (2. order) : 0.8138161E+01  (-0.2228883E+01)
 number of electron     917.9999938 magnetization     207.3536587
 augmentation part      501.0203312 magnetization     163.2562092

 Broyden mixing:
  rms(total) = 0.59958E+01    rms(broyden)= 0.59956E+01
  rms(prec ) = 0.82810E+01
  weight for this iteration     100.00

 eigenvalues of (default mixing * dielectric matrix)
  average eigenvalue GAMMA=   0.3369
  1.1926  0.5008  0.5008  0.1697  0.1028  0.1028  0.0656  0.0603

 Free energy of the ion-electron system (eV)
  ---------------------------------------------------
  alpha Z        PSCENC =      6231.93362709
  Ewald energy   TEWEN  =    -71974.83593147
  -Hartree energ DENC   =    -14930.77627346
  -exchange      EXHF   =         0.00000000
  -V(xc)+E(xc)   XCENC  =      1157.09082497
  PAW double counting   =     84804.40278263   -87313.14371253
  entropy T*S    EENTRO =         0.00000000
  eigenvalues    EBANDS =      3977.88192743
  atomic energy  EATOM  =     77236.44196084
  Solvation  Ediel_sol  =         0.00000000
  ---------------------------------------------------
  free energy    TOTEN  =      -811.00479450 eV

  energy without entropy =     -811.00479450  energy(sigma->0) =     -811.00479450


--------------------------------------------------------------------------------------------------------




--------------------------------------- Iteration      1(  14)  ---------------------------------------


    POTLOK:  cpu time    0.1040: real time    0.1050
    SETDIJ:  cpu time    0.0260: real time    0.0250
    EDDIAG:  cpu time   10.5754: real time   10.6417
  RMM-DIIS:  cpu time   30.7103: real time   30.7912
    ORTHCH:  cpu time    3.7674: real time    3.7717
 BZINTS: Fermi energy:  6.685318;918.000000 electrons
         Band energy:3996.799349;  BLOECHL correction: -0.011141
       DOS:  cpu time    0.1580: real time    0.1583
    CHARGE:  cpu time    1.3058: real time    1.3070
    MIXING:  cpu time    0.0030: real time    0.0025
    --------------------------------------------
      LOOP:  cpu time   46.6499: real time   46.8024

 eigenvalue-minimisations  : 28378
 total energy-change (2. order) :-0.4351655E+00  (-0.1489342E+01)
 number of electron     917.9999942 magnetization     204.3885052
 augmentation part      500.1693181 magnetization     161.5253848

 Broyden mixing:
  rms(total) = 0.60144E+01    rms(broyden)= 0.60143E+01
  rms(prec ) = 0.75086E+01
  weight for this iteration     100.00

 eigenvalues of (default mixing * dielectric matrix)
  average eigenvalue GAMMA=   0.3235
  1.2515  0.5189  0.5189  0.1665  0.1181  0.1181  0.0956  0.0651  0.0588

 Free energy of the ion-electron system (eV)
  ---------------------------------------------------
  alpha Z        PSCENC =      6231.93362709
  Ewald energy   TEWEN  =    -71974.83593147
  -Hartree energ DENC   =    -14922.87305133
  -exchange      EXHF   =         0.00000000
  -V(xc)+E(xc)   XCENC  =      1156.49485999
  PAW double counting   =     85612.83255608   -88148.23332985
  entropy T*S    EENTRO =         0.00000000
  eigenvalues    EBANDS =      3996.79934867
  atomic energy  EATOM  =     77236.44196084
  Solvation  Ediel_sol  =         0.00000000
  ---------------------------------------------------
  free energy    TOTEN  =      -811.43995999 eV

  energy without entropy =     -811.43995999  energy(sigma->0) =     -811.43995999


--------------------------------------------------------------------------------------------------------




--------------------------------------- Iteration      1(  15)  ---------------------------------------


    POTLOK:  cpu time    0.1030: real time    0.1030
    SETDIJ:  cpu time    0.0250: real time    0.0250
    EDDIAG:  cpu time   10.4224: real time   10.4407
  RMM-DIIS:  cpu time   30.5324: real time   30.5919
    ORTHCH:  cpu time    3.7004: real time    3.7048
 BZINTS: Fermi energy:  6.643448;918.000000 electrons
[...]
     -3.59759     -8.85676     -5.34598        -0.001407     -0.012570      0.004379
     -3.60650     -7.12292     -3.58920        -0.093012      0.098492     -0.015847
     -3.61655     -5.36890     -1.84292         0.039135      0.007465      0.074858
     -3.59525     -3.57361     -0.03490        -0.025968     -0.011966     -0.037028
     -1.80243     -8.92595     -3.58573         0.103275     -0.075790      0.015481
     -1.80748     -7.18921     -1.73304        -0.002350      0.031398     -0.028971
     -1.80596     -5.27974      0.00139        -0.004380     -0.014452      0.023833
      0.04304     -8.98618     -1.79000        -0.013264     -0.003783      0.001967
     -8.91481     -3.46895     -8.91591         0.015477      0.009975     -0.000398
     -7.19562     -5.33571     -8.93721        -0.040776     -0.004090     -0.049746
     -5.43450     -7.13469     -8.92418        -0.025186      0.010854     -0.018299
     -5.46268     -5.33369     -7.08714        -0.030479      0.084298     -0.054132
     -5.41441     -3.56989     -5.30540        -0.001920      0.038837     -0.021989
     -3.63882     -7.07346     -7.15081        -0.008563      0.020963      0.030124
     -3.60023     -5.38397     -5.31102         0.075406      0.035086     -0.055870
     -3.50465     -3.59040     -3.57001        -0.057025     -0.016612     -0.022631
     -1.84022     -8.85662     -7.16431         0.055909     -0.061846     -0.019354
     -1.71544     -5.41945     -3.54705         0.000843      0.028003     -0.005118
     -1.82895     -1.80463     -0.04056         0.003086      0.002306     -0.010435
      0.01800     -8.91365     -5.40086         0.011059     -0.024018      0.002061
      0.04054     -7.18124     -3.56625        -0.002420     -0.043886      0.006622
      0.00402     -5.36087     -1.72209        -0.000776      0.006112     -0.010232
     -8.91061     -1.73381    -10.75736        -0.017722     -0.003726      0.014583
     -7.14350     -5.37813    -12.54320         0.004293      0.003890     -0.012476
     -7.12201     -3.53509    -10.78531        -0.010776     -0.019894     -0.000643
     -7.11851     -1.74136     -8.89970         0.005571     -0.001494      0.030001
     -5.42157     -3.58496     -8.93655        -0.005440      0.012763      0.029076
     -5.29964     -1.79867     -7.08699        -0.000655      0.012002     -0.021673
     -3.63358     -7.16062    -10.69485         0.002348      0.003470      0.013069
     -3.61690     -5.33939     -8.94985         0.023578     -0.000908     -0.024105
     -3.53667     -3.66872     -7.11125         0.008105     -0.047028     -0.025612
     -3.48799     -1.82546     -5.34021        -0.023756     -0.001938     -0.018574
     -1.76092     -7.12263     -8.93788         0.000233      0.006146      0.000998
     -1.72437     -5.43282     -7.12229         0.034101      0.018756     -0.038560
     -1.70612     -3.64564     -5.33986        -0.024255     -0.058999      0.006973
     -1.71421     -1.76822     -3.52853         0.023897      0.022853     -0.037681
      0.03546     -3.59551     -3.55464        -0.002444      0.007836     -0.006011
      0.04644     -1.77305     -1.70848         0.013568      0.014955     -0.030519
      1.72771     -3.51892    -16.05782        -0.003139     -0.018666     -0.001812
      1.81743     -7.13512     -5.39048         0.003822     -0.015980     -0.010264
      1.80113     -5.40169     -3.49831         0.002852      0.035687      0.009508
     -5.37916     -3.57733    -12.57640         0.012059     -0.006357      0.002373
     -5.34748     -1.73376    -10.79804         0.013973     -0.007557      0.012387
     -5.27539     -0.02965     -8.95328        -0.004058      0.003274      0.003192
     -3.61084     -5.44455    -12.51799        -0.010217      0.011243     -0.024623
     -3.61247     -3.62913    -10.76440         0.009906      0.021154      0.019628
     -3.54613     -1.87969     -8.95197        -0.000346     -0.043553     -0.002752
     -3.52669      0.02208     -7.12928        -0.000308      0.003092      0.028843
     -1.76695     -5.40602    -10.74631         0.000517      0.008947      0.017367
     -1.79267     -1.82439     -7.16533         0.030313      0.023834      0.032142
      0.06159     -5.36148     -8.96289        -0.005819     -0.016993     -0.031537
      0.00714     -3.63089     -7.15590         0.028190     -0.017438      0.022486
     -0.02816     -1.79580     -5.42309         0.086476      0.119224     -0.025104
      1.76731     -3.60725     -5.38326        -0.043816     -0.055861      0.014503
      3.56257     -5.36692     -5.41058         0.015206     -0.044689      0.027720
     -3.57906     -3.60776    -14.29846        -0.006147      0.009363      0.012005
     -3.53832     -1.74483    -12.53595         0.019504     -0.001182      0.015022
     -3.49354      0.03749    -10.75492         0.008997     -0.014269     -0.017570
     -1.75657     -5.38164    -14.26748         0.003099      0.000974     -0.001003
     -1.78970     -3.61823    -12.50711        -0.005162     -0.000072     -0.006366
     -1.76204     -1.85558    -10.72668        -0.004297     -0.011261      0.011700
     -1.78774      0.02175     -8.93485        -0.002387      0.004671     -0.032691
     -3.60276    -10.66751     -7.12751         0.029374     -0.048041     -0.033810
      0.06164     -5.37437    -12.48590         0.010834     -0.001819      0.003792
     -0.02666     -1.84431     -8.90951         0.067136     -0.044924      0.018772
      1.80054     -3.55846     -8.91280        -0.019749     -0.004980     -0.003867
     -3.57342      1.81907    -12.56009        -0.002022     -0.000171     -0.010933
     -1.75491     -1.83519    -14.32204        -0.002144     -0.001087     -0.001119
     -1.75031      0.04579    -12.56467         0.004046     -0.002097      0.025524
      0.02114     -1.82272    -12.53493         0.006485      0.014684     -0.001403
     -7.18870     -3.54594     -3.59932         0.009940     -0.040153      0.022681
     -7.18087     -3.51180     -7.11727         0.007411     -0.016762     -0.006119
     -3.60557     -8.88338     -8.93235         0.008511     -0.009686     -0.005639
     -3.55697     -1.79613     -1.82279        -0.029012     -0.026688     -0.021178
     -1.76006     -7.13626     -5.36118        -0.003016      0.026798      0.021137
     -1.77364     -3.57296     -1.79252        -0.002971     -0.020517     -0.016758
      1.79843     -7.19125     -1.76160         0.006811      0.005523      0.005280
     -8.93271     -3.52110    -12.50410        -0.004471      0.000461     -0.003210
     -5.37385     -7.18418    -12.49319         0.009734     -0.000116      0.017606
     -5.41099     -5.37771    -10.75212        -0.000457      0.000860      0.001004
      0.04320     -7.15277     -7.14272         0.001413     -0.013514     -0.008659
      0.05805     -5.42143     -5.35335        -0.003919      0.030521      0.018533
      1.77518     -3.55881     -1.72746         0.016854      0.006098      0.008470
      3.55169     -7.13920     -3.56972        -0.003039      0.005628      0.003069
      3.54354     -5.38603     -1.77111        -0.006859      0.010906      0.001374
     -7.14873     -1.74145    -12.52531        -0.002552     -0.001437      0.003109
     -3.57000     -7.14581    -14.27807         0.002430      0.012533     -0.004327
     -1.76747     -7.16096    -12.53001         0.003145     -0.001626     -0.007659
     -1.75380     -3.66345     -8.96338         0.014067     -0.014153     -0.027245
     -1.78819      0.02475     -5.37014         0.024798      0.025438      0.007193
      1.78936     -5.36235     -7.15051         0.008837     -0.036044     -0.012532
     -5.35015      0.02985    -12.52334        -0.002848      0.009716      0.005944
      0.01860     -3.60397    -10.72658        -0.025986     -0.002081      0.008255
      1.81677     -5.31263    -10.73732        -0.003678     -0.011693     -0.002382
     -3.56316      0.01724    -14.29460         0.001468      0.004518     -0.016319
     -0.00048     -3.60590    -14.28145         0.010375      0.005423     -0.002125
      1.77917     -3.57762    -12.50642         0.005527      0.009076     -0.022865
 -----------------------------------------------------------------------------------
    total drift:                                0.001903     -0.000723     -0.001080


--------------------------------------------------------------------------------------------------------



  FREE ENERGIE OF THE ION-ELECTRON SYSTEM (eV)
  ---------------------------------------------------
  free  energy   TOTEN  =      -808.60982476 eV

  energy  without entropy=     -808.60982476  energy(sigma->0) =     -808.60982476
 


--------------------------------------------------------------------------------------------------------


    POTLOK:  cpu time    0.1300: real time    0.1298


--------------------------------------------------------------------------------------------------------


     LOOP+:  cpu time 3143.7691: real time 3153.6178
    4ORBIT:  cpu time    0.0000: real time    0.0000
 


 total charge     
 
# of ion       s       p       d       tot
------------------------------------------
    1        0.482   0.516   6.228   7.226
    2        0.481   0.515   6.226   7.223
    3        0.482   0.516   6.212   7.211
    4        0.475   0.509   6.196   7.181
    5        0.478   0.512   6.193   7.183
    6        0.479   0.511   6.216   7.206
    7        0.482   0.516   6.211   7.209
    8        0.494   0.542   6.236   7.272
    9        0.501   0.557   6.296   7.353
   10        0.516   0.582   6.177   7.274
   11        0.480   0.516   6.211   7.208
   12        0.485   0.518   6.233   7.236
   13        0.491   0.532   6.232   7.254
   14        0.483   0.518   6.214   7.215
   15        0.482   0.510   6.235   7.226
   16        0.477   0.509   6.195   7.181
   17        0.480   0.516   6.192   7.188
   18        0.479   0.511   6.195   7.184
   19        0.477   0.508   6.194   7.179
   20        0.477   0.509   6.197   7.183
   21        0.478   0.512   6.210   7.200
   22        0.480   0.513   6.216   7.210
   23        0.484   0.526   6.212   7.223
   24        0.486   0.526   6.222   7.234
   25        0.483   0.517   6.212   7.212
   26        0.492   0.534   6.238   7.264
   27        0.482   0.520   6.217   7.220
   28        0.474   0.508   6.195   7.177
   29        0.480   0.514   6.212   7.206
   30        0.475   0.506   6.198   7.178
   31        0.479   0.512   6.208   7.198
   32        0.478   0.511   6.207   7.196
   33        0.481   0.510   6.220   7.211
   34        0.476   0.510   6.196   7.181
   35        0.483   0.515   6.225   7.223
   36        0.481   0.513   6.207   7.201
   37        0.477   0.506   6.213   7.196
   38        0.478   0.507   6.203   7.188
   39        0.475   0.506   6.196   7.178
   40        0.477   0.509   6.199   7.184
   41        0.479   0.513   6.208   7.201
   42        0.477   0.511   6.205   7.193
   43        0.481   0.516   6.212   7.208
   44        0.484   0.517   6.219   7.220
   45        0.483   0.515   6.208   7.206
   46        0.490   0.528   6.219   7.238
   47        0.477   0.507   6.205   7.189
   48        0.479   0.515   6.208   7.202
   49        0.476   0.508   6.194   7.178
   50        0.480   0.514   6.213   7.207
   51        0.480   0.513   6.206   7.199
   52        0.478   0.509   6.207   7.194
   53        0.481   0.514   6.220   7.215
   54        0.479   0.508   6.201   7.188
   55        0.480   0.513   6.211   7.204
   56        0.481   0.516   6.202   7.199
   57        0.479   0.512   6.205   7.196
   58        0.475   0.507   6.195   7.177
   59        0.478   0.512   6.207   7.197
   60        0.479   0.514   6.205   7.197
   61        0.484   0.520   6.223   7.227
   62        0.482   0.516   6.211   7.208
   63        0.489   0.531   6.228   7.249
   64        0.496   0.541   6.243   7.280
   65        0.485   0.525   6.215   7.224
   66        0.482   0.517   6.213   7.212
   67        0.483   0.520   6.212   7.215
   68        0.479   0.511   6.209   7.200
   69        0.481   0.512   6.211   7.204
   70        0.480   0.510   6.213   7.203
   71        0.486   0.522   6.217   7.225
   72        0.478   0.509   6.205   7.191
   73        0.481   0.513   6.209   7.204
   74        0.480   0.512   6.210   7.201
   75        0.478   0.508   6.204   7.190
   76        0.485   0.524   6.211   7.219
   77        0.487   0.520   6.222   7.229
   78        0.476   0.508   6.197   7.181
   79        0.482   0.514   6.208   7.204
   80        0.481   0.516   6.207   7.204
   81        0.480   0.514   6.198   7.192
   82        0.531   0.549   8.314   9.394
   83        0.520   0.537   8.311   9.368
   84        0.519   0.535   8.314   9.368
   85        0.516   0.528   8.310   9.354
   86        0.519   0.533   8.314   9.366
   87        0.521   0.534   8.314   9.369
   88        0.515   0.525   8.320   9.360
   89        0.523   0.538   8.314   9.375
   90        0.519   0.533   8.322   9.375
   91        0.521   0.537   8.311   9.369
   92        0.519   0.534   8.313   9.366
   93        0.521   0.538   8.314   9.373
   94        0.519   0.530   8.318   9.367
   95        0.518   0.530   8.311   9.359
   96        0.521   0.529   8.329   9.378
   97        0.521   0.533   8.316   9.370
   98        0.526   0.542   8.318   9.386
   99        0.516   0.528   8.312   9.357
  100        0.517   0.534   8.305   9.357
  101        0.527   0.549   8.317   9.393
  102        0.527   0.547   8.319   9.393
  103        0.518   0.535   8.310   9.363
  104        0.521   0.537   8.317   9.375
  105        0.521   0.537   8.314   9.372
  106        0.516   0.528   8.315   9.360
  107        0.519   0.530   8.320   9.369
  108        0.516   0.528   8.314   9.357
--------------------------------------------------
tot         53.053  56.257 727.622 836.933
 


 magnetization (x)
 
# of ion       s       p       d       tot
------------------------------------------
    1       -0.006  -0.030   2.385   2.349
    2       -0.011  -0.035   2.365   2.319
    3       -0.013  -0.038   2.561   2.510
    4       -0.011  -0.040   2.614   2.563
    5       -0.010  -0.039   2.636   2.587
    6       -0.011  -0.037   2.553   2.505
    7       -0.011  -0.040   2.580   2.529
    8       -0.005  -0.026   2.307   2.275
    9       -0.029  -0.061   0.015  -0.075
   10       -0.042  -0.077  -2.111  -2.230
   11       -0.008  -0.038   2.481   2.434
   12       -0.008  -0.033   2.412   2.371
   13       -0.006  -0.032   2.313   2.275
   14       -0.011  -0.039   2.454   2.404
   15       -0.009  -0.029   2.493   2.455
   16       -0.011  -0.041   2.600   2.548
   17       -0.016  -0.053   2.607   2.538
   18       -0.007  -0.035   2.654   2.612
   19       -0.008  -0.038   2.649   2.603
   20       -0.009  -0.036   2.635   2.589
   21       -0.013  -0.043   2.574   2.517
   22       -0.011  -0.035   2.558   2.511
   23       -0.013  -0.044   2.449   2.392
   24       -0.011  -0.037   2.340   2.293
   25       -0.009  -0.036   2.497   2.452
   26       -0.009  -0.033   2.252   2.211
   27       -0.009  -0.035   2.470   2.426
   28       -0.005  -0.030   2.620   2.585
   29       -0.011  -0.036   2.546   2.499
   30       -0.004  -0.026   2.630   2.599
   31       -0.009  -0.035   2.572   2.527
   32       -0.009  -0.037   2.594   2.547
   33       -0.011  -0.034   2.551   2.507
   34       -0.006  -0.031   2.653   2.616
   35       -0.010  -0.033   2.531   2.488
   36       -0.011  -0.039   2.596   2.545
   37       -0.012  -0.038   2.554   2.505
   38       -0.013  -0.042   2.591   2.537
   39       -0.011  -0.044   2.612   2.556
   40       -0.006  -0.032   2.643   2.605
   41       -0.013  -0.043   2.575   2.519
   42       -0.013  -0.043   2.561   2.504
   43       -0.013  -0.042   2.538   2.483
   44       -0.015  -0.046   2.531   2.470
   45       -0.008  -0.037   2.588   2.544
   46       -0.015  -0.049   2.479   2.414
   47       -0.006  -0.034   2.582   2.541
   48       -0.010  -0.036   2.554   2.509
   49       -0.006  -0.032   2.640   2.603
   50       -0.007  -0.032   2.578   2.539
   51       -0.007  -0.028   2.605   2.570
   52       -0.007  -0.033   2.603   2.563
   53       -0.015  -0.045   2.537   2.477
   54       -0.010  -0.038   2.615   2.567
   55       -0.014  -0.046   2.572   2.512
   56       -0.008  -0.036   2.627   2.583
   57       -0.013  -0.045   2.601   2.543
   58       -0.013  -0.047   2.617   2.556
   59       -0.008  -0.035   2.600   2.557
   60       -0.012  -0.041   2.604   2.551
   61       -0.014  -0.038   2.481   2.430
   62       -0.008  -0.032   2.584   2.544
   63       -0.010  -0.036   2.450   2.404
   64       -0.008  -0.034   2.183   2.141
   65       -0.012  -0.036   2.466   2.418
   66       -0.010  -0.034   2.542   2.498
   67       -0.016  -0.050   2.560   2.494
   68       -0.013  -0.042   2.587   2.532
   69       -0.014  -0.043   2.575   2.518
   70       -0.007  -0.031   2.587   2.548
   71       -0.016  -0.046   2.552   2.491
   72       -0.011  -0.043   2.605   2.551
   73       -0.013  -0.044   2.575   2.518
   74       -0.004  -0.025   2.579   2.549
   75       -0.005  -0.025   2.631   2.601
   76       -0.009  -0.038   2.492   2.444
   77       -0.007  -0.031   2.502   2.464
   78       -0.007  -0.033   2.642   2.602
   79       -0.008  -0.032   2.604   2.564
   80       -0.014  -0.046   2.578   2.518
   81       -0.007  -0.033   2.635   2.595
   82       -0.028  -0.060   0.656   0.568
   83       -0.033  -0.068   0.727   0.627
   84       -0.028  -0.061   0.742   0.654
   85       -0.027  -0.059   0.743   0.657
   86       -0.031  -0.060   0.729   0.638
   87       -0.032  -0.064   0.722   0.626
   88       -0.027  -0.056   0.719   0.636
   89       -0.028  -0.060   0.761   0.673
   90       -0.026  -0.054   0.727   0.647
   91       -0.032  -0.067   0.750   0.651
   92       -0.029  -0.061   0.742   0.652
   93       -0.028  -0.060   0.742   0.654
   94       -0.029  -0.060   0.726   0.637
   95       -0.028  -0.063   0.736   0.644
   96       -0.027  -0.050   0.693   0.616
   97       -0.026  -0.055   0.757   0.676
   98       -0.031  -0.062   0.738   0.645
   99       -0.029  -0.060   0.759   0.671
  100       -0.031  -0.067   0.770   0.671
  101       -0.032  -0.065   0.714   0.617
  102       -0.030  -0.062   0.738   0.645
  103       -0.029  -0.064   0.765   0.673
  104       -0.030  -0.061   0.728   0.638
  105       -0.029  -0.061   0.751   0.660
  106       -0.026  -0.057   0.754   0.672
  107       -0.027  -0.055   0.720   0.638
  108       -0.024  -0.053   0.764   0.687
--------------------------------------------------
tot         -1.638  -4.703 218.925 212.583
 
 BZINTS: Fermi energy:  6.655790;918.000000 electrons
         Band energy:3939.738510;  BLOECHL correction: -0.019666

 total amount of memory used by VASP MPI-rank0   140684. kBytes
=======================================================================

   base      :      30000. kBytes
   nonlr-proj:      18693. kBytes
   fftplans  :       2873. kBytes
   grid      :       7434. kBytes
   one-center:        124. kBytes
   wavefun   :      81560. kBytes
 
  
  
 General timing and accounting informations for this job:
 ========================================================
  
                  Total CPU time used (sec):     3250.875
                            User time (sec):     3201.058
                          System time (sec):       49.816
                         Elapsed time (sec):     3270.896
  
                   Maximum memory used (kb):      301448.
                   Average memory used (kb):           0.
  
                          Minor page faults:      2604077
                          Major page faults:            0
                 Voluntary context switches:         9643
