  48  48   1   0
  0.1142268E+02  0.1011163E-08  0.1011163E-08  0.6192082E-09  0.5000000E-15
  1.000000000000000E-004
  CAR 
 SQS-NiFe                                
     19.47014618     -3.99919209  301      6.64132961      1.00000000
     -3.999  0.0000E+00  0.0000E+00  0.0000E+00  0.0000E+00
     -3.921  0.0000E+00  0.0000E+00  0.0000E+00  0.0000E+00
     -3.843  0.0000E+00  0.0000E+00  0.0000E+00  0.0000E+00
     -3.764  0.0000E+00  0.0000E+00  0.0000E+00  0.0000E+00
     -3.686  0.0000E+00  0.0000E+00  0.0000E+00  0.0000E+00
     -3.608 -0.6421E-30  0.0000E+00 -0.5023E-31  0.0000E+00
     -3.530 -0.2828E-27 -0.2608E-32 -0.2218E-28 -0.2040E-33
     -3.452 -0.9165E-25 -0.1500E-29 -0.7192E-26 -0.1175E-30
     -3.373 -0.2180E-22 -0.6345E-27 -0.1712E-23 -0.4976E-28
     -3.295 -0.3804E-20 -0.1971E-24 -0.2993E-21 -0.1547E-25
     -3.217 -0.4867E-18 -0.4494E-22 -0.3837E-19 -0.3531E-23
     -3.139 -0.4424E-16 -0.7516E-20 -0.3499E-17 -0.5915E-21
     -3.060 -0.3023E-14 -0.9218E-18 -0.2400E-15 -0.7271E-19
     -2.982 -0.1509E-12 -0.8025E-16 -0.1204E-13 -0.6350E-17
     -2.904 -0.5489E-11 -0.5254E-14 -0.4415E-12 -0.4174E-15
     -2.826 -0.1452E-09 -0.2512E-12 -0.1180E-10 -0.2007E-13
     -2.747 -0.2784E-08 -0.8751E-11 -0.2296E-09 -0.7047E-12
     -2.669 -0.3845E-07 -0.2216E-09 -0.3237E-08 -0.1804E-10
     -2.591 -0.3796E-06 -0.4063E-08 -0.3293E-07 -0.3359E-09
     -2.513 -0.2646E-05 -0.5363E-07 -0.2399E-06 -0.4532E-08
     -2.435 -0.1274E-04 -0.5054E-06 -0.1237E-05 -0.4407E-07
     -2.356 -0.4073E-04 -0.3355E-05 -0.4423E-05 -0.3065E-06
     -2.278 -0.7880E-04 -0.1533E-04 -0.1059E-04 -0.1506E-05
     -2.200 -0.6432E-04 -0.4614E-04 -0.1562E-04 -0.5115E-05
     -2.122  0.7889E-04 -0.8241E-04 -0.9448E-05 -0.1156E-04
     -2.043  0.3784E-03 -0.5467E-04  0.2015E-04 -0.1584E-04
     -1.965  0.1126E-02  0.1071E-03  0.1083E-03 -0.7464E-05
     -1.887  0.3092E-02  0.4416E-03  0.3502E-03  0.2709E-04
     -1.809  0.6220E-02  0.1322E-02  0.8368E-03  0.1305E-03
     -1.730  0.8734E-02  0.3507E-02  0.1520E-02  0.4049E-03
     -1.652  0.9952E-02  0.6664E-02  0.2299E-02  0.9262E-03
     -1.574  0.1182E-01  0.8940E-02  0.3223E-02  0.1626E-02
     -1.496  0.1436E-01  0.1015E-01  0.4347E-02  0.2420E-02
     -1.418  0.1423E-01  0.1236E-01  0.5460E-02  0.3386E-02
     -1.339  0.1086E-01  0.1480E-01  0.6309E-02  0.4544E-02
     -1.261  0.8496E-02  0.1387E-01  0.6974E-02  0.5630E-02
     -1.183  0.1051E-01  0.1003E-01  0.7796E-02  0.6414E-02
     -1.105  0.1563E-01  0.8155E-02  0.9019E-02  0.7052E-02
     -1.026  0.2017E-01  0.1069E-01  0.1060E-01  0.7888E-02
     -0.948  0.2289E-01  0.1534E-01  0.1239E-01  0.9088E-02
     -0.870  0.2562E-01  0.1920E-01  0.1439E-01  0.1059E-01
     -0.792  0.2745E-01  0.2228E-01  0.1654E-01  0.1233E-01
     -0.713  0.2365E-01  0.2593E-01  0.1839E-01  0.1436E-01
     -0.635  0.1443E-01  0.2797E-01  0.1952E-01  0.1655E-01
     -0.557  0.7981E-02  0.2377E-01  0.2014E-01  0.1841E-01
     -0.479  0.1040E-01  0.1441E-01  0.2096E-01  0.1954E-01
     -0.401  0.1916E-01  0.8024E-02  0.2245E-01  0.2016E-01
     -0.322  0.3004E-01  0.9904E-02  0.2480E-01  0.2094E-01
     -0.244  0.4160E-01  0.1708E-01  0.2806E-01  0.2227E-01
     -0.166  0.4874E-01  0.2564E-01  0.3187E-01  0.2428E-01
     -0.088  0.4412E-01  0.3615E-01  0.3532E-01  0.2711E-01
     -0.009  0.2997E-01  0.4593E-01  0.3767E-01  0.3070E-01
      0.069  0.1716E-01  0.4617E-01  0.3901E-01  0.3431E-01
      0.147  0.1246E-01  0.3444E-01  0.3999E-01  0.3701E-01
      0.225  0.1575E-01  0.1973E-01  0.4122E-01  0.3855E-01
      0.304  0.2487E-01  0.1096E-01  0.4316E-01  0.3941E-01
      0.382  0.3535E-01  0.1016E-01  0.4593E-01  0.4020E-01
      0.460  0.4072E-01  0.1641E-01  0.4911E-01  0.4149E-01
      0.538  0.4032E-01  0.2738E-01  0.5227E-01  0.4363E-01
      0.616  0.4235E-01  0.3741E-01  0.5558E-01  0.4656E-01
      0.695  0.5299E-01  0.4107E-01  0.5973E-01  0.4977E-01
      0.773  0.6618E-01  0.3915E-01  0.6490E-01  0.5283E-01
      0.851  0.6865E-01  0.3772E-01  0.7027E-01  0.5578E-01
      0.929  0.5456E-01  0.4184E-01  0.7454E-01  0.5906E-01
      1.008  0.3431E-01  0.5146E-01  0.7723E-01  0.6308E-01
      1.086  0.2635E-01  0.6055E-01  0.7929E-01  0.6782E-01
      1.164  0.3935E-01  0.5918E-01  0.8237E-01  0.7245E-01
      1.242  0.6393E-01  0.4322E-01  0.8737E-01  0.7583E-01
      1.321  0.8074E-01  0.2234E-01  0.9368E-01  0.7758E-01
      1.399  0.7870E-01  0.1175E-01  0.9984E-01  0.7850E-01
      1.477  0.7084E-01  0.1856E-01  0.1054E+00  0.7995E-01
      1.555  0.8535E-01  0.3959E-01  0.1121E+00  0.8304E-01
      1.633  0.1342E+00  0.6394E-01  0.1226E+00  0.8805E-01
      1.712  0.1991E+00  0.7585E-01  0.1381E+00  0.9398E-01
      1.790  0.2517E+00  0.6742E-01  0.1578E+00  0.9926E-01
      1.868  0.2761E+00  0.5025E-01  0.1794E+00  0.1032E+00
      1.946  0.2769E+00  0.4397E-01  0.2011E+00  0.1066E+00
      2.025  0.2731E+00  0.5378E-01  0.2225E+00  0.1108E+00
      2.103  0.2761E+00  0.6694E-01  0.2441E+00  0.1161E+00
      2.181  0.2830E+00  0.7130E-01  0.2662E+00  0.1216E+00
      2.259  0.2967E+00  0.7145E-01  0.2894E+00  0.1272E+00
      2.338  0.3295E+00  0.8076E-01  0.3152E+00  0.1336E+00
      2.416  0.3782E+00  0.9939E-01  0.3448E+00  0.1413E+00
      2.494  0.4229E+00  0.1116E+00  0.3779E+00  0.1501E+00
      2.572  0.4524E+00  0.1085E+00  0.4132E+00  0.1585E+00
      2.650  0.4669E+00  0.1015E+00  0.4498E+00  0.1665E+00
      2.729  0.4638E+00  0.1083E+00  0.4861E+00  0.1750E+00
      2.807  0.4438E+00  0.1326E+00  0.5208E+00  0.1853E+00
      2.885  0.4203E+00  0.1642E+00  0.5537E+00  0.1982E+00
      2.963  0.4085E+00  0.1949E+00  0.5856E+00  0.2134E+00
      3.042  0.4126E+00  0.2222E+00  0.6179E+00  0.2308E+00
      3.120  0.4239E+00  0.2380E+00  0.6511E+00  0.2494E+00
      3.198  0.4273E+00  0.2357E+00  0.6845E+00  0.2679E+00
      3.276  0.4120E+00  0.2268E+00  0.7167E+00  0.2856E+00
      3.355  0.3836E+00  0.2280E+00  0.7467E+00  0.3034E+00
      3.433  0.3632E+00  0.2381E+00  0.7751E+00  0.3221E+00
      3.511  0.3755E+00  0.2486E+00  0.8045E+00  0.3415E+00
      3.589  0.4268E+00  0.2623E+00  0.8379E+00  0.3620E+00
      3.667  0.4925E+00  0.2866E+00  0.8764E+00  0.3845E+00
      3.746  0.5324E+00  0.3177E+00  0.9181E+00  0.4093E+00
      3.824  0.5336E+00  0.3453E+00  0.9598E+00  0.4363E+00
      3.902  0.5284E+00  0.3665E+00  0.1001E+01  0.4650E+00
      3.980  0.5532E+00  0.3826E+00  0.1044E+01  0.4949E+00
      4.059  0.6053E+00  0.3924E+00  0.1092E+01  0.5256E+00
      4.137  0.6603E+00  0.3925E+00  0.1143E+01  0.5563E+00
      4.215  0.7070E+00  0.3796E+00  0.1199E+01  0.5860E+00
      4.293  0.7404E+00  0.3564E+00  0.1257E+01  0.6139E+00
      4.372  0.7490E+00  0.3349E+00  0.1315E+01  0.6401E+00
      4.450  0.7232E+00  0.3245E+00  0.1372E+01  0.6655E+00
      4.528  0.6665E+00  0.3240E+00  0.1424E+01  0.6908E+00
      4.606  0.5987E+00  0.3310E+00  0.1471E+01  0.7167E+00
      4.684  0.5476E+00  0.3469E+00  0.1514E+01  0.7439E+00
      4.763  0.5265E+00  0.3685E+00  0.1555E+01  0.7727E+00
      4.841  0.5261E+00  0.3873E+00  0.1596E+01  0.8030E+00
      4.919  0.5380E+00  0.3979E+00  0.1638E+01  0.8341E+00
      4.997  0.5686E+00  0.4036E+00  0.1683E+01  0.8657E+00
      5.076  0.6163E+00  0.4100E+00  0.1731E+01  0.8978E+00
      5.154  0.6510E+00  0.4193E+00  0.1782E+01  0.9306E+00
      5.232  0.6390E+00  0.4307E+00  0.1832E+01  0.9643E+00
      5.310  0.5845E+00  0.4442E+00  0.1877E+01  0.9990E+00
      5.389  0.5272E+00  0.4603E+00  0.1919E+01  0.1035E+01
      5.467  0.5020E+00  0.4775E+00  0.1958E+01  0.1072E+01
      5.545  0.5133E+00  0.4921E+00  0.1998E+01  0.1111E+01
      5.623  0.5388E+00  0.5000E+00  0.2040E+01  0.1150E+01
      5.701  0.5520E+00  0.4995E+00  0.2083E+01  0.1189E+01
      5.780  0.5513E+00  0.4917E+00  0.2127E+01  0.1228E+01
      5.858  0.5624E+00  0.4780E+00  0.2171E+01  0.1265E+01
      5.936  0.6030E+00  0.4603E+00  0.2218E+01  0.1301E+01
      6.014  0.6525E+00  0.4441E+00  0.2269E+01  0.1336E+01
      6.093  0.6681E+00  0.4372E+00  0.2321E+01  0.1370E+01
      6.171  0.6237E+00  0.4399E+00  0.2370E+01  0.1404E+01
      6.249  0.5287E+00  0.4419E+00  0.2411E+01  0.1439E+01
      6.327  0.4179E+00  0.4343E+00  0.2444E+01  0.1473E+01
      6.406  0.3265E+00  0.4190E+00  0.2469E+01  0.1506E+01
      6.484  0.2670E+00  0.4027E+00  0.2490E+01  0.1537E+01
      6.562  0.2293E+00  0.3877E+00  0.2508E+01  0.1567E+01
      6.640  0.2005E+00  0.3735E+00  0.2524E+01  0.1597E+01
      6.718  0.1794E+00  0.3615E+00  0.2538E+01  0.1625E+01
      6.797  0.1687E+00  0.3555E+00  0.2551E+01  0.1653E+01
      6.875  0.1624E+00  0.3571E+00  0.2564E+01  0.1681E+01
      6.953  0.1484E+00  0.3616E+00  0.2575E+01  0.1709E+01
      7.031  0.1209E+00  0.3630E+00  0.2585E+01  0.1737E+01
      7.110  0.8953E-01  0.3600E+00  0.2592E+01  0.1766E+01
      7.188  0.7027E-01  0.3566E+00  0.2597E+01  0.1793E+01
      7.266  0.6731E-01  0.3585E+00  0.2603E+01  0.1822E+01
      7.344  0.6932E-01  0.3667E+00  0.2608E+01  0.1850E+01
      7.423  0.6661E-01  0.3751E+00  0.2613E+01  0.1880E+01
      7.501  0.6063E-01  0.3792E+00  0.2618E+01  0.1909E+01
      7.579  0.5476E-01  0.3825E+00  0.2622E+01  0.1939E+01
      7.657  0.5120E-01  0.3911E+00  0.2626E+01  0.1970E+01
      7.735  0.5757E-01  0.4065E+00  0.2631E+01  0.2002E+01
      7.814  0.7987E-01  0.4264E+00  0.2637E+01  0.2035E+01
      7.892  0.1076E+00  0.4462E+00  0.2646E+01  0.2070E+01
      7.970  0.1197E+00  0.4608E+00  0.2655E+01  0.2106E+01
      8.048  0.1074E+00  0.4690E+00  0.2663E+01  0.2143E+01
      8.127  0.8301E-01  0.4729E+00  0.2670E+01  0.2180E+01
      8.205  0.6451E-01  0.4743E+00  0.2675E+01  0.2217E+01
      8.283  0.5823E-01  0.4785E+00  0.2679E+01  0.2254E+01
      8.361  0.5735E-01  0.4943E+00  0.2684E+01  0.2293E+01
      8.440  0.5311E-01  0.5240E+00  0.2688E+01  0.2334E+01
      8.518  0.4459E-01  0.5562E+00  0.2692E+01  0.2377E+01
      8.596  0.3826E-01  0.5721E+00  0.2695E+01  0.2422E+01
      8.674  0.4020E-01  0.5553E+00  0.2698E+01  0.2465E+01
      8.752  0.4991E-01  0.5010E+00  0.2702E+01  0.2505E+01
      8.831  0.6124E-01  0.4198E+00  0.2706E+01  0.2537E+01
      8.909  0.7070E-01  0.3331E+00  0.2712E+01  0.2564E+01
      8.987  0.8082E-01  0.2575E+00  0.2718E+01  0.2584E+01
      9.065  0.8958E-01  0.1950E+00  0.2725E+01  0.2599E+01
      9.144  0.8593E-01  0.1414E+00  0.2732E+01  0.2610E+01
      9.222  0.6653E-01  0.9842E-01  0.2737E+01  0.2618E+01
      9.300  0.4589E-01  0.7281E-01  0.2741E+01  0.2623E+01
      9.378  0.4106E-01  0.7036E-01  0.2744E+01  0.2629E+01
      9.457  0.5388E-01  0.8939E-01  0.2748E+01  0.2636E+01
      9.535  0.7175E-01  0.1151E+00  0.2754E+01  0.2645E+01
      9.613  0.8132E-01  0.1277E+00  0.2760E+01  0.2655E+01
      9.691  0.7891E-01  0.1205E+00  0.2766E+01  0.2664E+01
      9.769  0.6859E-01  0.1050E+00  0.2772E+01  0.2673E+01
      9.848  0.5633E-01  0.9573E-01  0.2776E+01  0.2680E+01
      9.926  0.4768E-01  0.9511E-01  0.2780E+01  0.2687E+01
     10.004  0.4396E-01  0.9479E-01  0.2783E+01  0.2695E+01
     10.082  0.4219E-01  0.8841E-01  0.2787E+01  0.2702E+01
     10.161  0.4284E-01  0.7967E-01  0.2790E+01  0.2708E+01
     10.239  0.4894E-01  0.7848E-01  0.2794E+01  0.2714E+01
     10.317  0.5680E-01  0.8743E-01  0.2798E+01  0.2721E+01
     10.395  0.5977E-01  0.9499E-01  0.2803E+01  0.2728E+01
     10.474  0.5960E-01  0.8866E-01  0.2808E+01  0.2735E+01
     10.552  0.6203E-01  0.6932E-01  0.2812E+01  0.2741E+01
     10.630  0.6542E-01  0.4895E-01  0.2817E+01  0.2745E+01
     10.708  0.6508E-01  0.4032E-01  0.2823E+01  0.2748E+01
     10.786  0.6210E-01  0.4786E-01  0.2827E+01  0.2752E+01
     10.865  0.5884E-01  0.6486E-01  0.2832E+01  0.2757E+01
     10.943  0.5412E-01  0.7992E-01  0.2836E+01  0.2763E+01
     11.021  0.4759E-01  0.8541E-01  0.2840E+01  0.2770E+01
     11.099  0.3944E-01  0.8252E-01  0.2843E+01  0.2776E+01
     11.178  0.2793E-01  0.8032E-01  0.2845E+01  0.2782E+01
     11.256  0.1617E-01  0.8345E-01  0.2847E+01  0.2789E+01
     11.334  0.1338E-01  0.8300E-01  0.2848E+01  0.2795E+01
     11.412  0.2176E-01  0.6971E-01  0.2849E+01  0.2801E+01
     11.491  0.3177E-01  0.5203E-01  0.2852E+01  0.2805E+01
     11.569  0.3737E-01  0.4923E-01  0.2855E+01  0.2809E+01
     11.647  0.4437E-01  0.6722E-01  0.2858E+01  0.2814E+01
     11.725  0.5500E-01  0.8862E-01  0.2862E+01  0.2821E+01
     11.803  0.5875E-01  0.9100E-01  0.2867E+01  0.2828E+01
     11.882  0.4928E-01  0.7112E-01  0.2871E+01  0.2834E+01
     11.960  0.3567E-01  0.4638E-01  0.2874E+01  0.2837E+01
     12.038  0.2837E-01  0.3394E-01  0.2876E+01  0.2840E+01
     12.116  0.2791E-01  0.3262E-01  0.2878E+01  0.2842E+01
     12.195  0.3004E-01  0.2893E-01  0.2880E+01  0.2845E+01
     12.273  0.2994E-01  0.1858E-01  0.2883E+01  0.2846E+01
     12.351  0.2457E-01  0.1294E-01  0.2885E+01  0.2847E+01
     12.429  0.1835E-01  0.2246E-01  0.2886E+01  0.2849E+01
     12.508  0.1980E-01  0.4254E-01  0.2888E+01  0.2852E+01
     12.586  0.3135E-01  0.5926E-01  0.2890E+01  0.2857E+01
     12.664  0.4688E-01  0.6385E-01  0.2894E+01  0.2862E+01
     12.742  0.5793E-01  0.5721E-01  0.2898E+01  0.2866E+01
     12.821  0.6110E-01  0.4512E-01  0.2903E+01  0.2870E+01
     12.899  0.5906E-01  0.3447E-01  0.2908E+01  0.2873E+01
     12.977  0.5706E-01  0.3095E-01  0.2912E+01  0.2875E+01
     13.055  0.6029E-01  0.3461E-01  0.2917E+01  0.2878E+01
     13.133  0.6862E-01  0.3867E-01  0.2922E+01  0.2881E+01
     13.212  0.7356E-01  0.3677E-01  0.2928E+01  0.2884E+01
     13.290  0.6966E-01  0.3033E-01  0.2934E+01  0.2886E+01
     13.368  0.6453E-01  0.2658E-01  0.2939E+01  0.2888E+01
     13.446  0.6714E-01  0.3118E-01  0.2944E+01  0.2890E+01
     13.525  0.7419E-01  0.4314E-01  0.2950E+01  0.2894E+01
     13.603  0.7668E-01  0.5389E-01  0.2956E+01  0.2898E+01
     13.681  0.7239E-01  0.5245E-01  0.2961E+01  0.2902E+01
     13.759  0.6631E-01  0.3621E-01  0.2966E+01  0.2905E+01
     13.838  0.6239E-01  0.1597E-01  0.2971E+01  0.2906E+01
     13.916  0.5875E-01  0.7469E-02  0.2976E+01  0.2907E+01
     13.994  0.5286E-01  0.1841E-01  0.2980E+01  0.2908E+01
     14.072  0.4824E-01  0.4335E-01  0.2984E+01  0.2912E+01
     14.150  0.5292E-01  0.6880E-01  0.2988E+01  0.2917E+01
     14.229  0.7005E-01  0.8358E-01  0.2993E+01  0.2924E+01
     14.307  0.9000E-01  0.8583E-01  0.3001E+01  0.2930E+01
     14.385  0.9688E-01  0.8204E-01  0.3008E+01  0.2937E+01
     14.463  0.8630E-01  0.8144E-01  0.3015E+01  0.2943E+01
     14.542  0.7063E-01  0.8780E-01  0.3020E+01  0.2950E+01
     14.620  0.6387E-01  0.9456E-01  0.3025E+01  0.2957E+01
     14.698  0.6626E-01  0.9194E-01  0.3031E+01  0.2965E+01
     14.776  0.6769E-01  0.7934E-01  0.3036E+01  0.2971E+01
     14.855  0.6315E-01  0.6679E-01  0.3041E+01  0.2976E+01
     14.933  0.5877E-01  0.6304E-01  0.3045E+01  0.2981E+01
     15.011  0.6096E-01  0.6710E-01  0.3050E+01  0.2986E+01
     15.089  0.6530E-01  0.7491E-01  0.3055E+01  0.2992E+01
     15.167  0.6285E-01  0.8499E-01  0.3060E+01  0.2999E+01
     15.246  0.5286E-01  0.9257E-01  0.3064E+01  0.3006E+01
     15.324  0.4070E-01  0.9021E-01  0.3067E+01  0.3013E+01
     15.402  0.2887E-01  0.7933E-01  0.3070E+01  0.3019E+01
     15.480  0.1891E-01  0.7070E-01  0.3071E+01  0.3025E+01
     15.559  0.1559E-01  0.6997E-01  0.3072E+01  0.3030E+01
     15.637  0.2174E-01  0.7149E-01  0.3074E+01  0.3036E+01
     15.715  0.3258E-01  0.6927E-01  0.3077E+01  0.3041E+01
     15.793  0.3912E-01  0.6570E-01  0.3080E+01  0.3046E+01
     15.872  0.3638E-01  0.6477E-01  0.3083E+01  0.3051E+01
     15.950  0.2703E-01  0.6365E-01  0.3085E+01  0.3056E+01
     16.028  0.1761E-01  0.5712E-01  0.3086E+01  0.3061E+01
     16.106  0.1232E-01  0.4627E-01  0.3087E+01  0.3064E+01
     16.184  0.1065E-01  0.3651E-01  0.3088E+01  0.3067E+01
     16.263  0.1010E-01  0.2994E-01  0.3089E+01  0.3070E+01
     16.341  0.9495E-02  0.2629E-01  0.3089E+01  0.3072E+01
     16.419  0.8572E-02  0.2713E-01  0.3090E+01  0.3074E+01
     16.497  0.6643E-02  0.3253E-01  0.3091E+01  0.3076E+01
     16.576  0.3636E-02  0.3769E-01  0.3091E+01  0.3079E+01
     16.654  0.9598E-03  0.3683E-01  0.3091E+01  0.3082E+01
     16.732 -0.2580E-03  0.2804E-01  0.3091E+01  0.3084E+01
     16.810 -0.3609E-03  0.1551E-01  0.3091E+01  0.3086E+01
     16.889 -0.1672E-03  0.7236E-02  0.3091E+01  0.3086E+01
     16.967 -0.4648E-04  0.7400E-02  0.3091E+01  0.3087E+01
     17.045 -0.8641E-05  0.1140E-01  0.3091E+01  0.3088E+01
     17.123 -0.1119E-05  0.1173E-01  0.3091E+01  0.3089E+01
     17.201 -0.1029E-06  0.7477E-02  0.3091E+01  0.3089E+01
     17.280 -0.6795E-08  0.3873E-02  0.3091E+01  0.3089E+01
     17.358 -0.3247E-09  0.4072E-02  0.3091E+01  0.3090E+01
     17.436 -0.1127E-10  0.5755E-02  0.3091E+01  0.3090E+01
     17.514 -0.2853E-12  0.5531E-02  0.3091E+01  0.3091E+01
     17.593 -0.5277E-14  0.3211E-02  0.3091E+01  0.3091E+01
     17.671 -0.7008E-16  0.8835E-03  0.3091E+01  0.3091E+01
     17.749  0.0000E+00 -0.1752E-03  0.3091E+01  0.3091E+01
     17.827  0.0000E+00 -0.2803E-03  0.3091E+01  0.3091E+01
     17.906  0.0000E+00 -0.1328E-03  0.3091E+01  0.3091E+01
     17.984  0.0000E+00 -0.3782E-04  0.3091E+01  0.3091E+01
     18.062  0.0000E+00 -0.7262E-05  0.3091E+01  0.3091E+01
     18.140  0.0000E+00 -0.9789E-06  0.3091E+01  0.3091E+01
     18.218  0.0000E+00 -0.9435E-07  0.3091E+01  0.3091E+01
     18.297  0.0000E+00 -0.6568E-08  0.3091E+01  0.3091E+01
     18.375  0.0000E+00 -0.3321E-09  0.3091E+01  0.3091E+01
     18.453  0.0000E+00 -0.1224E-10  0.3091E+01  0.3091E+01
     18.531  0.0000E+00 -0.3297E-12  0.3091E+01  0.3091E+01
     18.610  0.0000E+00 -0.6502E-14  0.3091E+01  0.3091E+01
     18.688  0.0000E+00 -0.9238E-16  0.3091E+01  0.3091E+01
     18.766  0.0000E+00 -0.1593E-17  0.3091E+01  0.3091E+01
     18.844  0.0000E+00  0.0000E+00  0.3091E+01  0.3091E+01
     18.923  0.0000E+00  0.0000E+00  0.3091E+01  0.3091E+01
     19.001  0.0000E+00  0.0000E+00  0.3091E+01  0.3091E+01
     19.079  0.0000E+00  0.0000E+00  0.3091E+01  0.3091E+01
     19.157  0.0000E+00  0.0000E+00  0.3091E+01  0.3091E+01
     19.235  0.0000E+00  0.0000E+00  0.3091E+01  0.3091E+01
     19.314  0.0000E+00  0.0000E+00  0.3091E+01  0.3091E+01
     19.392  0.0000E+00  0.0000E+00  0.3091E+01  0.3091E+01
     19.470  0.0000E+00  0.0000E+00  0.3091E+01  0.3091E+01
     19.47014618     -3.99919209  301      6.64132961      1.00000000
     -3.999  0.0000E+00  0.0000E+00  0.0000E+00  0.0000E+00  0.0000E+00  0.0000E+00
     -3.921  0.0000E+00  0.0000E+00  0.0000E+00  0.0000E+00  0.0000E+00  0.0000E+00
     -3.843  0.0000E+00  0.0000E+00  0.0000E+00  0.0000E+00  0.0000E+00  0.0000E+00
     -3.764  0.0000E+00  0.0000E+00  0.0000E+00  0.0000E+00  0.0000E+00  0.0000E+00
     -3.686  0.0000E+00  0.0000E+00  0.0000E+00  0.0000E+00  0.0000E+00  0.0000E+00
     -3.608 -0.9781E-30  0.0000E+00 -0.7918E-33  0.0000E+00 -0.1564E-33  0.0000E+00
     -3.530 -0.4309E-27 -0.3884E-32 -0.3488E-30 -0.4129E-35 -0.6888E-31 -0.8249E-36
     -3.452 -0.1396E-24 -0.2234E-29 -0.1130E-27 -0.2375E-32 -0.2232E-28 -0.4745E-33
     -3.373 -0.3321E-22 -0.9451E-27 -0.2688E-25 -0.1005E-29 -0.5308E-26 -0.2007E-30
     -3.295 -0.5794E-20 -0.2936E-24 -0.4691E-23 -0.3121E-27 -0.9263E-24 -0.6235E-28
     -3.217 -0.7414E-18 -0.6693E-22 -0.6002E-21 -0.7115E-25 -0.1185E-21 -0.1422E-25
     -3.139 -0.6740E-16 -0.1119E-19 -0.5456E-19 -0.1190E-22 -0.1077E-19 -0.2378E-23
     -3.060 -0.4605E-14 -0.1373E-17 -0.3729E-17 -0.1460E-20 -0.7362E-18 -0.2916E-21
     -2.982 -0.2298E-12 -0.1195E-15 -0.1862E-15 -0.1271E-18 -0.3674E-16 -0.2539E-19
     -2.904 -0.8363E-11 -0.7826E-14 -0.6779E-14 -0.8322E-17 -0.1337E-14 -0.1662E-17
     -2.826 -0.2212E-09 -0.3741E-12 -0.1797E-12 -0.3979E-15 -0.3539E-13 -0.7947E-16
     -2.747 -0.4240E-08 -0.1303E-10 -0.3465E-11 -0.1387E-13 -0.6788E-12 -0.2769E-14
     -2.669 -0.5857E-07 -0.3301E-09 -0.4861E-10 -0.3521E-12 -0.9398E-11 -0.7013E-13
     -2.591 -0.5783E-06 -0.6051E-08 -0.5003E-09 -0.6491E-11 -0.9340E-10 -0.1287E-11
     -2.513 -0.4030E-05 -0.7988E-07 -0.3890E-08 -0.8695E-10 -0.6629E-09 -0.1701E-10
     -2.435 -0.1941E-04 -0.7528E-06 -0.2454E-07 -0.8522E-09 -0.3366E-08 -0.1610E-09
     -2.356 -0.6200E-04 -0.4996E-05 -0.1392E-06 -0.6275E-08 -0.1257E-07 -0.1081E-08
     -2.278 -0.1197E-03 -0.2282E-04 -0.7313E-06 -0.3715E-07 -0.3819E-07 -0.5121E-08
     -2.200 -0.9621E-04 -0.6865E-04 -0.3198E-05 -0.1963E-06 -0.1097E-06 -0.1722E-07
     -2.122  0.1261E-03 -0.1223E-03 -0.9963E-05 -0.9624E-06 -0.2882E-06 -0.4406E-07
     -2.043  0.5878E-03 -0.7916E-04 -0.1791E-04 -0.3940E-05 -0.4980E-06 -0.1022E-06
     -1.965  0.1722E-02  0.1664E-03 -0.3748E-05 -0.1139E-04 -0.6996E-07 -0.2290E-06
     -1.887  0.4678E-02  0.6697E-03  0.6751E-04 -0.1805E-04  0.2004E-05 -0.3265E-06
     -1.809  0.9370E-02  0.1971E-02  0.1866E-03  0.3257E-05  0.5443E-05  0.2325E-06
     -1.730  0.1311E-01  0.5180E-02  0.3024E-03  0.8521E-04  0.9750E-05  0.2272E-05
     -1.652  0.1484E-01  0.9803E-02  0.4524E-03  0.2077E-03  0.1932E-04  0.5398E-05
     -1.574  0.1756E-01  0.1310E-01  0.7402E-03  0.3228E-03  0.3924E-04  0.9321E-05
     -1.496  0.2142E-01  0.1478E-01  0.1053E-02  0.4931E-03  0.6030E-04  0.1801E-04
     -1.418  0.2127E-01  0.1794E-01  0.1105E-02  0.8140E-03  0.6466E-04  0.3474E-04
     -1.339  0.1603E-01  0.2158E-01  0.9087E-03  0.1114E-02  0.5608E-04  0.4994E-04
     -1.261  0.1221E-01  0.2025E-01  0.8684E-03  0.1097E-02  0.6805E-04  0.4967E-04
     -1.183  0.1486E-01  0.1440E-01  0.1299E-02  0.8720E-03  0.1312E-03  0.4097E-04
     -1.105  0.2144E-01  0.1131E-01  0.2059E-02  0.8951E-03  0.2355E-03  0.5021E-04
     -1.026  0.2651E-01  0.1451E-01  0.2749E-02  0.1371E-02  0.3456E-03  0.9115E-04
     -0.948  0.2928E-01  0.2015E-01  0.3318E-02  0.2049E-02  0.4720E-03  0.1497E-03
     -0.870  0.3285E-01  0.2414E-01  0.4064E-02  0.2645E-02  0.6515E-03  0.2111E-03
     -0.792  0.3569E-01  0.2736E-01  0.4661E-02  0.3282E-02  0.7947E-03  0.2959E-03
     -0.713  0.3114E-01  0.3208E-01  0.4138E-02  0.4173E-02  0.7168E-03  0.4233E-03
     -0.635  0.1927E-01  0.3519E-01  0.2567E-02  0.4796E-02  0.4508E-03  0.5213E-03
     -0.557  0.1070E-01  0.3032E-01  0.1570E-02  0.4207E-02  0.3183E-03  0.4726E-03
     -0.479  0.1342E-01  0.1849E-01  0.2328E-02  0.2632E-02  0.5444E-03  0.3061E-03
     -0.401  0.2417E-01  0.9847E-02  0.4320E-02  0.1665E-02  0.1072E-02  0.2189E-03
     -0.322  0.3704E-01  0.1166E-01  0.6819E-02  0.2302E-02  0.1881E-02  0.3321E-03
     -0.244  0.4973E-01  0.2077E-01  0.9716E-02  0.3911E-02  0.2959E-02  0.5815E-03
     -0.166  0.5675E-01  0.3151E-01  0.1179E-01  0.5878E-02  0.3787E-02  0.9441E-03
     -0.088  0.5035E-01  0.4287E-01  0.1101E-01  0.8613E-02  0.3679E-02  0.1499E-02
     -0.009  0.3366E-01  0.5180E-01  0.7705E-02  0.1144E-01  0.2799E-02  0.2061E-02
      0.069  0.1966E-01  0.5004E-01  0.4515E-02  0.1191E-01  0.1980E-02  0.2182E-02
      0.147  0.1569E-01  0.3614E-01  0.3265E-02  0.9171E-02  0.1802E-02  0.1753E-02
      0.225  0.1953E-01  0.2053E-01  0.4214E-02  0.5424E-02  0.2550E-02  0.1158E-02
      0.304  0.2779E-01  0.1336E-01  0.7030E-02  0.3007E-02  0.4290E-02  0.7753E-03
      0.382  0.3714E-01  0.1505E-01  0.1044E-01  0.2718E-02  0.6299E-02  0.8174E-03
      0.460  0.4154E-01  0.2125E-01  0.1245E-01  0.4685E-02  0.7445E-02  0.1468E-02
      0.538  0.4013E-01  0.2945E-01  0.1282E-01  0.8395E-02  0.7892E-02  0.2619E-02
      0.616  0.4196E-01  0.3685E-01  0.1394E-01  0.1204E-01  0.9455E-02  0.3683E-02
      0.695  0.5320E-01  0.3881E-01  0.1753E-01  0.1372E-01  0.1328E-01  0.4151E-02
      0.773  0.6577E-01  0.3543E-01  0.2177E-01  0.1357E-01  0.1766E-01  0.4175E-02
      0.851  0.6574E-01  0.3385E-01  0.2266E-01  0.1346E-01  0.1887E-01  0.4348E-02
      0.929  0.4959E-01  0.4023E-01  0.1828E-01  0.1506E-01  0.1525E-01  0.5204E-02
      1.008  0.2893E-01  0.5218E-01  0.1157E-01  0.1853E-01  0.1063E-01  0.6891E-02
      1.086  0.2012E-01  0.6038E-01  0.8449E-02  0.2194E-01  0.1186E-01  0.8646E-02
      1.164  0.2974E-01  0.5590E-01  0.1216E-01  0.2162E-01  0.2185E-01  0.8794E-02
      1.242  0.4926E-01  0.3817E-01  0.2007E-01  0.1594E-01  0.3586E-01  0.6522E-02
      1.321  0.6246E-01  0.1739E-01  0.2587E-01  0.8521E-02  0.4459E-01  0.3446E-02
      1.399  0.5973E-01  0.6725E-02  0.2542E-01  0.4922E-02  0.4446E-01  0.2351E-02
      1.477  0.4822E-01  0.1273E-01  0.2168E-01  0.7464E-02  0.4964E-01  0.4866E-02
      1.555  0.4496E-01  0.3294E-01  0.2179E-01  0.1479E-01  0.8723E-01  0.1067E-01
      1.633  0.5787E-01  0.5600E-01  0.2831E-01  0.2321E-01  0.1686E+00  0.1731E-01
      1.712  0.7908E-01  0.6612E-01  0.3689E-01  0.2743E-01  0.2690E+00  0.2086E-01
      1.790  0.9636E-01  0.5766E-01  0.4258E-01  0.2462E-01  0.3466E+00  0.1939E-01
      1.868  0.1028E+00  0.4237E-01  0.4383E-01  0.1890E-01  0.3801E+00  0.1592E-01
      1.946  0.9758E-01  0.3491E-01  0.4140E-01  0.1740E-01  0.3868E+00  0.1569E-01
      2.025  0.8582E-01  0.3768E-01  0.3749E-01  0.2164E-01  0.3996E+00  0.2031E-01
      2.103  0.7597E-01  0.4396E-01  0.3450E-01  0.2637E-01  0.4232E+00  0.2572E-01
      2.181  0.7176E-01  0.4836E-01  0.3327E-01  0.2725E-01  0.4415E+00  0.2782E-01
      2.259  0.7058E-01  0.5183E-01  0.3386E-01  0.2653E-01  0.4698E+00  0.2934E-01
      2.338  0.6890E-01  0.5943E-01  0.3643E-01  0.2917E-01  0.5410E+00  0.3716E-01
      2.416  0.6567E-01  0.7126E-01  0.4047E-01  0.3464E-01  0.6428E+00  0.5153E-01
      2.494  0.6182E-01  0.7726E-01  0.4466E-01  0.3692E-01  0.7289E+00  0.6374E-01
      2.572  0.5808E-01  0.6940E-01  0.4767E-01  0.3317E-01  0.7821E+00  0.6785E-01
      2.650  0.5306E-01  0.5549E-01  0.4860E-01  0.2775E-01  0.8106E+00  0.6992E-01
      2.729  0.4457E-01  0.5056E-01  0.4723E-01  0.2608E-01  0.8113E+00  0.8197E-01
      2.807  0.3340E-01  0.5826E-01  0.4514E-01  0.2853E-01  0.7839E+00  0.1083E+00
      2.885  0.2314E-01  0.7005E-01  0.4532E-01  0.3253E-01  0.7559E+00  0.1415E+00
      2.963  0.1615E-01  0.7891E-01  0.4899E-01  0.3773E-01  0.7587E+00  0.1733E+00
      3.042  0.1215E-01  0.8408E-01  0.5350E-01  0.4459E-01  0.7913E+00  0.1996E+00
      3.120  0.9993E-02  0.8402E-01  0.5530E-01  0.4992E-01  0.8219E+00  0.2138E+00
      3.198  0.8548E-02  0.7672E-01  0.5364E-01  0.4997E-01  0.8181E+00  0.2126E+00
      3.276  0.6905E-02  0.6588E-01  0.4991E-01  0.4615E-01  0.7707E+00  0.2071E+00
      3.355  0.5020E-02  0.5736E-01  0.4531E-01  0.4287E-01  0.7019E+00  0.2103E+00
      3.433  0.3779E-02  0.5161E-01  0.4188E-01  0.4171E-01  0.6578E+00  0.2202E+00
      3.511  0.4092E-02  0.4555E-01  0.4334E-01  0.4162E-01  0.6797E+00  0.2303E+00
      3.589  0.6073E-02  0.3836E-01  0.5142E-01  0.4251E-01  0.7684E+00  0.2461E+00
      3.667  0.8968E-02  0.3205E-01  0.6211E-01  0.4568E-01  0.8736E+00  0.2788E+00
      3.746  0.1155E-01  0.2804E-01  0.6842E-01  0.5116E-01  0.9319E+00  0.3271E+00
      3.824  0.1291E-01  0.2565E-01  0.6779E-01  0.5688E-01  0.9321E+00  0.3777E+00
      3.902  0.1346E-01  0.2358E-01  0.6505E-01  0.6088E-01  0.9303E+00  0.4216E+00
      3.980  0.1455E-01  0.2122E-01  0.6652E-01  0.6293E-01  0.9768E+00  0.4539E+00
      4.059  0.1667E-01  0.1842E-01  0.7253E-01  0.6390E-01  0.1059E+01  0.4672E+00
      4.137  0.1884E-01  0.1515E-01  0.7851E-01  0.6385E-01  0.1143E+01  0.4552E+00
      4.215  0.2001E-01  0.1160E-01  0.8163E-01  0.6169E-01  0.1223E+01  0.4189E+00
      4.293  0.1991E-01  0.8412E-02  0.8156E-01  0.5749E-01  0.1290E+01  0.3701E+00
      4.372  0.1846E-01  0.6442E-02  0.7723E-01  0.5360E-01  0.1313E+01  0.3284E+00
      4.450  0.1591E-01  0.5842E-02  0.6812E-01  0.5228E-01  0.1268E+01  0.3072E+00
      4.528  0.1326E-01  0.5891E-02  0.5701E-01  0.5358E-01  0.1161E+01  0.3058E+00
      4.606  0.1144E-01  0.5902E-02  0.4791E-01  0.5616E-01  0.1034E+01  0.3197E+00
      4.684  0.1037E-01  0.5867E-02  0.4336E-01  0.5891E-01  0.9452E+00  0.3451E+00
      4.763  0.9565E-02  0.6036E-02  0.4438E-01  0.6158E-01  0.9161E+00  0.3722E+00
      4.841  0.9056E-02  0.6335E-02  0.4892E-01  0.6436E-01  0.9202E+00  0.3876E+00
      4.919  0.8838E-02  0.6478E-02  0.5108E-01  0.6689E-01  0.9439E+00  0.3887E+00
      4.997  0.8498E-02  0.6401E-02  0.4663E-01  0.6820E-01  0.1015E+01  0.3870E+00
      5.076  0.7910E-02  0.6351E-02  0.3860E-01  0.6801E-01  0.1136E+01  0.3935E+00
      5.154  0.7341E-02  0.6576E-02  0.3291E-01  0.6708E-01  0.1229E+01  0.4089E+00
      5.232  0.6815E-02  0.7085E-02  0.3081E-01  0.6575E-01  0.1209E+01  0.4288E+00
      5.310  0.6218E-02  0.7810E-02  0.2954E-01  0.6351E-01  0.1089E+01  0.4520E+00
      5.389  0.5774E-02  0.8994E-02  0.2788E-01  0.6072E-01  0.9692E+00  0.4852E+00
      5.467  0.5836E-02  0.1105E-01  0.2711E-01  0.5923E-01  0.9327E+00  0.5386E+00
      5.545  0.6377E-02  0.1372E-01  0.2731E-01  0.6034E-01  0.9730E+00  0.6128E+00
      5.623  0.6972E-02  0.1586E-01  0.2637E-01  0.6321E-01  0.1023E+01  0.6945E+00
      5.701  0.7247E-02  0.1657E-01  0.2317E-01  0.6636E-01  0.1026E+01  0.7663E+00
      5.780  0.7294E-02  0.1616E-01  0.1944E-01  0.6928E-01  0.9981E+00  0.8190E+00
      5.858  0.7469E-02  0.1548E-01  0.1736E-01  0.7184E-01  0.1009E+01  0.8535E+00
      5.936  0.7803E-02  0.1471E-01  0.1703E-01  0.7331E-01  0.1100E+01  0.8774E+00
      6.014  0.7943E-02  0.1342E-01  0.1702E-01  0.7319E-01  0.1219E+01  0.8991E+00
      6.093  0.7662E-02  0.1159E-01  0.1640E-01  0.7188E-01  0.1262E+01  0.9154E+00
      6.171  0.7096E-02  0.9854E-02  0.1554E-01  0.6935E-01  0.1183E+01  0.9089E+00
      6.249  0.6670E-02  0.8849E-02  0.1564E-01  0.6437E-01  0.1032E+01  0.8630E+00
      6.327  0.6908E-02  0.8667E-02  0.1788E-01  0.5675E-01  0.8799E+00  0.7829E+00
      6.406  0.7857E-02  0.8828E-02  0.2213E-01  0.4904E-01  0.7463E+00  0.6961E+00
      6.484  0.8909E-02  0.8674E-02  0.2585E-01  0.4393E-01  0.6115E+00  0.6313E+00
      6.562  0.9561E-02  0.7946E-02  0.2616E-01  0.4083E-01  0.4716E+00  0.6043E+00
      6.640  0.9901E-02  0.6982E-02  0.2364E-01  0.3705E-01  0.3511E+00  0.6192E+00
      6.718  0.1019E-01  0.6252E-02  0.2197E-01  0.3193E-01  0.2748E+00  0.6642E+00