       N       E                     dE             d eps       ncg     rms          rms(c)
DAV:   1     0.380757295290E+04    0.38076E+04   -0.16121E+05 23265   0.181E+03
DAV:   2     0.121169824563E+03   -0.36864E+04   -0.34566E+04 23256   0.392E+02
DAV:   3    -0.375329263410E+03   -0.49650E+03   -0.38766E+03 23256   0.186E+02
DAV:   4    -0.405078889723E+03   -0.29750E+02   -0.28190E+02 24849   0.537E+01
DAV:   5    -0.405491346959E+03   -0.41246E+00   -0.41119E+00 25677   0.636E+00    0.764E+01
RMM:   6    -0.394910158705E+03    0.10581E+02   -0.45298E+02 23256   0.731E+01    0.900E+01
RMM:   7    -0.460503245474E+03   -0.65593E+02   -0.12756E+02 23256   0.334E+01    0.131E+02
RMM:   8    -0.406734272634E+03    0.53769E+02   -0.54384E+01 23256   0.232E+01    0.956E+01
RMM:   9    -0.361498825181E+03    0.45235E+02   -0.34215E+01 23256   0.181E+01    0.412E+01
RMM:  10    -0.382567714331E+03   -0.21069E+02   -0.19846E+01 23256   0.133E+01    0.703E+01
RMM:  11    -0.361224579778E+03    0.21343E+02   -0.12728E+01 23256   0.113E+01    0.337E+01
RMM:  12    -0.358089281960E+03    0.31353E+01   -0.32201E+00 23256   0.530E+00    0.207E+01
RMM:  13    -0.358874503589E+03   -0.78522E+00   -0.15551E+00 23256   0.361E+00    0.214E+01
RMM:  14    -0.357752234544E+03    0.11223E+01   -0.74394E-01 23256   0.264E+00    0.129E+01
RMM:  15    -0.357773879850E+03   -0.21645E-01   -0.23745E-01 23256   0.134E+00    0.115E+01
RMM:  16    -0.358127104467E+03   -0.35322E+00   -0.22427E-01 23256   0.132E+00    0.110E+01
RMM:  17    -0.358492386564E+03   -0.36528E+00   -0.35048E-01 23256   0.169E+00    0.118E+01
RMM:  18    -0.359684510265E+03   -0.11921E+01   -0.86342E-01 23256   0.261E+00    0.181E+01
RMM:  19    -0.358729430994E+03    0.95508E+00   -0.66871E-01 23256   0.243E+00    0.791E+00
RMM:  20    -0.358861615788E+03   -0.13218E+00   -0.41062E-01 23256   0.181E+00    0.848E+00
RMM:  21    -0.358758588583E+03    0.10303E+00   -0.16492E-01 23256   0.123E+00    0.484E+00
RMM:  22    -0.358738550760E+03    0.20038E-01   -0.60965E-02 23256   0.734E-01    0.397E+00
RMM:  23    -0.358795429579E+03   -0.56879E-01   -0.39926E-02 23256   0.568E-01    0.378E+00
RMM:  24    -0.358796649825E+03   -0.12202E-02   -0.26059E-02 23256   0.468E-01    0.341E+00
RMM:  25    -0.358819886568E+03   -0.23237E-01   -0.91892E-03 23256   0.242E-01    0.333E+00
RMM:  26    -0.358831719497E+03   -0.11833E-01   -0.51938E-03 23256   0.198E-01    0.342E+00
RMM:  27    -0.358845182178E+03   -0.13463E-01   -0.20271E-03 23256   0.106E-01    0.347E+00
RMM:  28    -0.358843384949E+03    0.17972E-02   -0.17529E-04 23256   0.355E-02    0.347E+00
RMM:  29    -0.358808288881E+03    0.35096E-01   -0.89450E-03 23256   0.236E-01    0.314E+00
RMM:  30    -0.358795507453E+03    0.12781E-01   -0.14505E-02 23256   0.317E-01    0.303E+00
RMM:  31    -0.358774555651E+03    0.20952E-01   -0.47764E-02 23256   0.552E-01    0.252E+00
RMM:  32    -0.358786855830E+03   -0.12300E-01   -0.11414E-02 23256   0.288E-01    0.254E+00
RMM:  33    -0.358801505935E+03   -0.14650E-01   -0.84776E-03 23256   0.257E-01    0.259E+00
RMM:  34    -0.358801603656E+03   -0.97721E-04   -0.32295E-04 23256   0.323E-02    0.260E+00
RMM:  35    -0.358800493102E+03    0.11106E-02   -0.10806E-04 23234   0.305E-02    0.258E+00
RMM:  36    -0.358801614832E+03   -0.11217E-02   -0.22438E-03 23256   0.134E-01    0.256E+00
RMM:  37    -0.358797595925E+03    0.40189E-02   -0.20194E-02 23256   0.367E-01    0.245E+00
RMM:  38    -0.358782887539E+03    0.14708E-01   -0.16867E-02 23256   0.335E-01    0.249E+00
RMM:  39    -0.358767661672E+03    0.15226E-01   -0.31303E-02 23256   0.464E-01    0.289E+00
RMM:  40    -0.358716545612E+03    0.51116E-01   -0.35751E-02 23256   0.511E-01    0.285E+00
RMM:  41    -0.358714789303E+03    0.17563E-02   -0.68092E-03 23256   0.213E-01    0.291E+00
RMM:  42    -0.358715142162E+03   -0.35286E-03   -0.24063E-03 23256   0.142E-01    0.279E+00
RMM:  43    -0.358728833385E+03   -0.13691E-01   -0.15851E-03 23256   0.111E-01    0.270E+00
RMM:  44    -0.358730682020E+03   -0.18486E-02   -0.81726E-04 23256   0.824E-02    0.263E+00
RMM:  45    -0.358736254948E+03   -0.55729E-02   -0.15360E-03 23256   0.928E-02    0.251E+00
RMM:  46    -0.358736511893E+03   -0.25695E-03   -0.53801E-04 23256   0.593E-02    0.246E+00
RMM:  47    -0.358734976123E+03    0.15358E-02   -0.53805E-04 23256   0.557E-02    0.241E+00
RMM:  48    -0.358734856431E+03    0.11969E-03   -0.11028E-04 22839   0.242E-02    0.239E+00
RMM:  49    -0.358735289627E+03   -0.43320E-03   -0.13961E-04 22917   0.272E-02    0.235E+00
RMM:  50    -0.358735661553E+03   -0.37193E-03   -0.87418E-05 21976   0.221E-02    0.232E+00
RMM:  51    -0.358742030312E+03   -0.63688E-02   -0.50575E-03 23256   0.173E-01    0.201E+00
RMM:  52    -0.358746157568E+03   -0.41273E-02   -0.93084E-04 23256   0.676E-02    0.190E+00
RMM:  53    -0.358750360578E+03   -0.42030E-02   -0.84275E-04 23256   0.706E-02    0.178E+00
RMM:  54    -0.358759220456E+03   -0.88599E-02   -0.54325E-03 23256   0.177E-01    0.139E+00
RMM:  55    -0.358761861848E+03   -0.26414E-02   -0.72393E-04 23256   0.600E-02    0.131E+00
RMM:  56    -0.358766200425E+03   -0.43386E-02   -0.70293E-04 23256   0.674E-02    0.117E+00
RMM:  57    -0.358771679560E+03   -0.54791E-02   -0.51325E-04 23256   0.563E-02    0.108E+00
RMM:  58    -0.358776686698E+03   -0.50071E-02   -0.12496E-03 23256   0.886E-02    0.879E-01
RMM:  59    -0.358782495189E+03   -0.58085E-02   -0.52774E-03 23256   0.178E-01    0.461E-01
RMM:  60    -0.358783092719E+03   -0.59753E-03   -0.24189E-04 23256   0.397E-02    0.460E-01
RMM:  61    -0.358784244994E+03   -0.11523E-02   -0.18467E-04 23256   0.344E-02    0.411E-01
RMM:  62    -0.358785031890E+03   -0.78690E-03   -0.36444E-04 23256   0.481E-02    0.300E-01
RMM:  63    -0.358786196552E+03   -0.11647E-02   -0.11467E-03 23256   0.825E-02    0.158E-01
RMM:  64    -0.358786411781E+03   -0.21523E-03   -0.18919E-04 23256   0.324E-02    0.944E-02
RMM:  65    -0.358786499770E+03   -0.87989E-04   -0.59415E-05 21706   0.197E-02    0.515E-02
RMM:  66    -0.358786524758E+03   -0.24988E-04   -0.23369E-05 14558   0.144E-02    0.533E-02
RMM:  67    -0.358786530844E+03   -0.60862E-05   -0.25927E-05 14482   0.145E-02
   1 F= -.35878653E+03 E0= -.35879872E+03  d E =-.358787E+03  mag=    91.7633
       N       E                     dE             d eps       ncg     rms          rms(c)
DAV:   1    -0.358786539541E+03   -0.14783E-04   -0.68528E-02 23814   0.435E-01    0.162E-01
RMM:   2    -0.358789040419E+03   -0.25009E-02   -0.16697E-03 23256   0.130E-01    0.874E-01
RMM:   3    -0.358786973550E+03    0.20669E-02   -0.83772E-04 23256   0.833E-02    0.232E-01
RMM:   4    -0.358787095298E+03   -0.12175E-03   -0.30196E-04 23256   0.516E-02    0.225E-01
RMM:   5    -0.358786900596E+03    0.19470E-03   -0.97686E-05 23122   0.321E-02    0.102E-01
RMM:   6    -0.358786870602E+03    0.29994E-04   -0.18277E-05 14409   0.133E-02    0.615E-02
RMM:   7    -0.358786864461E+03    0.61413E-05   -0.64203E-06 11954   0.760E-03
   2 F= -.35878686E+03 E0= -.35879910E+03  d E =-.333617E-03  mag=    91.7703
