 vasp.5.4.4.18Apr17-6-g9f103f2a35 (build Sep 06 2021 19:49:22) complex          
  
 executed on             LinuxIFC date 2022.01.02  18:43:02
 running on   48 total cores
 distrk:  each k-point on   48 cores,    1 groups
 distr:  one band on NCORES_PER_BAND=  16 cores,    3 groups


--------------------------------------------------------------------------------------------------------


 INCAR:
 POTCAR:    PAW_PBE Fe 06Sep2000                  
 POTCAR:    PAW_PBE Ni 02Aug2007                  

 ----------------------------------------------------------------------------- 
|                                                                             |
|           W    W    AA    RRRRR   N    N  II  N    N   GGGG   !!!           |
|           W    W   A  A   R    R  NN   N  II  NN   N  G    G  !!!           |
|           W    W  A    A  R    R  N N  N  II  N N  N  G       !!!           |
|           W WW W  AAAAAA  RRRRR   N  N N  II  N  N N  G  GGG   !            |
|           WW  WW  A    A  R   R   N   NN  II  N   NN  G    G                |
|           W    W  A    A  R    R  N    N  II  N    N   GGGG   !!!           |
|                                                                             |
|      For optimal performance we recommend to set                            |
|        NCORE= 4 - approx SQRT( number of cores)                             |
|      NCORE specifies how many cores store one orbital (NPAR=cpu/NCORE).     |
|      This setting can  greatly improve the performance of VASP for DFT.     |
|      The default,   NCORE=1            might be grossly inefficient         |
|      on modern multi-core architectures or massively parallel machines.     |
|      Do your own testing !!!!                                               |
|      Unfortunately you need to use the default for GW and RPA calculations. |
|      (for HF NCORE is supported but not extensively tested yet)             |
|                                                                             |
 ----------------------------------------------------------------------------- 

 POTCAR:    PAW_PBE Fe 06Sep2000                  
   VRHFIN =Fe:  d7 s1                                                           
   LEXCH  = PE                                                                  
   EATOM  =   594.3153 eV,   43.6809 Ry                                         
                                                                                
   TITEL  = PAW_PBE Fe 06Sep2000                                                
   LULTRA =        F    use ultrasoft PP ?                                      
   IUNSCR =        1    unscreen: 0-lin 1-nonlin 2-no                           
   RPACOR =    2.000    partial core radius                                     
   POMASS =   55.847; ZVAL   =    8.000    mass and valenz                      
   RCORE  =    2.300    outmost cutoff radius                                   
   RWIGS  =    2.460; RWIGS  =    1.302    wigner-seitz radius (au A)           
   ENMAX  =  267.882; ENMIN  =  200.911 eV                                      
   RCLOC  =    1.701    cutoff for local pot                                    
   LCOR   =        T    correct aug charges                                     
   LPAW   =        T    paw PP                                                  
   EAUG   =  511.368                                                            
   DEXC   =    0.000                                                            
   RMAX   =    2.356    core radius for proj-oper                               
   RAUG   =    1.300    factor for augmentation sphere                          
   RDEP   =    2.442    radius for radial grids                                 
   RDEPT  =    1.890    core radius for aug-charge                              
                                                                                
   Atomic configuration                                                         
    9 entries                                                                   
     n  l   j            E        occ.                                          
     1  0  0.50     -6993.8440   2.0000                                         
     2  0  0.50      -814.6047   2.0000                                         
     2  1  1.50      -693.3689   6.0000                                         
     3  0  0.50       -89.4732   2.0000                                         
     3  1  1.50       -55.6373   6.0000                                         
     3  2  2.50        -3.8151   7.0000                                         
     4  0  0.50        -4.2551   1.0000                                         
     4  1  1.50        -3.4015   0.0000                                         
     4  3  2.50        -1.3606   0.0000                                         
   Description                                                                  
     l       E           TYP  RCUT    TYP  RCUT                                 
     2     -3.8151135     23  2.300                                             
     2     -5.1756961     23  2.300                                             
     0     -4.2550963     23  2.300                                             
     0      7.2035603     23  2.300                                             
     1     -2.7211652     23  2.300                                             
     1     18.4316424     23  2.300                                             
  local pseudopotential read in
  partial core-charges read in
  partial kinetic energy density read in
  atomic valenz-charges read in
  non local Contribution for L=           2  read in
    real space projection operators read in
  non local Contribution for L=           2  read in
    real space projection operators read in
  non local Contribution for L=           0  read in
    real space projection operators read in
  non local Contribution for L=           0  read in
    real space projection operators read in
  non local Contribution for L=           1  read in
    real space projection operators read in
  non local Contribution for L=           1  read in
    real space projection operators read in
    PAW grid and wavefunctions read in
 
   number of l-projection  operators is LMAX  =           6
   number of lm-projection operators is LMMAX =          18
 
 POTCAR:    PAW_PBE Ni 02Aug2007                  
   VRHFIN =Ni:                                                                  
   LEXCH  = PE                                                                  
   EATOM  =  1077.6739 eV,   79.2068 Ry                                         
                                                                                
   TITEL  = PAW_PBE Ni 02Aug2007                                                
   LULTRA =        F    use ultrasoft PP ?                                      
   IUNSCR =        1    unscreen: 0-lin 1-nonlin 2-no                           
   RPACOR =    2.000    partial core radius                                     
   POMASS =   58.690; ZVAL   =   10.000    mass and valenz                      
   RCORE  =    2.300    outmost cutoff radius                                   
   RWIGS  =    2.430; RWIGS  =    1.286    wigner-seitz radius (au A)           
   ENMAX  =  269.532; ENMIN  =  202.149 eV                                      
   RCLOC  =    1.201    cutoff for local pot                                    
   LCOR   =        T    correct aug charges                                     
   LPAW   =        T    paw PP                                                  
   EAUG   =  544.565                                                            
   DEXC   =    0.000                                                            
   RMAX   =    2.357    core radius for proj-oper                               
   RAUG   =    1.300    factor for augmentation sphere                          
   RDEP   =    2.390    radius for radial grids                                 
   RDEPT  =    1.838    core radius for aug-charge                              
                                                                                
   Atomic configuration                                                         
    9 entries                                                                   
     n  l   j            E        occ.                                          
     1  0  0.50     -8206.4253   2.0000                                         
     2  0  0.50      -976.1748   2.0000                                         
     2  1  1.50      -839.0571   6.0000                                         
     3  0  0.50      -105.9991   2.0000                                         
     3  1  1.50       -66.4603   6.0000                                         
     3  2  2.50        -4.6458   9.0000                                         
     4  0  0.50        -4.4926   1.0000                                         
     4  1  1.50        -4.0817   0.0000                                         
     4  3  2.50        -1.3606   0.0000                                         
   Description                                                                  
     l       E           TYP  RCUT    TYP  RCUT                                 
     2     -4.6457903     23  2.300                                             
     2     -6.0063729     23  2.300                                             
     0     -4.4925590     23  2.300                                             
     0      5.0102601     23  2.300                                             
     1     -2.7211652     23  2.300                                             
     1     16.5183231     23  2.300                                             
  local pseudopotential read in
  partial core-charges read in
  partial kinetic energy density read in
  atomic valenz-charges read in
  non local Contribution for L=           2  read in
    real space projection operators read in
  non local Contribution for L=           2  read in
    real space projection operators read in
  non local Contribution for L=           0  read in
    real space projection operators read in
  non local Contribution for L=           0  read in
    real space projection operators read in
  non local Contribution for L=           1  read in
    real space projection operators read in
  non local Contribution for L=           1  read in
    real space projection operators read in
    PAW grid and wavefunctions read in
 
   number of l-projection  operators is LMAX  =           6
   number of lm-projection operators is LMMAX =          18
 
 Optimization of the real space projectors (new method)

 maximal supplied QI-value         = 16.25
 optimisation between [QCUT,QGAM] = [ 11.54, 23.24] = [ 37.28,151.24] Ry 
 Optimized for a Real-space Cutoff    1.53 Angstroem

   l    n(q)    QCUT    max X(q) W(low)/X(q) W(high)/X(q)  e(spline) 
   2     10    11.539    80.901    0.11E-03    0.14E-03    0.21E-06
   2     10    11.539    75.754    0.11E-03    0.14E-03    0.22E-06
   0     11    11.539    58.752    0.52E-04    0.18E-04    0.33E-06
   0     11    11.539    30.679    0.44E-04    0.16E-04    0.30E-06
   1     10    11.539    17.977    0.53E-04    0.29E-04    0.13E-06
   1     10    11.539    13.559    0.44E-04    0.25E-04    0.11E-06
 Optimization of the real space projectors (new method)

 maximal supplied QI-value         = 16.25
 optimisation between [QCUT,QGAM] = [ 11.54, 23.24] = [ 37.28,151.24] Ry 
 Optimized for a Real-space Cutoff    1.45 Angstroem

   l    n(q)    QCUT    max X(q) W(low)/X(q) W(high)/X(q)  e(spline) 
   2      9    11.539    60.317    0.19E-03    0.47E-04    0.16E-06
   2      9    11.539    55.921    0.19E-03    0.48E-04    0.16E-06
   0     10    11.539    51.690    0.80E-04    0.50E-04    0.24E-06
   0     10    11.539    30.015    0.73E-04    0.45E-04    0.22E-06
   1     10    11.539    18.849    0.87E-04    0.16E-03    0.71E-07
   1     10    11.539    14.624    0.73E-04    0.13E-03    0.64E-07
  PAW_PBE Fe 06Sep2000                  :
 energy of atom  1       EATOM= -594.3153
 kinetic energy error for atom=    0.0026 (will be added to EATOM!!)
  PAW_PBE Ni 02Aug2007                  :
 energy of atom  2       EATOM=-1077.6739
 kinetic energy error for atom=    0.0030 (will be added to EATOM!!)
 
 
 POSCAR: POSCAR                                  
  positions in direct lattice
  velocities in cartesian coordinates
 exchange correlation table for  LEXCH =        8
   RHO(1)=    0.500       N(1)  =     2000
   RHO(2)=  100.500       N(2)  =     4000
 


--------------------------------------------------------------------------------------------------------


 ion  position               nearest neighbor table
   1  0.001  0.997  0.997-  36 2.46  32 2.48  27 2.50   4 2.50  37 2.52   7 2.53   3 2.53  21 2.54
                            38 2.54  41 2.54   5 2.56  48 2.58
   2  0.500  0.999  0.998-  33 2.50  11 2.50  39 2.51  47 2.52  37 2.52  40 2.52  24 2.54   8 2.54
                             3 2.55   9 2.56  46 2.56  22 2.56
   3  0.750  0.995  0.004-  35 2.48  46 2.51  38 2.51  48 2.51  27 2.52   1 2.53  10 2.53  41 2.54
                             2 2.55  24 2.55  40 2.55  11 2.60
   4  0.248  0.244  0.994-   7 2.49   1 2.50  37 2.50   6 2.51  18 2.52  39 2.54  43 2.54  14 2.54
                            38 2.55  13 2.55   5 2.56  15 2.60
   5  0.080  0.168  0.331-  38 2.48  10 2.49  42 2.49  48 2.49   7 2.51  43 2.52  41 2.53  15 2.54
                             4 2.56   1 2.56  32 2.56   6 2.58
   6  0.334  0.164  0.324-  32 2.50   4 2.51  39 2.51  37 2.52   9 2.53  17 2.53  33 2.55   8 2.55
                             7 2.56   5 2.58  18 2.60  15 2.61
   7  0.165  0.085  0.661-   4 2.49  43 2.51  36 2.51   5 2.51  41 2.52   1 2.53   9 2.53  34 2.54
                            37 2.55  18 2.55  32 2.55   6 2.56
   8  0.590  0.171  0.327-  40 2.47  10 2.49  19 2.51  17 2.51  39 2.52  11 2.53   2 2.54  46 2.54
                             6 2.55  33 2.56   9 2.58  20 2.61
   9  0.416  0.086  0.664-  39 2.50  37 2.50  11 2.51   6 2.53   7 2.53  33 2.54  18 2.56   2 2.56
                            34 2.56  47 2.56  20 2.58   8 2.58
  10  0.833  0.166  0.333-   5 2.49   8 2.49  48 2.49  46 2.50  42 2.50  38 2.50  40 2.51  41 2.52
                            19 2.53   3 2.53  44 2.54  11 2.54
  11  0.664  0.085  0.667-   2 2.50  40 2.51  35 2.51  20 2.51   9 2.51  46 2.52   8 2.53  47 2.53
                            44 2.53  10 2.54  41 2.55   3 2.60
  12  0.992  0.494  0.000-  16 2.46  40 2.47  44 2.49  31 2.49  21 2.51  13 2.52  19 2.52  23 2.52
                            42 2.53  38 2.54  22 2.57  26 2.60
  13  0.241  0.493  0.996-  43 2.49  38 2.49  42 2.51  15 2.52  12 2.52  45 2.53  26 2.55   4 2.55
                            24 2.56  22 2.57  14 2.57  25 2.61
  14  0.498  0.497  0.001-  18 2.50  30 2.51  15 2.53  24 2.53  39 2.54  45 2.54  17 2.54   4 2.54
                            16 2.56  13 2.57  27 2.57  28 2.59
  15  0.330  0.420  0.332-  42 2.49  25 2.50  43 2.51  13 2.52  45 2.52  18 2.52  14 2.53   5 2.54
                            17 2.57  28 2.58   4 2.60   6 2.61
  16  0.750  0.497  0.011-  12 2.46  17 2.50  20 2.50  19 2.52  39 2.52  40 2.52  27 2.53  21 2.53
                            31 2.56  29 2.56  14 2.56  30 2.56
  17  0.583  0.416  0.338-  18 2.50  16 2.50   8 2.51   6 2.53  28 2.53  14 2.54  20 2.56  19 2.57
                            15 2.57  30 2.58  39 2.58  29 2.61
  18  0.416  0.339  0.664-  45 2.49  17 2.50  14 2.50  43 2.51   4 2.52  15 2.52  30 2.54   7 2.55
                             9 2.56  39 2.56   6 2.60  20 2.60
  19  0.838  0.418  0.344-  44 2.46  42 2.48  23 2.49   8 2.51  20 2.51  29 2.52  16 2.52  12 2.52
                            10 2.53  31 2.54  17 2.57  40 2.60
  20  0.673  0.338  0.676-  39 2.48  44 2.49  40 2.49  16 2.50  19 2.51  11 2.51  31 2.52  30 2.54
                            17 2.56   9 2.58  18 2.60   8 2.61
  21  0.001  0.746  0.990-  31 2.38  22 2.45  34 2.48  27 2.50  12 2.51  16 2.53  36 2.53  23 2.53
                            37 2.54   1 2.54  32 2.56  29 2.58
  22  0.245  0.749  0.993-  21 2.45  37 2.49  23 2.51  47 2.52  34 2.52  26 2.54  24 2.55  33 2.55
                             2 2.56  12 2.57  13 2.57  25 2.58
  23  0.083  0.665  0.328-  29 2.45  19 2.49  26 2.49  22 2.51  42 2.52  12 2.52  25 2.53  34 2.53
                            21 2.53  32 2.55  33 2.56  31 2.58
  24  0.495  0.746  0.001-  25 2.48  45 2.50  14 2.53  35 2.53  47 2.53   2 2.54   3 2.55  22 2.55
                            13 2.56  46 2.57  28 2.58  27 2.62
  25  0.336  0.671  0.334-  33 2.46  24 2.48  47 2.50  15 2.50  46 2.51  26 2.51  45 2.53  23 2.53
                            28 2.57  22 2.58  42 2.59  13 2.61
  26  0.164  0.581  0.658-  42 2.49  23 2.49  44 2.50  31 2.51  25 2.51  43 2.52  45 2.52  22 2.54
                            47 2.55  34 2.55  13 2.55  12 2.60
  27  0.755  0.749  0.009-   1 2.50  30 2.50  21 2.50  28 2.51   3 2.52  16 2.53  29 2.53  36 2.54
                            48 2.55  14 2.57  24 2.62  35 2.62
  28  0.590  0.670  0.340-  48 2.50  27 2.51  35 2.52  30 2.52  46 2.53  17 2.53  45 2.55  29 2.56
                            25 2.57  15 2.58  24 2.58  14 2.59
  29  0.844  0.671  0.343-  23 2.45  31 2.48  32 2.48  36 2.50  19 2.52  27 2.53  16 2.56  28 2.56
                            30 2.57  48 2.57  21 2.58  17 2.61
  30  0.669  0.587  0.676-  27 2.50  14 2.51  36 2.51  28 2.52  31 2.52  20 2.54  18 2.54  35 2.55
                            45 2.56  16 2.56  29 2.57  17 2.58
  31  0.920  0.590  0.676-  21 2.38  34 2.45  29 2.48  12 2.49  26 2.51  20 2.52  30 2.52  36 2.54
                            19 2.54  16 2.56  44 2.57  23 2.58
  32  0.086  0.918  0.324-  29 2.48   1 2.48   6 2.50  37 2.51  34 2.52  23 2.55   7 2.55  21 2.56
                            48 2.56   5 2.56  33 2.57  36 2.61
  33  0.339  0.915  0.331-  25 2.46  46 2.48   2 2.50  47 2.50   9 2.54   6 2.55  22 2.55   8 2.56
                            23 2.56  34 2.56  32 2.57  37 2.58
  34  0.162  0.833  0.660-  31 2.45  21 2.48  37 2.51  32 2.52  36 2.52  22 2.52  23 2.53   7 2.54
                            26 2.55   9 2.56  33 2.56  47 2.58
  35  0.665  0.837  0.670-   3 2.48  47 2.49  46 2.49  11 2.51  28 2.52  48 2.53  24 2.53  36 2.53
                            45 2.55  41 2.55  30 2.55  27 2.62
  36  0.915  0.838  0.668-   1 2.46  48 2.47  29 2.50   7 2.51  30 2.51  34 2.52  41 2.52  35 2.53
                            21 2.53  27 2.54  31 2.54  32 2.61
  37  0.250  0.998  0.992-  22 2.49   9 2.50   4 2.50  32 2.51  34 2.51   1 2.52   2 2.52   6 2.52
                            39 2.53  21 2.54   7 2.55  33 2.58
  38  0.996  0.245  0.001-  41 2.46   5 2.48  13 2.49  40 2.50  10 2.50   3 2.51  42 2.53  12 2.54
                             1 2.54  44 2.54   4 2.55  43 2.56
  39  0.501  0.248  0.995-  20 2.48   9 2.50   6 2.51   2 2.51   8 2.52  16 2.52  40 2.53  37 2.53
                             4 2.54  14 2.54  18 2.56  17 2.58
  40  0.750  0.247  0.000-   8 2.47  12 2.47  20 2.49  38 2.50  11 2.51  10 2.51   2 2.52  44 2.52
                            16 2.52  39 2.53   3 2.55  19 2.60
  41  0.918  0.089  0.670-  38 2.46  44 2.48  43 2.48   7 2.52  48 2.52  10 2.52  36 2.52   5 2.53
                             3 2.54   1 2.54  11 2.55  35 2.55
  42  0.081  0.414  0.332-  19 2.48  26 2.49   5 2.49  15 2.49  10 2.50  43 2.51  13 2.51  23 2.52
                            44 2.53  12 2.53  38 2.53  25 2.59
  43  0.165  0.333  0.664-  41 2.48  13 2.49   7 2.51  18 2.51  15 2.51  42 2.51   5 2.52  26 2.52
                            44 2.52  45 2.53   4 2.54  38 2.56
  44  0.916  0.334  0.668-  19 2.46  41 2.48  20 2.49  12 2.49  26 2.50  43 2.52  40 2.52  42 2.53
                            11 2.53  10 2.54  38 2.54  31 2.57
  45  0.414  0.583  0.668-  18 2.49  24 2.50  47 2.51  15 2.52  26 2.52  43 2.53  25 2.53  13 2.53
                            14 2.54  28 2.55  35 2.55  30 2.56
  46  0.586  0.918  0.337-  33 2.48  35 2.49  48 2.50  10 2.50   3 2.51  25 2.51  11 2.52  47 2.52
                            28 2.53   8 2.54   2 2.56  24 2.57
  47  0.416  0.833  0.666-  35 2.49  25 2.50  33 2.50  45 2.51   2 2.52  22 2.52  46 2.52  11 2.53
                            24 2.53  26 2.55   9 2.56  34 2.58
  48  0.835  0.920  0.341-  36 2.47   5 2.49  10 2.49  28 2.50  46 2.50   3 2.51  41 2.52  35 2.53
                            27 2.55  32 2.56  29 2.57   1 2.58
 

IMPORTANT INFORMATION: All symmetrisations will be switched off!
NOSYMM: (Re-)initialisation of all symmetry stuff for point group C_1.

 
 

Automatic generation of k-mesh.
 generate k-points for:    3    3    4
Space group operators:
 irot       det(A)        alpha          n_x          n_y          n_z        tau_x        tau_y        tau_z
    1     1.000000     0.000001     1.000000     0.000000     0.000000     0.000000     0.000000     0.000000
 
 Subroutine IBZKPT returns following result:
 ===========================================
 
 Found     19 irreducible k-points:
 
 Following reciprocal coordinates:
            Coordinates               Weight
  0.000000  0.000000  0.000000      1.000000
  0.333333  0.000000  0.000000      2.000000
  0.000000  0.333333  0.000000      2.000000
  0.333333  0.333333  0.000000      2.000000
 -0.333333  0.333333  0.000000      2.000000
  0.000000  0.000000  0.250000      2.000000
  0.333333  0.000000  0.250000      2.000000
 -0.333333  0.000000  0.250000      2.000000
  0.000000  0.333333  0.250000      2.000000
  0.333333  0.333333  0.250000      2.000000
 -0.333333  0.333333  0.250000      2.000000
  0.000000 -0.333333  0.250000      2.000000
  0.333333 -0.333333  0.250000      2.000000
 -0.333333 -0.333333  0.250000      2.000000
  0.000000  0.000000  0.500000      1.000000
  0.333333  0.000000  0.500000      2.000000
  0.000000  0.333333  0.500000      2.000000
  0.333333  0.333333  0.500000      2.000000
 -0.333333  0.333333  0.500000      2.000000
 
 Following cartesian coordinates:
            Coordinates               Weight
  0.000000  0.000000 -0.000000      1.000000
  0.111111 -0.055556 -0.055556      2.000000
  0.055556  0.055556 -0.111111      2.000000
  0.166667  0.000000 -0.166667      2.000000
 -0.055556  0.111111 -0.055556      2.000000
  0.083333  0.083333  0.083333      2.000000
  0.194444  0.027778  0.027778      2.000000
 -0.027778  0.138889  0.138889      2.000000
  0.138889  0.138889 -0.027778      2.000000
  0.250000  0.083333 -0.083333      2.000000
  0.027778  0.194444  0.027778      2.000000
  0.027778  0.027778  0.194444      2.000000
  0.138889 -0.027778  0.138889      2.000000
 -0.083333  0.083333  0.250000      2.000000
  0.166667  0.166667  0.166667      1.000000
  0.277778  0.111111  0.111111      2.000000
  0.222222  0.222222  0.055556      2.000000
  0.333333  0.166667 -0.000000      2.000000
  0.111111  0.277778  0.111111      2.000000
 


--------------------------------------------------------------------------------------------------------




 Dimension of arrays:
   k-points           NKPTS =     19   k-points in BZ     NKDIM =     19   number of bands    NBANDS=    306
   number of dos      NEDOS =    301   number of ions     NIONS =     48
   non local maximal  LDIM  =      6   non local SUM 2l+1 LMDIM =     18
   total plane-waves  NPLWV = 307200
   max r-space proj   IRMAX =   8518   max aug-charges    IRDMAX=  20156
   dimension x,y,z NGX =    80 NGY =   80 NGZ =   48
   dimension x,y,z NGXF=   160 NGYF=  160 NGZF=   96
   support grid    NGXF=   160 NGYF=  160 NGZF=   96
   ions per type =              36  12
   NGX,Y,Z   is equivalent  to a cutoff of  13.15, 13.15, 12.89 a.u.
   NGXF,Y,Z  is equivalent  to a cutoff of  26.31, 26.31, 25.77 a.u.

 SYSTEM =  SQS-NiFe                                
 POSCAR =  POSCAR                                  

 Startparameter for this run:
   NWRITE =      2    write-flag & timer
   PREC   = accura    normal or accurate (medium, high low for compatibility)
   ISTART =      0    job   : 0-new  1-cont  2-samecut
   ICHARG =      2    charge: 1-file 2-atom 10-const
   ISPIN  =      2    spin polarized calculation?
   LNONCOLLINEAR =      F non collinear calculations
   LSORBIT =      F    spin-orbit coupling
   INIWAV =      1    electr: 0-lowe 1-rand  2-diag
   LASPH  =      F    aspherical Exc in radial PAW
   METAGGA=      F    non-selfconsistent MetaGGA calc.

 Electronic Relaxation 1
   ENCUT  =  520.0 eV  38.22 Ry    6.18 a.u.  18.80 18.80 11.51*2*pi/ulx,y,z
   ENINI  =  520.0     initial cutoff
   ENAUG  =  544.6 eV  augmentation charge cutoff
   NELM   =    200;   NELMIN=  2; NELMDL= -5     # of ELM steps 
   EDIFF  = 0.1E-04   stopping-criterion for ELM
   LREAL  =      T    real-space projection
   NLSPLINE    = F    spline interpolate recip. space projectors
   LCOMPAT=      F    compatible to vasp.4.4
   GGA_COMPAT  = T    GGA compatible to vasp.4.4-vasp.4.6
   LMAXPAW     = -100 max onsite density
   LMAXMIX     =    2 max onsite mixed and CHGCAR
   VOSKOWN=      0    Vosko Wilk Nusair interpolation
   ROPT   =   -0.00025  -0.00025
 Ionic relaxation
   EDIFFG = -.2E-01   stopping-criterion for IOM
   NSW    =     99    number of steps for IOM
   NBLOCK =      1;   KBLOCK =     99    inner block; outer block 
   IBRION =      2    ionic relax: 0-MD 1-quasi-New 2-CG
   NFREE  =      1    steps in history (QN), initial steepest desc. (CG)
   ISIF   =      2    stress and relaxation
   IWAVPR =     11    prediction:  0-non 1-charg 2-wave 3-comb
   ISYM   =      0    0-nonsym 1-usesym 2-fastsym
   LCORR  =      T    Harris-Foulkes like correction to forces

   POTIM  = 0.5000    time-step for ionic-motion
   TEIN   =    0.0    initial temperature
   TEBEG  =    0.0;   TEEND  =   0.0 temperature during run
   SMASS  =  -3.00    Nose mass-parameter (am)
   estimated Nose-frequenzy (Omega)   =  0.10E-29 period in steps =****** mass=  -0.234E-26a.u.
   SCALEE = 1.0000    scale energy and forces
   NPACO  =    256;   APACO  = 16.0  distance and # of slots for P.C.
   PSTRESS=    0.0 pullay stress

  Mass of Ions in am
   POMASS =  55.85 58.69
  Ionic Valenz
   ZVAL   =   8.00 10.00
  Atomic Wigner-Seitz radii
   RWIGS  =  -1.00 -1.00
  virtual crystal weights 
   VCA    =   1.00  1.00
   NELECT =     408.0000    total number of electrons
   NUPDOWN=      -1.0000    fix difference up-down

 DOS related values:
   EMIN   =  10.00;   EMAX   =-10.00  energy-range for DOS
   EFERMI =   0.00
   ISMEAR =     1;   SIGMA  =   0.20  broadening in eV -4-tet -1-fermi 0-gaus

 Electronic relaxation 2 (details)
   IALGO  =     68    algorithm
   LDIAG  =      T    sub-space diagonalisation (order eigenvalues)
   LSUBROT=      F    optimize rotation matrix (better conditioning)
   TURBO    =      0    0=normal 1=particle mesh
   IRESTART =      0    0=no restart 2=restart with 2 vectors
   NREBOOT  =      0    no. of reboots
   NMIN     =      0    reboot dimension
   EREF     =   0.00    reference energy to select bands
   IMIX   =      4    mixing-type and parameters
     AMIX     =   0.40;   BMIX     =  1.00
     AMIX_MAG =   1.60;   BMIX_MAG =  1.00
     AMIN     =   0.10
     WC   =   100.;   INIMIX=   1;  MIXPRE=   1;  MAXMIX= -45

 Intra band minimization:
   WEIMIN = 0.0010     energy-eigenvalue tresh-hold
   EBREAK =  0.82E-08  absolut break condition
   DEPER  =   0.30     relativ break condition  

   TIME   =   0.40     timestep for ELM

  volume/ion in A,a.u.               =      11.42        77.08
  Fermi-wavevector in a.u.,A,eV,Ry     =   1.483514  2.803436 29.943904  2.200815
  Thomas-Fermi vector in A             =   2.597166
 
 Write flags
   LWAVE        =      F    write WAVECAR
   LDOWNSAMPLE  =      F    k-point downsampling of WAVECAR
   LCHARG       =      F    write CHGCAR
   LVTOT        =      F    write LOCPOT, total local potential
   LVHAR        =      F    write LOCPOT, Hartree potential only
   LELF         =      F    write electronic localiz. function (ELF)
   LORBIT       =     10    0 simple, 1 ext, 2 COOP (PROOUT), +10 PAW based schemes


 Dipole corrections
   LMONO  =      F    monopole corrections only (constant potential shift)
   LDIPOL =      F    correct potential (dipole corrections)
   IDIPOL =      0    1-x, 2-y, 3-z, 4-all directions 
   EPSILON=  1.0000000 bulk dielectric constant

 Exchange correlation treatment:
   GGA     =    --    GGA type
   LEXCH   =     8    internal setting for exchange type
   VOSKOWN=      0    Vosko Wilk Nusair interpolation
   LHFCALC =     F    Hartree Fock is set to
   LHFONE  =     F    Hartree Fock one center treatment
   AEXX    =    0.0000 exact exchange contribution

 Linear response parameters
   LEPSILON=     F    determine dielectric tensor
   LRPA    =     F    only Hartree local field effects (RPA)
   LNABLA  =     F    use nabla operator in PAW spheres
   LVEL    =     F    velocity operator in full k-point grid
   LINTERFAST=   F  fast interpolation
   KINTER  =     0    interpolate to denser k-point grid
   CSHIFT  =0.1000    complex shift for real part using Kramers Kronig
   OMEGAMAX=  -1.0    maximum frequency
   DEG_THRESHOLD= 0.2000000E-02 threshold for treating states as degnerate
   RTIME   =   -0.100 relaxation time in fs
  (WPLASMAI=    0.000 imaginary part of plasma frequency in eV, 0.658/RTIME)
   DFIELD  = 0.0000000 0.0000000 0.0000000 field for delta impulse in time
 
 Orbital magnetization related:
   ORBITALMAG=     F  switch on orbital magnetization
   LCHIMAG   =     F  perturbation theory with respect to B field
   DQ        =  0.001000  dq finite difference perturbation B field
   LLRAUG    =     F  two centre corrections for induced B field



--------------------------------------------------------------------------------------------------------


 conjugate gradient relaxation of ions
 charge density and potential will be updated during run
 spin polarized calculation
 RMM-DIIS sequential band-by-band and
  variant of blocked Davidson during initial phase
 perform sub-space diagonalisation
    before iterative eigenvector-optimisation
 modified Broyden-mixing scheme, WC =      100.0
 initial mixing is a Kerker type mixing with AMIX =  0.4000 and BMIX =      1.0000
 Hartree-type preconditioning will be used
 using additional bands          102
 real space projection scheme for non local part
 use partial core corrections
 calculate Harris-corrections to forces 
   (improved forces if not selfconsistent)
 use gradient corrections 
 use of overlap-Matrix (Vanderbilt PP)
 Methfessel and Paxton  Order N= 1 SIGMA  =   0.20


--------------------------------------------------------------------------------------------------------


  energy-cutoff  :      520.00
  volume of cell :      548.29
      direct lattice vectors                 reciprocal lattice vectors
     7.150000000 -7.150000000  0.000000000     0.093240093 -0.046620047 -0.046620047
     0.000000000  7.150000000 -7.150000000     0.046620047  0.046620047 -0.093240093
     3.575000000  3.575000000  3.575000000     0.093240093  0.093240093  0.093240093

  length of vectors
    10.111626971 10.111626971  6.192081637     0.114195326  0.114195326  0.161496579


 
 k-points in units of 2pi/SCALE and weight: read from INCAR                         
   0.00000000  0.00000000 -0.00000000       0.028
   0.11111111 -0.05555556 -0.05555556       0.056
   0.05555556  0.05555556 -0.11111111       0.056
   0.16666667  0.00000000 -0.16666667       0.056
  -0.05555556  0.11111111 -0.05555556       0.056
   0.08333333  0.08333333  0.08333333       0.056
   0.19444444  0.02777778  0.02777778       0.056
  -0.02777778  0.13888889  0.13888889       0.056
   0.13888889  0.13888889 -0.02777778       0.056
   0.25000000  0.08333333 -0.08333333       0.056
   0.02777778  0.19444444  0.02777778       0.056
   0.02777778  0.02777778  0.19444444       0.056
   0.13888889 -0.02777778  0.13888889       0.056
  -0.08333333  0.08333333  0.25000000       0.056
   0.16666667  0.16666667  0.16666667       0.028
   0.27777778  0.11111111  0.11111111       0.056
   0.22222222  0.22222222  0.05555556       0.056
   0.33333333  0.16666667 -0.00000000       0.056
   0.11111111  0.27777778  0.11111111       0.056
 
 k-points in reciprocal lattice and weights: read from INCAR                         
   0.00000000  0.00000000  0.00000000       0.028
   0.33333333  0.00000000  0.00000000       0.056
   0.00000000  0.33333333  0.00000000       0.056
   0.33333333  0.33333333  0.00000000       0.056
  -0.33333333  0.33333333  0.00000000       0.056
   0.00000000  0.00000000  0.25000000       0.056
   0.33333333  0.00000000  0.25000000       0.056
  -0.33333333  0.00000000  0.25000000       0.056
   0.00000000  0.33333333  0.25000000       0.056
   0.33333333  0.33333333  0.25000000       0.056
  -0.33333333  0.33333333  0.25000000       0.056
   0.00000000 -0.33333333  0.25000000       0.056
   0.33333333 -0.33333333  0.25000000       0.056
  -0.33333333 -0.33333333  0.25000000       0.056
   0.00000000  0.00000000  0.50000000       0.028
   0.33333333  0.00000000  0.50000000       0.056
   0.00000000  0.33333333  0.50000000       0.056
   0.33333333  0.33333333  0.50000000       0.056
  -0.33333333  0.33333333  0.50000000       0.056
 
 position of ions in fractional coordinates (direct lattice) 
   0.00088456  0.99650762  0.99678117
   0.50017884  0.99895357  0.99783740
   0.74983836  0.99491348  0.00388019
   0.24809603  0.24402056  0.99394515
   0.08020644  0.16775773  0.33132061
   0.33396471  0.16439706  0.32440558
   0.16487010  0.08520959  0.66134731
   0.58977117  0.17105563  0.32737271
   0.41561772  0.08571001  0.66357530
   0.83345133  0.16622687  0.33344346
   0.66395642  0.08531251  0.66685792
   0.99212034  0.49365492  0.00022939
   0.24134642  0.49311829  0.99628915
   0.49787687  0.49720412  0.00072942
   0.33016814  0.42037113  0.33249366
   0.75046707  0.49683771  0.01142874
   0.58254706  0.41593594  0.33763983
   0.41580183  0.33860401  0.66446321
   0.83783473  0.41836014  0.34438762
   0.67269985  0.33793809  0.67577964
   0.00088564  0.74572797  0.99032110
   0.24450860  0.74890798  0.99308143
   0.08312969  0.66456415  0.32824003
   0.49505506  0.74568574  0.00118092
   0.33632037  0.67092290  0.33362973
   0.16356660  0.58131926  0.65775454
   0.75521564  0.74889046  0.00888752
   0.59007801  0.67001801  0.34011974
   0.84386842  0.67054812  0.34297406
   0.66925591  0.58743057  0.67636878
   0.92012839  0.58977491  0.67581847
   0.08628254  0.91780128  0.32368192
   0.33907673  0.91528799  0.33100597
   0.16174135  0.83270414  0.66048115
   0.66454320  0.83741638  0.67029404
   0.91541814  0.83842857  0.66796818
   0.25041165  0.99762859  0.99203679
   0.99645345  0.24512328  0.00103723
   0.50084185  0.24789014  0.99493641
   0.75023618  0.24726716  0.00029643
   0.91780608  0.08892430  0.67016999
   0.08074242  0.41433488  0.33244119
   0.16506836  0.33306148  0.66363954
   0.91639014  0.33387471  0.66755081
   0.41404830  0.58349025  0.66801985
   0.58618838  0.91811211  0.33671067
   0.41636990  0.83260815  0.66622255
   0.83467101  0.92016753  0.34092351
 
 position of ions in cartesian coordinates  (Angst):
   3.56981727 10.68219758 -3.56153683
   7.14354740  7.13350799 -3.57524931
   5.37521593  1.76615876 -7.09975968
   5.32724052  3.52421428  1.80860690
   1.75794723  1.81046293 -0.01499660
   3.54759763 -0.05265876 -0.01568904
   3.54313789  1.79474399  1.75506806
   5.38722131 -1.82345868 -0.05269027
   5.34394838  0.01344161  1.75945513
   7.15123737 -3.57859451  0.00353824
   7.13130544 -1.75328690  1.77403265
   7.09448051 -3.56320769 -3.52881260
   5.28736061  5.36190257  0.03593790
   3.56242730 -0.00220251 -3.55240180
   3.54936706  1.83361617 -1.81698875
   5.40669728 -1.77259216 -3.51153189
   5.37227382  0.01579289 -1.76687959
   5.34843902  1.82349157 -0.04556268
   7.22170408 -1.76805756 -1.76008929
   7.22571614  0.02236562 -0.00034513
   3.54673026  8.86602054 -1.79155704
   5.29850262  7.15672167 -1.80442592
   1.76783542  5.33071447 -3.57817553
   3.54386549  1.79623117 -5.32743127
   3.59741695  3.58513436 -3.60437244
   3.52097366  5.33840395 -1.80496021
   5.43156468 -0.01345208 -5.32279393
   5.43498585  1.78749906 -3.57470072
   7.25979144 -0.01310790 -3.56828676
   7.20319812  1.83296727 -1.78211021
   8.99496902  0.05402367 -1.80083962
   1.77408303  7.10252183 -5.40511626
   3.60774495  5.30325686 -5.36096274
   3.51767076  7.15860410 -3.59261448
   7.14778507  3.63234446 -3.59122592
   8.93322594  1.83751081 -3.60677803
   5.33697484  8.88913262 -3.58651292
   7.12835027 -5.36830256 -1.74892338
   7.13791688  1.74829295  1.78448313
   5.36524841 -3.59516874 -1.76690050
   8.95817119 -3.53064701  1.76004897
   1.76578561  3.57366333 -1.77401712
   3.55275015  3.57366217 -0.00887825
   8.93868361 -1.77849112 -0.00071006
   5.34861633  3.59968089 -1.78378436
   5.39498753  3.57699529 -5.36076093
   5.35879040  5.35784913 -3.57140265
   7.18669930  1.83010163 -5.36039624
 


--------------------------------------------------------------------------------------------------------


 k-point  1 :   0.0000 0.0000 0.0000  plane waves:   14789
 k-point  2 :   0.3333 0.0000 0.0000  plane waves:   14764
 k-point  3 :   0.0000 0.3333 0.0000  plane waves:   14764
 k-point  4 :   0.3333 0.3333 0.0000  plane waves:   14805
 k-point  5 :  -0.3333 0.3333 0.0000  plane waves:   14764
 k-point  6 :   0.0000 0.0000 0.2500  plane waves:   14729
 k-point  7 :   0.3333 0.0000 0.2500  plane waves:   14755
 k-point  8 :  -0.3333 0.0000 0.2500  plane waves:   14755
 k-point  9 :   0.0000 0.3333 0.2500  plane waves:   14755
 k-point 10 :   0.3333 0.3333 0.2500  plane waves:   14763
 k-point 11 :  -0.3333 0.3333 0.2500  plane waves:   14755
 k-point 12 :   0.0000-0.3333 0.2500  plane waves:   14755
 k-point 13 :   0.3333-0.3333 0.2500  plane waves:   14755
 k-point 14 :  -0.3333-0.3333 0.2500  plane waves:   14763
 k-point 15 :   0.0000 0.0000 0.5000  plane waves:   14748
 k-point 16 :   0.3333 0.0000 0.5000  plane waves:   14722
 k-point 17 :   0.0000 0.3333 0.5000  plane waves:   14722
 k-point 18 :   0.3333 0.3333 0.5000  plane waves:   14736
 k-point 19 :  -0.3333 0.3333 0.5000  plane waves:   14722

 maximum and minimum number of plane-waves per node :       954      893

 maximum number of plane-waves:     14805
 maximum index in each direction: 
   IXMAX=   19   IYMAX=   19   IZMAX=   11
   IXMIN=  -19   IYMIN=  -19   IZMIN=  -12


 real space projection operators:
  total allocation   :      53222.20 KBytes
  max/ min on nodes  :       3334.36       3315.94


 parallel 3D FFT for wavefunctions:
    minimum data exchange during FFTs selected (reduces bandwidth)
 parallel 3D FFT for charge:
    minimum data exchange during FFTs selected (reduces bandwidth)


 total amount of memory used by VASP MPI-rank0   110750. kBytes
=======================================================================

   base      :      30000. kBytes
   nonlr-proj:      11047. kBytes
   fftplans  :       2600. kBytes
   grid      :       6545. kBytes
   one-center:         93. kBytes
   wavefun   :      60465. kBytes
 
     INWAV:  cpu time    0.0000: real time    0.0001
 Broyden mixing: mesh for mixing (old mesh)
   NGX = 37   NGY = 37   NGZ = 23
  (NGX  =160   NGY  =160   NGZ  = 96)
  gives a total of  31487 points

 initial charge density was supplied:
 charge density of overlapping atoms calculated
 number of electron     408.0000000 magnetization     120.0000000
 keeping initial charge density in first step


--------------------------------------------------------------------------------------------------------


 Maximum index for non-local projection operator          592
 Maximum index for augmentation-charges         1173 (set IRDMAX)


--------------------------------------------------------------------------------------------------------


 First call to EWALD:  gamma=   0.217
 Maximum number of real-space cells 3x 3x 3
 Maximum number of reciprocal cells 3x 3x 2

    FEWALD:  cpu time    0.0040: real time    0.0058


--------------------------------------- Iteration      1(   1)  ---------------------------------------


    POTLOK:  cpu time    0.1020: real time    4.5079
    SETDIJ:  cpu time    0.0210: real time    0.0266
     EDDAV:  cpu time   34.9987: real time   36.0450
       DOS:  cpu time    0.0120: real time    0.0129
    --------------------------------------------
      LOOP:  cpu time   35.1337: real time   40.5924

 eigenvalue-minimisations  : 23265
 total energy-change (2. order) : 0.3807573E+04  (-0.1612090E+05)
 number of electron     408.0000000 magnetization     120.0000000
 augmentation part      408.0000000 magnetization     120.0000000

 Free energy of the ion-electron system (eV)
  ---------------------------------------------------
  alpha Z        PSCENC =      2769.74827871
  Ewald energy   TEWEN  =    -32031.15906154
  -Hartree energ DENC   =     -7391.44084305
  -exchange      EXHF   =         0.00000000
  -V(xc)+E(xc)   XCENC  =       561.41215349
  PAW double counting   =     31489.33169000   -32569.51888320
  entropy T*S    EENTRO =        -0.00176798
  eigenvalues    EBANDS =      6651.89384831
  atomic energy  EATOM  =     34327.30753815
  Solvation  Ediel_sol  =         0.00000000
  ---------------------------------------------------
  free energy    TOTEN  =      3807.57295290 eV

  energy without entropy =     3807.57472088  energy(sigma->0) =     3807.57354222


--------------------------------------------------------------------------------------------------------




--------------------------------------- Iteration      1(   2)  ---------------------------------------


     EDDAV:  cpu time   35.2946: real time   35.8647
       DOS:  cpu time    0.0170: real time    0.0162
    --------------------------------------------
      LOOP:  cpu time   35.3116: real time   35.8809

 eigenvalue-minimisations  : 23256
 total energy-change (2. order) :-0.3686403E+04  (-0.3456596E+04)
 number of electron     408.0000000 magnetization     120.0000000
 augmentation part      408.0000000 magnetization     120.0000000

 Free energy of the ion-electron system (eV)
  ---------------------------------------------------
  alpha Z        PSCENC =      2769.74827871
  Ewald energy   TEWEN  =    -32031.15906154
  -Hartree energ DENC   =     -7391.44084305
  -exchange      EXHF   =         0.00000000
  -V(xc)+E(xc)   XCENC  =       561.41215349
  PAW double counting   =     31489.33169000   -32569.51888320
  entropy T*S    EENTRO =         0.00822225
  eigenvalues    EBANDS =      2965.48072975
  atomic energy  EATOM  =     34327.30753815
  Solvation  Ediel_sol  =         0.00000000
  ---------------------------------------------------
  free energy    TOTEN  =       121.16982456 eV

  energy without entropy =      121.16160231  energy(sigma->0) =      121.16708381


--------------------------------------------------------------------------------------------------------




--------------------------------------- Iteration      1(   3)  ---------------------------------------


     EDDAV:  cpu time   34.1898: real time   34.4459
       DOS:  cpu time    0.0190: real time    0.0182
    --------------------------------------------
      LOOP:  cpu time   34.2088: real time   34.4641

 eigenvalue-minimisations  : 23256
 total energy-change (2. order) :-0.4964991E+03  (-0.3876588E+03)
 number of electron     408.0000000 magnetization     120.0000000
 augmentation part      408.0000000 magnetization     120.0000000

 Free energy of the ion-electron system (eV)
  ---------------------------------------------------
  alpha Z        PSCENC =      2769.74827871
  Ewald energy   TEWEN  =    -32031.15906154
  -Hartree energ DENC   =     -7391.44084305
  -exchange      EXHF   =         0.00000000
  -V(xc)+E(xc)   XCENC  =       561.41215349
  PAW double counting   =     31489.33169000   -32569.51888320
  entropy T*S    EENTRO =        -0.03660897
  eigenvalues    EBANDS =      2469.02647299
  atomic energy  EATOM  =     34327.30753815
  Solvation  Ediel_sol  =         0.00000000
  ---------------------------------------------------
  free energy    TOTEN  =      -375.32926341 eV

  energy without entropy =     -375.29265444  energy(sigma->0) =     -375.31706042


--------------------------------------------------------------------------------------------------------




--------------------------------------- Iteration      1(   4)  ---------------------------------------


     EDDAV:  cpu time   36.7424: real time   37.0458
       DOS:  cpu time    0.0200: real time    0.0194
    --------------------------------------------
      LOOP:  cpu time   36.7624: real time   37.0652

 eigenvalue-minimisations  : 24849
 total energy-change (2. order) :-0.2974963E+02  (-0.2819047E+02)
 number of electron     408.0000000 magnetization     120.0000000
 augmentation part      408.0000000 magnetization     120.0000000

 Free energy of the ion-electron system (eV)
  ---------------------------------------------------
  alpha Z        PSCENC =      2769.74827871
  Ewald energy   TEWEN  =    -32031.15906154
  -Hartree energ DENC   =     -7391.44084305
  -exchange      EXHF   =         0.00000000
  -V(xc)+E(xc)   XCENC  =       561.41215349
  PAW double counting   =     31489.33169000   -32569.51888320
  entropy T*S    EENTRO =        -0.04600629
  eigenvalues    EBANDS =      2439.28624401
  atomic energy  EATOM  =     34327.30753815
  Solvation  Ediel_sol  =         0.00000000
  ---------------------------------------------------
  free energy    TOTEN  =      -405.07888972 eV

  energy without entropy =     -405.03288343  energy(sigma->0) =     -405.06355429


--------------------------------------------------------------------------------------------------------




--------------------------------------- Iteration      1(   5)  ---------------------------------------


     EDDAV:  cpu time   37.6223: real time   38.0219
       DOS:  cpu time    0.0200: real time    0.0185
    CHARGE:  cpu time    1.0318: real time    1.0387
    MIXING:  cpu time    0.0040: real time    0.0062
    --------------------------------------------
      LOOP:  cpu time   38.6781: real time   39.0853

 eigenvalue-minimisations  : 25677
 total energy-change (2. order) :-0.4124572E+00  (-0.4111945E+00)
 number of electron     408.0000017 magnetization     101.3854370
 augmentation part      196.8111163 magnetization      77.9537045

 Broyden mixing:
  rms(total) = 0.76421E+01    rms(broyden)= 0.76420E+01
  rms(prec ) = 0.93177E+01
  weight for this iteration     100.00

 Free energy of the ion-electron system (eV)
  ---------------------------------------------------
  alpha Z        PSCENC =      2769.74827871
  Ewald energy   TEWEN  =    -32031.15906154
  -Hartree energ DENC   =     -7391.44084305
  -exchange      EXHF   =         0.00000000
  -V(xc)+E(xc)   XCENC  =       561.41215349
  PAW double counting   =     31489.33169000   -32569.51888320
  entropy T*S    EENTRO =        -0.04603449
  eigenvalues    EBANDS =      2438.87381497
  atomic energy  EATOM  =     34327.30753815
  Solvation  Ediel_sol  =         0.00000000
  ---------------------------------------------------
  free energy    TOTEN  =      -405.49134696 eV

  energy without entropy =     -405.44531247  energy(sigma->0) =     -405.47600213


--------------------------------------------------------------------------------------------------------




--------------------------------------- Iteration      1(   6)  ---------------------------------------


    POTLOK:  cpu time    0.0910: real time    0.0918
    SETDIJ:  cpu time    0.0160: real time    0.0164
    EDDIAG:  cpu time    5.2862: real time    5.3200
  RMM-DIIS:  cpu time   20.0949: real time   20.2203
    ORTHCH:  cpu time    0.8849: real time    0.9326
       DOS:  cpu time    0.0200: real time    0.0196
    CHARGE:  cpu time    0.9429: real time    0.9465
    MIXING:  cpu time    0.0030: real time    0.0042
    --------------------------------------------
      LOOP:  cpu time   27.3388: real time   27.5514

 eigenvalue-minimisations  : 23256
 total energy-change (2. order) : 0.1058119E+02  (-0.4529837E+02)
 number of electron     408.0000023 magnetization      97.0280109
 augmentation part      233.6554167 magnetization      78.9135939

 Broyden mixing:
  rms(total) = 0.90015E+01    rms(broyden)= 0.90013E+01
  rms(prec ) = 0.15595E+02
  weight for this iteration     100.00

 eigenvalues of (default mixing * dielectric matrix)
  average eigenvalue GAMMA=   0.3681
  0.3681

 Free energy of the ion-electron system (eV)
  ---------------------------------------------------
  alpha Z        PSCENC =      2769.74827871
  Ewald energy   TEWEN  =    -32031.15906154
  -Hartree energ DENC   =     -6461.85238843
  -exchange      EXHF   =         0.00000000
  -V(xc)+E(xc)   XCENC  =       507.24112139
  PAW double counting   =     34092.82144704   -35036.83205052
  entropy T*S    EENTRO =        -0.00454996
  eigenvalues    EBANDS =      1437.81950647
  atomic energy  EATOM  =     34327.30753815
  Solvation  Ediel_sol  =         0.00000000
  ---------------------------------------------------
  free energy    TOTEN  =      -394.91015871 eV

  energy without entropy =     -394.90560874  energy(sigma->0) =     -394.90864205


--------------------------------------------------------------------------------------------------------




--------------------------------------- Iteration      1(   7)  ---------------------------------------


    POTLOK:  cpu time    0.0860: real time    0.0900
    SETDIJ:  cpu time    0.0150: real time    0.0159
    EDDIAG:  cpu time    5.3712: real time    5.3971
  RMM-DIIS:  cpu time   19.9770: real time   20.1460
    ORTHCH:  cpu time    0.8619: real time    0.8665
       DOS:  cpu time    0.0190: real time    0.0191
    CHARGE:  cpu time    1.0108: real time    1.0153
    MIXING:  cpu time    0.0030: real time    0.0025
    --------------------------------------------
      LOOP:  cpu time   27.3438: real time   27.5524

 eigenvalue-minimisations  : 23256
 total energy-change (2. order) :-0.6559309E+02  (-0.1275557E+02)
 number of electron     408.0000019 magnetization      88.0310485
 augmentation part      227.7802179 magnetization      72.3900586

 Broyden mixing:
  rms(total) = 0.13058E+02    rms(broyden)= 0.13058E+02
  rms(prec ) = 0.23232E+02
  weight for this iteration     100.00

 eigenvalues of (default mixing * dielectric matrix)
  average eigenvalue GAMMA=   0.3393
  0.5645  0.1140

 Free energy of the ion-electron system (eV)
  ---------------------------------------------------
  alpha Z        PSCENC =      2769.74827871
  Ewald energy   TEWEN  =    -32031.15906154
  -Hartree energ DENC   =     -6586.72364502
  -exchange      EXHF   =         0.00000000
  -V(xc)+E(xc)   XCENC  =       511.68874924
  PAW double counting   =     34894.19469820   -35896.63428612
  entropy T*S    EENTRO =         0.02184354
  eigenvalues    EBANDS =      1551.05263936
  atomic energy  EATOM  =     34327.30753815
  Solvation  Ediel_sol  =         0.00000000
  ---------------------------------------------------
  free energy    TOTEN  =      -460.50324547 eV

  energy without entropy =     -460.52508902  energy(sigma->0) =     -460.51052666


--------------------------------------------------------------------------------------------------------




--------------------------------------- Iteration      1(   8)  ---------------------------------------


    POTLOK:  cpu time    0.0920: real time    0.0923
    SETDIJ:  cpu time    0.0160: real time    0.0166
    EDDIAG:  cpu time    5.3372: real time    5.3617
  RMM-DIIS:  cpu time   20.0520: real time   20.2181
    ORTHCH:  cpu time    0.9279: real time    0.9319
       DOS:  cpu time    0.0190: real time    0.0193
    CHARGE:  cpu time    0.9629: real time    0.9718
    MIXING:  cpu time    0.0030: real time    0.0025
    --------------------------------------------
      LOOP:  cpu time   27.4098: real time   27.6141

 eigenvalue-minimisations  : 23256
 total energy-change (2. order) : 0.5376897E+02  (-0.5438365E+01)
 number of electron     408.0000010 magnetization      85.1085769
 augmentation part      221.6204908 magnetization      68.5561687

 Broyden mixing:
  rms(total) = 0.95563E+01    rms(broyden)= 0.95561E+01
  rms(prec ) = 0.14664E+02
  weight for this iteration     100.00

 eigenvalues of (default mixing * dielectric matrix)
  average eigenvalue GAMMA=   0.3311
  0.6210  0.2493  0.1229

 Free energy of the ion-electron system (eV)
  ---------------------------------------------------
  alpha Z        PSCENC =      2769.74827871
  Ewald energy   TEWEN  =    -32031.15906154
  -Hartree energ DENC   =     -6668.69323590
  -exchange      EXHF   =         0.00000000
  -V(xc)+E(xc)   XCENC  =       511.82280689
  PAW double counting   =     36123.65529580   -37193.69294271
  entropy T*S    EENTRO =        -0.02777683
  eigenvalues    EBANDS =      1754.30482480
  atomic energy  EATOM  =     34327.30753815
  Solvation  Ediel_sol  =         0.00000000
  ---------------------------------------------------
  free energy    TOTEN  =      -406.73427263 eV

  energy without entropy =     -406.70649580  energy(sigma->0) =     -406.72501369


--------------------------------------------------------------------------------------------------------




--------------------------------------- Iteration      1(   9)  ---------------------------------------


    POTLOK:  cpu time    0.0850: real time    0.0891
    SETDIJ:  cpu time    0.0170: real time    0.0169
    EDDIAG:  cpu time    5.4202: real time    5.5169
  RMM-DIIS:  cpu time   20.0470: real time   20.1471
    ORTHCH:  cpu time    0.8639: real time    0.8669
       DOS:  cpu time    0.0210: real time    0.0206
    CHARGE:  cpu time    1.0108: real time    1.0140
    MIXING:  cpu time    0.0020: real time    0.0023
    --------------------------------------------
      LOOP:  cpu time   27.4668: real time   27.6737

 eigenvalue-minimisations  : 23256
 total energy-change (2. order) : 0.4523545E+02  (-0.3421472E+01)
 number of electron     408.0000020 magnetization      82.2502047
 augmentation part      221.9647013 magnetization      64.2654761

 Broyden mixing:
  rms(total) = 0.41159E+01    rms(broyden)= 0.41157E+01
  rms(prec ) = 0.68101E+01
  weight for this iteration     100.00

 eigenvalues of (default mixing * dielectric matrix)
  average eigenvalue GAMMA=   0.4205
  0.9214  0.5133  0.1023  0.1451

 Free energy of the ion-electron system (eV)
  ---------------------------------------------------
  alpha Z        PSCENC =      2769.74827871
  Ewald energy   TEWEN  =    -32031.15906154
  -Hartree energ DENC   =     -6641.13215076
  -exchange      EXHF   =         0.00000000
  -V(xc)+E(xc)   XCENC  =       510.17525236
  PAW double counting   =     36460.09348512   -37537.61692747
  entropy T*S    EENTRO =        -0.05636360
  eigenvalues    EBANDS =      1781.14112385
  atomic energy  EATOM  =     34327.30753815
  Solvation  Ediel_sol  =         0.00000000
  ---------------------------------------------------
  free energy    TOTEN  =      -361.49882518 eV

  energy without entropy =     -361.44246158  energy(sigma->0) =     -361.48003731


--------------------------------------------------------------------------------------------------------




--------------------------------------- Iteration      1(  10)  ---------------------------------------


    POTLOK:  cpu time    0.0940: real time    0.0938
    SETDIJ:  cpu time    0.0170: real time    0.0165
    EDDIAG:  cpu time    5.3592: real time    5.3799
  RMM-DIIS:  cpu time   19.9060: real time   20.0304
    ORTHCH:  cpu time    0.8969: real time    0.9012
       DOS:  cpu time    0.0200: real time    0.0197
    CHARGE:  cpu time    0.9818: real time    0.9875
    MIXING:  cpu time    0.0030: real time    0.0024
    --------------------------------------------
      LOOP:  cpu time   27.2779: real time   27.4312

 eigenvalue-minimisations  : 23256
 total energy-change (2. order) :-0.2106889E+02  (-0.1984647E+01)
 number of electron     408.0000020 magnetization      78.7140562
 augmentation part      222.3836313 magnetization      63.6526892

 Broyden mixing:
  rms(total) = 0.70279E+01    rms(broyden)= 0.70278E+01
  rms(prec ) = 0.11365E+02
  weight for this iteration     100.00

 eigenvalues of (default mixing * dielectric matrix)
  average eigenvalue GAMMA=   0.4051
  1.0932  0.5505  0.1407  0.1407  0.1003

 Free energy of the ion-electron system (eV)
  ---------------------------------------------------
  alpha Z        PSCENC =      2769.74827871
  Ewald energy   TEWEN  =    -32031.15906154
  -Hartree energ DENC   =     -6634.78708423
  -exchange      EXHF   =         0.00000000
  -V(xc)+E(xc)   XCENC  =       511.99709484
  PAW double counting   =     37013.96009910   -38111.30476251
  entropy T*S    EENTRO =         0.02489801
  eigenvalues    EBANDS =      1771.64528513
  atomic energy  EATOM  =     34327.30753815
  Solvation  Ediel_sol  =         0.00000000
  ---------------------------------------------------
  free energy    TOTEN  =      -382.56771433 eV

  energy without entropy =     -382.59261234  energy(sigma->0) =     -382.57601367


--------------------------------------------------------------------------------------------------------




--------------------------------------- Iteration      1(  11)  ---------------------------------------


    POTLOK:  cpu time    0.0910: real time    0.0915
    SETDIJ:  cpu time    0.0170: real time    0.0165
    EDDIAG:  cpu time    5.4022: real time    5.4536
  RMM-DIIS:  cpu time   19.8110: real time   19.9660
    ORTHCH:  cpu time    0.8519: real time    0.8561
       DOS:  cpu time    0.0200: real time    0.0200
    CHARGE:  cpu time    0.9489: real time    0.9513
    MIXING:  cpu time    0.0020: real time    0.0021
    --------------------------------------------
      LOOP:  cpu time   27.1439: real time   27.3571

 eigenvalue-minimisations  : 23256
 total energy-change (2. order) : 0.2134313E+02  (-0.1272796E+01)
 number of electron     408.0000016 magnetization      78.1478398
 augmentation part      222.4999926 magnetization      62.7196576

 Broyden mixing:
  rms(total) = 0.33707E+01    rms(broyden)= 0.33706E+01
  rms(prec ) = 0.54860E+01
  weight for this iteration     100.00

 eigenvalues of (default mixing * dielectric matrix)
  average eigenvalue GAMMA=   0.3813
  1.1399  0.5199  0.2547  0.1585  0.1176  0.0973

 Free energy of the ion-electron system (eV)
  ---------------------------------------------------
  alpha Z        PSCENC =      2769.74827871
  Ewald energy   TEWEN  =    -32031.15906154
  -Hartree energ DENC   =     -6596.65130747
  -exchange      EXHF   =         0.00000000
  -V(xc)+E(xc)   XCENC  =       512.49185194
  PAW double counting   =     37609.74607302   -38721.17860280
  entropy T*S    EENTRO =         0.00022231
  eigenvalues    EBANDS =      1768.47042790
  atomic energy  EATOM  =     34327.30753815
  Solvation  Ediel_sol  =         0.00000000
  ---------------------------------------------------
  free energy    TOTEN  =      -361.22457978 eV

  energy without entropy =     -361.22480209  energy(sigma->0) =     -361.22465388


--------------------------------------------------------------------------------------------------------




--------------------------------------- Iteration      1(  12)  ---------------------------------------


    POTLOK:  cpu time    0.0880: real time    0.0887
    SETDIJ:  cpu time    0.0160: real time    0.0154
    EDDIAG:  cpu time    5.1512: real time    5.1679
  RMM-DIIS:  cpu time   18.6522: real time   18.7510
    ORTHCH:  cpu time    0.8489: real time    0.8527
       DOS:  cpu time    0.0210: real time    0.0198
    CHARGE:  cpu time    0.9409: real time    0.9441
    MIXING:  cpu time    0.0030: real time    0.0022
    --------------------------------------------
      LOOP:  cpu time   25.7211: real time   25.8419

 eigenvalue-minimisations  : 23256
 total energy-change (2. order) : 0.3135298E+01  (-0.3220097E+00)
 number of electron     408.0000021 magnetization      77.7076684
 augmentation part      222.5030814 magnetization      62.1229743

 Broyden mixing:
  rms(total) = 0.20666E+01    rms(broyden)= 0.20665E+01
  rms(prec ) = 0.29841E+01
  weight for this iteration     100.00

 eigenvalues of (default mixing * dielectric matrix)
  average eigenvalue GAMMA=   0.4047
  1.2335  0.5689  0.5689  0.1377  0.1377  0.0985  0.0873

 Free energy of the ion-electron system (eV)
  ---------------------------------------------------
  alpha Z        PSCENC =      2769.74827871
  Ewald energy   TEWEN  =    -32031.15906154
  -Hartree energ DENC   =     -6591.73686714
  -exchange      EXHF   =         0.00000000
  -V(xc)+E(xc)   XCENC  =       512.71554742
  PAW double counting   =     37750.95241121   -38865.90476485
  entropy T*S    EENTRO =         0.01554888
  eigenvalues    EBANDS =      1769.97208721
  atomic energy  EATOM  =     34327.30753815
  Solvation  Ediel_sol  =         0.00000000
  ---------------------------------------------------
  free energy    TOTEN  =      -358.08928196 eV

  energy without entropy =     -358.10483084  energy(sigma->0) =     -358.09446492


--------------------------------------------------------------------------------------------------------




--------------------------------------- Iteration      1(  13)  ---------------------------------------


    POTLOK:  cpu time    0.0880: real time    0.0887
    SETDIJ:  cpu time    0.0160: real time    0.0155
    EDDIAG:  cpu time    5.1342: real time    5.1497
  RMM-DIIS:  cpu time   19.4590: real time   19.5862
    ORTHCH:  cpu time    0.8879: real time    0.8924
       DOS:  cpu time    0.0200: real time    0.0202
    CHARGE:  cpu time    0.9918: real time    0.9953
    MIXING:  cpu time    0.0030: real time    0.0027
    --------------------------------------------
      LOOP:  cpu time   26.6000: real time   26.7507

 eigenvalue-minimisations  : 23256
 total energy-change (2. order) :-0.7852216E+00  (-0.1555097E+00)
 number of electron     408.0000018 magnetization      77.8089978
 augmentation part      222.5588784 magnetization      62.6571389

 Broyden mixing:
  rms(total) = 0.21352E+01    rms(broyden)= 0.21351E+01
  rms(prec ) = 0.32606E+01
  weight for this iteration     100.00

 eigenvalues of (default mixing * dielectric matrix)
  average eigenvalue GAMMA=   0.3818
  1.2573  0.5920  0.5920  0.1794  0.1228  0.1228  0.0969  0.0912

 Free energy of the ion-electron system (eV)
  ---------------------------------------------------
  alpha Z        PSCENC =      2769.74827871
  Ewald energy   TEWEN  =    -32031.15906154
  -Hartree energ DENC   =     -6582.83775009
  -exchange      EXHF   =         0.00000000
  -V(xc)+E(xc)   XCENC  =       513.83779082
  PAW double counting   =     38046.97967736   -39169.54871222
  entropy T*S    EENTRO =         0.03884908
  eigenvalues    EBANDS =      1766.75888613
  atomic energy  EATOM  =     34327.30753815
  Solvation  Ediel_sol  =         0.00000000
  ---------------------------------------------------
  free energy    TOTEN  =      -358.87450359 eV

  energy without entropy =     -358.91335267  energy(sigma->0) =     -358.88745328


--------------------------------------------------------------------------------------------------------




--------------------------------------- Iteration      1(  14)  ---------------------------------------


    POTLOK:  cpu time    0.0920: real time    0.0925
    SETDIJ:  cpu time    0.0170: real time    0.0170
    EDDIAG:  cpu time    5.3102: real time    5.3334
  RMM-DIIS:  cpu time   19.9000: real time   20.0519
    ORTHCH:  cpu time    0.8889: real time    0.8951
       DOS:  cpu time    0.0200: real time    0.0197
    CHARGE:  cpu time    1.0528: real time    1.0605
    MIXING:  cpu time    0.0040: real time    0.0027
    --------------------------------------------
      LOOP:  cpu time   27.2849: real time   27.4728

 eigenvalue-minimisations  : 23256
 total energy-change (2. order) : 0.1122269E+01  (-0.7439358E-01)
 number of electron     408.0000019 magnetization      78.3424515
 augmentation part      222.8356792 magnetization      63.0427976

 Broyden mixing:
  rms(total) = 0.12857E+01    rms(broyden)= 0.12856E+01
  rms(prec ) = 0.15900E+01
  weight for this iteration     100.00

 eigenvalues of (default mixing * dielectric matrix)
  average eigenvalue GAMMA=   0.3918
  1.2327  0.6853  0.6853  0.3591  0.1384  0.1384  0.1074  0.0996  0.0804

 Free energy of the ion-electron system (eV)
  ---------------------------------------------------
  alpha Z        PSCENC =      2769.74827871
  Ewald energy   TEWEN  =    -32031.15906154
  -Hartree energ DENC   =     -6576.10775804
  -exchange      EXHF   =         0.00000000
  -V(xc)+E(xc)   XCENC  =       514.70605263
  PAW double counting   =     38208.51187852   -39334.87585154
  entropy T*S    EENTRO =         0.03457325
  eigenvalues    EBANDS =      1764.08211532
  atomic energy  EATOM  =     34327.30753815
  Solvation  Ediel_sol  =         0.00000000
  ---------------------------------------------------
  free energy    TOTEN  =      -357.75223454 eV

  energy without entropy =     -357.78680779  energy(sigma->0) =     -357.76375896


--------------------------------------------------------------------------------------------------------




--------------------------------------- Iteration      1(  15)  ---------------------------------------


    POTLOK:  cpu time    0.0930: real time    0.0938
    SETDIJ:  cpu time    0.0170: real time    0.0166
    EDDIAG:  cpu time    5.3012: real time    5.3274
  RMM-DIIS:  cpu time   20.0500: real time   20.1905
    ORTHCH:  cpu time    0.8999: real time    0.9028
       DOS:  cpu time    0.0200: real time    0.0203
    CHARGE:  cpu time    0.9848: real time    0.9866
    MIXING:  cpu time    0.0030: real time    0.0028
    --------------------------------------------
      LOOP:  cpu time   27.3688: real time   27.5407

 eigenvalue-minimisations  : 23256
 total energy-change (2. order) :-0.2164531E-01  (-0.2374477E-01)
 number of electron     408.0000019 magnetization      79.6229259
 augmentation part      222.8336834 magnetization      64.4625191

 Broyden mixing:
  rms(total) = 0.11490E+01    rms(broyden)= 0.11490E+01
  rms(prec ) = 0.13030E+01
  weight for this iteration     100.00

 eigenvalues of (default mixing * dielectric matrix)
  average eigenvalue GAMMA=   0.4088
  1.1958  0.8699  0.8699  0.4266  0.1630  0.1630  0.1126  0.1083  0.0967  0.0816

 Free energy of the ion-electron system (eV)
  ---------------------------------------------------
  alpha Z        PSCENC =      2769.74827871
  Ewald energy   TEWEN  =    -32031.15906154
  -Hartree energ DENC   =     -6574.80505863
  -exchange      EXHF   =         0.00000000
  -V(xc)+E(xc)   XCENC  =       515.54452828
  PAW double counting   =     38272.04289178   -39399.98953402
  entropy T*S    EENTRO =         0.04209225
  eigenvalues    EBANDS =      1763.49444516
  atomic energy  EATOM  =     34327.30753815
  Solvation  Ediel_sol  =         0.00000000
  ---------------------------------------------------
  free energy    TOTEN  =      -357.77387985 eV

  energy without entropy =     -357.81597210  energy(sigma->0) =     -357.78791060


--------------------------------------------------------------------------------------------------------




--------------------------------------- Iteration      1(  16)  ---------------------------------------


    POTLOK:  cpu time    0.0910: real time    0.0919
    SETDIJ:  cpu time    0.0170: real time    0.0166
    EDDIAG:  cpu time    5.3462: real time    5.3654
  RMM-DIIS:  cpu time   19.9470: real time   20.1150
    ORTHCH:  cpu time    0.8559: real time    0.8633
       DOS:  cpu time    0.0200: real time    0.0193
    CHARGE:  cpu time    1.0038: real time    1.0092
    MIXING:  cpu time    0.0030: real time    0.0035
    --------------------------------------------
      LOOP:  cpu time   27.2839: real time   27.4841

 eigenvalue-minimisations  : 23256
 total energy-change (2. order) :-0.3532246E+00  (-0.2242727E-01)
 number of electron     408.0000019 magnetization      80.7374651
 augmentation part      222.9369832 magnetization      65.5809230

 Broyden mixing:
  rms(total) = 0.11042E+01    rms(broyden)= 0.11042E+01
  rms(prec ) = 0.13473E+01
  weight for this iteration     100.00

 eigenvalues of (default mixing * dielectric matrix)
  average eigenvalue GAMMA=   0.4374
  1.1816  1.0500  1.0500  0.4267  0.4267  0.1443  0.1292  0.1292  0.0970  0.0970
  0.0799

 Free energy of the ion-electron system (eV)
  ---------------------------------------------------
  alpha Z        PSCENC =      2769.74827871
  Ewald energy   TEWEN  =    -32031.15906154
  -Hartree energ DENC   =     -6572.43140148
  -exchange      EXHF   =         0.00000000
  -V(xc)+E(xc)   XCENC  =       517.25888428
  PAW double counting   =     38384.90634214   -39515.53209110
  entropy T*S    EENTRO =         0.05227648
  eigenvalues    EBANDS =      1761.72212989
  atomic energy  EATOM  =     34327.30753815
  Solvation  Ediel_sol  =         0.00000000
  ---------------------------------------------------
  free energy    TOTEN  =      -358.12710447 eV

  energy without entropy =     -358.17938095  energy(sigma->0) =     -358.14452996


--------------------------------------------------------------------------------------------------------




--------------------------------------- Iteration      1(  17)  ---------------------------------------


    POTLOK:  cpu time    0.0920: real time    0.0930
    SETDIJ:  cpu time    0.0170: real time    0.0165
    EDDIAG:  cpu time    5.3422: real time    5.3736
  RMM-DIIS:  cpu time   19.9580: real time   20.2014
    ORTHCH:  cpu time    0.8939: real time    0.9055
       DOS:  cpu time    0.0190: real time    0.0193
    CHARGE:  cpu time    0.9828: real time    0.9940
    MIXING:  cpu time    0.0040: real time    0.0033
    --------------------------------------------
      LOOP:  cpu time   27.3088: real time   27.6066

 eigenvalue-minimisations  : 23256
 total energy-change (2. order) :-0.3652821E+00  (-0.3504769E-01)
 number of electron     408.0000019 magnetization      83.3226150
 augmentation part      222.9813821 magnetization      68.1550261

 Broyden mixing:
  rms(total) = 0.11832E+01    rms(broyden)= 0.11832E+01
  rms(prec ) = 0.16134E+01
  weight for this iteration     100.00

 eigenvalues of (default mixing * dielectric matrix)
  average eigenvalue GAMMA=   0.4935
  1.3678  1.3678  1.2525  0.5668  0.5668  0.1398  0.1398  0.1428  0.1071  0.0958
  0.0958  0.0798

 Free energy of the ion-electron system (eV)
  ---------------------------------------------------
  alpha Z        PSCENC =      2769.74827871
  Ewald energy   TEWEN  =    -32031.15906154
  -Hartree energ DENC   =     -6570.31881619
  -exchange      EXHF   =         0.00000000
  -V(xc)+E(xc)   XCENC  =       518.62070808
  PAW double counting   =     38485.06190120   -39618.02614196
  entropy T*S    EENTRO =         0.05511413
  eigenvalues    EBANDS =      1760.21809286
  atomic energy  EATOM  =     34327.30753815
  Solvation  Ediel_sol  =         0.00000000
  ---------------------------------------------------
  free energy    TOTEN  =      -358.49238656 eV

  energy without entropy =     -358.54750070  energy(sigma->0) =     -358.51075794


--------------------------------------------------------------------------------------------------------




--------------------------------------- Iteration      1(  18)  ---------------------------------------


    POTLOK:  cpu time    0.0900: real time    0.0917
    SETDIJ:  cpu time    0.0160: real time    0.0163
    EDDIAG:  cpu time    5.3612: real time    5.4127
  RMM-DIIS:  cpu time   19.7300: real time   20.0425
    ORTHCH:  cpu time    0.8439: real time    0.8471
       DOS:  cpu time    0.0200: real time    0.0197
    CHARGE:  cpu time    0.9868: real time    0.9932
    MIXING:  cpu time    0.0030: real time    0.0036
    --------------------------------------------
      LOOP:  cpu time   27.0509: real time   27.4267

 eigenvalue-minimisations  : 23256
 total energy-change (2. order) :-0.1192124E+01  (-0.8634201E-01)
 number of electron     408.0000020 magnetization      85.0113013
 augmentation part      223.0978027 magnetization      69.8687598

 Broyden mixing:
  rms(total) = 0.18148E+01    rms(broyden)= 0.18148E+01
  rms(prec ) = 0.28076E+01
  weight for this iteration     100.00

 eigenvalues of (default mixing * dielectric matrix)
  average eigenvalue GAMMA=   0.4849
  1.4151  1.4151  1.3491  0.5943  0.5943  0.1506  0.1506  0.1431  0.1303  0.0989
  0.0989  0.0835  0.0794

 Free energy of the ion-electron system (eV)
  ---------------------------------------------------
  alpha Z        PSCENC =      2769.74827871
  Ewald energy   TEWEN  =    -32031.15906154
  -Hartree energ DENC   =     -6564.56341502
  -exchange      EXHF   =         0.00000000
  -V(xc)+E(xc)   XCENC  =       521.54880316
  PAW double counting   =     38782.67643347   -39922.67998843
  entropy T*S    EENTRO =         0.04755176
  eigenvalues    EBANDS =      1757.38934947
  atomic energy  EATOM  =     34327.30753815
  Solvation  Ediel_sol  =         0.00000000
  ---------------------------------------------------
  free energy    TOTEN  =      -359.68451027 eV

  energy without entropy =     -359.73206202  energy(sigma->0) =     -359.70036085


--------------------------------------------------------------------------------------------------------




--------------------------------------- Iteration      1(  19)  ---------------------------------------


    POTLOK:  cpu time    0.0920: real time    0.0922
    SETDIJ:  cpu time    0.0160: real time    0.0162
    EDDIAG:  cpu time    5.3182: real time    5.3661
  RMM-DIIS:  cpu time   20.0560: real time   20.2986
    ORTHCH:  cpu time    0.8889: real time    0.9005
       DOS:  cpu time    0.0200: real time    0.0205
    CHARGE:  cpu time    0.9499: real time    0.9542
    MIXING:  cpu time    0.0040: real time    0.0034
    --------------------------------------------
      LOOP:  cpu time   27.3448: real time   27.6517

 eigenvalue-minimisations  : 23256
 total energy-change (2. order) : 0.9550793E+00  (-0.6687081E-01)
 number of electron     408.0000018 magnetization      86.2541861
 augmentation part      223.1316440 magnetization      70.8759277

 Broyden mixing:
  rms(total) = 0.79068E+00    rms(broyden)= 0.79062E+00
  rms(prec ) = 0.11252E+01
  weight for this iteration     100.00

 eigenvalues of (default mixing * dielectric matrix)
  average eigenvalue GAMMA=   0.5196
  1.5931  1.5542  1.5542  0.6404  0.6404  0.3904  0.1518  0.1386  0.1386  0.1147
  0.0982  0.0982  0.0804  0.0812

 Free energy of the ion-electron system (eV)
  ---------------------------------------------------
  alpha Z        PSCENC =      2769.74827871
  Ewald energy   TEWEN  =    -32031.15906154
  -Hartree energ DENC   =     -6560.78435960
  -exchange      EXHF   =         0.00000000
  -V(xc)+E(xc)   XCENC  =       523.34791246
  PAW double counting   =     38991.75702890   -40136.75308830
  entropy T*S    EENTRO =         0.04628467
  eigenvalues    EBANDS =      1757.76003556
  atomic energy  EATOM  =     34327.30753815
  Solvation  Ediel_sol  =         0.00000000
  ---------------------------------------------------
  free energy    TOTEN  =      -358.72943099 eV

  energy without entropy =     -358.77571566  energy(sigma->0) =     -358.74485922


--------------------------------------------------------------------------------------------------------




--------------------------------------- Iteration      1(  20)  ---------------------------------------


    POTLOK:  cpu time    0.0940: real time    0.0954
    SETDIJ:  cpu time    0.0160: real time    0.0160
    EDDIAG:  cpu time    5.4142: real time    5.4437
  RMM-DIIS:  cpu time   19.9030: real time   20.1605
    ORTHCH:  cpu time    0.8519: real time    0.8593
       DOS:  cpu time    0.0190: real time    0.0193
    CHARGE:  cpu time    1.0238: real time    1.0305
    MIXING:  cpu time    0.0030: real time    0.0034
    --------------------------------------------
      LOOP:  cpu time   27.3248: real time   27.6281

 eigenvalue-minimisations  : 23256
 total energy-change (2. order) :-0.1321848E+00  (-0.4106247E-01)
 number of electron     408.0000019 magnetization      87.9106419
 augmentation part      223.0775826 magnetization      72.5741702

 Broyden mixing:
  rms(total) = 0.84849E+00    rms(broyden)= 0.84847E+00
  rms(prec ) = 0.12056E+01
  weight for this iteration     100.00

 eigenvalues of (default mixing * dielectric matrix)
  average eigenvalue GAMMA=   0.5259
  1.7846  1.6513  1.6513  0.6595  0.6595  0.4387  0.1530  0.1530  0.1354  0.1354
  0.1112  0.0985  0.0985  0.0796  0.0796

 Free energy of the ion-electron system (eV)
  ---------------------------------------------------
  alpha Z        PSCENC =      2769.74827871
  Ewald energy   TEWEN  =    -32031.15906154
  -Hartree energ DENC   =     -6559.12644232
  -exchange      EXHF   =         0.00000000
  -V(xc)+E(xc)   XCENC  =       524.33621249
  PAW double counting   =     39110.97242568   -40258.66201514
  entropy T*S    EENTRO =         0.04631551
  eigenvalues    EBANDS =      1757.67513267
  atomic energy  EATOM  =     34327.30753815
  Solvation  Ediel_sol  =         0.00000000
  ---------------------------------------------------
  free energy    TOTEN  =      -358.86161579 eV

  energy without entropy =     -358.90793130  energy(sigma->0) =     -358.87705429


--------------------------------------------------------------------------------------------------------




--------------------------------------- Iteration      1(  21)  ---------------------------------------


    POTLOK:  cpu time    0.0890: real time    0.0926
    SETDIJ:  cpu time    0.0170: real time    0.0165
    EDDIAG:  cpu time    5.3862: real time    5.4309
  RMM-DIIS:  cpu time   19.9340: real time   20.2133
    ORTHCH:  cpu time    0.8649: real time    0.8725
       DOS:  cpu time    0.0200: real time    0.0200
    CHARGE:  cpu time    0.9779: real time    0.9826
    MIXING:  cpu time    0.0030: real time    0.0038
    --------------------------------------------
      LOOP:  cpu time   27.2929: real time   27.6323

 eigenvalue-minimisations  : 23256
 total energy-change (2. order) : 0.1030272E+00  (-0.1649233E-01)
 number of electron     408.0000019 magnetization      88.3242985
 augmentation part      223.1845646 magnetization      72.7767497

 Broyden mixing:
  rms(total) = 0.48443E+00    rms(broyden)= 0.48441E+00
  rms(prec ) = 0.66189E+00
  weight for this iteration     100.00

 eigenvalues of (default mixing * dielectric matrix)
  average eigenvalue GAMMA=   0.5157
  1.8133  1.6748  1.6748  0.6569  0.6569  0.3700  0.3700  0.1589  0.1409  0.1409
  0.1300  0.1092  0.0976  0.0976  0.0800  0.0800

 Free energy of the ion-electron system (eV)
  ---------------------------------------------------
  alpha Z        PSCENC =      2769.74827871
  Ewald energy   TEWEN  =    -32031.15906154
  -Hartree energ DENC   =     -6554.83697477
  -exchange      EXHF   =         0.00000000
  -V(xc)+E(xc)   XCENC  =       525.19791299
  PAW double counting   =     39248.11712922   -40398.10644723
  entropy T*S    EENTRO =         0.03810949
  eigenvalues    EBANDS =      1754.93492639
  atomic energy  EATOM  =     34327.30753815
  Solvation  Ediel_sol  =         0.00000000
[...]

  FORCE on cell =-STRESS in cart. coord.  units (eV):
  Direction    XX          YY          ZZ          XY          YZ          ZX
  --------------------------------------------------------------------------------------
  Alpha Z  2769.74828  2769.74828  2769.74828
  Ewald  -10648.49551-10718.58302-10663.96770    22.75833    70.84543    -8.74992
  Hartree  2211.72261  2143.95556  2193.75017    21.40471    70.20983    -8.05348
  E(xc)   -2092.67460 -2092.76781 -2092.53167    -0.02500    -0.02803    -0.08858
  Local    1720.54750  1856.99971  1754.52800   -44.56073  -141.34596    14.90092
  n-local -1012.49725 -1013.68985 -1012.82616     0.79685     0.65407     0.20647
  augment  3507.52869  3508.87947  3507.34462     0.10354     0.02981     1.33892
  Kinetic  3549.33552  3548.92091  3547.00663     0.97103    -0.86007     2.41230
  Fock        0.00000     0.00000     0.00000     0.00000     0.00000     0.00000
  -------------------------------------------------------------------------------------
  Total       5.21523     3.46326     3.05218     1.44875    -0.49490     1.96662
  in kB      15.23964    10.12013     8.91890     4.23345    -1.44618     5.74675
  external pressure =       11.43 kB  Pullay stress =        0.00 kB


 VOLUME and BASIS-vectors are now :
 -----------------------------------------------------------------------------
  energy-cutoff  :      520.00
  volume of cell :      548.29
      direct lattice vectors                 reciprocal lattice vectors
     7.150000000 -7.150000000  0.000000000     0.093240093 -0.046620047 -0.046620047
     0.000000000  7.150000000 -7.150000000     0.046620047  0.046620047 -0.093240093
     3.575000000  3.575000000  3.575000000     0.093240093  0.093240093  0.093240093

  length of vectors
    10.111626971 10.111626971  6.192081637     0.114195326  0.114195326  0.161496579


 FORCES acting on ions
    electron-ion (+dipol)            ewald-force                    non-local-force                 convergence-correction
 -----------------------------------------------------------------------------------------------
   -.859E+01 0.426E+02 -.592E+02   0.864E+01 -.430E+02 0.592E+02   -.422E-01 0.333E+00 -.467E-01   0.488E-02 0.124E-01 0.271E-02
   0.240E+02 -.104E+01 -.336E+02   -.240E+02 0.902E+00 0.338E+02   0.299E-01 0.146E+00 -.134E+00   0.920E-02 -.584E-02 -.244E-01
   0.502E+02 0.331E+02 -.591E+02   -.508E+02 -.332E+02 0.594E+02   0.605E+00 0.181E+00 -.299E+00   -.148E-01 0.398E-03 0.578E-02
   -.662E+02 0.368E+01 -.186E+01   0.663E+02 -.340E+01 0.177E+01   -.107E+00 -.272E+00 0.110E+00   0.162E-01 -.135E-01 -.233E-01
   -.500E+02 0.103E+03 -.129E+02   0.502E+02 -.103E+03 0.128E+02   -.186E+00 0.732E+00 0.333E-01   -.210E-02 -.838E-02 -.609E-02
   -.356E+02 -.294E+02 -.113E+02   0.357E+02 0.298E+02 0.116E+02   -.198E+00 -.447E+00 -.278E+00   0.127E-01 -.440E-03 -.152E-01
   -.152E+02 0.847E+02 -.747E+01   0.153E+02 -.850E+02 0.774E+01   -.129E+00 0.349E+00 -.256E+00   0.167E-01 0.543E-02 -.102E-01
   0.144E+02 -.863E+02 -.101E+02   -.143E+02 0.867E+02 0.105E+02   -.123E+00 -.376E+00 -.347E+00   -.107E-01 -.379E-02 -.103E-01
   0.431E+02 0.589E+01 0.469E+02   -.432E+02 -.625E+01 -.472E+02   0.562E-01 0.345E+00 0.349E+00   0.531E-02 0.132E-01 -.242E-01
   0.382E+02 -.259E+02 -.650E+01   -.383E+02 0.261E+02 0.644E+01   0.122E+00 -.241E+00 0.338E-01   -.318E-01 -.962E-03 0.180E-01
   0.512E+02 -.344E+02 -.779E+01   -.515E+02 0.347E+02 0.790E+01   0.287E+00 -.338E+00 -.127E+00   -.306E-01 0.456E-03 0.146E-01
   -.330E+02 -.673E+02 0.802E+02   0.334E+02 0.676E+02 -.806E+02   -.355E+00 -.338E+00 0.440E+00   0.585E-02 -.728E-02 0.247E-01
   -.827E+02 -.154E+02 0.376E+02   0.831E+02 0.156E+02 -.379E+02   -.532E+00 -.167E+00 0.225E+00   0.500E-01 -.338E-01 -.473E-02
   -.507E+02 -.124E+02 0.151E+01   0.508E+02 0.126E+02 -.157E+01   -.820E-01 -.170E+00 0.663E-01   0.269E-01 -.377E-02 -.710E-03
   -.429E+02 0.916E+02 0.322E+02   0.429E+02 -.922E+02 -.325E+02   0.117E-01 0.675E+00 0.291E+00   0.310E-01 -.158E-01 0.126E-02
   -.114E+01 -.696E+02 0.464E+02   0.131E+01 0.697E+02 -.468E+02   -.145E+00 -.219E+00 0.426E+00   -.146E-01 0.724E-01 0.203E-01
   -.172E+02 -.315E+02 0.152E+02   0.174E+02 0.316E+02 -.152E+02   -.232E+00 -.168E+00 0.532E-02   -.566E-02 0.165E-01 0.374E-02
   -.235E+02 0.656E+02 0.162E+02   0.236E+02 -.659E+02 -.161E+02   -.109E+00 0.291E+00 -.758E-01   0.268E-01 0.768E-03 -.129E-01
   0.431E+02 -.921E+02 0.503E+02   -.436E+02 0.923E+02 -.507E+02   0.500E+00 -.185E+00 0.413E+00   -.521E-01 -.151E-02 0.298E-03
   0.724E+02 -.438E+02 0.681E+02   -.728E+02 0.438E+02 -.684E+02   0.449E+00 0.663E-02 0.281E+00   -.451E-01 0.351E-01 0.190E-01
   0.133E+02 -.261E+02 -.221E+02   -.133E+02 0.264E+02 0.223E+02   0.909E-02 -.343E+00 -.192E+00   -.238E-01 0.741E-01 -.871E-02
   -.401E+01 -.868E+01 -.273E+02   0.422E+01 0.854E+01 0.278E+02   -.242E+00 0.157E+00 -.558E+00   0.253E-01 -.177E-01 -.831E-02
   0.342E+01 -.384E+02 0.474E+02   -.316E+01 0.385E+02 -.477E+02   -.239E+00 -.130E+00 0.320E+00   -.225E-01 0.900E-03 -.307E-01
   -.205E+02 0.164E+02 -.417E+02   0.208E+02 -.163E+02 0.417E+02   -.291E+00 -.108E+00 -.181E-01   0.275E-01 -.280E-01 -.705E-02
   0.368E+02 0.330E+02 0.293E+02   -.371E+02 -.330E+02 -.294E+02   0.305E+00 0.294E-01 0.143E+00   0.344E-01 -.512E-01 0.155E-02
   -.210E+02 -.703E+02 0.515E+02   0.210E+02 0.708E+02 -.518E+02   -.878E-01 -.450E+00 0.333E+00   0.331E-01 -.469E-01 0.285E-02
   0.254E+02 0.305E+02 -.422E+02   -.258E+02 -.306E+02 0.420E+02   0.454E+00 0.104E+00 0.232E+00   -.200E-01 0.304E-01 0.133E-01
   0.213E+02 0.746E+02 -.369E+02   -.215E+02 -.749E+02 0.371E+02   0.206E+00 0.337E+00 -.243E+00   0.432E-02 -.990E-02 0.161E-01
   0.263E+02 0.551E+01 -.202E+02   -.264E+02 -.564E+01 0.204E+02   0.206E+00 0.970E-01 -.143E+00   -.683E-01 0.422E-01 0.242E-02
   -.862E+01 0.252E+02 -.483E+01   0.872E+01 -.253E+02 0.484E+01   -.655E-01 0.113E+00 -.791E-02   -.257E-01 0.407E-01 0.636E-02
   0.298E+02 -.422E+02 0.388E+02   -.299E+02 0.422E+02 -.389E+02   0.209E+00 -.436E-01 0.424E-01   -.245E-01 0.372E-01 0.897E-03
   -.201E+02 0.186E+02 -.333E+02   0.204E+02 -.184E+02 0.337E+02   -.276E+00 -.227E+00 -.319E+00   -.219E-01 0.219E-01 -.111E-01
   0.376E+02 -.444E+02 0.227E+01   -.379E+02 0.446E+02 -.241E+01   0.230E+00 -.134E+00 0.175E+00   0.401E-01 -.769E-02 -.370E-01
   0.322E+02 0.471E+01 0.210E+02   -.325E+02 -.479E+01 -.210E+02   0.273E+00 0.655E-01 0.142E-01   0.314E-01 0.870E-02 -.375E-01
   -.297E+02 0.275E+02 -.798E+02   0.300E+02 -.276E+02 0.801E+02   -.307E+00 0.812E-01 -.332E+00   -.751E-02 -.203E-01 0.190E-01
   -.850E+00 0.431E+02 -.572E+02   0.115E+01 -.434E+02 0.576E+02   -.269E+00 0.289E+00 -.455E+00   -.311E-01 0.365E-01 0.679E-02
   0.130E+02 -.317E+01 -.332E+02   -.132E+02 0.316E+01 0.334E+02   0.158E+00 0.995E-02 -.191E+00   0.158E-01 -.441E-02 -.354E-01
   -.629E+02 0.141E+02 -.293E+02   0.631E+02 -.142E+02 0.295E+02   -.220E+00 0.896E-01 -.206E+00   0.757E-02 -.121E-01 0.166E-01
   0.262E+01 -.601E+02 0.377E+02   -.259E+01 0.605E+02 -.378E+02   -.418E-01 -.371E+00 0.151E+00   0.430E-02 0.449E-03 -.124E-01
   0.325E+02 -.744E+02 -.461E+01   -.324E+02 0.744E+02 0.477E+01   -.556E-01 -.664E-01 -.200E+00   -.248E-01 0.188E-01 0.442E-01
   0.223E+02 0.611E+02 -.883E+02   -.225E+02 -.613E+02 0.886E+02   0.225E+00 0.144E+00 -.321E+00   -.308E-01 -.970E-02 0.332E-01
   -.235E+02 -.161E+01 0.981E+02   0.236E+02 0.177E+01 -.984E+02   -.113E+00 -.121E+00 0.324E+00   0.477E-02 -.432E-01 -.212E-02
   -.891E+02 0.704E+02 0.158E+02   0.894E+02 -.706E+02 -.158E+02   -.280E+00 0.247E+00 -.676E-01   0.400E-01 -.200E-01 0.123E-01
   0.451E+02 -.795E+02 0.684E+02   -.452E+02 0.797E+02 -.686E+02   0.141E+00 -.255E+00 0.152E+00   -.397E-01 -.315E-01 0.568E-01
   -.645E+02 0.471E+02 -.193E+01   0.646E+02 -.473E+02 0.174E+01   -.211E+00 0.169E+00 0.182E+00   0.467E-01 -.267E-01 0.163E-01
   0.627E+02 0.109E+02 -.533E+01   -.629E+02 -.109E+02 0.524E+01   0.204E+00 0.421E-01 0.100E+00   0.199E-01 -.473E-01 -.141E-01
   0.203E+02 -.578E+02 -.776E+01   -.203E+02 0.582E+02 0.780E+01   0.358E-01 -.409E+00 -.234E-01   0.503E-01 -.291E-01 -.140E-01
   0.103E+02 0.103E+03 -.592E+02   -.104E+02 -.104E+03 0.593E+02   0.172E+00 0.497E+00 -.600E-01   -.380E-01 -.126E-01 0.227E-01
 -----------------------------------------------------------------------------------------------
   0.470E-01 0.920E-01 0.258E-01   -.213E-13 0.171E-12 0.540E-12   -.493E-01 -.465E-01 -.574E-01   0.474E-02 -.448E-01 0.313E-01
 
 
 POSITION                                       TOTAL-FORCE (eV/Angst)
 -----------------------------------------------------------------------------------
      3.57065     10.68210     -3.56168         0.011061      0.001935     -0.004707
      7.14329      7.13349     -3.57562        -0.007449     -0.000800     -0.005989
      5.37514      1.76640     -7.10062         0.000801      0.000675     -0.015477
      5.32686      3.52412      1.80838        -0.002043     -0.001312     -0.003914
      1.75793      1.81053     -0.01530        -0.001622      0.002663     -0.004000
      3.54694     -0.05274     -0.01519        -0.012464     -0.001160      0.005397
      3.54299      1.79488      1.75521        -0.005106      0.002507      0.000375
      5.38711     -1.82386     -0.05291        -0.001543     -0.005646     -0.003607
      5.34325      0.01371      1.75929        -0.011417      0.003548     -0.004595
      7.15117     -3.57839      0.00344         0.000858      0.000592     -0.001286
      7.13085     -1.75329      1.77393        -0.011244     -0.000381     -0.002142
      7.09489     -3.56364     -3.52899         0.002174     -0.010726     -0.003119
      5.28788      5.36198      0.03559         0.009428     -0.000420     -0.004128
      3.56289     -0.00213     -3.55211         0.009337      0.005153      0.008422
      3.54923      1.83418     -1.81634        -0.000359      0.005579      0.013535
      5.40758     -1.77182     -3.51141         0.014517      0.009734      0.005015
      5.37248      0.01577     -1.76608         0.001797      0.001541      0.017406
      5.34882      1.82361     -0.04542         0.004050      0.004190      0.001258
      7.22206     -1.76863     -1.76041         0.009043     -0.006738     -0.002726
      7.22561      0.02260     -0.00008         0.003338      0.002913      0.002875
      3.54654      8.86693     -1.79190        -0.004282      0.017139     -0.006158
      5.29804      7.15694     -1.80415        -0.007121      0.002910      0.002563
      1.76733      5.33068     -3.57895        -0.006266     -0.000320     -0.011646
      3.54396      1.79629     -5.32791         0.002604      0.001386     -0.009167
      3.59727      3.58487     -3.60405        -0.001379     -0.002494      0.001862
      3.52068      5.33783     -1.80507        -0.009599     -0.009382     -0.002646
      5.43179     -0.01303     -5.32301         0.005738      0.010796     -0.006381
      5.43477      1.78787     -3.57439        -0.004513      0.004005      0.008735
      7.25958     -0.01310     -3.56804        -0.001543      0.005483      0.007406
      7.20350      1.83344     -1.78177         0.006857      0.006927      0.006549
      8.99577      0.05398     -1.80087         0.014382     -0.004498      0.001564
      1.77375      7.10243     -5.40499        -0.004737      0.000106      0.004896
      3.60798      5.30326     -5.36123         0.003750     -0.004530     -0.003325
      3.51797      7.15836     -3.59265         0.001705     -0.006665     -0.000737
      7.14772      3.63201     -3.59125        -0.001539     -0.005724     -0.002017
      8.93361      1.83757     -3.60645         0.005357      0.002089      0.002964
      5.33662      8.88882     -3.58619        -0.003903     -0.004913      0.003618
      7.12839     -5.36835     -1.74925         0.001968     -0.000697     -0.005685
      7.13786      1.74789      1.78449        -0.000575     -0.004626      0.000744
      5.36539     -3.59540     -1.76661         0.002339     -0.003828      0.000119
      8.95795     -3.53068      1.76008        -0.003693     -0.002253      0.002053
      1.76583      3.57366     -1.77436        -0.000088     -0.000364     -0.005683
      3.55261      3.57407     -0.00859        -0.002543      0.006664      0.005260
      8.93828     -1.77903     -0.00017        -0.007130     -0.006222      0.007051
      5.34854      3.60020     -1.78340        -0.000133      0.008107      0.007699
      5.39517      3.57616     -5.36125         0.001015     -0.012732     -0.007269
      5.35875      5.35768     -3.57132        -0.001476     -0.004883      0.000080
      7.18672      1.82979     -5.36044         0.001649     -0.005327     -0.001040
 -----------------------------------------------------------------------------------
    total drift:                                0.002524      0.000642     -0.000294


--------------------------------------------------------------------------------------------------------



  FREE ENERGIE OF THE ION-ELECTRON SYSTEM (eV)
  ---------------------------------------------------
  free  energy   TOTEN  =      -358.78686446 eV

  energy  without entropy=     -358.82356785  energy(sigma->0) =     -358.79909892
 
 d Force = 0.3262609E-03[ 0.285E-03, 0.367E-03]  d Energy = 0.3336166E-03-0.736E-05
 d Force =-0.2648530E+00[-0.267E+00,-0.262E+00]  d Ewald  =-0.2648538E+00 0.742E-06


--------------------------------------------------------------------------------------------------------


    POTLOK:  cpu time    0.1210: real time    0.1226


--------------------------------------------------------------------------------------------------------


 Steepest descent step on ions:
 trial-energy change:   -0.000334  1 .order   -0.000326   -0.000367   -0.000285
  (g-gl).g = 0.367E-03      g.g   = 0.367E-03  gl.gl    = 0.000E+00
 g(Force)  = 0.367E-03   g(Stress)= 0.000E+00 ortho     = 0.000E+00
 gamma     =   0.00000
 trial     =   1.00000
 opt step  =   4.00000  (harmonic =   4.49139) maximal distance =0.00365100
 next E    =  -358.787355   (d E  =  -0.00082)


--------------------------------------------------------------------------------------------------------


  
 reached required accuracy - stopping structural energy minimisation
     LOOP+:  cpu time  212.1867: real time  214.9584
    4ORBIT:  cpu time    0.0000: real time    0.0000
 


 total charge     
 
# of ion       s       p       d       tot
------------------------------------------
    1        0.485   0.520   6.217   7.222
    2        0.475   0.509   6.196   7.179
    3        0.475   0.506   6.201   7.183
    4        0.477   0.511   6.212   7.200
    5        0.478   0.513   6.195   7.187
    6        0.478   0.510   6.203   7.191
    7        0.484   0.521   6.216   7.221
    8        0.482   0.519   6.207   7.208
    9        0.477   0.508   6.200   7.185
   10        0.479   0.510   6.202   7.191
   11        0.477   0.506   6.211   7.194
   12        0.485   0.523   6.214   7.222
   13        0.474   0.506   6.188   7.167
   14        0.479   0.514   6.201   7.193
   15        0.478   0.508   6.199   7.185
   16        0.486   0.527   6.221   7.234
   17        0.480   0.514   6.208   7.202
   18        0.479   0.513   6.206   7.198
   19        0.488   0.523   6.230   7.242
   20        0.481   0.516   6.202   7.199
   21        0.496   0.547   6.291   7.334
   22        0.484   0.523   6.213   7.220
   23        0.492   0.537   6.242   7.270
   24        0.477   0.504   6.200   7.180
   25        0.480   0.510   6.216   7.207
   26        0.476   0.509   6.197   7.182
   27        0.486   0.524   6.215   7.225
   28        0.475   0.507   6.190   7.172
   29        0.487   0.526   6.222   7.235
   30        0.484   0.521   6.217   7.221
   31        0.495   0.546   6.286   7.327
   32        0.482   0.518   6.215   7.215
   33        0.479   0.512   6.214   7.205
   34        0.486   0.526   6.220   7.232
   35        0.475   0.508   6.205   7.188
   36        0.488   0.530   6.234   7.253
   37        0.523   0.543   8.307   9.373
   38        0.513   0.519   8.307   9.339
   39        0.517   0.530   8.305   9.353
   40        0.519   0.536   8.315   9.370
   41        0.515   0.526   8.307   9.347
   42        0.520   0.535   8.320   9.376
   43        0.512   0.520   8.310   9.343
   44        0.513   0.522   8.309   9.344
   45        0.516   0.527   8.314   9.357
   46        0.520   0.538   8.315   9.373
   47        0.515   0.529   8.312   9.356
   48        0.518   0.535   8.306   9.359
--------------------------------------------------
tot         23.545  24.983 323.432 371.959
 


 magnetization (x)
 
# of ion       s       p       d       tot
------------------------------------------
    1       -0.007  -0.029   2.494   2.458
    2       -0.007  -0.031   2.638   2.599
    3       -0.008  -0.029   2.617   2.580
    4       -0.011  -0.036   2.568   2.521
    5       -0.007  -0.030   2.639   2.601
    6       -0.012  -0.041   2.576   2.522
    7       -0.014  -0.039   2.545   2.493
    8       -0.013  -0.042   2.573   2.519
    9       -0.010  -0.040   2.594   2.543
   10       -0.004  -0.020   2.626   2.603
   11       -0.009  -0.029   2.585   2.547
   12       -0.003  -0.023   2.443   2.417
   13       -0.009  -0.033   2.641   2.599
   14       -0.013  -0.041   2.589   2.535
   15       -0.012  -0.038   2.619   2.569
   16       -0.008  -0.031   2.412   2.372
   17       -0.017  -0.046   2.548   2.486
   18       -0.011  -0.038   2.587   2.538
   19       -0.010  -0.032   2.427   2.384
   20       -0.006  -0.032   2.546   2.508
   21       -0.028  -0.059   0.059  -0.028
   22       -0.012  -0.042   2.425   2.371
   23       -0.012  -0.038   2.196   2.146
   24       -0.010  -0.038   2.604   2.556
   25       -0.010  -0.032   2.526   2.485
   26       -0.003  -0.025   2.534   2.506
   27       -0.014  -0.045   2.442   2.383
   28       -0.010  -0.036   2.622   2.576
   29       -0.008  -0.034   2.300   2.258
   30       -0.014  -0.042   2.428   2.372
   31       -0.030  -0.059  -0.118  -0.207
   32       -0.011  -0.037   2.467   2.420
   33       -0.011  -0.037   2.536   2.488
   34       -0.007  -0.030   2.353   2.316
   35       -0.006  -0.030   2.590   2.553
   36       -0.009  -0.031   2.369   2.330
   37       -0.029  -0.060   0.715   0.625
   38       -0.023  -0.052   0.749   0.675
   39       -0.028  -0.063   0.756   0.665
   40       -0.030  -0.060   0.731   0.641
   41       -0.026  -0.058   0.745   0.661
   42       -0.029  -0.059   0.702   0.614
   43       -0.025  -0.050   0.747   0.672
   44       -0.021  -0.042   0.710   0.647
   45       -0.030  -0.065   0.704   0.610
   46       -0.033  -0.067   0.729   0.629
   47       -0.030  -0.061   0.723   0.631
   48       -0.030  -0.063   0.760   0.667
--------------------------------------------------
tot         -0.722  -1.992  94.372  91.659
 

 total amount of memory used by VASP MPI-rank0   110750. kBytes
=======================================================================

   base      :      30000. kBytes
   nonlr-proj:      11047. kBytes
   fftplans  :       2600. kBytes
   grid      :       6545. kBytes
   one-center:         93. kBytes
   wavefun   :      60465. kBytes
 
  
  
 General timing and accounting informations for this job:
 ========================================================
  
                  Total CPU time used (sec):     2104.579
                            User time (sec):     2089.217
                          System time (sec):       15.362
                         Elapsed time (sec):     2164.837
  
                   Maximum memory used (kb):      162552.
                   Average memory used (kb):           0.
  
                          Minor page faults:        66427
                          Major page faults:            0
                 Voluntary context switches:        12221
