SQS-NiFe                                
           1
     7.150000   -7.150000    0.000000
     0.000000    7.150000   -7.150000
     3.575000    3.575000    3.575000
   Fe   Ni
  36  12
Direct configuration=     1
   0.00088456  0.99650762  0.99678117
   0.50017884  0.99895357  0.99783740
   0.74983836  0.99491348  0.00388019
   0.24809603  0.24402056  0.99394515
   0.08020644  0.16775773  0.33132061
   0.33396471  0.16439706  0.32440558
   0.16487010  0.08520959  0.66134731
   0.58977117  0.17105563  0.32737271
   0.41561772  0.08571001  0.66357530
   0.83345133  0.16622687  0.33344346
   0.66395642  0.08531251  0.66685792
   0.99212034  0.49365492  0.00022939
   0.24134642  0.49311829  0.99628915
   0.49787687  0.49720412  0.00072942
   0.33016814  0.42037113  0.33249366
   0.75046707  0.49683771  0.01142874
   0.58254706  0.41593594  0.33763983
   0.41580183  0.33860401  0.66446321
   0.83783473  0.41836014  0.34438762
   0.67269985  0.33793809  0.67577964
   0.00088564  0.74572797  0.99032110
   0.24450860  0.74890798  0.99308143
   0.08312969  0.66456415  0.32824003
   0.49505506  0.74568574  0.00118092
   0.33632037  0.67092290  0.33362973
   0.16356660  0.58131926  0.65775454
   0.75521564  0.74889046  0.00888752
   0.59007801  0.67001801  0.34011974
   0.84386842  0.67054812  0.34297406
   0.66925591  0.58743057  0.67636878
   0.92012839  0.58977491  0.67581847
   0.08628254  0.91780128  0.32368192
   0.33907673  0.91528799  0.33100597
   0.16174135  0.83270414  0.66048115
   0.66454320  0.83741638  0.67029404
   0.91541814  0.83842857  0.66796818
   0.25041165  0.99762859  0.99203679
   0.99645345  0.24512328  0.00103723
   0.50084185  0.24789014  0.99493641
   0.75023618  0.24726716  0.00029643
   0.91780608  0.08892430  0.67016999
   0.08074242  0.41433488  0.33244119
   0.16506836  0.33306148  0.66363954
   0.91639014  0.33387471  0.66755081
   0.41404830  0.58349025  0.66801985
   0.58618838  0.91811211  0.33671067
   0.41636990  0.83260815  0.66622255
   0.83467101  0.92016753  0.34092351
Direct configuration=     2
   0.00097296  0.99655494  0.99683677
   0.50017285  0.99897494  0.99777747
   0.74986045  0.99500153  0.00381461
   0.24807617  0.24401975  0.99387951
   0.08021590  0.16778852  0.33129701
   0.33388435  0.16431674  0.32438362
   0.16484373  0.08519595  0.66135872
   0.58979005  0.17105250  0.32730500
   0.41554765  0.08570555  0.66351962
   0.83344040  0.16624240  0.33344671
   0.66391819  0.08530033  0.66680559
   0.99218702  0.49367044  0.00021167
   0.24140787  0.49317872  0.99631271
   0.49790271  0.49720158  0.00080615
   0.33009896  0.42033008  0.33259403
   0.75050802  0.49690390  0.01159470
   0.58252974  0.41586999  0.33773167
   0.41582499  0.33861426  0.66452290
   0.83790933  0.41837985  0.34433695
   0.67266701  0.33791988  0.67581651
   0.00084171  0.74579377  0.99035693
   0.24444197  0.74887082  0.99308398
   0.08312044  0.66461109  0.32811727
   0.49508369  0.74573769  0.00115130
   0.33630361  0.67087361  0.33362137
   0.16357104  0.58128905  0.65766406
   0.75522684  0.74894067  0.00892825
   0.59002651  0.66999623  0.34016277
   0.84383673  0.67051590  0.34297856
   0.66924571  0.58743458  0.67647253
   0.92020678  0.58981289  0.67588583
   0.08624960  0.91776965  0.32365347
   0.33911061  0.91532353  0.33100260
   0.16178261  0.83271041  0.66048336
   0.66455361  0.83739942  0.67025466
   0.91543532  0.83841864  0.66804015
   0.25037806  0.99756732  0.99200367
   0.99647468  0.24515337  0.00100602
   0.50085520  0.24786795  0.99489461
   0.75024686  0.24723601  0.00031445
   0.91778521  0.08890886  0.67014888
   0.08076263  0.41436892  0.33241388
   0.16502292  0.33304699  0.66369182
   0.91635282  0.33378025  0.66751298
   0.41399907  0.58347506  0.66809828
   0.58626670  0.91812650  0.33660369
   0.41637057  0.83259081  0.66621067
   0.83469015  0.92015815  0.34089205
