       N       E                     dE             d eps       ncg     rms          rms(c)
DAV:   1    -0.368748084210E+03   -0.36875E+03   -0.76456E-02  9429   0.250E+00    0.154E+00
RMM:   2    -0.369798941798E+03   -0.10509E+01   -0.31604E-01  9264   0.143E+00    0.227E+01
RMM:   3    -0.368598861065E+03    0.12001E+01   -0.11379E-01  9266   0.840E-01    0.627E+00
RMM:   4    -0.368561026692E+03    0.37834E-01   -0.10451E-01  9155   0.754E-01    0.398E+00
RMM:   5    -0.368556186651E+03    0.48400E-02   -0.40946E-02  9248   0.486E-01    0.375E+00
RMM:   6    -0.368518799652E+03    0.37387E-01   -0.21380E-02  9265   0.378E-01    0.121E+00
RMM:   7    -0.368519763134E+03   -0.96348E-03   -0.67305E-03  9257   0.200E-01    0.137E+00
RMM:   8    -0.368513816858E+03    0.59463E-02   -0.41459E-03  9207   0.157E-01    0.106E+00
RMM:   9    -0.368509887594E+03    0.39293E-02   -0.32702E-03  9283   0.145E-01    0.525E-01
RMM:  10    -0.368509795460E+03    0.92134E-04   -0.20171E-03  9179   0.107E-01    0.721E-01
RMM:  11    -0.368508624047E+03    0.11714E-02   -0.12645E-03  9203   0.895E-02    0.392E-01
RMM:  12    -0.368508444817E+03    0.17923E-03   -0.64394E-04  9182   0.614E-02    0.383E-01
RMM:  13    -0.368508695297E+03   -0.25048E-03   -0.47393E-04  9065   0.525E-02    0.338E-01
RMM:  14    -0.368509132566E+03   -0.43727E-03   -0.34156E-04  9132   0.465E-02    0.172E-01
RMM:  15    -0.368509919879E+03   -0.78731E-03   -0.20066E-04  9157   0.342E-02    0.221E-01
RMM:  16    -0.368511430863E+03   -0.15110E-02   -0.12212E-04  9162   0.263E-02    0.229E-01
RMM:  17    -0.368512125977E+03   -0.69511E-03   -0.74426E-05  9257   0.211E-02    0.191E-01
RMM:  18    -0.368513721392E+03   -0.15954E-02   -0.72735E-05  9161   0.188E-02    0.168E-01
RMM:  19    -0.368514870206E+03   -0.11488E-02   -0.54976E-05  9174   0.176E-02    0.760E-02
RMM:  20    -0.368515738407E+03   -0.86820E-03   -0.32543E-05  9196   0.130E-02    0.874E-02
RMM:  21    -0.368517648042E+03   -0.19096E-02   -0.36250E-05  9102   0.118E-02    0.899E-02
RMM:  22    -0.368518274595E+03   -0.62655E-03   -0.16383E-05  9208   0.932E-03    0.682E-02
RMM:  23    -0.368519917134E+03   -0.16425E-02   -0.32768E-05  9061   0.109E-02    0.803E-02
RMM:  24    -0.368521864695E+03   -0.19476E-02   -0.40851E-05  9054   0.118E-02    0.406E-02
RMM:  25    -0.368523133993E+03   -0.12693E-02   -0.25330E-05  9102   0.918E-03    0.595E-02
RMM:  26    -0.368524581350E+03   -0.14474E-02   -0.30827E-05  9002   0.872E-03    0.397E-02
RMM:  27    -0.368525037367E+03   -0.45602E-03   -0.93209E-06  8743   0.600E-03    0.289E-02
RMM:  28    -0.368525841074E+03   -0.80371E-03   -0.18713E-05  8749   0.601E-03    0.332E-02
RMM:  29    -0.368526089419E+03   -0.24834E-03   -0.69253E-06  7801   0.473E-03    0.139E-02
RMM:  30    -0.368526208416E+03   -0.11900E-03   -0.36323E-06  6652   0.338E-03    0.219E-02
RMM:  31    -0.368526286455E+03   -0.78039E-04   -0.43222E-06  6761   0.331E-03    0.127E-02
RMM:  32    -0.368526289405E+03   -0.29507E-05   -0.14777E-06  5919   0.229E-03    0.803E-03
RMM:  33    -0.368526276718E+03    0.12688E-04   -0.16918E-06  5969   0.198E-03    0.110E-02
RMM:  34    -0.368526274679E+03    0.20393E-05   -0.57326E-07  5761   0.179E-03    0.527E-03
RMM:  35    -0.368526279124E+03   -0.44451E-05   -0.27016E-07  5509   0.103E-03    0.725E-03
RMM:  36    -0.368526284107E+03   -0.49834E-05   -0.17792E-07  5300   0.102E-03    0.329E-03
RMM:  37    -0.368526289962E+03   -0.58553E-05   -0.57357E-08  4816   0.536E-04    0.365E-03
RMM:  38    -0.368526306379E+03   -0.16417E-04   -0.87377E-08  4858   0.530E-04    0.239E-03
RMM:  39    -0.368526313854E+03   -0.74752E-05   -0.39117E-08  4379   0.449E-04    0.143E-03
RMM:  40    -0.368526328487E+03   -0.14633E-04   -0.56864E-08  4223   0.422E-04    0.232E-03
RMM:  41    -0.368526342928E+03   -0.14441E-04   -0.52622E-08  3652   0.390E-04    0.124E-03
RMM:  42    -0.368526349138E+03   -0.62102E-05   -0.12429E-08  2290   0.308E-04    0.105E-03
RMM:  43    -0.368526364290E+03   -0.15151E-04   -0.71053E-08  3154   0.367E-04    0.116E-03
RMM:  44    -0.368526373696E+03   -0.94062E-05   -0.31593E-08  2516   0.316E-04    0.764E-04
RMM:  45    -0.368526388000E+03   -0.14304E-04   -0.98746E-08  3489   0.384E-04    0.119E-03
RMM:  46    -0.368526399252E+03   -0.11252E-04   -0.68935E-08  2905   0.336E-04    0.648E-04
RMM:  47    -0.368526403743E+03   -0.44911E-05   -0.31272E-08  2611   0.306E-04    0.766E-04
RMM:  48    -0.368526414542E+03   -0.10798E-04   -0.13606E-07  3230   0.366E-04    0.406E-04
RMM:  49    -0.368526416519E+03   -0.19777E-05   -0.18767E-08  2266   0.267E-04    0.445E-04
RMM:  50    -0.368526419250E+03   -0.27304E-05   -0.37892E-08  2379   0.281E-04    0.319E-04
RMM:  51    -0.368526419599E+03   -0.34958E-06   -0.91398E-09  1846   0.252E-04
   1 F= -.38669590E+03 E0= -.38669590E+03  d E =0.000000E+00  mag=    43.6708
