 vasp.5.4.4.18Apr17-6-g9f103f2a35 (build Dec 15 2018 21:27:11) complex          
  
 executed on             LinuxIFC date 2022.03.01  03:29:56
 running on   72 total cores
 distrk:  each k-point on   72 cores,    1 groups
 distr:  one band on NCORES_PER_BAND=  24 cores,    3 groups


--------------------------------------------------------------------------------------------------------


 INCAR:
 POTCAR:    PAW_PBE Ni 02Aug2007                  
 POTCAR:    PAW_PBE O 08Apr2002                   
 POTCAR:    PAW_PBE H 15Jun2001                   

 ----------------------------------------------------------------------------- 
|                                                                             |
|           W    W    AA    RRRRR   N    N  II  N    N   GGGG   !!!           |
|           W    W   A  A   R    R  NN   N  II  NN   N  G    G  !!!           |
|           W    W  A    A  R    R  N N  N  II  N N  N  G       !!!           |
|           W WW W  AAAAAA  RRRRR   N  N N  II  N  N N  G  GGG   !            |
|           WW  WW  A    A  R   R   N   NN  II  N   NN  G    G                |
|           W    W  A    A  R    R  N    N  II  N    N   GGGG   !!!           |
|                                                                             |
|      For optimal performance we recommend to set                            |
|        NCORE= 4 - approx SQRT( number of cores)                             |
|      NCORE specifies how many cores store one orbital (NPAR=cpu/NCORE).     |
|      This setting can  greatly improve the performance of VASP for DFT.     |
|      The default,   NCORE=1            might be grossly inefficient         |
|      on modern multi-core architectures or massively parallel machines.     |
|      Do your own testing !!!!                                               |
|      Unfortunately you need to use the default for GW and RPA calculations. |
|      (for HF NCORE is supported but not extensively tested yet)             |
|                                                                             |
 ----------------------------------------------------------------------------- 

 POTCAR:    PAW_PBE Ni 02Aug2007                  
   VRHFIN =Ni:                                                                  
   LEXCH  = PE                                                                  
   EATOM  =  1077.6739 eV,   79.2068 Ry                                         
                                                                                
   TITEL  = PAW_PBE Ni 02Aug2007                                                
   LULTRA =        F    use ultrasoft PP ?                                      
   IUNSCR =        1    unscreen: 0-lin 1-nonlin 2-no                           
   RPACOR =    2.000    partial core radius                                     
   POMASS =   58.690; ZVAL   =   10.000    mass and valenz                      
   RCORE  =    2.300    outmost cutoff radius                                   
   RWIGS  =    2.430; RWIGS  =    1.286    wigner-seitz radius (au A)           
   ENMAX  =  269.532; ENMIN  =  202.149 eV                                      
   RCLOC  =    1.201    cutoff for local pot                                    
   LCOR   =        T    correct aug charges                                     
   LPAW   =        T    paw PP                                                  
   EAUG   =  544.565                                                            
   DEXC   =    0.000                                                            
   RMAX   =    2.357    core radius for proj-oper                               
   RAUG   =    1.300    factor for augmentation sphere                          
   RDEP   =    2.390    radius for radial grids                                 
   RDEPT  =    1.838    core radius for aug-charge                              
                                                                                
   Atomic configuration                                                         
    9 entries                                                                   
     n  l   j            E        occ.                                          
     1  0  0.50     -8206.4253   2.0000                                         
     2  0  0.50      -976.1748   2.0000                                         
     2  1  1.50      -839.0571   6.0000                                         
     3  0  0.50      -105.9991   2.0000                                         
     3  1  1.50       -66.4603   6.0000                                         
     3  2  2.50        -4.6458   9.0000                                         
     4  0  0.50        -4.4926   1.0000                                         
     4  1  1.50        -4.0817   0.0000                                         
     4  3  2.50        -1.3606   0.0000                                         
   Description                                                                  
     l       E           TYP  RCUT    TYP  RCUT                                 
     2     -4.6457903     23  2.300                                             
     2     -6.0063729     23  2.300                                             
     0     -4.4925590     23  2.300                                             
     0      5.0102601     23  2.300                                             
     1     -2.7211652     23  2.300                                             
     1     16.5183231     23  2.300                                             
  local pseudopotential read in
  partial core-charges read in
  partial kinetic energy density read in
  atomic valenz-charges read in
  non local Contribution for L=           2  read in
    real space projection operators read in
  non local Contribution for L=           2  read in
    real space projection operators read in
  non local Contribution for L=           0  read in
    real space projection operators read in
  non local Contribution for L=           0  read in
    real space projection operators read in
  non local Contribution for L=           1  read in
    real space projection operators read in
  non local Contribution for L=           1  read in
    real space projection operators read in
    PAW grid and wavefunctions read in
 
   number of l-projection  operators is LMAX  =           6
   number of lm-projection operators is LMMAX =          18
 
 POTCAR:    PAW_PBE O 08Apr2002                   
   VRHFIN =O: s2p4                                                              
   LEXCH  = PE                                                                  
   EATOM  =   432.3788 eV,   31.7789 Ry                                         
                                                                                
   TITEL  = PAW_PBE O 08Apr2002                                                 
   LULTRA =        F    use ultrasoft PP ?                                      
   IUNSCR =        1    unscreen: 0-lin 1-nonlin 2-no                           
   RPACOR =    1.200    partial core radius                                     
   POMASS =   16.000; ZVAL   =    6.000    mass and valenz                      
   RCORE  =    1.520    outmost cutoff radius                                   
   RWIGS  =    1.550; RWIGS  =    0.820    wigner-seitz radius (au A)           
   ENMAX  =  400.000; ENMIN  =  300.000 eV                                      
   ICORE  =        2    local potential                                         
   LCOR   =        T    correct aug charges                                     
   LPAW   =        T    paw PP                                                  
   EAUG   =  605.392                                                            
   DEXC   =    0.000                                                            
   RMAX   =    1.553    core radius for proj-oper                               
   RAUG   =    1.300    factor for augmentation sphere                          
   RDEP   =    1.550    radius for radial grids                                 
   RDEPT  =    1.329    core radius for aug-charge                              
                                                                                
   Atomic configuration                                                         
    4 entries                                                                   
     n  l   j            E        occ.                                          
     1  0  0.50      -514.6923   2.0000                                         
     2  0  0.50       -23.9615   2.0000                                         
     2  1  0.50        -9.0305   4.0000                                         
     3  2  1.50        -9.5241   0.0000                                         
   Description                                                                  
     l       E           TYP  RCUT    TYP  RCUT                                 
     0    -23.9615318     23  1.200                                             
     0     -9.5240782     23  1.200                                             
     1     -9.0304911     23  1.520                                             
     1      8.1634956     23  1.520                                             
     2     -9.5240782      7  1.500                                             
  local pseudopotential read in
  partial core-charges read in
  partial kinetic energy density read in
  kinetic energy density of atom read in
  atomic valenz-charges read in
  non local Contribution for L=           0  read in
    real space projection operators read in
  non local Contribution for L=           0  read in
    real space projection operators read in
  non local Contribution for L=           1  read in
    real space projection operators read in
  non local Contribution for L=           1  read in
    real space projection operators read in
    PAW grid and wavefunctions read in
 
   number of l-projection  operators is LMAX  =           4
   number of lm-projection operators is LMMAX =           8
 
 POTCAR:    PAW_PBE H 15Jun2001                   
   VRHFIN =H: ultrasoft test                                                    
   LEXCH  = PE                                                                  
   EATOM  =    12.4884 eV,    0.9179 Ry                                         
                                                                                
   TITEL  = PAW_PBE H 15Jun2001                                                 
   LULTRA =        F    use ultrasoft PP ?                                      
   IUNSCR =        0    unscreen: 0-lin 1-nonlin 2-no                           
   RPACOR =    0.000    partial core radius                                     
   POMASS =    1.000; ZVAL   =    1.000    mass and valenz                      
   RCORE  =    1.100    outmost cutoff radius                                   
   RWIGS  =    0.700; RWIGS  =    0.370    wigner-seitz radius (au A)           
   ENMAX  =  250.000; ENMIN  =  200.000 eV                                      
   RCLOC  =    0.701    cutoff for local pot                                    
   LCOR   =        T    correct aug charges                                     
   LPAW   =        T    paw PP                                                  
   EAUG   =  400.000                                                            
   RMAX   =    1.123    core radius for proj-oper                               
   RAUG   =    1.200    factor for augmentation sphere                          
   RDEP   =    1.112    radius for radial grids                                 
   RDEPT  =    0.926    core radius for aug-charge                              
                                                                                
   Atomic configuration                                                         
    2 entries                                                                   
     n  l   j            E        occ.                                          
     1  0  0.50        -6.4927   1.0000                                         
     2  1  0.50        -3.4015   0.0000                                         
   Description                                                                  
     l       E           TYP  RCUT    TYP  RCUT                                 
     0     -6.4927494     23  1.100                                             
     0      6.8029130     23  1.100                                             
     1     -4.0817478     23  1.100                                             
  local pseudopotential read in
  atomic valenz-charges read in
  non local Contribution for L=           0  read in
    real space projection operators read in
  non local Contribution for L=           0  read in
    real space projection operators read in
  non local Contribution for L=           1  read in
    real space projection operators read in
    PAW grid and wavefunctions read in
 
   number of l-projection  operators is LMAX  =           3
   number of lm-projection operators is LMMAX =           5
 
 Optimization of the real space projectors (new method)

 maximal supplied QI-value         = 16.25
 optimisation between [QCUT,QGAM] = [ 11.54, 23.24] = [ 37.28,151.24] Ry 
 Optimized for a Real-space Cutoff    1.45 Angstroem

   l    n(q)    QCUT    max X(q) W(low)/X(q) W(high)/X(q)  e(spline) 
   2      9    11.539    60.317    0.19E-03    0.47E-04    0.16E-06
   2      9    11.539    55.921    0.19E-03    0.48E-04    0.16E-06
   0     10    11.539    51.690    0.80E-04    0.50E-04    0.24E-06
   0     10    11.539    30.015    0.73E-04    0.45E-04    0.22E-06
   1     10    11.539    18.849    0.87E-04    0.16E-03    0.71E-07
   1     10    11.539    14.624    0.73E-04    0.13E-03    0.64E-07
 Optimization of the real space projectors (new method)

 maximal supplied QI-value         = 24.76
 optimisation between [QCUT,QGAM] = [ 11.64, 23.27] = [ 37.91,151.63] Ry 
 Optimized for a Real-space Cutoff    1.14 Angstroem

   l    n(q)    QCUT    max X(q) W(low)/X(q) W(high)/X(q)  e(spline) 
   0      8    11.635    20.381    0.10E-03    0.33E-03    0.24E-06
   0      8    11.635    15.268    0.11E-03    0.35E-03    0.26E-06
   1      7    11.635     5.964    0.24E-03    0.31E-03    0.30E-06
   1      7    11.635     5.382    0.22E-03    0.25E-03    0.26E-06
 Optimization of the real space projectors (new method)

 maximal supplied QI-value         = 34.20
 optimisation between [QCUT,QGAM] = [ 11.63, 23.26] = [ 37.87,151.49] Ry 
 Optimized for a Real-space Cutoff    1.21 Angstroem

   l    n(q)    QCUT    max X(q) W(low)/X(q) W(high)/X(q)  e(spline) 
   0      8    11.629    19.460    0.17E-03    0.34E-03    0.21E-06
   0      8    11.629    12.209    0.16E-03    0.33E-03    0.21E-06
   1      8    11.629     4.655    0.18E-03    0.16E-03    0.26E-06
  PAW_PBE Ni 02Aug2007                  :
 energy of atom  1       EATOM=-1077.6739
 kinetic energy error for atom=    0.0030 (will be added to EATOM!!)
  PAW_PBE O 08Apr2002                   :
 energy of atom  2       EATOM= -432.3788
 kinetic energy error for atom=    0.0208 (will be added to EATOM!!)
  PAW_PBE H 15Jun2001                   :
 energy of atom  3       EATOM=  -12.4884
 kinetic energy error for atom=    0.0014 (will be added to EATOM!!)
 
 
 POSCAR: POSCAR                                  
  positions in direct lattice
  velocities in cartesian coordinates
 exchange correlation table for  LEXCH =        8
   RHO(1)=    0.500       N(1)  =     2000
   RHO(2)=  100.500       N(2)  =     4000

 VTST: version 3.2, (02/03/18)

 CHAIN: initializing optimizer
 
 OPT: Using VASP Dynamics algorithm
 CHAIN: Read ICHAIN            0
 
 POSCAR: POSCAR                                  
  positions in direct lattice
  velocities in cartesian coordinates
 


--------------------------------------------------------------------------------------------------------


 ion  position               nearest neighbor table
   1  0.113  0.226  0.095-  15 2.49  19 2.49   3 2.49   5 2.49  13 2.49  17 2.49  21 2.49  49 2.49
                            61 2.49
   2  0.110  0.227  0.382-  65 1.83  14 2.40  18 2.43  20 2.46  62 2.49  22 2.50  24 2.51   6 2.51
                             4 2.52  50 2.57
   3  0.196  0.142  0.191-   4 2.44  24 2.45   8 2.45   5 2.49  49 2.49   1 2.49   7 2.49  15 2.49
                            19 2.49  23 2.49  51 2.49  63 2.49
   4  0.030  0.059  0.285-  62 2.43   3 2.44  63 2.44  15 2.44  24 2.49   8 2.49  16 2.49  64 2.49
                            20 2.49  52 2.50   2 2.52  50 2.53
   5  0.363  0.226  0.095-   3 2.49  23 2.49   7 2.49   9 2.49   1 2.49  21 2.49  25 2.49  49 2.49
                            53 2.49
   6  0.360  0.223  0.386-  65 1.88  69 1.98   2 2.51  50 2.51  54 2.52  22 2.52  26 2.54  28 2.54
                            10 2.54   8 2.55  24 2.55
   7  0.446  0.142  0.191-   8 2.45  12 2.46  28 2.49   9 2.49  53 2.49   5 2.49  11 2.49   3 2.49
                            23 2.49  51 2.49  27 2.49  55 2.49
   8  0.280  0.060  0.286-  54 2.41   3 2.45   7 2.45  51 2.46  24 2.47  28 2.48   4 2.49  52 2.50
                            12 2.50  56 2.51  50 2.51   6 2.55
   9  0.613  0.226  0.095-   7 2.49  27 2.49  11 2.49  13 2.49   5 2.49  25 2.49  29 2.49  53 2.49
                            57 2.49
  10  0.615  0.223  0.386-  68 1.89  69 1.97  14 2.51  58 2.51  54 2.52  30 2.52  32 2.54  28 2.54
                            12 2.54  26 2.54   6 2.54
  11  0.696  0.142  0.191-  16 2.44  12 2.45  32 2.45  13 2.49  57 2.49   9 2.49  15 2.49   7 2.49
                            27 2.49  55 2.49  31 2.49  59 2.49
  12  0.531  0.060  0.286-  54 2.41  11 2.45   7 2.46  55 2.46  32 2.47  28 2.49  16 2.49  60 2.50
                             8 2.50  56 2.51  58 2.52  10 2.54
  13  0.863  0.226  0.095-  11 2.49  31 2.49  15 2.49   9 2.49   1 2.49  29 2.49  17 2.49  57 2.49
                            61 2.49
  14  0.869  0.227  0.382-  68 1.83   2 2.40  18 2.43  20 2.45  62 2.49  30 2.50  10 2.51  32 2.52
                            16 2.52  58 2.57
  15  0.946  0.142  0.191-  16 2.44   4 2.44  20 2.47   1 2.49  61 2.49  13 2.49   3 2.49  11 2.49
                            31 2.49  59 2.49  19 2.49  63 2.49
  16  0.780  0.059  0.285-  62 2.43  15 2.44  59 2.44  11 2.44  32 2.49  12 2.49   4 2.49  64 2.49
                            60 2.50  20 2.50  58 2.52  14 2.52
  17  0.113  0.476  0.095-  31 2.49  35 2.49  19 2.49  21 2.49  29 2.49  13 2.49  33 2.49   1 2.49
                            37 2.49
  18  0.112  0.472  0.382-  67 1.84  14 2.43   2 2.43  20 2.47  30 2.47  22 2.47  40 2.52  36 2.53
                            34 2.54  38 2.54
  19  0.196  0.392  0.191-  40 2.44  20 2.47  24 2.47  21 2.49   1 2.49  17 2.49  31 2.49  23 2.49
                            15 2.49  35 2.49  39 2.49   3 2.49
  20  0.030  0.309  0.286-  14 2.45   2 2.46  19 2.47  15 2.47  18 2.47  31 2.47  40 2.49  36 2.49
                             4 2.49  16 2.50  24 2.50  32 2.50
  21  0.363  0.476  0.095-  19 2.49  39 2.49  23 2.49  25 2.49  17 2.49   5 2.49  37 2.49   1 2.49
                            41 2.49
  22  0.362  0.476  0.377-  40 2.41  44 2.41  24 2.41  18 2.47  38 2.47   2 2.50  42 2.50   6 2.52
                            26 2.52
  23  0.446  0.392  0.191-  24 2.45  44 2.46  25 2.49   5 2.49  21 2.49  27 2.49  19 2.49   3 2.49
                            39 2.49  43 2.49   7 2.49  28 2.50
  24  0.280  0.307  0.286-  22 2.41   3 2.45  23 2.45   8 2.47  19 2.47  28 2.48   4 2.49  20 2.50
                            44 2.50  40 2.51   2 2.51   6 2.55
  25  0.613  0.476  0.095-  23 2.49  43 2.49  27 2.49  29 2.49  21 2.49   9 2.49  41 2.49   5 2.49
                            45 2.49
  26  0.615  0.478  0.386-  66 1.88  69 1.98  42 2.51  46 2.52  30 2.52  22 2.52   6 2.54  28 2.54
                            10 2.54  48 2.55  44 2.55
  27  0.696  0.392  0.191-  48 2.46  32 2.46  28 2.49  29 2.49   9 2.49  25 2.49  23 2.49  31 2.49
                            11 2.49  43 2.49  47 2.49   7 2.49
  28  0.530  0.309  0.288-  44 2.48  24 2.48   8 2.48  48 2.48  12 2.49  32 2.49  27 2.49   7 2.49
                            23 2.50  10 2.54  26 2.54   6 2.54
  29  0.863  0.476  0.095-  27 2.49  47 2.49  31 2.49  25 2.49  17 2.49  13 2.49  33 2.49  45 2.49
                             9 2.49
  30  0.866  0.477  0.376-  36 2.40  32 2.41  48 2.41  18 2.47  34 2.47  46 2.50  14 2.50  10 2.52
                            26 2.52
  31  0.946  0.392  0.191-  36 2.44  32 2.46  20 2.47  17 2.49  13 2.49  29 2.49  27 2.49  19 2.49
                            15 2.49  35 2.49  11 2.49  47 2.49
  32  0.779  0.307  0.286-  30 2.41  11 2.45  27 2.46  31 2.46  12 2.47  28 2.49  16 2.49  20 2.50
                            48 2.50  36 2.51  14 2.52  10 2.54
  33  0.113  0.726  0.095-  47 2.49  51 2.49  35 2.49  37 2.49  45 2.49  29 2.49  49 2.49  17 2.49
                            53 2.49
  34  0.112  0.727  0.382-  67 1.84  46 2.43  50 2.43  52 2.47  54 2.47  30 2.47  56 2.52  36 2.52
                            18 2.54  38 2.54
  35  0.196  0.642  0.191-  36 2.43  56 2.43  40 2.44  37 2.49  17 2.49  33 2.49  47 2.49  39 2.49
                            31 2.49  51 2.49  55 2.49  19 2.49
  36  0.030  0.559  0.284-  30 2.40  35 2.43  31 2.44  47 2.44  52 2.49  20 2.49  56 2.49  40 2.49
                            48 2.51  32 2.51  34 2.52  18 2.53
  37  0.363  0.726  0.095-  35 2.49  55 2.49  39 2.49  41 2.49  33 2.49  21 2.49  53 2.49  17 2.49
                            57 2.49
  38  0.366  0.727  0.382-  67 1.84  58 2.43  42 2.43  60 2.47  54 2.47  22 2.47  40 2.52  56 2.53
                            18 2.54  34 2.54
  39  0.446  0.642  0.191-  40 2.44  60 2.47  44 2.47  41 2.49  21 2.49  37 2.49  35 2.49  43 2.49
                            23 2.49  55 2.49  59 2.49  19 2.49
  40  0.280  0.559  0.284-  22 2.41  39 2.44  19 2.44  35 2.44  20 2.49  60 2.49  56 2.49  36 2.49
                            44 2.51  24 2.51  18 2.52  38 2.52
  41  0.613  0.726  0.095-  39 2.49  59 2.49  43 2.49  45 2.49  37 2.49  25 2.49  57 2.49  21 2.49
                            61 2.49
  42  0.612  0.729  0.382-  66 1.83  58 2.40  38 2.43  60 2.46  62 2.49  22 2.50  44 2.51  26 2.51
                            64 2.52  46 2.57
  43  0.696  0.642  0.191-  64 2.44  44 2.45  48 2.45  45 2.49  25 2.49  41 2.49  39 2.49  47 2.49
                            27 2.49  59 2.49  63 2.49  23 2.49
  44  0.531  0.559  0.286-  22 2.41  43 2.45  23 2.46  48 2.47  39 2.47  28 2.48  64 2.49  60 2.50
                            24 2.50  40 2.51  42 2.51  26 2.55
  45  0.863  0.726  0.095-  43 2.49  63 2.49  47 2.49  41 2.49  33 2.49  29 2.49  49 2.49  61 2.49
                            25 2.49
  46  0.869  0.729  0.382-  66 1.83  50 2.40  34 2.43  52 2.46  62 2.49  30 2.50  48 2.51  26 2.52
                            64 2.53  42 2.57
  47  0.946  0.642  0.191-  36 2.44  48 2.46  52 2.47  33 2.49  29 2.49  45 2.49  43 2.49  35 2.49
                            31 2.49  51 2.49  27 2.49  63 2.49
  48  0.779  0.559  0.286-  30 2.41  43 2.45  27 2.46  47 2.46  44 2.47  28 2.48  64 2.49  52 2.50
                            32 2.50  36 2.51  46 2.51  26 2.55
  49  0.113  0.976  0.095-  63 2.49   3 2.49  51 2.49  61 2.49  53 2.49   1 2.49   5 2.49  33 2.49
                            45 2.49
  50  0.110  0.970  0.382-  65 1.83  46 2.40  34 2.43  52 2.46  62 2.49  54 2.50   8 2.51   6 2.51
                             4 2.53   2 2.57
  51  0.196  0.892  0.191-  56 2.44   8 2.46  52 2.47  53 2.49  33 2.49  49 2.49  55 2.49  63 2.49
                            35 2.49  47 2.49   3 2.49   7 2.49
  52  0.030  0.809  0.286-  46 2.46  50 2.46  51 2.47  47 2.47  34 2.47  63 2.47  56 2.49  36 2.49
                             4 2.50  64 2.50   8 2.50  48 2.50
  53  0.363  0.976  0.095-  51 2.49   7 2.49  55 2.49  49 2.49  57 2.49   5 2.49   9 2.49  33 2.49
                            37 2.49
  54  0.362  0.972  0.376-  56 2.40  12 2.41   8 2.41  38 2.47  34 2.47  50 2.50  58 2.50  10 2.52
                             6 2.52
  55  0.446  0.892  0.191-  56 2.44  12 2.46  60 2.47  57 2.49  37 2.49  53 2.49  59 2.49  51 2.49
                            11 2.49  39 2.49   7 2.49  35 2.49
  56  0.280  0.809  0.284-  54 2.40  35 2.43  55 2.44  51 2.44  52 2.49  60 2.49  36 2.49  40 2.49
                            12 2.51   8 2.51  34 2.52  38 2.53
  57  0.613  0.976  0.095-  55 2.49  11 2.49  59 2.49  53 2.49  61 2.49   9 2.49  13 2.49  37 2.49
                            41 2.49
  58  0.612  0.969  0.382-  68 1.83  42 2.40  38 2.43  60 2.45  62 2.49  54 2.50  10 2.51  12 2.52
                            16 2.52  14 2.57
  59  0.696  0.892  0.191-  16 2.44  64 2.44  60 2.47  61 2.49  41 2.49  57 2.49  63 2.49  55 2.49
                            15 2.49  43 2.49  11 2.49  39 2.49
  60  0.529  0.808  0.286-  58 2.45  42 2.46  39 2.47  59 2.47  38 2.47  55 2.47  40 2.49  56 2.49
                            64 2.49  16 2.50  44 2.50  12 2.50
  61  0.863  0.976  0.095-  59 2.49  15 2.49  63 2.49  49 2.49  57 2.49  13 2.49   1 2.49  41 2.49
                            45 2.49
  62  0.864  0.975  0.377-   4 2.43  64 2.43  16 2.43  58 2.49  14 2.49  50 2.49  46 2.49  42 2.49
                             2 2.49
  63  0.946  0.892  0.191-  64 2.44   4 2.44  52 2.47  49 2.49  45 2.49  61 2.49  51 2.49  59 2.49
                             3 2.49  47 2.49  15 2.49  43 2.49
  64  0.780  0.809  0.285-  62 2.43  43 2.44  63 2.44  59 2.44  44 2.49  48 2.49  16 2.49   4 2.49
                            60 2.49  52 2.50  42 2.52  46 2.53
  65  0.180  0.133  0.437-   2 1.83  50 1.83   6 1.88
  66  0.705  0.658  0.437-  46 1.83  42 1.83  26 1.88
  67  0.197  0.642  0.435-  38 1.84  18 1.84  34 1.84
  68  0.705  0.133  0.436-  14 1.83  58 1.83  10 1.89
  69  0.531  0.308  0.449-  70 0.97  10 1.97  26 1.98   6 1.98
  70  0.533  0.306  0.495-  69 0.97
 

IMPORTANT INFORMATION: All symmetrisations will be switched off!
NOSYMM: (Re-)initialisation of all symmetry stuff for point group C_1.

 
 

Automatic generation of k-mesh.
 generate k-points for:    3    3    1
Space group operators:
 irot       det(A)        alpha          n_x          n_y          n_z        tau_x        tau_y        tau_z
    1     1.000000     0.000000     1.000000     0.000000     0.000000     0.000000     0.000000     0.000000
 
 Subroutine IBZKPT returns following result:
 ===========================================
 
 Found      5 irreducible k-points:
 
 Following reciprocal coordinates:
            Coordinates               Weight
  0.000000  0.000000  0.000000      1.000000
  0.333333  0.000000  0.000000      2.000000
  0.000000  0.333333  0.000000      2.000000
  0.333333  0.333333  0.000000      2.000000
 -0.333333  0.333333  0.000000      2.000000
 
 Following cartesian coordinates:
            Coordinates               Weight
  0.000000  0.000000  0.000000      1.000000
  0.033442  0.019308  0.000000      2.000000
  0.000000  0.038616  0.000000      2.000000
  0.033442  0.057924  0.000000      2.000000
 -0.033442  0.019308  0.000000      2.000000
 
 TETIRR: Found     24 inequivalent tetrahedra from       54


--------------------------------------------------------------------------------------------------------




 Dimension of arrays:
   k-points           NKPTS =      5   k-points in BZ     NKDIM =      5   number of bands    NBANDS=    438
   number of dos      NEDOS =    301   number of ions     NIONS =     70
   non local maximal  LDIM  =      6   non local SUM 2l+1 LMDIM =     18
   total plane-waves  NPLWV = ******
   max r-space proj   IRMAX =   7188   max aug-charges    IRDMAX=  18478
   dimension x,y,z NGX =    80 NGY =   80 NGZ =  160
   dimension x,y,z NGXF=   160 NGYF=  160 NGZF=  320
   support grid    NGXF=   160 NGYF=  160 NGZF=  320
   ions per type =              64   5   1
   NGX,Y,Z   is equivalent  to a cutoff of  13.34, 13.34, 12.60 a.u.
   NGXF,Y,Z  is equivalent  to a cutoff of  26.69, 26.69, 25.21 a.u.

 SYSTEM =  SQS-NiFe                                
 POSCAR =  POSCAR                                  

 Startparameter for this run:
   NWRITE =      2    write-flag & timer
   PREC   = accura    normal or accurate (medium, high low for compatibility)
   ISTART =      1    job   : 0-new  1-cont  2-samecut
   ICHARG =      1    charge: 1-file 2-atom 10-const
   ISPIN  =      2    spin polarized calculation?
   LNONCOLLINEAR =      F non collinear calculations
   LSORBIT =      F    spin-orbit coupling
   INIWAV =      1    electr: 0-lowe 1-rand  2-diag
   LASPH  =      F    aspherical Exc in radial PAW
   METAGGA=      F    non-selfconsistent MetaGGA calc.

 Electronic Relaxation 1
   ENCUT  =  520.0 eV  38.22 Ry    6.18 a.u.  18.53 18.53 39.24*2*pi/ulx,y,z
   ENINI  =  520.0     initial cutoff
   ENAUG  =  605.4 eV  augmentation charge cutoff
   NELM   =    200;   NELMIN=  2; NELMDL=  0     # of ELM steps 
   EDIFF  = 0.1E-05   stopping-criterion for ELM
   LREAL  =      T    real-space projection
   NLSPLINE    = F    spline interpolate recip. space projectors
   LCOMPAT=      F    compatible to vasp.4.4
   GGA_COMPAT  = T    GGA compatible to vasp.4.4-vasp.4.6
   LMAXPAW     = -100 max onsite density
   LMAXMIX     =    2 max onsite mixed and CHGCAR
   VOSKOWN=      0    Vosko Wilk Nusair interpolation
   ROPT   =   -0.00025  -0.00025  -0.00025
 Ionic relaxation
   EDIFFG = -.2E-01   stopping-criterion for IOM
   NSW    =      0    number of steps for IOM
   NBLOCK =      1;   KBLOCK =      1    inner block; outer block 
   IBRION =     -1    ionic relax: 0-MD 1-quasi-New 2-CG
   NFREE  =      0    steps in history (QN), initial steepest desc. (CG)
   ISIF   =      2    stress and relaxation
   IWAVPR =     10    prediction:  0-non 1-charg 2-wave 3-comb
   ISYM   =      0    0-nonsym 1-usesym 2-fastsym
   LCORR  =      T    Harris-Foulkes like correction to forces

   POTIM  = 0.5000    time-step for ionic-motion
   TEIN   =    0.0    initial temperature
   TEBEG  =    0.0;   TEEND  =   0.0 temperature during run
   SMASS  =  -3.00    Nose mass-parameter (am)
   estimated Nose-frequenzy (Omega)   =  0.10E-29 period in steps =****** mass=  -0.227E-26a.u.
   SCALEE = 1.0000    scale energy and forces
   NPACO  =    256;   APACO  = 16.0  distance and # of slots for P.C.
   PSTRESS=    0.0 pullay stress

  Mass of Ions in am
   POMASS =  58.69 16.00  1.00
  Ionic Valenz
   ZVAL   =  10.00  6.00  1.00
  Atomic Wigner-Seitz radii
   RWIGS  =  -1.00 -1.00 -1.00
  virtual crystal weights 
   VCA    =   1.00  1.00  1.00
   NELECT =     671.0000    total number of electrons
   NUPDOWN=      -1.0000    fix difference up-down

 DOS related values:
   EMIN   =  10.00;   EMAX   =-10.00  energy-range for DOS
   EFERMI =   0.00
   ISMEAR =    -5;   SIGMA  =   0.20  broadening in eV -4-tet -1-fermi 0-gaus

 Electronic relaxation 2 (details)
   IALGO  =     68    algorithm
   LDIAG  =      T    sub-space diagonalisation (order eigenvalues)
   LSUBROT=      F    optimize rotation matrix (better conditioning)
   TURBO    =      0    0=normal 1=particle mesh
   IRESTART =      0    0=no restart 2=restart with 2 vectors
   NREBOOT  =      0    no. of reboots
   NMIN     =      0    reboot dimension
   EREF     =   0.00    reference energy to select bands
   IMIX   =      4    mixing-type and parameters
     AMIX     =   0.40;   BMIX     =  1.00
     AMIX_MAG =   1.60;   BMIX_MAG =  1.00
     AMIN     =   0.10
     WC   =   100.;   INIMIX=   1;  MIXPRE=   1;  MAXMIX= -45

 Intra band minimization:
   WEIMIN = 0.0000     energy-eigenvalue tresh-hold
   EBREAK =  0.57E-09  absolut break condition
   DEPER  =   0.30     relativ break condition  

   TIME   =   0.40     timestep for ELM

  volume/ion in A,a.u.               =      25.94       175.05
  Fermi-wavevector in a.u.,A,eV,Ry     =   1.174803  2.220055 18.778233  1.380161
  Thomas-Fermi vector in A             =   2.311194
 
 Write flags
   LWAVE        =      T    write WAVECAR
   LDOWNSAMPLE  =      F    k-point downsampling of WAVECAR
   LCHARG       =      T    write CHGCAR
   LVTOT        =      F    write LOCPOT, total local potential
   LVHAR        =      F    write LOCPOT, Hartree potential only
   LELF         =      F    write electronic localiz. function (ELF)
   LORBIT       =     11    0 simple, 1 ext, 2 COOP (PROOUT), +10 PAW based schemes


 Dipole corrections
   LMONO  =      F    monopole corrections only (constant potential shift)
   LDIPOL =      T    correct potential (dipole corrections)
   IDIPOL =      3    1-x, 2-y, 3-z, 4-all directions 
   EPSILON=  1.0000000 bulk dielectric constant

 Exchange correlation treatment:
   GGA     =    --    GGA type
   LEXCH   =     8    internal setting for exchange type
   VOSKOWN=      0    Vosko Wilk Nusair interpolation
   LHFCALC =     F    Hartree Fock is set to
   LHFONE  =     F    Hartree Fock one center treatment
   AEXX    =    0.0000 exact exchange contribution

 Linear response parameters
   LEPSILON=     F    determine dielectric tensor
   LRPA    =     F    only Hartree local field effects (RPA)
   LNABLA  =     F    use nabla operator in PAW spheres
   LVEL    =     F    velocity operator in full k-point grid
   LINTERFAST=   F  fast interpolation
   KINTER  =     0    interpolate to denser k-point grid
   CSHIFT  =0.1000    complex shift for real part using Kramers Kronig
   OMEGAMAX=  -1.0    maximum frequency
   DEG_THRESHOLD= 0.2000000E-02 threshold for treating states as degnerate
   RTIME   =   -0.100 relaxation time in fs
  (WPLASMAI=    0.000 imaginary part of plasma frequency in eV, 0.658/RTIME)
   DFIELD  = 0.0000000 0.0000000 0.0000000 field for delta impulse in time
 
 Orbital magnetization related:
   ORBITALMAG=     F  switch on orbital magnetization
   LCHIMAG   =     F  perturbation theory with respect to B field
   DQ        =  0.001000  dq finite difference perturbation B field
   LLRAUG    =     F  two centre corrections for induced B field



--------------------------------------------------------------------------------------------------------


 Static calculation
 charge density and potential will be updated during run
 spin polarized calculation
 RMM-DIIS sequential band-by-band and
  variant of blocked Davidson during initial phase
 perform sub-space diagonalisation
    before iterative eigenvector-optimisation
 modified Broyden-mixing scheme, WC =      100.0
 initial mixing is a Kerker type mixing with AMIX =  0.4000 and BMIX =      1.0000
 Hartree-type preconditioning will be used
 using additional bands          102
 real space projection scheme for non local part
 use partial core corrections
 calculate Harris-corrections to forces 
   (improved forces if not selfconsistent)
 use gradient corrections 
 use of overlap-Matrix (Vanderbilt PP)
 Fermi weights with tetrahedron method with Bloechl corrections


--------------------------------------------------------------------------------------------------------


  energy-cutoff  :      520.00
  volume of cell :     1815.73
      direct lattice vectors                 reciprocal lattice vectors
     9.967380000  0.000000000  0.000000000     0.100327268  0.057923975  0.000000000
    -4.983690000  8.632004290  0.000000000     0.000000000  0.115847950  0.000000000
     0.000000000  0.000000000 21.103750000     0.000000000  0.000000000  0.047384943

  length of vectors
     9.967380000  9.967380001 21.103750000     0.115847950  0.115847950  0.047384943


 
 old parameters found on file WAVECAR:
  energy-cutoff  :      520.00
  volume of cell :     1815.73
      direct lattice vectors                 reciprocal lattice vectors
     9.967380000  0.000000000  0.000000000     0.100327268  0.057923975  0.000000000
    -4.983690000  8.632004290  0.000000000     0.000000000  0.115847950  0.000000000
     0.000000000  0.000000000 21.103750000     0.000000000  0.000000000  0.047384943

  length of vectors

 
 k-points in units of 2pi/SCALE and weight: read from INCAR                         
   0.00000000  0.00000000  0.00000000       0.111
   0.03344242  0.01930799  0.00000000       0.222
   0.00000000  0.03861598  0.00000000       0.222
   0.03344242  0.05792397  0.00000000       0.222
  -0.03344242  0.01930799  0.00000000       0.222
 
 k-points in reciprocal lattice and weights: read from INCAR                         
   0.00000000  0.00000000  0.00000000       0.111
   0.33333333  0.00000000  0.00000000       0.222
   0.00000000  0.33333333  0.00000000       0.222
   0.33333333  0.33333333  0.00000000       0.222
  -0.33333333  0.33333333  0.00000000       0.222
 
 position of ions in fractional coordinates (direct lattice) 
   0.11283300  0.22566700  0.09477000
   0.11009316  0.22714561  0.38214975
   0.19616700  0.14233300  0.19117800
   0.02989793  0.05875870  0.28460199
   0.36283300  0.22566700  0.09477000
   0.36035549  0.22346557  0.38606345
   0.44616700  0.14233300  0.19117800
   0.27997646  0.06007819  0.28557232
   0.61283300  0.22566700  0.09477000
   0.61530184  0.22333937  0.38565353
   0.69616700  0.14233300  0.19117800
   0.53110148  0.06003075  0.28550629
   0.86283300  0.22566700  0.09477000
   0.86921584  0.22715517  0.38212556
   0.94616700  0.14233300  0.19117800
   0.77983113  0.05874895  0.28460633
   0.11283300  0.47566700  0.09477000
   0.11208098  0.47220616  0.38236600
   0.19616700  0.39233300  0.19117800
   0.03011124  0.30913361  0.28621738
   0.36283300  0.47566700  0.09477000
   0.36215410  0.47648836  0.37651238
   0.44616700  0.39233300  0.19117800
   0.28000301  0.30745961  0.28557511
   0.61283300  0.47566700  0.09477000
   0.61517376  0.47827263  0.38604411
   0.69616700  0.39233300  0.19117800
   0.52984948  0.30872368  0.28762925
   0.86283300  0.47566700  0.09477000
   0.86633686  0.47650422  0.37645752
   0.94616700  0.39233300  0.19117800
   0.77855209  0.30747660  0.28550780
   0.11283300  0.72566700  0.09477000
   0.11207548  0.72658247  0.38234532
   0.19616700  0.64233300  0.19117800
   0.02992341  0.55877337  0.28436491
   0.36283300  0.72566700  0.09477000
   0.36649891  0.72659989  0.38235556
   0.44616700  0.64233300  0.19117800
   0.27982676  0.55875105  0.28439245
   0.61283300  0.72566700  0.09477000
   0.61151024  0.72856170  0.38214039
   0.69616700  0.64233300  0.19117800
   0.53111082  0.55856832  0.28557327
   0.86283300  0.72566700  0.09477000
   0.86914601  0.72867142  0.38215135
   0.94616700  0.64233300  0.19117800
   0.77850751  0.55860190  0.28557256
   0.11283300  0.97566700  0.09477000
   0.10997706  0.96950969  0.38215343
   0.19616700  0.89233300  0.19117800
   0.03005621  0.80852874  0.28622146
   0.36283300  0.97566700  0.09477000
   0.36214402  0.97231801  0.37645590
   0.44616700  0.89233300  0.19117800
   0.27980405  0.80865248  0.28436388
   0.61283300  0.97566700  0.09477000
   0.61150099  0.96942079  0.38211845
   0.69616700  0.89233300  0.19117800
   0.52945862  0.80847558  0.28621569
   0.86283300  0.97566700  0.09477000
   0.86352418  0.97511802  0.37747844
   0.94616700  0.89233300  0.19117800
   0.77982000  0.80867685  0.28460191
   0.18029820  0.13345359  0.43653520
   0.70519724  0.65831624  0.43653629
   0.19695046  0.64179678  0.43539207
   0.70527090  0.13341652  0.43646511
   0.53108504  0.30767926  0.44860065
   0.53349925  0.30574264  0.49474615
 
 position of ions in cartesian coordinates  (Angst):
  -0.00000498  1.94795851  2.00000239
  -0.03468294  1.96072184  8.06479281
   1.24592748  1.22861907  4.03457272
   0.00516889  0.50720534  6.00616934
   2.49184002  1.94795851  2.00000239
   2.47811692  1.92895578  8.14738655
   3.73777248  1.22861907  4.03457272
   2.49122071  0.51859519  6.02664677
   4.98368502  1.94795851  2.00000239
   5.01989304  1.92786639  8.13873560
   6.22961748  1.22861907  4.03457272
   4.99451559  0.51818569  6.02525344
   7.47553002  1.94795851  2.00000239
   7.53173368  1.96080436  8.06428226
   8.72146248  1.22861907  4.03457272
   7.48008668  0.50712118  6.00626086
  -1.24592748  4.10595958  2.00000239
  -1.23617540  4.07608561  8.06935650
   0.00000498  3.38662014  4.03457272
  -1.24049595  2.66844268  6.04025997
   1.24591752  4.10595958  2.00000239
   1.23505730  4.11304954  7.94582317
   2.49184998  3.38662014  4.03457272
   1.25861301  2.65399268  6.02670581
   3.73776252  4.10595958  2.00000239
   3.74810815  4.12845136  8.14697846
   4.98369498  3.38662014  4.03457272
   3.74262800  2.66490410  6.07005587
   6.22960752  4.10595958  2.00000239
   6.26035936  4.11318645  7.94466547
   7.47553998  3.38662014  4.03457272
   6.22775651  2.65413930  6.02528527
  -2.49184998  6.26396066  2.00000239
  -2.50396284  6.27186298  8.06891997
  -1.24591752  5.54462121  4.03457272
  -2.48649525  4.82333415  6.00116597
  -0.00000498  6.26396066  2.00000239
   0.03188530  6.27201339  8.06913610
   1.24592748  5.54462121  4.03457272
   0.00449759  4.82314147  6.00174711
   2.49184002  6.26396066  2.00000239
   2.46422932  6.28894770  8.06459520
   3.73777248  5.54462121  4.03457272
   2.51005208  4.82156410  6.02666689
   4.98368502  6.26396066  2.00000239
   5.03163606  6.28989481  8.06482664
   6.22961748  5.54462121  4.03457272
   4.97578145  4.82185403  6.02665194
  -3.73777248  8.42196173  2.00000239
  -3.73555265  8.36881182  8.06487038
  -2.49184002  7.70262228  4.03457272
  -3.72987493  6.97922356  6.04034604
  -1.24592748  8.42196173  2.00000239
  -1.23610449  8.39305327  7.94463128
   0.00000498  7.70262228  4.03457272
  -1.24115997  6.98029170  6.00114433
   1.24591752  8.42196173  2.00000239
   1.26377007  8.36804440  8.06413231
   2.49184998  7.70262228  4.03457272
   1.24812358  6.97876469  6.04022436
   3.73776252  8.42196173  2.00000239
   3.74738770  8.41722291  7.96621061
   4.98369498  7.70262228  4.03457272
   3.74256753  6.98050205  6.00616753
   1.13200931  1.15197195  9.21252982
   3.74812481  5.68258864  9.21255276
  -1.23543608  5.53999255  9.18840537
   6.36479651  1.15165194  9.21105054
   3.76014834  2.65588865  9.46715605
   3.79386321  2.63917175 10.44099900
 


--------------------------------------------------------------------------------------------------------


 k-point  1 :   0.0000 0.0000 0.0000  plane waves:   48949
 k-point  2 :   0.3333 0.0000 0.0000  plane waves:   48884
 k-point  3 :   0.0000 0.3333 0.0000  plane waves:   48884
 k-point  4 :   0.3333 0.3333 0.0000  plane waves:   48804
 k-point  5 :  -0.3333 0.3333 0.0000  plane waves:   48884

 maximum and minimum number of plane-waves per node :      2058     2018

 maximum number of plane-waves:     48949
 maximum index in each direction: 
   IXMAX=   18   IYMAX=   18   IZMAX=   39
   IXMIN=  -18   IYMIN=  -18   IZMIN=  -39


 real space projection operators:
  total allocation   :      63455.93 KBytes
  max/ min on nodes  :       3214.06       2337.58


 parallel 3D FFT for wavefunctions:
    minimum data exchange during FFTs selected (reduces bandwidth)
 parallel 3D FFT for charge:
    minimum data exchange during FFTs selected (reduces bandwidth)


 total amount of memory used by VASP MPI-rank0   116008. kBytes
=======================================================================

   base      :      30000. kBytes
   nonlr-proj:      12485. kBytes
   fftplans  :       6402. kBytes
   grid      :      17692. kBytes
   one-center:         93. kBytes
   wavefun   :      49336. kBytes
 
     INWAV:  cpu time   11.5986: real time   12.1292
 Broyden mixing: mesh for mixing (old mesh)
   NGX = 37   NGY = 37   NGZ = 79
  (NGX  =160   NGY  =160   NGZ  =320)
  gives a total of 108151 points

 initial charge density was supplied:
 number of electron     671.0000064 magnetization      43.6216541
 keeping initial charge density in first step


--------------------------------------------------------------------------------------------------------


 Maximum index for non-local projection operator          709
 Maximum index for augmentation-charges         1178 (set IRDMAX)


--------------------------------------------------------------------------------------------------------


 First call to EWALD:  gamma=   0.145
 Maximum number of real-space cells 4x 4x 2
 Maximum number of reciprocal cells 2x 2x 4

    FEWALD:  cpu time    0.0036: real time    0.0033


--------------------------------------- Iteration      1(   1)  ---------------------------------------


    POTLOK:  cpu time    0.4172: real time    0.4258
    SETDIJ:  cpu time    0.0234: real time    0.0234
     EDDAV:  cpu time   44.2942: real time   44.5039
 BZINTS: Fermi energy:  0.634477;671.000000 electrons
         Band energy:***********;  BLOECHL correction: -0.043038
       DOS:  cpu time    0.0549: real time    0.0548
    CHARGE:  cpu time    1.1320: real time    1.1324
    MIXING:  cpu time    0.0069: real time    0.0124
    --------------------------------------------
      LOOP:  cpu time   45.9286: real time   46.1529

 eigenvalue-minimisations  :  9429
 total energy-change (2. order) :-0.3687481E+03  (-0.7645562E-02)
 number of electron     671.0000065 magnetization      43.5932868
 augmentation part      398.0751975 magnetization      40.7420672

 DIPCOR: dipole corrections for dipol
 direction  3 min pos   243,
 dipolmoment           0.000000      0.000000      0.117008 electrons x Angstroem
 Tr[quadrupol]    -11038.213006

 energy correction for charged system         0.000000 eV
 dipol+quadrupol energy correction           -0.000682 eV
 added-field ion interaction          1.433566 eV  (added to PSCEN)


 Broyden mixing:
  rms(total) = 0.15383E+00    rms(broyden)= 0.15371E+00
  rms(prec ) = 0.16903E+00
  weight for this iteration     100.00

 Free energy of the ion-electron system (eV)
  ---------------------------------------------------
  alpha Z        PSCENC =      1251.31379978
  Ewald energy   TEWEN  =    248445.36182444
  -Hartree energ DENC   =   -317638.24901815
  -exchange      EXHF   =         0.00000000
  -V(xc)+E(xc)   XCENC  =      2102.01204641
  PAW double counting   =     74897.20530027   -79294.94735883
  entropy T*S    EENTRO =         0.00000000
  eigenvalues    EBANDS =     -1276.66042337
  atomic energy  EATOM  =     71145.21574525
  Solvation  Ediel_sol  =         0.00000000
  ---------------------------------------------------
  free energy    TOTEN  =      -368.74808421 eV

  energy without entropy =     -368.74808421  energy(sigma->0) =     -368.74808421


--------------------------------------------------------------------------------------------------------




--------------------------------------- Iteration      1(   2)  ---------------------------------------


    POTLOK:  cpu time    0.4294: real time    0.4303
    SETDIJ:  cpu time    0.0234: real time    0.0234
    EDDIAG:  cpu time    6.1310: real time    6.1326
  RMM-DIIS:  cpu time   22.1948: real time   22.2053
    ORTHCH:  cpu time    1.7554: real time    1.7556
 BZINTS: Fermi energy:  0.651555;671.000000 electrons
         Band energy:***********;  BLOECHL correction: -0.037532
       DOS:  cpu time    0.0531: real time    0.0531
    CHARGE:  cpu time    1.1260: real time    1.1262
    MIXING:  cpu time    0.0065: real time    0.0079
    --------------------------------------------
      LOOP:  cpu time   31.7199: real time   31.7346

 eigenvalue-minimisations  :  9264
 total energy-change (2. order) :-0.1050858E+01  (-0.3160418E-01)
 number of electron     671.0000056 magnetization      43.5958732
 augmentation part      398.2728300 magnetization      40.3505771

 DIPCOR: dipole corrections for dipol
 direction  3 min pos   238,
 dipolmoment           0.000000      0.000000     -0.019058 electrons x Angstroem
 Tr[quadrupol]    -11037.969137

 energy correction for charged system         0.000000 eV
 dipol+quadrupol energy correction           -0.000018 eV
 added-field ion interaction          0.186756 eV  (added to PSCEN)


 Broyden mixing:
  rms(total) = 0.22735E+01    rms(broyden)= 0.22735E+01
  rms(prec ) = 0.29104E+01
  weight for this iteration     100.00

 eigenvalues of (default mixing * dielectric matrix)
  average eigenvalue GAMMA=   0.0307
  0.0307

 Free energy of the ion-electron system (eV)
  ---------------------------------------------------
  alpha Z        PSCENC =      1250.06765393
  Ewald energy   TEWEN  =    248445.36182444
  -Hartree energ DENC   =   -317628.77179814
  -exchange      EXHF   =         0.00000000
  -V(xc)+E(xc)   XCENC  =      2101.89271449
  PAW double counting   =     74895.07902809   -79292.77592106
  entropy T*S    EENTRO =         0.00000000
  eigenvalues    EBANDS =     -1285.86818880
  atomic energy  EATOM  =     71145.21574525
  Solvation  Ediel_sol  =         0.00000000
  ---------------------------------------------------
  free energy    TOTEN  =      -369.79894180 eV

  energy without entropy =     -369.79894180  energy(sigma->0) =     -369.79894180


--------------------------------------------------------------------------------------------------------




--------------------------------------- Iteration      1(   3)  ---------------------------------------


    POTLOK:  cpu time    0.4195: real time    0.4299
    SETDIJ:  cpu time    0.0233: real time    0.0234
    EDDIAG:  cpu time    6.1479: real time    6.1507
  RMM-DIIS:  cpu time   22.1495: real time   22.1676
    ORTHCH:  cpu time    1.7480: real time    1.7483
 BZINTS: Fermi energy:  0.637998;671.000000 electrons
         Band energy:***********;  BLOECHL correction: -0.043156
       DOS:  cpu time    0.0564: real time    0.0564
    CHARGE:  cpu time    1.1259: real time    1.1260
    MIXING:  cpu time    0.0066: real time    0.0064
    --------------------------------------------
      LOOP:  cpu time   31.6770: real time   31.7088

 eigenvalue-minimisations  :  9266
 total energy-change (2. order) : 0.1200081E+01  (-0.1137853E-01)
 number of electron     671.0000063 magnetization      43.5989271
 augmentation part      398.1841387 magnetization      40.6068877

 DIPCOR: dipole corrections for dipol
 direction  3 min pos   238,
 dipolmoment           0.000000      0.000000      0.134787 electrons x Angstroem
 Tr[quadrupol]    -11038.087189

 energy correction for charged system         0.000000 eV
 dipol+quadrupol energy correction           -0.000905 eV
 added-field ion interaction         -1.320830 eV  (added to PSCEN)


 Broyden mixing:
  rms(total) = 0.62693E+00    rms(broyden)= 0.62682E+00
  rms(prec ) = 0.70327E+00
  weight for this iteration     100.00

 eigenvalues of (default mixing * dielectric matrix)
  average eigenvalue GAMMA=   0.0888
  0.1421  0.0355

 Free energy of the ion-electron system (eV)
  ---------------------------------------------------
  alpha Z        PSCENC =      1248.55918017
  Ewald energy   TEWEN  =    248445.36182444
  -Hartree energ DENC   =   -317634.93475533
  -exchange      EXHF   =         0.00000000
  -V(xc)+E(xc)   XCENC  =      2101.90299080
  PAW double counting   =     74896.41502069   -79294.08861191
  entropy T*S    EENTRO =         0.00000000
  eigenvalues    EBANDS =     -1277.03025518
  atomic energy  EATOM  =     71145.21574525
  Solvation  Ediel_sol  =         0.00000000
  ---------------------------------------------------
  free energy    TOTEN  =      -368.59886106 eV

  energy without entropy =     -368.59886106  energy(sigma->0) =     -368.59886106


--------------------------------------------------------------------------------------------------------




--------------------------------------- Iteration      1(   4)  ---------------------------------------


    POTLOK:  cpu time    0.4189: real time    0.4312
    SETDIJ:  cpu time    0.0233: real time    0.0233
    EDDIAG:  cpu time    6.1413: real time    6.1442
  RMM-DIIS:  cpu time   21.8466: real time   21.8590
    ORTHCH:  cpu time    1.7530: real time    1.7535
 BZINTS: Fermi energy:  0.642425;671.000000 electrons
         Band energy:***********;  BLOECHL correction: -0.050824
       DOS:  cpu time    0.0598: real time    0.0599
    CHARGE:  cpu time    1.1363: real time    1.1367
    MIXING:  cpu time    0.0066: real time    0.0066
    --------------------------------------------
      LOOP:  cpu time   31.3858: real time   31.4144

 eigenvalue-minimisations  :  9155
 total energy-change (2. order) : 0.3783437E-01  (-0.1045093E-01)
 number of electron     671.0000064 magnetization      43.6019439
 augmentation part      398.1941097 magnetization      40.6793894

 DIPCOR: dipole corrections for dipol
 direction  3 min pos   237,
 dipolmoment           0.000000      0.000000      0.098702 electrons x Angstroem
 Tr[quadrupol]    -11038.153107

 energy correction for charged system         0.000000 eV
 dipol+quadrupol energy correction           -0.000485 eV
 added-field ion interaction         -1.402521 eV  (added to PSCEN)


 Broyden mixing:
  rms(total) = 0.39790E+00    rms(broyden)= 0.39783E+00
  rms(prec ) = 0.49152E+00
  weight for this iteration     100.00

 eigenvalues of (default mixing * dielectric matrix)
  average eigenvalue GAMMA=   0.2284
  0.5647  0.0890  0.0317

 Free energy of the ion-electron system (eV)
  ---------------------------------------------------
  alpha Z        PSCENC =      1248.47790907
  Ewald energy   TEWEN  =    248445.36182444
  -Hartree energ DENC   =   -317637.76744514
  -exchange      EXHF   =         0.00000000
  -V(xc)+E(xc)   XCENC  =      2101.91315838
  PAW double counting   =     74897.15121961   -79294.97859846
  entropy T*S    EENTRO =         0.00000000
  eigenvalues    EBANDS =     -1273.93483985
  atomic energy  EATOM  =     71145.21574525
  Solvation  Ediel_sol  =         0.00000000
  ---------------------------------------------------
  free energy    TOTEN  =      -368.56102669 eV

  energy without entropy =     -368.56102669  energy(sigma->0) =     -368.56102669


--------------------------------------------------------------------------------------------------------




--------------------------------------- Iteration      1(   5)  ---------------------------------------


    POTLOK:  cpu time    0.4205: real time    0.4366
    SETDIJ:  cpu time    0.0232: real time    0.0232
    EDDIAG:  cpu time    6.1429: real time    6.1455
  RMM-DIIS:  cpu time   22.2195: real time   22.2327
    ORTHCH:  cpu time    1.7544: real time    1.7549
 BZINTS: Fermi energy:  0.635641;671.000000 electrons
         Band energy:***********;  BLOECHL correction: -0.043698
       DOS:  cpu time    0.0579: real time    0.0579
    CHARGE:  cpu time    1.1307: real time    1.1310
    MIXING:  cpu time    0.0067: real time    0.0066
    --------------------------------------------
      LOOP:  cpu time   31.7558: real time   31.7885

 eigenvalue-minimisations  :  9248
 total energy-change (2. order) : 0.4840041E-02  (-0.4094582E-02)
 number of electron     671.0000064 magnetization      43.5999132
 augmentation part      398.1684071 magnetization      40.7410174

 DIPCOR: dipole corrections for dipol
 direction  3 min pos   240,
 dipolmoment           0.000000      0.000000      0.119763 electrons x Angstroem
 Tr[quadrupol]    -11038.138402

 energy correction for charged system         0.000000 eV
 dipol+quadrupol energy correction           -0.000715 eV
 added-field ion interaction         -0.117234 eV  (added to PSCEN)


 Broyden mixing:
  rms(total) = 0.37462E+00    rms(broyden)= 0.37460E+00
  rms(prec ) = 0.41196E+00
  weight for this iteration     100.00

 eigenvalues of (default mixing * dielectric matrix)
  average eigenvalue GAMMA=   0.2245
  0.6777  0.0317  0.1016  0.0870

 Free energy of the ion-electron system (eV)
  ---------------------------------------------------
  alpha Z        PSCENC =      1249.76296680
  Ewald energy   TEWEN  =    248445.36182444
  -Hartree energ DENC   =   -317636.87422695
  -exchange      EXHF   =         0.00000000
  -V(xc)+E(xc)   XCENC  =      2101.99307752
  PAW double counting   =     74897.68744321   -79295.79089039
  entropy T*S    EENTRO =         0.00000000
  eigenvalues    EBANDS =     -1275.91212652
  atomic energy  EATOM  =     71145.21574525
  Solvation  Ediel_sol  =         0.00000000
  ---------------------------------------------------
  free energy    TOTEN  =      -368.55618665 eV

  energy without entropy =     -368.55618665  energy(sigma->0) =     -368.55618665


--------------------------------------------------------------------------------------------------------




--------------------------------------- Iteration      1(   6)  ---------------------------------------


    POTLOK:  cpu time    0.4176: real time    0.4343
    SETDIJ:  cpu time    0.0233: real time    0.0233
    EDDIAG:  cpu time    6.1497: real time    6.1512
  RMM-DIIS:  cpu time   22.2603: real time   22.2744
    ORTHCH:  cpu time    1.7537: real time    1.7540
 BZINTS: Fermi energy:  0.642724;671.000000 electrons
         Band energy:***********;  BLOECHL correction: -0.045772
       DOS:  cpu time    0.0582: real time    0.0583
    CHARGE:  cpu time    1.1262: real time    1.1264
    MIXING:  cpu time    0.0068: real time    0.0068
    --------------------------------------------
      LOOP:  cpu time   31.7966: real time   31.8286

 eigenvalue-minimisations  :  9265
 total energy-change (2. order) : 0.3738700E-01  (-0.2137974E-02)
 number of electron     671.0000064 magnetization      43.6004958
 augmentation part      398.1231983 magnetization      40.7273912

 DIPCOR: dipole corrections for dipol
 direction  3 min pos   238,
 dipolmoment           0.000000      0.000000      0.111063 electrons x Angstroem
 Tr[quadrupol]    -11038.161044

 energy correction for charged system         0.000000 eV
 dipol+quadrupol energy correction           -0.000615 eV
 added-field ion interaction         -1.088343 eV  (added to PSCEN)


 Broyden mixing:
  rms(total) = 0.12139E+00    rms(broyden)= 0.12136E+00
  rms(prec ) = 0.14300E+00
  weight for this iteration     100.00

 eigenvalues of (default mixing * dielectric matrix)
  average eigenvalue GAMMA=   0.2313
  0.6404  0.2929  0.0317  0.1114  0.0799

 Free energy of the ion-electron system (eV)
  ---------------------------------------------------
  alpha Z        PSCENC =      1248.79195807
  Ewald energy   TEWEN  =    248445.36182444
  -Hartree energ DENC   =   -317639.23137921
  -exchange      EXHF   =         0.00000000
  -V(xc)+E(xc)   XCENC  =      2102.02202777
  PAW double counting   =     74897.90714957   -79296.19932893
  entropy T*S    EENTRO =         0.00000000
  eigenvalues    EBANDS =     -1272.38679660
  atomic energy  EATOM  =     71145.21574525
  Solvation  Ediel_sol  =         0.00000000
  ---------------------------------------------------
  free energy    TOTEN  =      -368.51879965 eV

  energy without entropy =     -368.51879965  energy(sigma->0) =     -368.51879965


--------------------------------------------------------------------------------------------------------




--------------------------------------- Iteration      1(   7)  ---------------------------------------


    POTLOK:  cpu time    0.4192: real time    0.4354
    SETDIJ:  cpu time    0.0233: real time    0.0233
    EDDIAG:  cpu time    6.0929: real time    6.0953
  RMM-DIIS:  cpu time   22.1762: real time   22.1922
    ORTHCH:  cpu time    1.7484: real time    1.7488
 BZINTS: Fermi energy:  0.642703;671.000000 electrons
         Band energy:***********;  BLOECHL correction: -0.045935
       DOS:  cpu time    0.0575: real time    0.0575
    CHARGE:  cpu time    1.1270: real time    1.1272
    MIXING:  cpu time    0.0071: real time    0.0071
    --------------------------------------------
      LOOP:  cpu time   31.6509: real time   31.6868

 eigenvalue-minimisations  :  9257
 total energy-change (2. order) :-0.9634816E-03  (-0.6730495E-03)
 number of electron     671.0000064 magnetization      43.6039153
 augmentation part      398.1309464 magnetization      40.7300441

 DIPCOR: dipole corrections for dipol
 direction  3 min pos   239,
 dipolmoment           0.000000      0.000000      0.112326 electrons x Angstroem
 Tr[quadrupol]    -11038.188416

 energy correction for charged system         0.000000 eV
 dipol+quadrupol energy correction           -0.000629 eV
 added-field ion interaction         -0.605337 eV  (added to PSCEN)


 Broyden mixing:
  rms(total) = 0.13703E+00    rms(broyden)= 0.13702E+00
  rms(prec ) = 0.15530E+00
  weight for this iteration     100.00

 eigenvalues of (default mixing * dielectric matrix)
  average eigenvalue GAMMA=   0.2975
  0.7323  0.7323  0.0317  0.1225  0.0866  0.0795

 Free energy of the ion-electron system (eV)
  ---------------------------------------------------
  alpha Z        PSCENC =      1249.27495007
  Ewald energy   TEWEN  =    248445.36182444
  -Hartree energ DENC   =   -317639.46069794
  -exchange      EXHF   =         0.00000000
  -V(xc)+E(xc)   XCENC  =      2102.02212033
  PAW double counting   =     74897.63312354   -79295.85330726
  entropy T*S    EENTRO =         0.00000000
  eigenvalues    EBANDS =     -1272.71352156
  atomic energy  EATOM  =     71145.21574525
  Solvation  Ediel_sol  =         0.00000000
  ---------------------------------------------------
  free energy    TOTEN  =      -368.51976313 eV

  energy without entropy =     -368.51976313  energy(sigma->0) =     -368.51976313


--------------------------------------------------------------------------------------------------------




--------------------------------------- Iteration      1(   8)  ---------------------------------------


    POTLOK:  cpu time    0.4196: real time    0.4345
    SETDIJ:  cpu time    0.0235: real time    0.0235
    EDDIAG:  cpu time    6.0931: real time    6.0954
  RMM-DIIS:  cpu time   22.0921: real time   22.1064
    ORTHCH:  cpu time    1.7547: real time    1.7550
 BZINTS: Fermi energy:  0.638642;671.000000 electrons
         Band energy:***********;  BLOECHL correction: -0.046035
       DOS:  cpu time    0.0537: real time    0.0537
    CHARGE:  cpu time    1.1258: real time    1.1261
    MIXING:  cpu time    0.0072: real time    0.0072
    --------------------------------------------
      LOOP:  cpu time   31.5697: real time   31.6019

 eigenvalue-minimisations  :  9207
 total energy-change (2. order) : 0.5946275E-02  (-0.4145911E-03)
 number of electron     671.0000064 magnetization      43.6048049
 augmentation part      398.1560917 magnetization      40.7592082

 DIPCOR: dipole corrections for dipol
 direction  3 min pos   239,
 dipolmoment           0.000000      0.000000      0.120352 electrons x Angstroem
 Tr[quadrupol]    -11038.167235

 energy correction for charged system         0.000000 eV
 dipol+quadrupol energy correction           -0.000722 eV
 added-field ion interaction         -0.648592 eV  (added to PSCEN)


 Broyden mixing:
  rms(total) = 0.10629E+00    rms(broyden)= 0.10628E+00
  rms(prec ) = 0.11859E+00
  weight for this iteration     100.00

 eigenvalues of (default mixing * dielectric matrix)
  average eigenvalue GAMMA=   0.3012
  0.8183  0.8183  0.0317  0.1660  0.0793  0.0973  0.0973

 Free energy of the ion-electron system (eV)
  ---------------------------------------------------
  alpha Z        PSCENC =      1249.23160158
  Ewald energy   TEWEN  =    248445.36182444
  -Hartree energ DENC   =   -317638.54497973
  -exchange      EXHF   =         0.00000000
  -V(xc)+E(xc)   XCENC  =      2102.03271885
  PAW double counting   =     74897.20947388   -79295.26325095
  entropy T*S    EENTRO =         0.00000000
  eigenvalues    EBANDS =     -1273.75695018
  atomic energy  EATOM  =     71145.21574525
  Solvation  Ediel_sol  =         0.00000000
  ---------------------------------------------------
  free energy    TOTEN  =      -368.51381686 eV

  energy without entropy =     -368.51381686  energy(sigma->0) =     -368.51381686


--------------------------------------------------------------------------------------------------------




--------------------------------------- Iteration      1(   9)  ---------------------------------------


    POTLOK:  cpu time    0.4173: real time    0.4306
    SETDIJ:  cpu time    0.0233: real time    0.0233
    EDDIAG:  cpu time    6.0993: real time    6.1014
  RMM-DIIS:  cpu time   22.3501: real time   22.3661
    ORTHCH:  cpu time    1.7516: real time    1.7520
 BZINTS: Fermi energy:  0.640256;671.000000 electrons
         Band energy:***********;  BLOECHL correction: -0.046029
       DOS:  cpu time    0.0523: real time    0.0523
    CHARGE:  cpu time    1.1276: real time    1.1278
    MIXING:  cpu time    0.0073: real time    0.0073
    --------------------------------------------
      LOOP:  cpu time   31.8288: real time   31.8608

 eigenvalue-minimisations  :  9283
 total energy-change (2. order) : 0.3929264E-02  (-0.3270168E-03)
 number of electron     671.0000064 magnetization      43.6058096
 augmentation part      398.1433777 magnetization      40.7711413

 DIPCOR: dipole corrections for dipol
 direction  3 min pos   238,
 dipolmoment           0.000000      0.000000      0.119127 electrons x Angstroem
 Tr[quadrupol]    -11038.159140

 energy correction for charged system         0.000000 eV
 dipol+quadrupol energy correction           -0.000707 eV
 added-field ion interaction         -1.167368 eV  (added to PSCEN)


 Broyden mixing:
  rms(total) = 0.52485E-01    rms(broyden)= 0.52477E-01
  rms(prec ) = 0.58734E-01
  weight for this iteration     100.00

 eigenvalues of (default mixing * dielectric matrix)
  average eigenvalue GAMMA=   0.3468
  0.9399  0.9399  0.4621  0.0317  0.1257  0.1112  0.0851  0.0786

 Free energy of the ion-electron system (eV)
  ---------------------------------------------------
  alpha Z        PSCENC =      1248.71284067
  Ewald energy   TEWEN  =    248445.36182444
  -Hartree energ DENC   =   -317638.85214402
  -exchange      EXHF   =         0.00000000
  -V(xc)+E(xc)   XCENC  =      2102.03311821
  PAW double counting   =     74897.26992295   -79295.28703904
  entropy T*S    EENTRO =         0.00000000
  eigenvalues    EBANDS =     -1272.96415605
  atomic energy  EATOM  =     71145.21574525
  Solvation  Ediel_sol  =         0.00000000
  ---------------------------------------------------
  free energy    TOTEN  =      -368.50988759 eV

  energy without entropy =     -368.50988759  energy(sigma->0) =     -368.50988759


--------------------------------------------------------------------------------------------------------




--------------------------------------- Iteration      1(  10)  ---------------------------------------


    POTLOK:  cpu time    0.4179: real time    0.4348
    SETDIJ:  cpu time    0.0232: real time    0.0232
    EDDIAG:  cpu time    6.0971: real time    6.0995
  RMM-DIIS:  cpu time   22.1548: real time   22.1693
    ORTHCH:  cpu time    1.7531: real time    1.7535
 BZINTS: Fermi energy:  0.643896;671.000000 electrons
         Band energy:***********;  BLOECHL correction: -0.046232
       DOS:  cpu time    0.0577: real time    0.0577
    CHARGE:  cpu time    1.1274: real time    1.1276
    MIXING:  cpu time    0.0075: real time    0.0075
    --------------------------------------------
      LOOP:  cpu time   31.6387: real time   31.6732

 eigenvalue-minimisations  :  9179
 total energy-change (2. order) : 0.9213404E-04  (-0.2017093E-03)
 number of electron     671.0000064 magnetization      43.6072670
 augmentation part      398.1516454 magnetization      40.7497656

 DIPCOR: dipole corrections for dipol
 direction  3 min pos   234,
 dipolmoment           0.000000      0.000000      0.117108 electrons x Angstroem
 Tr[quadrupol]    -11038.087060

 energy correction for charged system         0.000000 eV
 dipol+quadrupol energy correction           -0.000683 eV
 added-field ion interaction         -3.213498 eV  (added to PSCEN)


 Broyden mixing:
  rms(total) = 0.72071E-01    rms(broyden)= 0.72066E-01
  rms(prec ) = 0.79000E-01
  weight for this iteration     100.00

 eigenvalues of (default mixing * dielectric matrix)
  average eigenvalue GAMMA=   0.3720
  1.0919  1.0919  0.6174  0.0317  0.1434  0.1126  0.0954  0.0783  0.0854

 Free energy of the ion-electron system (eV)
  ---------------------------------------------------
  alpha Z        PSCENC =      1246.66673428
  Ewald energy   TEWEN  =    248445.36182444
  -Hartree energ DENC   =   -317638.61251919
  -exchange      EXHF   =         0.00000000
  -V(xc)+E(xc)   XCENC  =      2102.03857846
  PAW double counting   =     74897.37466600   -79295.43490198
  entropy T*S    EENTRO =         0.00000000
  eigenvalues    EBANDS =     -1271.11992272
  atomic energy  EATOM  =     71145.21574525
  Solvation  Ediel_sol  =         0.00000000
  ---------------------------------------------------
  free energy    TOTEN  =      -368.50979546 eV

  energy without entropy =     -368.50979546  energy(sigma->0) =     -368.50979546


--------------------------------------------------------------------------------------------------------




--------------------------------------- Iteration      1(  11)  ---------------------------------------


    POTLOK:  cpu time    0.4194: real time    0.4367
    SETDIJ:  cpu time    0.0233: real time    0.0233
    EDDIAG:  cpu time    6.1028: real time    6.1055
  RMM-DIIS:  cpu time   22.1742: real time   22.1870
    ORTHCH:  cpu time    1.7463: real time    1.7468
 BZINTS: Fermi energy:  0.644271;671.000000 electrons
         Band energy:***********;  BLOECHL correction: -0.046514
       DOS:  cpu time    0.0581: real time    0.0581
    CHARGE:  cpu time    1.1272: real time    1.1274
    MIXING:  cpu time    0.0077: real time    0.0077
    --------------------------------------------
      LOOP:  cpu time   31.6591: real time   31.6925

 eigenvalue-minimisations  :  9203
 total energy-change (2. order) : 0.1171414E-02  (-0.1264452E-03)
 number of electron     671.0000064 magnetization      43.6086558
 augmentation part      398.1401417 magnetization      40.7518885

 DIPCOR: dipole corrections for dipol
 direction  3 min pos   235,
 dipolmoment           0.000000      0.000000      0.113721 electrons x Angstroem
 Tr[quadrupol]    -11038.118090

 energy correction for charged system         0.000000 eV
 dipol+quadrupol energy correction           -0.000644 eV
 added-field ion interaction         -2.619010 eV  (added to PSCEN)


 Broyden mixing:
  rms(total) = 0.39208E-01    rms(broyden)= 0.39201E-01
  rms(prec ) = 0.45868E-01
  weight for this iteration     100.00

 eigenvalues of (default mixing * dielectric matrix)
  average eigenvalue GAMMA=   0.3659
  1.1424  1.1424  0.6384  0.2077  0.0317  0.1324  0.1072  0.0784  0.0925  0.0857

 Free energy of the ion-electron system (eV)
  ---------------------------------------------------
  alpha Z        PSCENC =      1247.26126144
  Ewald energy   TEWEN  =    248445.36182444
  -Hartree energ DENC   =   -317639.24651045
  -exchange      EXHF   =         0.00000000
  -V(xc)+E(xc)   XCENC  =      2102.04369285
  PAW double counting   =     74897.70974540   -79295.84614963
  entropy T*S    EENTRO =         0.00000000
  eigenvalues    EBANDS =     -1271.00823335
  atomic energy  EATOM  =     71145.21574525
  Solvation  Ediel_sol  =         0.00000000
  ---------------------------------------------------
  free energy    TOTEN  =      -368.50862405 eV

  energy without entropy =     -368.50862405  energy(sigma->0) =     -368.50862405


--------------------------------------------------------------------------------------------------------




--------------------------------------- Iteration      1(  12)  ---------------------------------------


    POTLOK:  cpu time    0.4178: real time    0.4357
    SETDIJ:  cpu time    0.0234: real time    0.0233
    EDDIAG:  cpu time    6.1323: real time    6.1343
  RMM-DIIS:  cpu time   22.1113: real time   22.1227
    ORTHCH:  cpu time    1.7697: real time    1.7701
 BZINTS: Fermi energy:  0.643889;671.000000 electrons
         Band energy:***********;  BLOECHL correction: -0.046437
       DOS:  cpu time    0.0582: real time    0.0582
    CHARGE:  cpu time    1.1280: real time    1.1282
    MIXING:  cpu time    0.0080: real time    0.0080
    --------------------------------------------
      LOOP:  cpu time   31.6487: real time   31.6805

 eigenvalue-minimisations  :  9182
 total energy-change (2. order) : 0.1792295E-03  (-0.6439407E-04)
 number of electron     671.0000064 magnetization      43.6116874
 augmentation part      398.1223708 magnetization      40.7667264

 DIPCOR: dipole corrections for dipol
 direction  3 min pos   236,
 dipolmoment           0.000000      0.000000      0.114723 electrons x Angstroem
 Tr[quadrupol]    -11038.132946

 energy correction for charged system         0.000000 eV
 dipol+quadrupol energy correction           -0.000656 eV
 added-field ion interaction         -2.136128 eV  (added to PSCEN)


 Broyden mixing:
  rms(total) = 0.38347E-01    rms(broyden)= 0.38340E-01
  rms(prec ) = 0.42701E-01
  weight for this iteration     100.00

 eigenvalues of (default mixing * dielectric matrix)
  average eigenvalue GAMMA=   0.3823
  1.5348  0.9113  0.5992  0.5257  0.0317  0.1439  0.1070  0.1070  0.0871  0.0780
  0.0800

 Free energy of the ion-electron system (eV)
  ---------------------------------------------------
  alpha Z        PSCENC =      1247.74413234
  Ewald energy   TEWEN  =    248445.36182444
  -Hartree energ DENC   =   -317639.30260427
  -exchange      EXHF   =         0.00000000
  -V(xc)+E(xc)   XCENC  =      2102.04892887
  PAW double counting   =     74897.84221717   -79295.98840178
  entropy T*S    EENTRO =         0.00000000
  eigenvalues    EBANDS =     -1271.43028685
  atomic energy  EATOM  =     71145.21574525
  Solvation  Ediel_sol  =         0.00000000
  ---------------------------------------------------
  free energy    TOTEN  =      -368.50844482 eV

  energy without entropy =     -368.50844482  energy(sigma->0) =     -368.50844482


--------------------------------------------------------------------------------------------------------




--------------------------------------- Iteration      1(  13)  ---------------------------------------


    POTLOK:  cpu time    0.4187: real time    0.4368
    SETDIJ:  cpu time    0.0232: real time    0.0232
    EDDIAG:  cpu time    6.1392: real time    6.1411
  RMM-DIIS:  cpu time   21.8777: real time   21.8874
    ORTHCH:  cpu time    1.7833: real time    1.7836
 BZINTS: Fermi energy:  0.639636;671.000000 electrons
         Band energy:***********;  BLOECHL correction: -0.046505
       DOS:  cpu time    0.0558: real time    0.0558
    CHARGE:  cpu time    1.1197: real time    1.1198
    MIXING:  cpu time    0.0081: real time    0.0081
    --------------------------------------------
      LOOP:  cpu time   31.4257: real time   31.4558

 eigenvalue-minimisations  :  9065
 total energy-change (2. order) :-0.2504793E-03  (-0.4739260E-04)
 number of electron     671.0000064 magnetization      43.6141835
 augmentation part      398.1277963 magnetization      40.7712309

 DIPCOR: dipole corrections for dipol
 direction  3 min pos   241,
 dipolmoment           0.000000      0.000000      0.116440 electrons x Angstroem
 Tr[quadrupol]    -11038.209170

 energy correction for charged system         0.000000 eV
 dipol+quadrupol energy correction           -0.000676 eV
 added-field ion interaction          0.399548 eV  (added to PSCEN)


 Broyden mixing:
  rms(total) = 0.33820E-01    rms(broyden)= 0.33815E-01
  rms(prec ) = 0.36790E-01
  weight for this iteration     100.00

 eigenvalues of (default mixing * dielectric matrix)
  average eigenvalue GAMMA=   0.3846
  1.6708  0.9092  0.6372  0.6372  0.0317  0.1535  0.1238  0.1121  0.1003  0.0843
  0.0788  0.0767

 Free energy of the ion-electron system (eV)
  ---------------------------------------------------
  alpha Z        PSCENC =      1250.27978773
  Ewald energy   TEWEN  =    248445.36182444
  -Hartree energ DENC   =   -317639.09868774
  -exchange      EXHF   =         0.00000000
  -V(xc)+E(xc)   XCENC  =      2102.05218664
  PAW double counting   =     74897.72647341   -79295.83054667
  entropy T*S    EENTRO =         0.00000000
  eigenvalues    EBANDS =     -1274.21547836
  atomic energy  EATOM  =     71145.21574525
  Solvation  Ediel_sol  =         0.00000000
  ---------------------------------------------------
  free energy    TOTEN  =      -368.50869530 eV

  energy without entropy =     -368.50869530  energy(sigma->0) =     -368.50869530


--------------------------------------------------------------------------------------------------------




--------------------------------------- Iteration      1(  14)  ---------------------------------------


    POTLOK:  cpu time    0.4189: real time    0.4353
    SETDIJ:  cpu time    0.0233: real time    0.0233
    EDDIAG:  cpu time    6.1321: real time    6.1337
  RMM-DIIS:  cpu time   22.0620: real time   22.0731
    ORTHCH:  cpu time    1.7704: real time    1.7707
 BZINTS: Fermi energy:  0.638651;671.000000 electrons
         Band energy:***********;  BLOECHL correction: -0.046654
       DOS:  cpu time    0.0567: real time    0.0567
    CHARGE:  cpu time    1.1308: real time    1.1312
    MIXING:  cpu time    0.0091: real time    0.0091
    --------------------------------------------
      LOOP:  cpu time   31.6033: real time   31.6331

 eigenvalue-minimisations  :  9132
 total energy-change (2. order) :-0.4372699E-03  (-0.3415602E-04)
 number of electron     671.0000064 magnetization      43.6166804
 augmentation part      398.1333311 magnetization      40.7775370

 DIPCOR: dipole corrections for dipol
 direction  3 min pos   242,
 dipolmoment           0.000000      0.000000      0.116122 electrons x Angstroem
 Tr[quadrupol]    -11038.227268

 energy correction for charged system         0.000000 eV
 dipol+quadrupol energy correction           -0.000672 eV
 added-field ion interaction          0.910586 eV  (added to PSCEN)


 Broyden mixing:
  rms(total) = 0.17201E-01    rms(broyden)= 0.17198E-01
  rms(prec ) = 0.19022E-01
  weight for this iteration     100.00

 eigenvalues of (default mixing * dielectric matrix)
  average eigenvalue GAMMA=   0.4085
  1.9568  0.7754  0.7754  0.7389  0.3179  0.0317  0.1503  0.1228  0.1095  0.0932
  0.0863  0.0784  0.0743

 Free energy of the ion-electron system (eV)
  ---------------------------------------------------
  alpha Z        PSCENC =      1250.79083022
  Ewald energy   TEWEN  =    248445.36182444
  -Hartree energ DENC   =   -317639.12269866
  -exchange      EXHF   =         0.00000000
  -V(xc)+E(xc)   XCENC  =      2102.05129627
  PAW double counting   =     74897.60181110   -79295.67391694
  entropy T*S    EENTRO =         0.00000000
  eigenvalues    EBANDS =     -1274.73402425
  atomic energy  EATOM  =     71145.21574525
  Solvation  Ediel_sol  =         0.00000000
  ---------------------------------------------------
  free energy    TOTEN  =      -368.50913257 eV

  energy without entropy =     -368.50913257  energy(sigma->0) =     -368.50913257


--------------------------------------------------------------------------------------------------------




--------------------------------------- Iteration      1(  15)  ---------------------------------------


    POTLOK:  cpu time    0.4192: real time    0.4371
    SETDIJ:  cpu time    0.0232: real time    0.0232
    EDDIAG:  cpu time    6.1405: real time    6.1426
  RMM-DIIS:  cpu time   22.1927: real time   22.2038
    ORTHCH:  cpu time    1.7651: real time    1.7654
 BZINTS: Fermi energy:  0.639964;671.000000 electrons
         Band energy:***********;  BLOECHL correction: -0.046572
       DOS:  cpu time    0.0583: real time    0.0583
    CHARGE:  cpu time    1.1218: real time    1.1222
    MIXING:  cpu time    0.0088: real time    0.0088
[...]
   0.911E+02 -.526E+02 -.288E+04   -.928E+02 0.535E+02 0.288E+04   0.166E+01 -.960E+00 0.419E+00   0.170E-03 0.165E-03 0.457E-03
   -.225E+00 0.129E+00 0.122E+04   0.236E+00 -.134E+00 -.122E+04   -.185E-02 0.116E-02 -.341E+00   -.763E-04 -.560E-04 0.235E-02
   -.590E+01 -.339E+01 -.809E+03   0.588E+01 0.338E+01 0.808E+03   0.247E-01 0.137E-01 0.492E+00   0.338E-04 0.435E-04 0.186E-02
   -.379E+00 -.162E+00 0.321E+04   0.398E+00 0.176E+00 -.320E+04   -.175E-01 -.134E-01 -.140E+01   -.302E-04 -.175E-04 0.684E-03
   -.912E+02 -.524E+02 -.288E+04   0.929E+02 0.534E+02 0.288E+04   -.167E+01 -.968E+00 0.422E+00   -.292E-04 -.808E-04 0.464E-03
   -.358E+01 -.104E+01 0.121E+04   0.358E+01 0.112E+01 -.121E+04   0.423E-01 -.634E-01 -.177E+00   -.238E-04 -.129E-03 0.239E-02
   0.542E+01 -.309E+01 -.810E+03   -.540E+01 0.308E+01 0.809E+03   -.251E-01 0.148E-01 0.490E+00   0.119E-03 -.573E-04 0.214E-02
   0.343E-01 0.629E+00 0.321E+04   -.979E-01 -.624E+00 -.320E+04   0.371E-01 0.117E-01 -.141E+01   -.134E-05 -.117E-04 0.669E-03
   0.112E+03 -.589E+02 -.285E+04   -.113E+03 0.597E+02 0.285E+04   0.169E+01 -.850E+00 0.227E+00   -.277E-04 -.173E-03 0.433E-03
   -.408E-01 0.395E+01 0.121E+04   0.447E-01 -.404E+01 -.121E+04   0.261E-02 0.700E-01 -.247E+00   0.115E-03 -.122E-03 0.245E-02
   -.530E+00 -.828E+00 -.821E+03   0.660E+00 0.648E+00 0.820E+03   -.158E+00 0.190E+00 0.208E+00   -.118E-04 -.126E-03 0.212E-02
   -.337E-01 0.586E+00 0.321E+04   0.937E-01 -.581E+00 -.320E+04   -.350E-01 0.101E-01 -.143E+01   0.221E-03 -.376E-04 0.659E-03
   -.111E+03 -.592E+02 -.285E+04   0.113E+03 0.600E+02 0.285E+04   -.167E+01 -.842E+00 0.215E+00   -.118E-03 0.473E-04 0.391E-03
   0.342E+01 -.132E+01 0.121E+04   -.341E+01 0.139E+01 -.121E+04   -.382E-01 -.573E-01 -.170E+00   -.147E-04 -.162E-03 0.220E-02
   0.986E+00 -.115E+01 -.820E+03   -.112E+01 0.968E+00 0.820E+03   0.156E+00 0.189E+00 0.205E+00   -.144E-03 -.302E-05 0.188E-02
   -.524E+00 -.266E+00 0.321E+04   0.549E+00 0.211E+00 -.320E+04   -.263E-01 0.244E-01 -.142E+01   -.308E-04 -.571E-05 0.591E-03
   -.434E+01 0.126E+03 -.285E+04   0.443E+01 -.128E+03 0.285E+04   -.108E+00 0.187E+01 0.217E+00   0.142E-03 0.112E-03 0.399E-03
   0.285E+01 -.232E+01 0.121E+04   -.290E+01 0.227E+01 -.121E+04   0.308E-01 0.622E-01 -.170E+00   -.199E-04 -.102E-04 0.230E-02
   -.208E+01 0.119E+01 -.835E+03   0.208E+01 -.120E+01 0.836E+03   0.160E-02 -.108E-02 -.118E+01   -.182E-04 0.313E-04 0.200E-02
   0.464E-01 -.838E+00 0.321E+04   -.430E-01 0.882E+00 -.320E+04   -.270E-02 -.243E-01 -.124E+01   -.744E-04 0.166E-04 0.681E-03
   0.349E+00 0.304E+02 -.285E+04   -.353E+00 -.308E+02 0.285E+04   0.128E-02 0.390E+00 0.316E+01   -.977E-04 0.514E-04 0.527E-03
   -.291E+01 -.204E+01 0.121E+04   0.298E+01 0.198E+01 -.121E+04   -.332E-01 0.662E-01 -.186E+00   0.236E-05 0.794E-04 0.230E-02
   0.169E-01 0.679E+01 -.809E+03   -.193E-01 -.677E+01 0.808E+03   0.809E-03 -.283E-01 0.492E+00   -.527E-05 0.809E-04 0.214E-02
   0.508E+00 -.221E+00 0.321E+04   -.539E+00 0.157E+00 -.320E+04   0.325E-01 0.295E-01 -.142E+01   0.841E-04 0.220E-03 0.703E-03
   0.450E+01 0.126E+03 -.285E+04   -.461E+01 -.128E+03 0.285E+04   0.113E+00 0.188E+01 0.218E+00   -.165E-03 -.131E-03 0.548E-03
   0.445E+01 0.288E+01 0.121E+04   -.455E+01 -.294E+01 -.121E+04   0.679E-01 0.410E-01 -.177E+00   -.256E-04 0.656E-04 0.224E-02
   0.224E+01 0.172E+01 -.835E+03   -.225E+01 -.172E+01 0.836E+03   -.644E-02 0.148E-02 -.118E+01   -.462E-04 -.196E-03 0.205E-02
   -.324E-01 0.162E-01 0.321E+04   0.350E-01 -.177E-01 -.321E+04   -.251E-02 0.844E-03 -.132E+01   0.213E-04 0.185E-03 0.618E-03
   -.256E+00 0.109E+00 -.288E+04   0.254E+00 -.108E+00 0.288E+04   -.156E-02 0.142E-02 0.345E+01   0.118E-03 -.107E-03 0.549E-03
   -.478E+01 0.275E+01 0.121E+04   0.489E+01 -.281E+01 -.121E+04   -.626E-01 0.364E-01 -.172E+00   0.431E-04 -.462E-04 0.226E-02
   -.120E+00 0.508E+01 -.811E+03   0.117E+00 -.499E+01 0.810E+03   0.109E-02 -.929E-01 0.454E+00   0.671E-04 -.140E-03 0.208E-02
   0.421E+02 0.241E+02 -.230E+04   -.425E+02 -.244E+02 0.233E+04   0.414E+00 0.235E+00 -.285E+02   0.971E-04 0.457E-04 -.350E-03
   0.207E+00 -.485E+02 -.230E+04   -.213E+00 0.490E+02 0.233E+04   0.809E-02 -.470E+00 -.285E+02   -.424E-04 -.631E-05 -.342E-03
   0.125E-01 -.339E-01 -.231E+04   -.214E-01 0.422E-01 0.234E+04   0.263E-02 -.373E-02 -.282E+02   0.124E-03 0.350E-04 -.331E-03
   -.421E+02 0.244E+02 -.230E+04   0.424E+02 -.246E+02 0.233E+04   -.330E+00 0.197E+00 -.284E+02   -.654E-04 -.264E-04 -.232E-03
   0.161E+01 -.764E+00 -.224E+04   -.302E+01 0.146E+01 0.222E+04   0.140E+01 -.692E+00 0.189E+02   -.987E-04 -.421E-04 -.412E-03
   -.271E+01 0.135E+01 -.424E+03   0.298E+01 -.148E+01 0.432E+03   -.284E+00 0.141E+00 -.823E+01   -.871E-05 -.295E-05 -.971E-04
 -----------------------------------------------------------------------------------------------
   -.131E+01 0.638E+00 0.110E+03   0.100E-11 -.173E-12 0.165E-11   0.132E+01 -.647E+00 -.110E+03   0.179E-04 0.557E-05 0.848E-01
 
 
 POSITION                                       TOTAL-FORCE (eV/Angst)
 -----------------------------------------------------------------------------------
     -0.00000      1.94796      2.00000        -0.028701      0.013704      0.275390
     -0.03468      1.96072      8.06479         0.009117     -0.014891      0.002424
      1.24593      1.22862      4.03457         0.026265      0.008516     -0.237156
      0.00517      0.50721      6.00617        -0.001415      0.001876     -0.026844
      2.49184      1.94796      2.00000         0.025282      0.014629      0.277844
      2.47812      1.92896      8.14739        -0.012518     -0.004422      0.016110
      3.73777      1.22862      4.03457         0.005753      0.030342     -0.154471
      2.49122      0.51860      6.02665         0.003228     -0.018782     -0.022436
      4.98369      1.94796      2.00000        -0.026118      0.014570      0.278006
      5.01989      1.92787      8.13874         0.006415     -0.004186      0.021427
      6.22962      1.22862      4.03457        -0.009457      0.006250     -0.239370
      4.99452      0.51819      6.02525        -0.008533     -0.019388     -0.022147
      7.47553      1.94796      2.00000         0.029635      0.014838      0.275294
      7.53173      1.96080      8.06428        -0.017842     -0.016879      0.006867
      8.72146      1.22862      4.03457         0.009285      0.042181     -0.258141
      7.48009      0.50712      6.00626        -0.003587      0.001989     -0.025731
     -1.24593      4.10596      2.00000        -0.000250     -0.001907      0.267913
     -1.23618      4.07609      8.06936        -0.003461      0.008897      0.011576
      0.00000      3.38662      4.03457         0.004124     -0.042645     -0.261280
     -1.24050      2.66844      6.04026        -0.001809      0.010276     -0.018808
      1.24592      4.10596      2.00000         0.017593     -0.010564      0.185480
      1.23506      4.11305      7.94582         0.007892     -0.004677      0.050469
      2.49185      3.38662      4.03457         0.035870     -0.020020     -0.156168
      1.25861      2.65399      6.02671        -0.017398      0.014501     -0.022439
      3.73776      4.10596      2.00000        -0.000466     -0.029860      0.277865
      3.74811      4.12845      8.14698        -0.002794      0.014673      0.015989
      4.98369      3.38662      4.03457        -0.022721     -0.019021     -0.154055
      3.74263      2.66490      6.07006        -0.001807      0.000983     -0.021330
      6.22961      4.10596      2.00000        -0.017216     -0.010872      0.187345
      6.26036      4.11319      7.94467        -0.013347     -0.004896      0.051199
      7.47554      3.38662      4.03457         0.012895     -0.039650     -0.266842
      6.22776      2.65414      6.02529         0.012527      0.016782     -0.022161
     -2.49185      6.26396      2.00000         0.000947     -0.001005      0.269959
     -2.50396      6.27186      8.06892         0.010396     -0.006107      0.011301
     -1.24592      5.54462      4.03457         0.008157     -0.003894     -0.308452
     -2.48650      4.82333      6.00117         0.007368      0.005983     -0.013879
     -0.00000      6.26396      2.00000         0.001265      0.000555      0.267816
      0.03189      6.27201      8.06914        -0.011165     -0.002799      0.012792
      1.24593      5.54462      4.03457         0.039648      0.019082     -0.261575
      0.00450      4.82314      6.00175        -0.014064      0.007843     -0.012618
      2.49184      6.26396      2.00000        -0.026725      0.017397      0.275359
      2.46423      6.28895      8.06460         0.021073     -0.003199      0.005511
      3.73777      5.54462      4.03457         0.006452     -0.025810     -0.236939
      2.51005      4.82156      6.02667        -0.021299      0.007549     -0.022587
      4.98369      6.26396      2.00000         0.025034      0.016236      0.276666
      5.03164      6.28989      8.06483        -0.036086     -0.007950      0.007508
      6.22962      5.54462      4.03457        -0.023418      0.017414     -0.260892
      4.97578      4.82185      6.02665         0.017608      0.006389     -0.022597
     -3.73777      8.42196      2.00000        -0.001953     -0.030364      0.276639
     -3.73555      8.36881      8.06487        -0.011059      0.033384      0.007135
     -2.49184      7.70262      4.03457        -0.026190      0.012858     -0.260791
     -3.72987      6.97922      6.04035         0.007040     -0.004267     -0.023977
     -1.24593      8.42196      2.00000         0.000457      0.019730      0.187247
     -1.23610      8.39305      7.94463        -0.002316      0.013640      0.051333
      0.00000      7.70262      4.03457         0.041689      0.009845     -0.267037
     -1.24116      6.98029      6.00114        -0.001763     -0.009731     -0.013825
      1.24592      8.42196      2.00000         0.001606     -0.033786      0.275257
      1.26377      8.36804      8.06413         0.005240      0.027845      0.009930
      2.49185      7.70262      4.03457        -0.031097     -0.027749     -0.258336
      1.24812      6.97876      6.04022        -0.010101     -0.004120     -0.020047
      3.73776      8.42196      2.00000        -0.000103     -0.000357      0.162790
      3.74739      8.41722      7.96621        -0.003494      0.001593      0.056209
      4.98369      7.70262      4.03457         0.045595     -0.025375     -0.257284
      3.74257      6.98050      6.00617        -0.002427     -0.000197     -0.026863
      1.13201      1.15197      9.21253        -0.010907     -0.009737     -0.036021
      3.74812      5.68259      9.21255         0.001379      0.016492     -0.039109
     -1.23544      5.53999      9.18841        -0.006367      0.004732     -0.023299
      6.36480      1.15165      9.21105         0.005483     -0.005835     -0.040048
      3.76015      2.65589      9.46716        -0.006466      0.003478      0.001641
      3.79386      2.63917     10.44100        -0.015882      0.007888     -0.040735
 -----------------------------------------------------------------------------------
    total drift:                                0.011226     -0.008947      0.043758


--------------------------------------------------------------------------------------------------------



  FREE ENERGIE OF THE ION-ELECTRON SYSTEM (eV)
  ---------------------------------------------------
  free  energy   TOTEN  =      -386.69589640 eV

  energy  without entropy=     -386.69589640  energy(sigma->0) =     -386.69589640
 


--------------------------------------------------------------------------------------------------------


    POTLOK:  cpu time    0.4408: real time    0.4412


--------------------------------------------------------------------------------------------------------


 stress matrix after NEB project (eV)
    -31.79655      0.21801     -0.51842
      0.21801    -31.58593      0.25014
     -0.51842      0.25014     -8.93531
  FORCES: max atom, RMS     0.056340    0.023053
  FORCE total and by dimension    0.192873    0.056209
  Stress total and by dimension   45.708744   31.796550
 writing wavefunctions
     LOOP+:  cpu time 1511.2272: real time 1548.4534
    4ORBIT:  cpu time    0.0000: real time    0.0000
 


 total charge     
 
# of ion       s       p       d       tot
------------------------------------------
    1        0.485   0.377   8.305   9.167
    2        0.502   0.522   8.322   9.346
    3        0.500   0.502   8.314   9.316
    4        0.499   0.506   8.318   9.323
    5        0.486   0.377   8.304   9.167
    6        0.443   0.526   8.320   9.288
    7        0.494   0.499   8.308   9.301
    8        0.498   0.504   8.315   9.317
    9        0.486   0.377   8.304   9.167
   10        0.445   0.530   8.320   9.295
   11        0.500   0.503   8.314   9.316
   12        0.499   0.505   8.315   9.319
   13        0.485   0.377   8.305   9.167
   14        0.502   0.522   8.322   9.347
   15        0.498   0.503   8.311   9.312
   16        0.499   0.505   8.318   9.323
   17        0.486   0.377   8.304   9.167
   18        0.496   0.509   8.322   9.327
   19        0.497   0.501   8.311   9.310
   20        0.504   0.508   8.330   9.342
   21        0.489   0.377   8.297   9.163
   22        0.478   0.377   8.360   9.216
   23        0.494   0.499   8.308   9.301
   24        0.498   0.504   8.315   9.318
   25        0.486   0.377   8.304   9.167
   26        0.443   0.526   8.320   9.289
   27        0.494   0.499   8.308   9.301
   28        0.494   0.488   8.316   9.298
   29        0.489   0.377   8.297   9.163
   30        0.478   0.378   8.361   9.217
   31        0.497   0.502   8.311   9.310
   32        0.499   0.505   8.315   9.319
   33        0.486   0.377   8.304   9.167
   34        0.496   0.509   8.322   9.326
   35        0.501   0.508   8.313   9.321
   36        0.499   0.507   8.320   9.326
   37        0.486   0.377   8.304   9.167
   38        0.496   0.509   8.322   9.327
   39        0.497   0.501   8.311   9.310
   40        0.499   0.507   8.320   9.325
   41        0.485   0.377   8.305   9.167
   42        0.502   0.522   8.322   9.346
   43        0.500   0.502   8.314   9.316
   44        0.498   0.504   8.315   9.318
   45        0.485   0.377   8.306   9.167
   46        0.502   0.522   8.322   9.346
   47        0.497   0.501   8.311   9.310
   48        0.498   0.504   8.315   9.317
   49        0.485   0.377   8.306   9.167
   50        0.502   0.522   8.322   9.346
   51        0.497   0.501   8.311   9.310
   52        0.504   0.508   8.331   9.342
   53        0.489   0.377   8.297   9.163
   54        0.478   0.378   8.361   9.217
   55        0.497   0.502   8.311   9.310
   56        0.499   0.507   8.320   9.326
   57        0.485   0.377   8.305   9.167
   58        0.502   0.522   8.322   9.346
   59        0.498   0.503   8.311   9.312
   60        0.504   0.508   8.330   9.342
   61        0.489   0.375   8.301   9.165
   62        0.469   0.376   8.358   9.203
   63        0.498   0.503   8.311   9.312
   64        0.499   0.506   8.318   9.323
   65        1.583   3.336   0.000   4.919
   66        1.583   3.336   0.000   4.919
   67        1.582   3.336   0.000   4.918
   68        1.583   3.336   0.000   4.919
   69        1.542   3.553   0.000   5.095
   70        0.601   0.119   0.000   0.721
--------------------------------------------------
tot         39.939  46.902 532.236 619.078
 


 magnetization (x)
 
# of ion       s       p       d       tot
------------------------------------------
    1       -0.009  -0.025   0.711   0.677
    2       -0.003  -0.013   0.576   0.559
    3       -0.005  -0.026   0.773   0.742
    4       -0.006  -0.025   0.743   0.713
    5       -0.008  -0.025   0.714   0.681
    6       -0.005  -0.012   0.736   0.720
    7       -0.006  -0.025   0.760   0.730
    8       -0.006  -0.025   0.734   0.703
    9       -0.008  -0.025   0.714   0.681
   10       -0.005  -0.011   0.731   0.715
   11       -0.005  -0.026   0.773   0.742
   12       -0.006  -0.025   0.734   0.703
   13       -0.009  -0.025   0.710   0.675
   14       -0.003  -0.013   0.576   0.559
   15       -0.006  -0.025   0.742   0.711
   16       -0.006  -0.025   0.746   0.715
   17       -0.007  -0.025   0.720   0.687
   18       -0.003  -0.014   0.603   0.586
   19       -0.005  -0.025   0.742   0.712
   20       -0.006  -0.021   0.589   0.562
   21       -0.001  -0.025   0.760   0.734
   22       -0.011  -0.017   0.792   0.764
   23       -0.006  -0.025   0.760   0.730
   24       -0.006  -0.025   0.735   0.704
   25       -0.008  -0.025   0.714   0.681
   26       -0.005  -0.012   0.736   0.720
   27       -0.006  -0.025   0.760   0.730
   28       -0.006  -0.023   0.690   0.660
   29       -0.001  -0.025   0.760   0.733
   30       -0.011  -0.017   0.793   0.765
   31       -0.005  -0.025   0.741   0.711
   32       -0.006  -0.025   0.734   0.703
   33       -0.007  -0.025   0.719   0.686
   34       -0.003  -0.014   0.602   0.585
   35       -0.006  -0.024   0.773   0.743
   36       -0.006  -0.024   0.734   0.703
   37       -0.007  -0.025   0.720   0.687
   38       -0.003  -0.014   0.603   0.586
   39       -0.005  -0.025   0.742   0.712
   40       -0.006  -0.024   0.737   0.706
   41       -0.009  -0.025   0.711   0.677
   42       -0.003  -0.013   0.576   0.560
   43       -0.005  -0.026   0.773   0.742
   44       -0.006  -0.025   0.735   0.704
   45       -0.009  -0.025   0.709   0.674
   46       -0.003  -0.014   0.577   0.560
   47       -0.005  -0.025   0.740   0.710
   48       -0.006  -0.025   0.734   0.703
   49       -0.009  -0.025   0.709   0.674
   50       -0.003  -0.014   0.577   0.560
   51       -0.005  -0.025   0.740   0.710
   52       -0.006  -0.022   0.588   0.561
   53       -0.001  -0.025   0.760   0.733
   54       -0.011  -0.017   0.792   0.765
   55       -0.005  -0.025   0.741   0.711
   56       -0.006  -0.024   0.734   0.703
   57       -0.009  -0.025   0.710   0.675
   58       -0.003  -0.013   0.576   0.560
   59       -0.006  -0.025   0.742   0.711
   60       -0.006  -0.021   0.589   0.562
   61       -0.001  -0.026   0.735   0.709
   62       -0.012  -0.016   0.785   0.758
   63       -0.006  -0.025   0.741   0.710
   64       -0.006  -0.025   0.743   0.713
   65        0.002   0.130   0.000   0.132
   66        0.002   0.130   0.000   0.132
   67        0.002   0.121   0.000   0.123
   68        0.002   0.130   0.000   0.132
   69        0.011   0.140   0.000   0.151
   70        0.001   0.002   0.000   0.004
--------------------------------------------------
tot         -0.355  -0.758  45.549  44.436
 
 BZINTS: Fermi energy:  0.633572;671.000000 electrons
         Band energy:***********;  BLOECHL correction: -0.046765

 total amount of memory used by VASP MPI-rank0   116008. kBytes
=======================================================================

   base      :      30000. kBytes
   nonlr-proj:      12485. kBytes
   fftplans  :       6402. kBytes
   grid      :      17692. kBytes
   one-center:         93. kBytes
   wavefun   :      49336. kBytes
 
  
  
 General timing and accounting informations for this job:
 ========================================================
  
                  Total CPU time used (sec):     1682.498
                            User time (sec):     1487.827
                          System time (sec):      194.671
                         Elapsed time (sec):     1726.855
  
                   Maximum memory used (kb):      350984.
                   Average memory used (kb):           0.
  
                          Minor page faults:     27277396
                          Major page faults:           10
                 Voluntary context switches:         5584
