ESCALE ; pCOHP file generated by LOBSTER. Energy is shifted such that the Fermi level lies at 0 eV.
         4          2        521  -2.05309e+01   5.51916e+00  -4.92402e-01 
Average
No.1:Fe24->O69(2.0306540041790173)
No.2:Fe28->O69(2.0458020908836136)
No.3:Fe40->O69(2.0460429577833632)
-20.03854   0.00000  -0.30988   0.00000  -0.30670   0.00000  -0.31154   0.00000  -0.31138   0.00000  -0.30751   0.00000  -0.30473   0.00000  -0.30905   0.00000  -0.30875
-19.98844   0.00000  -0.30988   0.00000  -0.30670   0.00000  -0.31154   0.00000  -0.31138   0.00000  -0.30751   0.00000  -0.30473   0.00000  -0.30905   0.00000  -0.30875
-19.93834   0.00000  -0.30988   0.00000  -0.30670   0.00000  -0.31154   0.00000  -0.31138   0.00000  -0.30751   0.00000  -0.30473   0.00000  -0.30905   0.00000  -0.30875
-19.88825   0.00000  -0.30988   0.00000  -0.30670   0.00000  -0.31154   0.00000  -0.31138   0.00000  -0.30751   0.00000  -0.30473   0.00000  -0.30905   0.00000  -0.30875
-19.83815   0.00000  -0.30988   0.00000  -0.30670   0.00000  -0.31154   0.00000  -0.31138   0.00000  -0.30751   0.00000  -0.30473   0.00000  -0.30905   0.00000  -0.30875
-19.78805   0.00000  -0.30988   0.00000  -0.30670   0.00000  -0.31154   0.00000  -0.31138   0.00000  -0.30751   0.00000  -0.30473   0.00000  -0.30905   0.00000  -0.30875
-19.73796   0.00000  -0.30988   0.00000  -0.30670   0.00000  -0.31154   0.00000  -0.31138   0.00000  -0.30751   0.00000  -0.30473   0.00000  -0.30905   0.00000  -0.30875
-19.68786   0.00000  -0.30988   0.00000  -0.30670   0.00000  -0.31154   0.00000  -0.31138   0.00000  -0.30751   0.00000  -0.30473   0.00000  -0.30905   0.00000  -0.30875
-19.63776   0.00000  -0.30988   0.00000  -0.30670   0.00000  -0.31154   0.00000  -0.31138   0.00000  -0.30751   0.00000  -0.30473   0.00000  -0.30905   0.00000  -0.30875
-19.58767   0.00000  -0.30988   0.00000  -0.30670   0.00000  -0.31154   0.00000  -0.31138   0.00000  -0.30751   0.00000  -0.30473   0.00000  -0.30905   0.00000  -0.30875
-19.53757   0.00000  -0.30988   0.00000  -0.30670   0.00000  -0.31154   0.00000  -0.31138   0.00000  -0.30751   0.00000  -0.30473   0.00000  -0.30905   0.00000  -0.30875
-19.48748   0.00000  -0.30988   0.00000  -0.30670   0.00000  -0.31154   0.00000  -0.31138   0.00000  -0.30751   0.00000  -0.30473   0.00000  -0.30905   0.00000  -0.30875
-19.43738   0.00000  -0.30988   0.00000  -0.30670   0.00000  -0.31154   0.00000  -0.31138   0.00000  -0.30751   0.00000  -0.30473   0.00000  -0.30905   0.00000  -0.30875
-19.38728   0.00000  -0.30988   0.00000  -0.30670   0.00000  -0.31154   0.00000  -0.31138   0.00000  -0.30751   0.00000  -0.30473   0.00000  -0.30905   0.00000  -0.30875
-19.33719   0.00000  -0.30988   0.00000  -0.30670   0.00000  -0.31154   0.00000  -0.31138   0.00000  -0.30751   0.00000  -0.30473   0.00000  -0.30905   0.00000  -0.30875
-19.28709   0.00000  -0.30988   0.00000  -0.30670   0.00000  -0.31154   0.00000  -0.31138   0.00000  -0.30751   0.00000  -0.30473   0.00000  -0.30905   0.00000  -0.30875
-19.23699   0.15894  -0.30191   0.03910  -0.30474   0.21532  -0.30076   0.22241  -0.30024   0.00000  -0.30751   0.00000  -0.30473   0.00000  -0.30905   0.00000  -0.30875
-19.18690   0.00432  -0.30170  -0.01142  -0.30531   0.01557  -0.29998   0.00882  -0.29980   0.16307  -0.29934   0.01848  -0.30381   0.23522  -0.29726   0.23552  -0.29695
-19.13680  -0.00044  -0.30172  -0.00026  -0.30533  -0.00053  -0.30000  -0.00054  -0.29983   0.00000  -0.29934   0.00000  -0.30381   0.00000  -0.29726   0.00000  -0.29695
-19.08671   0.00000  -0.30172   0.00000  -0.30533   0.00000  -0.30000   0.00000  -0.29983   0.00215  -0.29923   0.00775  -0.30342  -0.00067  -0.29729  -0.00064  -0.29698
-19.03661   0.00000  -0.30172   0.00000  -0.30533   0.00000  -0.30000   0.00000  -0.29983  -0.00047  -0.29926  -0.00022  -0.30343  -0.00059  -0.29732  -0.00060  -0.29701
-18.98651   0.00000  -0.30172   0.00000  -0.30533   0.00000  -0.30000   0.00000  -0.29983   0.00000  -0.29926   0.00000  -0.30343   0.00000  -0.29732   0.00000  -0.29701
-18.93642   0.00000  -0.30172   0.00000  -0.30533   0.00000  -0.30000   0.00000  -0.29983   0.00000  -0.29926   0.00000  -0.30343   0.00000  -0.29732   0.00000  -0.29701
-18.88632   0.00000  -0.30172   0.00000  -0.30533   0.00000  -0.30000   0.00000  -0.29983   0.00000  -0.29926   0.00000  -0.30343   0.00000  -0.29732   0.00000  -0.29701
-18.83622   0.00000  -0.30172   0.00000  -0.30533   0.00000  -0.30000   0.00000  -0.29983   0.00000  -0.29926   0.00000  -0.30343   0.00000  -0.29732   0.00000  -0.29701
-18.78613   0.00000  -0.30172   0.00000  -0.30533   0.00000  -0.30000   0.00000  -0.29983   0.00000  -0.29926   0.00000  -0.30343   0.00000  -0.29732   0.00000  -0.29701
-18.73603   0.00000  -0.30172   0.00000  -0.30533   0.00000  -0.30000   0.00000  -0.29983   0.00000  -0.29926   0.00000  -0.30343   0.00000  -0.29732   0.00000  -0.29701
-18.68593   0.00000  -0.30172   0.00000  -0.30533   0.00000  -0.30000   0.00000  -0.29983   0.00000  -0.29926   0.00000  -0.30343   0.00000  -0.29732   0.00000  -0.29701
-18.63584   0.00000  -0.30172   0.00000  -0.30533   0.00000  -0.30000   0.00000  -0.29983   0.00000  -0.29926   0.00000  -0.30343   0.00000  -0.29732   0.00000  -0.29701
-18.58574   0.00000  -0.30172   0.00000  -0.30533   0.00000  -0.30000   0.00000  -0.29983   0.00000  -0.29926   0.00000  -0.30343   0.00000  -0.29732   0.00000  -0.29701
-18.53565   0.00000  -0.30172   0.00000  -0.30533   0.00000  -0.30000   0.00000  -0.29983   0.00000  -0.29926   0.00000  -0.30343   0.00000  -0.29732   0.00000  -0.29701
-18.48555   0.00000  -0.30172   0.00000  -0.30533   0.00000  -0.30000   0.00000  -0.29983   0.00000  -0.29926   0.00000  -0.30343   0.00000  -0.29732   0.00000  -0.29701
-18.43545   0.00000  -0.30172   0.00000  -0.30533   0.00000  -0.30000   0.00000  -0.29983   0.00000  -0.29926   0.00000  -0.30343   0.00000  -0.29732   0.00000  -0.29701
-18.38536   0.00000  -0.30172   0.00000  -0.30533   0.00000  -0.30000   0.00000  -0.29983   0.00000  -0.29926   0.00000  -0.30343   0.00000  -0.29732   0.00000  -0.29701
-18.33526   0.00000  -0.30172   0.00000  -0.30533   0.00000  -0.30000   0.00000  -0.29983   0.00000  -0.29926   0.00000  -0.30343   0.00000  -0.29732   0.00000  -0.29701
-18.28516   0.00000  -0.30172   0.00000  -0.30533   0.00000  -0.30000   0.00000  -0.29983   0.00000  -0.29926   0.00000  -0.30343   0.00000  -0.29732   0.00000  -0.29701
-18.23507   0.00000  -0.30172   0.00000  -0.30533   0.00000  -0.30000   0.00000  -0.29983   0.00000  -0.29926   0.00000  -0.30343   0.00000  -0.29732   0.00000  -0.29701
-18.18497   0.00000  -0.30172   0.00000  -0.30533   0.00000  -0.30000   0.00000  -0.29983   0.00000  -0.29926   0.00000  -0.30343   0.00000  -0.29732   0.00000  -0.29701
-18.13487   0.00000  -0.30172   0.00000  -0.30533   0.00000  -0.30000   0.00000  -0.29983   0.00000  -0.29926   0.00000  -0.30343   0.00000  -0.29732   0.00000  -0.29701
-18.08478   0.00000  -0.30172   0.00000  -0.30533   0.00000  -0.30000   0.00000  -0.29983   0.00000  -0.29926   0.00000  -0.30343   0.00000  -0.29732   0.00000  -0.29701
-18.03468   0.00000  -0.30172   0.00000  -0.30533   0.00000  -0.30000   0.00000  -0.29983   0.00000  -0.29926   0.00000  -0.30343   0.00000  -0.29732   0.00000  -0.29701
-17.98459   0.00000  -0.30172   0.00000  -0.30533   0.00000  -0.30000   0.00000  -0.29983   0.00000  -0.29926   0.00000  -0.30343   0.00000  -0.29732   0.00000  -0.29701
-17.93449   0.00000  -0.30172   0.00000  -0.30533   0.00000  -0.30000   0.00000  -0.29983   0.00000  -0.29926   0.00000  -0.30343   0.00000  -0.29732   0.00000  -0.29701
-17.88439   0.00000  -0.30172   0.00000  -0.30533   0.00000  -0.30000   0.00000  -0.29983   0.00000  -0.29926   0.00000  -0.30343   0.00000  -0.29732   0.00000  -0.29701
-17.83430   0.00000  -0.30172   0.00000  -0.30533   0.00000  -0.30000   0.00000  -0.29983   0.00000  -0.29926   0.00000  -0.30343   0.00000  -0.29732   0.00000  -0.29701
-17.78420   0.00000  -0.30172   0.00000  -0.30533   0.00000  -0.30000   0.00000  -0.29983   0.00000  -0.29926   0.00000  -0.30343   0.00000  -0.29732   0.00000  -0.29701
-17.73410   0.00000  -0.30172   0.00000  -0.30533   0.00000  -0.30000   0.00000  -0.29983   0.00000  -0.29926   0.00000  -0.30343   0.00000  -0.29732   0.00000  -0.29701
-17.68401   0.00000  -0.30172   0.00000  -0.30533   0.00000  -0.30000   0.00000  -0.29983   0.00000  -0.29926   0.00000  -0.30343   0.00000  -0.29732   0.00000  -0.29701
-17.63391   0.00000  -0.30172   0.00000  -0.30533   0.00000  -0.30000   0.00000  -0.29983   0.00000  -0.29926   0.00000  -0.30343   0.00000  -0.29732   0.00000  -0.29701
-17.58382   0.00000  -0.30172   0.00000  -0.30533   0.00000  -0.30000   0.00000  -0.29983   0.00000  -0.29926   0.00000  -0.30343   0.00000  -0.29732   0.00000  -0.29701
-17.53372   0.00000  -0.30172   0.00000  -0.30533   0.00000  -0.30000   0.00000  -0.29983   0.00000  -0.29926   0.00000  -0.30343   0.00000  -0.29732   0.00000  -0.29701
-17.48362   0.00000  -0.30172   0.00000  -0.30533   0.00000  -0.30000   0.00000  -0.29983   0.00000  -0.29926   0.00000  -0.30343   0.00000  -0.29732   0.00000  -0.29701
-17.43353   0.00000  -0.30172   0.00000  -0.30533   0.00000  -0.30000   0.00000  -0.29983   0.00000  -0.29926   0.00000  -0.30343   0.00000  -0.29732   0.00000  -0.29701
-17.38343   0.00000  -0.30172   0.00000  -0.30533   0.00000  -0.30000   0.00000  -0.29983   0.00000  -0.29926   0.00000  -0.30343   0.00000  -0.29732   0.00000  -0.29701
-17.33333   0.00000  -0.30172   0.00000  -0.30533   0.00000  -0.30000   0.00000  -0.29983   0.00000  -0.29926   0.00000  -0.30343   0.00000  -0.29732   0.00000  -0.29701
-17.28324   0.00000  -0.30172   0.00000  -0.30533   0.00000  -0.30000   0.00000  -0.29983   0.00000  -0.29926   0.00000  -0.30343   0.00000  -0.29732   0.00000  -0.29701
-17.23314   0.00000  -0.30172   0.00000  -0.30533   0.00000  -0.30000   0.00000  -0.29983   0.00000  -0.29926   0.00000  -0.30343   0.00000  -0.29732   0.00000  -0.29701
-17.18304   0.00000  -0.30172   0.00000  -0.30533   0.00000  -0.30000   0.00000  -0.29983   0.00000  -0.29926   0.00000  -0.30343   0.00000  -0.29732   0.00000  -0.29701
-17.13295   0.00000  -0.30172   0.00000  -0.30533   0.00000  -0.30000   0.00000  -0.29983   0.00000  -0.29926   0.00000  -0.30343   0.00000  -0.29732   0.00000  -0.29701
-17.08285   0.00000  -0.30172   0.00000  -0.30533   0.00000  -0.30000   0.00000  -0.29983   0.00000  -0.29926   0.00000  -0.30343   0.00000  -0.29732   0.00000  -0.29701
-17.03276   0.00000  -0.30172   0.00000  -0.30533   0.00000  -0.30000   0.00000  -0.29983   0.00000  -0.29926   0.00000  -0.30343   0.00000  -0.29732   0.00000  -0.29701
-16.98266   0.00000  -0.30172   0.00000  -0.30533   0.00000  -0.30000   0.00000  -0.29983   0.00000  -0.29926   0.00000  -0.30343   0.00000  -0.29732   0.00000  -0.29701
-16.93256   0.00000  -0.30172   0.00000  -0.30533   0.00000  -0.30000   0.00000  -0.29983   0.00000  -0.29926   0.00000  -0.30343   0.00000  -0.29732   0.00000  -0.29701
-16.88247   0.00000  -0.30172   0.00000  -0.30533   0.00000  -0.30000   0.00000  -0.29983   0.00000  -0.29926   0.00000  -0.30343   0.00000  -0.29732   0.00000  -0.29701
-16.83237   0.00000  -0.30172   0.00000  -0.30533   0.00000  -0.30000   0.00000  -0.29983   0.00000  -0.29926   0.00000  -0.30343   0.00000  -0.29732   0.00000  -0.29701
-16.78227   0.00000  -0.30172   0.00000  -0.30533   0.00000  -0.30000   0.00000  -0.29983   0.00000  -0.29926   0.00000  -0.30343   0.00000  -0.29732   0.00000  -0.29701
-16.73218   0.00000  -0.30172   0.00000  -0.30533   0.00000  -0.30000   0.00000  -0.29983   0.00000  -0.29926   0.00000  -0.30343   0.00000  -0.29732   0.00000  -0.29701
-16.68208   0.00000  -0.30172   0.00000  -0.30533   0.00000  -0.30000   0.00000  -0.29983   0.00000  -0.29926   0.00000  -0.30343   0.00000  -0.29732   0.00000  -0.29701
-16.63198   0.00000  -0.30172   0.00000  -0.30533   0.00000  -0.30000   0.00000  -0.29983   0.00000  -0.29926   0.00000  -0.30343   0.00000  -0.29732   0.00000  -0.29701
-16.58189   0.00000  -0.30172   0.00000  -0.30533   0.00000  -0.30000   0.00000  -0.29983   0.00000  -0.29926   0.00000  -0.30343   0.00000  -0.29732   0.00000  -0.29701
-16.53179   0.00000  -0.30172   0.00000  -0.30533   0.00000  -0.30000   0.00000  -0.29983   0.00000  -0.29926   0.00000  -0.30343   0.00000  -0.29732   0.00000  -0.29701
-16.48170   0.00000  -0.30172   0.00000  -0.30533   0.00000  -0.30000   0.00000  -0.29983   0.00000  -0.29926   0.00000  -0.30343   0.00000  -0.29732   0.00000  -0.29701
-16.43160   0.00000  -0.30172   0.00000  -0.30533   0.00000  -0.30000   0.00000  -0.29983   0.00000  -0.29926   0.00000  -0.30343   0.00000  -0.29732   0.00000  -0.29701
-16.38150   0.00000  -0.30172   0.00000  -0.30533   0.00000  -0.30000   0.00000  -0.29983   0.00000  -0.29926   0.00000  -0.30343   0.00000  -0.29732   0.00000  -0.29701
-16.33141   0.00000  -0.30172   0.00000  -0.30533   0.00000  -0.30000   0.00000  -0.29983   0.00000  -0.29926   0.00000  -0.30343   0.00000  -0.29732   0.00000  -0.29701
-16.28131   0.00000  -0.30172   0.00000  -0.30533   0.00000  -0.30000   0.00000  -0.29983   0.00000  -0.29926   0.00000  -0.30343   0.00000  -0.29732   0.00000  -0.29701
-16.23121   0.00000  -0.30172   0.00000  -0.30533   0.00000  -0.30000   0.00000  -0.29983   0.00000  -0.29926   0.00000  -0.30343   0.00000  -0.29732   0.00000  -0.29701
-16.18112   0.00000  -0.30172   0.00000  -0.30533   0.00000  -0.30000   0.00000  -0.29983   0.00000  -0.29926   0.00000  -0.30343   0.00000  -0.29732   0.00000  -0.29701
-16.13102   0.00000  -0.30172   0.00000  -0.30533   0.00000  -0.30000   0.00000  -0.29983   0.00000  -0.29926   0.00000  -0.30343   0.00000  -0.29732   0.00000  -0.29701
-16.08092   0.00000  -0.30172   0.00000  -0.30533   0.00000  -0.30000   0.00000  -0.29983   0.00000  -0.29926   0.00000  -0.30343   0.00000  -0.29732   0.00000  -0.29701
-16.03083   0.00000  -0.30172   0.00000  -0.30533   0.00000  -0.30000   0.00000  -0.29983   0.00000  -0.29926   0.00000  -0.30343   0.00000  -0.29732   0.00000  -0.29701
-15.98073   0.00000  -0.30172   0.00000  -0.30533   0.00000  -0.30000   0.00000  -0.29983   0.00000  -0.29926   0.00000  -0.30343   0.00000  -0.29732   0.00000  -0.29701
-15.93064   0.00000  -0.30172   0.00000  -0.30533   0.00000  -0.30000   0.00000  -0.29983   0.00000  -0.29926   0.00000  -0.30343   0.00000  -0.29732   0.00000  -0.29701
-15.88054   0.00000  -0.30172   0.00000  -0.30533   0.00000  -0.30000   0.00000  -0.29983   0.00000  -0.29926   0.00000  -0.30343   0.00000  -0.29732   0.00000  -0.29701
-15.83044   0.00000  -0.30172   0.00000  -0.30533   0.00000  -0.30000   0.00000  -0.29983   0.00000  -0.29926   0.00000  -0.30343   0.00000  -0.29732   0.00000  -0.29701
-15.78035   0.00000  -0.30172   0.00000  -0.30533   0.00000  -0.30000   0.00000  -0.29983   0.00000  -0.29926   0.00000  -0.30343   0.00000  -0.29732   0.00000  -0.29701
-15.73025   0.00000  -0.30172   0.00000  -0.30533   0.00000  -0.30000   0.00000  -0.29983   0.00000  -0.29926   0.00000  -0.30343   0.00000  -0.29732   0.00000  -0.29701
-15.68015   0.00000  -0.30172   0.00000  -0.30533   0.00000  -0.30000   0.00000  -0.29983   0.00000  -0.29926   0.00000  -0.30343   0.00000  -0.29732   0.00000  -0.29701
-15.63006   0.00000  -0.30172   0.00000  -0.30533   0.00000  -0.30000   0.00000  -0.29983   0.00000  -0.29926   0.00000  -0.30343   0.00000  -0.29732   0.00000  -0.29701
-15.57996   0.00000  -0.30172   0.00000  -0.30533   0.00000  -0.30000   0.00000  -0.29983   0.00000  -0.29926   0.00000  -0.30343   0.00000  -0.29732   0.00000  -0.29701
-15.52987   0.00000  -0.30172   0.00000  -0.30533   0.00000  -0.30000   0.00000  -0.29983   0.00000  -0.29926   0.00000  -0.30343   0.00000  -0.29732   0.00000  -0.29701
-15.47977   0.00000  -0.30172   0.00000  -0.30533   0.00000  -0.30000   0.00000  -0.29983   0.00000  -0.29926   0.00000  -0.30343   0.00000  -0.29732   0.00000  -0.29701
-15.42967   0.00000  -0.30172   0.00000  -0.30533   0.00000  -0.30000   0.00000  -0.29983   0.00000  -0.29926   0.00000  -0.30343   0.00000  -0.29732   0.00000  -0.29701
-15.37958   0.00000  -0.30172   0.00000  -0.30533   0.00000  -0.30000   0.00000  -0.29983   0.00000  -0.29926   0.00000  -0.30343   0.00000  -0.29732   0.00000  -0.29701
-15.32948   0.00000  -0.30172   0.00000  -0.30533   0.00000  -0.30000   0.00000  -0.29983   0.00000  -0.29926   0.00000  -0.30343   0.00000  -0.29732   0.00000  -0.29701
-15.27938   0.00000  -0.30172   0.00000  -0.30533   0.00000  -0.30000   0.00000  -0.29983   0.00000  -0.29926   0.00000  -0.30343   0.00000  -0.29732   0.00000  -0.29701
-15.22929   0.00000  -0.30172   0.00000  -0.30533   0.00000  -0.30000   0.00000  -0.29983   0.00000  -0.29926   0.00000  -0.30343   0.00000  -0.29732   0.00000  -0.29701
-15.17919   0.00000  -0.30172   0.00000  -0.30533   0.00000  -0.30000   0.00000  -0.29983   0.00000  -0.29926   0.00000  -0.30343   0.00000  -0.29732   0.00000  -0.29701
-15.12909   0.00000  -0.30172   0.00000  -0.30533   0.00000  -0.30000   0.00000  -0.29983   0.00000  -0.29926   0.00000  -0.30343   0.00000  -0.29732   0.00000  -0.29701
-15.07900   0.00000  -0.30172   0.00000  -0.30533   0.00000  -0.30000   0.00000  -0.29983   0.00000  -0.29926   0.00000  -0.30343   0.00000  -0.29732   0.00000  -0.29701
-15.02890   0.00000  -0.30172   0.00000  -0.30533   0.00000  -0.30000   0.00000  -0.29983   0.00000  -0.29926   0.00000  -0.30343   0.00000  -0.29732   0.00000  -0.29701
-14.97881   0.00000  -0.30172   0.00000  -0.30533   0.00000  -0.30000   0.00000  -0.29983   0.00000  -0.29926   0.00000  -0.30343   0.00000  -0.29732   0.00000  -0.29701
-14.92871   0.00000  -0.30172   0.00000  -0.30533   0.00000  -0.30000   0.00000  -0.29983   0.00000  -0.29926   0.00000  -0.30343   0.00000  -0.29732   0.00000  -0.29701
-14.87861   0.00000  -0.30172   0.00000  -0.30533   0.00000  -0.30000   0.00000  -0.29983   0.00000  -0.29926   0.00000  -0.30343   0.00000  -0.29732   0.00000  -0.29701
-14.82852   0.00000  -0.30172   0.00000  -0.30533   0.00000  -0.30000   0.00000  -0.29983   0.00000  -0.29926   0.00000  -0.30343   0.00000  -0.29732   0.00000  -0.29701
-14.77842   0.00000  -0.30172   0.00000  -0.30533   0.00000  -0.30000   0.00000  -0.29983   0.00000  -0.29926   0.00000  -0.30343   0.00000  -0.29732   0.00000  -0.29701
-14.72832   0.00000  -0.30172   0.00000  -0.30533   0.00000  -0.30000   0.00000  -0.29983   0.00000  -0.29926   0.00000  -0.30343   0.00000  -0.29732   0.00000  -0.29701
-14.67823   0.00000  -0.30172   0.00000  -0.30533   0.00000  -0.30000   0.00000  -0.29983   0.00000  -0.29926   0.00000  -0.30343   0.00000  -0.29732   0.00000  -0.29701
-14.62813   0.00000  -0.30172   0.00000  -0.30533   0.00000  -0.30000   0.00000  -0.29983   0.00000  -0.29926   0.00000  -0.30343   0.00000  -0.29732   0.00000  -0.29701
-14.57803   0.00000  -0.30172   0.00000  -0.30533   0.00000  -0.30000   0.00000  -0.29983   0.00000  -0.29926   0.00000  -0.30343   0.00000  -0.29732   0.00000  -0.29701
-14.52794   0.00000  -0.30172   0.00000  -0.30533   0.00000  -0.30000   0.00000  -0.29983   0.00000  -0.29926   0.00000  -0.30343   0.00000  -0.29732   0.00000  -0.29701
-14.47784   0.00000  -0.30172   0.00000  -0.30533   0.00000  -0.30000   0.00000  -0.29983   0.00000  -0.29926   0.00000  -0.30343   0.00000  -0.29732   0.00000  -0.29701
-14.42775   0.00000  -0.30172   0.00000  -0.30533   0.00000  -0.30000   0.00000  -0.29983   0.00000  -0.29926   0.00000  -0.30343   0.00000  -0.29732   0.00000  -0.29701
-14.37765   0.00000  -0.30172   0.00000  -0.30533   0.00000  -0.30000   0.00000  -0.29983   0.00000  -0.29926   0.00000  -0.30343   0.00000  -0.29732   0.00000  -0.29701
-14.32755   0.00000  -0.30172   0.00000  -0.30533   0.00000  -0.30000   0.00000  -0.29983   0.00000  -0.29926   0.00000  -0.30343   0.00000  -0.29732   0.00000  -0.29701
-14.27746   0.00000  -0.30172   0.00000  -0.30533   0.00000  -0.30000   0.00000  -0.29983   0.00000  -0.29926   0.00000  -0.30343   0.00000  -0.29732   0.00000  -0.29701
-14.22736   0.00000  -0.30172   0.00000  -0.30533   0.00000  -0.30000   0.00000  -0.29983   0.00000  -0.29926   0.00000  -0.30343   0.00000  -0.29732   0.00000  -0.29701
-14.17726   0.00000  -0.30172   0.00000  -0.30533   0.00000  -0.30000   0.00000  -0.29983   0.00000  -0.29926   0.00000  -0.30343   0.00000  -0.29732   0.00000  -0.29701
-14.12717   0.00000  -0.30172   0.00000  -0.30533   0.00000  -0.30000   0.00000  -0.29983   0.00000  -0.29926   0.00000  -0.30343   0.00000  -0.29732   0.00000  -0.29701
-14.07707   0.00000  -0.30172   0.00000  -0.30533   0.00000  -0.30000   0.00000  -0.29983   0.00000  -0.29926   0.00000  -0.30343   0.00000  -0.29732   0.00000  -0.29701
-14.02697   0.00000  -0.30172   0.00000  -0.30533   0.00000  -0.30000   0.00000  -0.29983   0.00000  -0.29926   0.00000  -0.30343   0.00000  -0.29732   0.00000  -0.29701
-13.97688   0.00000  -0.30172   0.00000  -0.30533   0.00000  -0.30000   0.00000  -0.29983   0.00000  -0.29926   0.00000  -0.30343   0.00000  -0.29732   0.00000  -0.29701
-13.92678   0.00000  -0.30172   0.00000  -0.30533   0.00000  -0.30000   0.00000  -0.29983   0.00000  -0.29926   0.00000  -0.30343   0.00000  -0.29732   0.00000  -0.29701
-13.87669   0.00000  -0.30172   0.00000  -0.30533   0.00000  -0.30000   0.00000  -0.29983   0.00000  -0.29926   0.00000  -0.30343   0.00000  -0.29732   0.00000  -0.29701
-13.82659   0.00000  -0.30172   0.00000  -0.30533   0.00000  -0.30000   0.00000  -0.29983   0.00000  -0.29926   0.00000  -0.30343   0.00000  -0.29732   0.00000  -0.29701
-13.77649   0.00000  -0.30172   0.00000  -0.30533   0.00000  -0.30000   0.00000  -0.29983   0.00000  -0.29926   0.00000  -0.30343   0.00000  -0.29732   0.00000  -0.29701
-13.72640   0.00000  -0.30172   0.00000  -0.30533   0.00000  -0.30000   0.00000  -0.29983   0.00000  -0.29926   0.00000  -0.30343   0.00000  -0.29732   0.00000  -0.29701
-13.67630   0.00000  -0.30172   0.00000  -0.30533   0.00000  -0.30000   0.00000  -0.29983   0.00000  -0.29926   0.00000  -0.30343   0.00000  -0.29732   0.00000  -0.29701
-13.62620   0.00000  -0.30172   0.00000  -0.30533   0.00000  -0.30000   0.00000  -0.29983   0.00000  -0.29926   0.00000  -0.30343   0.00000  -0.29732   0.00000  -0.29701
-13.57611   0.00000  -0.30172   0.00000  -0.30533   0.00000  -0.30000   0.00000  -0.29983   0.00000  -0.29926   0.00000  -0.30343   0.00000  -0.29732   0.00000  -0.29701
-13.52601   0.00000  -0.30172   0.00000  -0.30533   0.00000  -0.30000   0.00000  -0.29983   0.00000  -0.29926   0.00000  -0.30343   0.00000  -0.29732   0.00000  -0.29701
-13.47592   0.00000  -0.30172   0.00000  -0.30533   0.00000  -0.30000   0.00000  -0.29983   0.00000  -0.29926   0.00000  -0.30343   0.00000  -0.29732   0.00000  -0.29701
-13.42582   0.00000  -0.30172   0.00000  -0.30533   0.00000  -0.30000   0.00000  -0.29983   0.00000  -0.29926   0.00000  -0.30343   0.00000  -0.29732   0.00000  -0.29701
-13.37572   0.00000  -0.30172   0.00000  -0.30533   0.00000  -0.30000   0.00000  -0.29983   0.00000  -0.29926   0.00000  -0.30343   0.00000  -0.29732   0.00000  -0.29701
-13.32563   0.00000  -0.30172   0.00000  -0.30533   0.00000  -0.30000   0.00000  -0.29983   0.00000  -0.29926   0.00000  -0.30343   0.00000  -0.29732   0.00000  -0.29701
-13.27553   0.00000  -0.30172   0.00000  -0.30533   0.00000  -0.30000   0.00000  -0.29983   0.00000  -0.29926   0.00000  -0.30343   0.00000  -0.29732   0.00000  -0.29701
-13.22543   0.00000  -0.30172   0.00000  -0.30533   0.00000  -0.30000   0.00000  -0.29983   0.00000  -0.29926   0.00000  -0.30343   0.00000  -0.29732   0.00000  -0.29701
-13.17534   0.00000  -0.30172   0.00000  -0.30533   0.00000  -0.30000   0.00000  -0.29983   0.00000  -0.29926   0.00000  -0.30343   0.00000  -0.29732   0.00000  -0.29701
-13.12524   0.00000  -0.30172   0.00000  -0.30533   0.00000  -0.30000   0.00000  -0.29983   0.00000  -0.29926   0.00000  -0.30343   0.00000  -0.29732   0.00000  -0.29701
-13.07514   0.00000  -0.30172   0.00000  -0.30533   0.00000  -0.30000   0.00000  -0.29983   0.00000  -0.29926   0.00000  -0.30343   0.00000  -0.29732   0.00000  -0.29701
-13.02505   0.00000  -0.30172   0.00000  -0.30533   0.00000  -0.30000   0.00000  -0.29983   0.00000  -0.29926   0.00000  -0.30343   0.00000  -0.29732   0.00000  -0.29701
-12.97495   0.00000  -0.30172   0.00000  -0.30533   0.00000  -0.30000   0.00000  -0.29983   0.00000  -0.29926   0.00000  -0.30343   0.00000  -0.29732   0.00000  -0.29701
-12.92486   0.00000  -0.30172   0.00000  -0.30533   0.00000  -0.30000   0.00000  -0.29983   0.00000  -0.29926   0.00000  -0.30343   0.00000  -0.29732   0.00000  -0.29701
-12.87476   0.00000  -0.30172   0.00000  -0.30533   0.00000  -0.30000   0.00000  -0.29983   0.00000  -0.29926   0.00000  -0.30343   0.00000  -0.29732   0.00000  -0.29701
-12.82466   0.00000  -0.30172   0.00000  -0.30533   0.00000  -0.30000   0.00000  -0.29983   0.00000  -0.29926   0.00000  -0.30343   0.00000  -0.29732   0.00000  -0.29701
-12.77457   0.00000  -0.30172   0.00000  -0.30533   0.00000  -0.30000   0.00000  -0.29983   0.00000  -0.29926   0.00000  -0.30343   0.00000  -0.29732   0.00000  -0.29701
-12.72447   0.00000  -0.30172   0.00000  -0.30533   0.00000  -0.30000   0.00000  -0.29983   0.00000  -0.29926   0.00000  -0.30343   0.00000  -0.29732   0.00000  -0.29701
-12.67437   0.00000  -0.30172   0.00000  -0.30533   0.00000  -0.30000   0.00000  -0.29983   0.00000  -0.29926   0.00000  -0.30343   0.00000  -0.29732   0.00000  -0.29701
-12.62428   0.00000  -0.30172   0.00000  -0.30533   0.00000  -0.30000   0.00000  -0.29983   0.00000  -0.29926   0.00000  -0.30343   0.00000  -0.29732   0.00000  -0.29701
-12.57418   0.00000  -0.30172   0.00000  -0.30533   0.00000  -0.30000   0.00000  -0.29983   0.00000  -0.29926   0.00000  -0.30343   0.00000  -0.29732   0.00000  -0.29701
-12.52408   0.00000  -0.30172   0.00000  -0.30533   0.00000  -0.30000   0.00000  -0.29983   0.00000  -0.29926   0.00000  -0.30343   0.00000  -0.29732   0.00000  -0.29701
-12.47399   0.00000  -0.30172   0.00000  -0.30533   0.00000  -0.30000   0.00000  -0.29983   0.00000  -0.29926   0.00000  -0.30343   0.00000  -0.29732   0.00000  -0.29701
-12.42389   0.00000  -0.30172   0.00000  -0.30533   0.00000  -0.30000   0.00000  -0.29983   0.00000  -0.29926   0.00000  -0.30343   0.00000  -0.29732   0.00000  -0.29701
-12.37380   0.00000  -0.30172   0.00000  -0.30533   0.00000  -0.30000   0.00000  -0.29983   0.00000  -0.29926   0.00000  -0.30343   0.00000  -0.29732   0.00000  -0.29701
-12.32370   0.00000  -0.30172   0.00000  -0.30533   0.00000  -0.30000   0.00000  -0.29983   0.00000  -0.29926   0.00000  -0.30343   0.00000  -0.29732   0.00000  -0.29701
-12.27360   0.00000  -0.30172   0.00000  -0.30533   0.00000  -0.30000   0.00000  -0.29983   0.00000  -0.29926   0.00000  -0.30343   0.00000  -0.29732   0.00000  -0.29701
-12.22351   0.00000  -0.30172   0.00000  -0.30533   0.00000  -0.30000   0.00000  -0.29983   0.00000  -0.29926   0.00000  -0.30343   0.00000  -0.29732   0.00000  -0.29701
-12.17341   0.00000  -0.30172   0.00000  -0.30533   0.00000  -0.30000   0.00000  -0.29983   0.00000  -0.29926   0.00000  -0.30343   0.00000  -0.29732   0.00000  -0.29701
-12.12331   0.00000  -0.30172   0.00000  -0.30533   0.00000  -0.30000   0.00000  -0.29983   0.00000  -0.29926   0.00000  -0.30343   0.00000  -0.29732   0.00000  -0.29701
-12.07322   0.00000  -0.30172   0.00000  -0.30533   0.00000  -0.30000   0.00000  -0.29983   0.00000  -0.29926   0.00000  -0.30343   0.00000  -0.29732   0.00000  -0.29701
-12.02312   0.00000  -0.30172   0.00000  -0.30533   0.00000  -0.30000   0.00000  -0.29983   0.00000  -0.29926   0.00000  -0.30343   0.00000  -0.29732   0.00000  -0.29701
-11.97303   0.00000  -0.30172   0.00000  -0.30533   0.00000  -0.30000   0.00000  -0.29983   0.00000  -0.29926   0.00000  -0.30343   0.00000  -0.29732   0.00000  -0.29701
-11.92293   0.00000  -0.30172   0.00000  -0.30533   0.00000  -0.30000   0.00000  -0.29983   0.00000  -0.29926   0.00000  -0.30343   0.00000  -0.29732   0.00000  -0.29701
-11.87283   0.00000  -0.30172   0.00000  -0.30533   0.00000  -0.30000   0.00000  -0.29983   0.00000  -0.29926   0.00000  -0.30343   0.00000  -0.29732   0.00000  -0.29701
-11.82274   0.00000  -0.30172   0.00000  -0.30533   0.00000  -0.30000   0.00000  -0.29983   0.00000  -0.29926   0.00000  -0.30343   0.00000  -0.29732   0.00000  -0.29701
-11.77264   0.00000  -0.30172   0.00000  -0.30533   0.00000  -0.30000   0.00000  -0.29983   0.00000  -0.29926   0.00000  -0.30343   0.00000  -0.29732   0.00000  -0.29701
-11.72254   0.00000  -0.30172   0.00000  -0.30533   0.00000  -0.30000   0.00000  -0.29983   0.00000  -0.29926   0.00000  -0.30343   0.00000  -0.29732   0.00000  -0.29701
-11.67245   0.00000  -0.30172   0.00000  -0.30533   0.00000  -0.30000   0.00000  -0.29983   0.00000  -0.29926   0.00000  -0.30343   0.00000  -0.29732   0.00000  -0.29701
-11.62235   0.00000  -0.30172   0.00000  -0.30533   0.00000  -0.30000   0.00000  -0.29983   0.00000  -0.29926   0.00000  -0.30343   0.00000  -0.29732   0.00000  -0.29701
-11.57225   0.00000  -0.30172   0.00000  -0.30533   0.00000  -0.30000   0.00000  -0.29983   0.00000  -0.29926   0.00000  -0.30343   0.00000  -0.29732   0.00000  -0.29701
-11.52216   0.00000  -0.30172   0.00000  -0.30533   0.00000  -0.30000   0.00000  -0.29983   0.00000  -0.29926   0.00000  -0.30343   0.00000  -0.29732   0.00000  -0.29701
-11.47206   0.00000  -0.30172   0.00000  -0.30533   0.00000  -0.30000   0.00000  -0.29983   0.00000  -0.29926   0.00000  -0.30343   0.00000  -0.29732   0.00000  -0.29701
-11.42197   0.00000  -0.30172   0.00000  -0.30533   0.00000  -0.30000   0.00000  -0.29983   0.00000  -0.29926   0.00000  -0.30343   0.00000  -0.29732   0.00000  -0.29701
-11.37187   0.00000  -0.30172   0.00000  -0.30533   0.00000  -0.30000   0.00000  -0.29983   0.00000  -0.29926   0.00000  -0.30343   0.00000  -0.29732   0.00000  -0.29701