ESCALE ; pCOOP file generated by LOBSTER. Energy is shifted such that the Fermi level lies at 0 eV.
         4          2        521  -2.05309e+01   5.51916e+00  -4.92402e-01 
Average
No.1:Fe24->O69(2.0306540041790173)
No.2:Fe28->O69(2.0458020908836136)
No.3:Fe40->O69(2.0460429577833632)
-20.03854   0.00000   0.00743   0.00000   0.00612   0.00000   0.00808   0.00000   0.00809   0.00000   0.00690   0.00000   0.00529   0.00000   0.00771   0.00000   0.00770
-19.98844   0.00000   0.00743   0.00000   0.00612   0.00000   0.00808   0.00000   0.00809   0.00000   0.00690   0.00000   0.00529   0.00000   0.00771   0.00000   0.00770
-19.93834   0.00000   0.00743   0.00000   0.00612   0.00000   0.00808   0.00000   0.00809   0.00000   0.00690   0.00000   0.00529   0.00000   0.00771   0.00000   0.00770
-19.88825   0.00000   0.00743   0.00000   0.00612   0.00000   0.00808   0.00000   0.00809   0.00000   0.00690   0.00000   0.00529   0.00000   0.00771   0.00000   0.00770
-19.83815   0.00000   0.00743   0.00000   0.00612   0.00000   0.00808   0.00000   0.00809   0.00000   0.00690   0.00000   0.00529   0.00000   0.00771   0.00000   0.00770
-19.78805   0.00000   0.00743   0.00000   0.00612   0.00000   0.00808   0.00000   0.00809   0.00000   0.00690   0.00000   0.00529   0.00000   0.00771   0.00000   0.00770
-19.73796   0.00000   0.00743   0.00000   0.00612   0.00000   0.00808   0.00000   0.00809   0.00000   0.00690   0.00000   0.00529   0.00000   0.00771   0.00000   0.00770
-19.68786   0.00000   0.00743   0.00000   0.00612   0.00000   0.00808   0.00000   0.00809   0.00000   0.00690   0.00000   0.00529   0.00000   0.00771   0.00000   0.00770
-19.63776   0.00000   0.00743   0.00000   0.00612   0.00000   0.00808   0.00000   0.00809   0.00000   0.00690   0.00000   0.00529   0.00000   0.00771   0.00000   0.00770
-19.58767   0.00000   0.00743   0.00000   0.00612   0.00000   0.00808   0.00000   0.00809   0.00000   0.00690   0.00000   0.00529   0.00000   0.00771   0.00000   0.00770
-19.53757   0.00000   0.00743   0.00000   0.00612   0.00000   0.00808   0.00000   0.00809   0.00000   0.00690   0.00000   0.00529   0.00000   0.00771   0.00000   0.00770
-19.48748   0.00000   0.00743   0.00000   0.00612   0.00000   0.00808   0.00000   0.00809   0.00000   0.00690   0.00000   0.00529   0.00000   0.00771   0.00000   0.00770
-19.43738   0.00000   0.00743   0.00000   0.00612   0.00000   0.00808   0.00000   0.00809   0.00000   0.00690   0.00000   0.00529   0.00000   0.00771   0.00000   0.00770
-19.38728   0.00000   0.00743   0.00000   0.00612   0.00000   0.00808   0.00000   0.00809   0.00000   0.00690   0.00000   0.00529   0.00000   0.00771   0.00000   0.00770
-19.33719   0.00000   0.00743   0.00000   0.00612   0.00000   0.00808   0.00000   0.00809   0.00000   0.00690   0.00000   0.00529   0.00000   0.00771   0.00000   0.00770
-19.28709   0.00000   0.00743   0.00000   0.00612   0.00000   0.00808   0.00000   0.00809   0.00000   0.00690   0.00000   0.00529   0.00000   0.00771   0.00000   0.00770
-19.23699  -0.00252   0.00731   0.00541   0.00639  -0.00640   0.00776  -0.00658   0.00776   0.00000   0.00690   0.00000   0.00529   0.00000   0.00771   0.00000   0.00770
-19.18690  -0.00016   0.00730   0.00011   0.00640  -0.00037   0.00774  -0.00021   0.00775  -0.00283   0.00676   0.00565   0.00557  -0.00708   0.00735  -0.00706   0.00735
-19.13680   0.00006   0.00730   0.00002   0.00640   0.00007   0.00775   0.00007   0.00776   0.00000   0.00676   0.00000   0.00557   0.00000   0.00735   0.00000   0.00735
-19.08671   0.00000   0.00730   0.00000   0.00640   0.00000   0.00775   0.00000   0.00776   0.00001   0.00676   0.00000   0.00557   0.00001   0.00736   0.00001   0.00735
-19.03661   0.00000   0.00730   0.00000   0.00640   0.00000   0.00775   0.00000   0.00776   0.00006   0.00676  -0.00002   0.00557   0.00010   0.00736   0.00010   0.00735
-18.98651   0.00000   0.00730   0.00000   0.00640   0.00000   0.00775   0.00000   0.00776   0.00000   0.00676   0.00000   0.00557   0.00000   0.00736   0.00000   0.00735
-18.93642   0.00000   0.00730   0.00000   0.00640   0.00000   0.00775   0.00000   0.00776   0.00000   0.00676   0.00000   0.00557   0.00000   0.00736   0.00000   0.00735
-18.88632   0.00000   0.00730   0.00000   0.00640   0.00000   0.00775   0.00000   0.00776   0.00000   0.00676   0.00000   0.00557   0.00000   0.00736   0.00000   0.00735
-18.83622   0.00000   0.00730   0.00000   0.00640   0.00000   0.00775   0.00000   0.00776   0.00000   0.00676   0.00000   0.00557   0.00000   0.00736   0.00000   0.00735
-18.78613   0.00000   0.00730   0.00000   0.00640   0.00000   0.00775   0.00000   0.00776   0.00000   0.00676   0.00000   0.00557   0.00000   0.00736   0.00000   0.00735
-18.73603   0.00000   0.00730   0.00000   0.00640   0.00000   0.00775   0.00000   0.00776   0.00000   0.00676   0.00000   0.00557   0.00000   0.00736   0.00000   0.00735
-18.68593   0.00000   0.00730   0.00000   0.00640   0.00000   0.00775   0.00000   0.00776   0.00000   0.00676   0.00000   0.00557   0.00000   0.00736   0.00000   0.00735
-18.63584   0.00000   0.00730   0.00000   0.00640   0.00000   0.00775   0.00000   0.00776   0.00000   0.00676   0.00000   0.00557   0.00000   0.00736   0.00000   0.00735
-18.58574   0.00000   0.00730   0.00000   0.00640   0.00000   0.00775   0.00000   0.00776   0.00000   0.00676   0.00000   0.00557   0.00000   0.00736   0.00000   0.00735
-18.53565   0.00000   0.00730   0.00000   0.00640   0.00000   0.00775   0.00000   0.00776   0.00000   0.00676   0.00000   0.00557   0.00000   0.00736   0.00000   0.00735
-18.48555   0.00000   0.00730   0.00000   0.00640   0.00000   0.00775   0.00000   0.00776   0.00000   0.00676   0.00000   0.00557   0.00000   0.00736   0.00000   0.00735
-18.43545   0.00000   0.00730   0.00000   0.00640   0.00000   0.00775   0.00000   0.00776   0.00000   0.00676   0.00000   0.00557   0.00000   0.00736   0.00000   0.00735
-18.38536   0.00000   0.00730   0.00000   0.00640   0.00000   0.00775   0.00000   0.00776   0.00000   0.00676   0.00000   0.00557   0.00000   0.00736   0.00000   0.00735
-18.33526   0.00000   0.00730   0.00000   0.00640   0.00000   0.00775   0.00000   0.00776   0.00000   0.00676   0.00000   0.00557   0.00000   0.00736   0.00000   0.00735
-18.28516   0.00000   0.00730   0.00000   0.00640   0.00000   0.00775   0.00000   0.00776   0.00000   0.00676   0.00000   0.00557   0.00000   0.00736   0.00000   0.00735
-18.23507   0.00000   0.00730   0.00000   0.00640   0.00000   0.00775   0.00000   0.00776   0.00000   0.00676   0.00000   0.00557   0.00000   0.00736   0.00000   0.00735
-18.18497   0.00000   0.00730   0.00000   0.00640   0.00000   0.00775   0.00000   0.00776   0.00000   0.00676   0.00000   0.00557   0.00000   0.00736   0.00000   0.00735
-18.13487   0.00000   0.00730   0.00000   0.00640   0.00000   0.00775   0.00000   0.00776   0.00000   0.00676   0.00000   0.00557   0.00000   0.00736   0.00000   0.00735
-18.08478   0.00000   0.00730   0.00000   0.00640   0.00000   0.00775   0.00000   0.00776   0.00000   0.00676   0.00000   0.00557   0.00000   0.00736   0.00000   0.00735
-18.03468   0.00000   0.00730   0.00000   0.00640   0.00000   0.00775   0.00000   0.00776   0.00000   0.00676   0.00000   0.00557   0.00000   0.00736   0.00000   0.00735
-17.98459   0.00000   0.00730   0.00000   0.00640   0.00000   0.00775   0.00000   0.00776   0.00000   0.00676   0.00000   0.00557   0.00000   0.00736   0.00000   0.00735
-17.93449   0.00000   0.00730   0.00000   0.00640   0.00000   0.00775   0.00000   0.00776   0.00000   0.00676   0.00000   0.00557   0.00000   0.00736   0.00000   0.00735
-17.88439   0.00000   0.00730   0.00000   0.00640   0.00000   0.00775   0.00000   0.00776   0.00000   0.00676   0.00000   0.00557   0.00000   0.00736   0.00000   0.00735
-17.83430   0.00000   0.00730   0.00000   0.00640   0.00000   0.00775   0.00000   0.00776   0.00000   0.00676   0.00000   0.00557   0.00000   0.00736   0.00000   0.00735
-17.78420   0.00000   0.00730   0.00000   0.00640   0.00000   0.00775   0.00000   0.00776   0.00000   0.00676   0.00000   0.00557   0.00000   0.00736   0.00000   0.00735
-17.73410   0.00000   0.00730   0.00000   0.00640   0.00000   0.00775   0.00000   0.00776   0.00000   0.00676   0.00000   0.00557   0.00000   0.00736   0.00000   0.00735
-17.68401   0.00000   0.00730   0.00000   0.00640   0.00000   0.00775   0.00000   0.00776   0.00000   0.00676   0.00000   0.00557   0.00000   0.00736   0.00000   0.00735
-17.63391   0.00000   0.00730   0.00000   0.00640   0.00000   0.00775   0.00000   0.00776   0.00000   0.00676   0.00000   0.00557   0.00000   0.00736   0.00000   0.00735
-17.58382   0.00000   0.00730   0.00000   0.00640   0.00000   0.00775   0.00000   0.00776   0.00000   0.00676   0.00000   0.00557   0.00000   0.00736   0.00000   0.00735
-17.53372   0.00000   0.00730   0.00000   0.00640   0.00000   0.00775   0.00000   0.00776   0.00000   0.00676   0.00000   0.00557   0.00000   0.00736   0.00000   0.00735
-17.48362   0.00000   0.00730   0.00000   0.00640   0.00000   0.00775   0.00000   0.00776   0.00000   0.00676   0.00000   0.00557   0.00000   0.00736   0.00000   0.00735
-17.43353   0.00000   0.00730   0.00000   0.00640   0.00000   0.00775   0.00000   0.00776   0.00000   0.00676   0.00000   0.00557   0.00000   0.00736   0.00000   0.00735
-17.38343   0.00000   0.00730   0.00000   0.00640   0.00000   0.00775   0.00000   0.00776   0.00000   0.00676   0.00000   0.00557   0.00000   0.00736   0.00000   0.00735
-17.33333   0.00000   0.00730   0.00000   0.00640   0.00000   0.00775   0.00000   0.00776   0.00000   0.00676   0.00000   0.00557   0.00000   0.00736   0.00000   0.00735
-17.28324   0.00000   0.00730   0.00000   0.00640   0.00000   0.00775   0.00000   0.00776   0.00000   0.00676   0.00000   0.00557   0.00000   0.00736   0.00000   0.00735
-17.23314   0.00000   0.00730   0.00000   0.00640   0.00000   0.00775   0.00000   0.00776   0.00000   0.00676   0.00000   0.00557   0.00000   0.00736   0.00000   0.00735
-17.18304   0.00000   0.00730   0.00000   0.00640   0.00000   0.00775   0.00000   0.00776   0.00000   0.00676   0.00000   0.00557   0.00000   0.00736   0.00000   0.00735
-17.13295   0.00000   0.00730   0.00000   0.00640   0.00000   0.00775   0.00000   0.00776   0.00000   0.00676   0.00000   0.00557   0.00000   0.00736   0.00000   0.00735
-17.08285   0.00000   0.00730   0.00000   0.00640   0.00000   0.00775   0.00000   0.00776   0.00000   0.00676   0.00000   0.00557   0.00000   0.00736   0.00000   0.00735
-17.03276   0.00000   0.00730   0.00000   0.00640   0.00000   0.00775   0.00000   0.00776   0.00000   0.00676   0.00000   0.00557   0.00000   0.00736   0.00000   0.00735
-16.98266   0.00000   0.00730   0.00000   0.00640   0.00000   0.00775   0.00000   0.00776   0.00000   0.00676   0.00000   0.00557   0.00000   0.00736   0.00000   0.00735
-16.93256   0.00000   0.00730   0.00000   0.00640   0.00000   0.00775   0.00000   0.00776   0.00000   0.00676   0.00000   0.00557   0.00000   0.00736   0.00000   0.00735
-16.88247   0.00000   0.00730   0.00000   0.00640   0.00000   0.00775   0.00000   0.00776   0.00000   0.00676   0.00000   0.00557   0.00000   0.00736   0.00000   0.00735
-16.83237   0.00000   0.00730   0.00000   0.00640   0.00000   0.00775   0.00000   0.00776   0.00000   0.00676   0.00000   0.00557   0.00000   0.00736   0.00000   0.00735
-16.78227   0.00000   0.00730   0.00000   0.00640   0.00000   0.00775   0.00000   0.00776   0.00000   0.00676   0.00000   0.00557   0.00000   0.00736   0.00000   0.00735
-16.73218   0.00000   0.00730   0.00000   0.00640   0.00000   0.00775   0.00000   0.00776   0.00000   0.00676   0.00000   0.00557   0.00000   0.00736   0.00000   0.00735
-16.68208   0.00000   0.00730   0.00000   0.00640   0.00000   0.00775   0.00000   0.00776   0.00000   0.00676   0.00000   0.00557   0.00000   0.00736   0.00000   0.00735
-16.63198   0.00000   0.00730   0.00000   0.00640   0.00000   0.00775   0.00000   0.00776   0.00000   0.00676   0.00000   0.00557   0.00000   0.00736   0.00000   0.00735
-16.58189   0.00000   0.00730   0.00000   0.00640   0.00000   0.00775   0.00000   0.00776   0.00000   0.00676   0.00000   0.00557   0.00000   0.00736   0.00000   0.00735
-16.53179   0.00000   0.00730   0.00000   0.00640   0.00000   0.00775   0.00000   0.00776   0.00000   0.00676   0.00000   0.00557   0.00000   0.00736   0.00000   0.00735
-16.48170   0.00000   0.00730   0.00000   0.00640   0.00000   0.00775   0.00000   0.00776   0.00000   0.00676   0.00000   0.00557   0.00000   0.00736   0.00000   0.00735
-16.43160   0.00000   0.00730   0.00000   0.00640   0.00000   0.00775   0.00000   0.00776   0.00000   0.00676   0.00000   0.00557   0.00000   0.00736   0.00000   0.00735
-16.38150   0.00000   0.00730   0.00000   0.00640   0.00000   0.00775   0.00000   0.00776   0.00000   0.00676   0.00000   0.00557   0.00000   0.00736   0.00000   0.00735
-16.33141   0.00000   0.00730   0.00000   0.00640   0.00000   0.00775   0.00000   0.00776   0.00000   0.00676   0.00000   0.00557   0.00000   0.00736   0.00000   0.00735
-16.28131   0.00000   0.00730   0.00000   0.00640   0.00000   0.00775   0.00000   0.00776   0.00000   0.00676   0.00000   0.00557   0.00000   0.00736   0.00000   0.00735
-16.23121   0.00000   0.00730   0.00000   0.00640   0.00000   0.00775   0.00000   0.00776   0.00000   0.00676   0.00000   0.00557   0.00000   0.00736   0.00000   0.00735
-16.18112   0.00000   0.00730   0.00000   0.00640   0.00000   0.00775   0.00000   0.00776   0.00000   0.00676   0.00000   0.00557   0.00000   0.00736   0.00000   0.00735
-16.13102   0.00000   0.00730   0.00000   0.00640   0.00000   0.00775   0.00000   0.00776   0.00000   0.00676   0.00000   0.00557   0.00000   0.00736   0.00000   0.00735
-16.08092   0.00000   0.00730   0.00000   0.00640   0.00000   0.00775   0.00000   0.00776   0.00000   0.00676   0.00000   0.00557   0.00000   0.00736   0.00000   0.00735
-16.03083   0.00000   0.00730   0.00000   0.00640   0.00000   0.00775   0.00000   0.00776   0.00000   0.00676   0.00000   0.00557   0.00000   0.00736   0.00000   0.00735
-15.98073   0.00000   0.00730   0.00000   0.00640   0.00000   0.00775   0.00000   0.00776   0.00000   0.00676   0.00000   0.00557   0.00000   0.00736   0.00000   0.00735
-15.93064   0.00000   0.00730   0.00000   0.00640   0.00000   0.00775   0.00000   0.00776   0.00000   0.00676   0.00000   0.00557   0.00000   0.00736   0.00000   0.00735
-15.88054   0.00000   0.00730   0.00000   0.00640   0.00000   0.00775   0.00000   0.00776   0.00000   0.00676   0.00000   0.00557   0.00000   0.00736   0.00000   0.00735
-15.83044   0.00000   0.00730   0.00000   0.00640   0.00000   0.00775   0.00000   0.00776   0.00000   0.00676   0.00000   0.00557   0.00000   0.00736   0.00000   0.00735
-15.78035   0.00000   0.00730   0.00000   0.00640   0.00000   0.00775   0.00000   0.00776   0.00000   0.00676   0.00000   0.00557   0.00000   0.00736   0.00000   0.00735
-15.73025   0.00000   0.00730   0.00000   0.00640   0.00000   0.00775   0.00000   0.00776   0.00000   0.00676   0.00000   0.00557   0.00000   0.00736   0.00000   0.00735
-15.68015   0.00000   0.00730   0.00000   0.00640   0.00000   0.00775   0.00000   0.00776   0.00000   0.00676   0.00000   0.00557   0.00000   0.00736   0.00000   0.00735
-15.63006   0.00000   0.00730   0.00000   0.00640   0.00000   0.00775   0.00000   0.00776   0.00000   0.00676   0.00000   0.00557   0.00000   0.00736   0.00000   0.00735
-15.57996   0.00000   0.00730   0.00000   0.00640   0.00000   0.00775   0.00000   0.00776   0.00000   0.00676   0.00000   0.00557   0.00000   0.00736   0.00000   0.00735
-15.52987   0.00000   0.00730   0.00000   0.00640   0.00000   0.00775   0.00000   0.00776   0.00000   0.00676   0.00000   0.00557   0.00000   0.00736   0.00000   0.00735
-15.47977   0.00000   0.00730   0.00000   0.00640   0.00000   0.00775   0.00000   0.00776   0.00000   0.00676   0.00000   0.00557   0.00000   0.00736   0.00000   0.00735
-15.42967   0.00000   0.00730   0.00000   0.00640   0.00000   0.00775   0.00000   0.00776   0.00000   0.00676   0.00000   0.00557   0.00000   0.00736   0.00000   0.00735
-15.37958   0.00000   0.00730   0.00000   0.00640   0.00000   0.00775   0.00000   0.00776   0.00000   0.00676   0.00000   0.00557   0.00000   0.00736   0.00000   0.00735
-15.32948   0.00000   0.00730   0.00000   0.00640   0.00000   0.00775   0.00000   0.00776   0.00000   0.00676   0.00000   0.00557   0.00000   0.00736   0.00000   0.00735
-15.27938   0.00000   0.00730   0.00000   0.00640   0.00000   0.00775   0.00000   0.00776   0.00000   0.00676   0.00000   0.00557   0.00000   0.00736   0.00000   0.00735
-15.22929   0.00000   0.00730   0.00000   0.00640   0.00000   0.00775   0.00000   0.00776   0.00000   0.00676   0.00000   0.00557   0.00000   0.00736   0.00000   0.00735
-15.17919   0.00000   0.00730   0.00000   0.00640   0.00000   0.00775   0.00000   0.00776   0.00000   0.00676   0.00000   0.00557   0.00000   0.00736   0.00000   0.00735
-15.12909   0.00000   0.00730   0.00000   0.00640   0.00000   0.00775   0.00000   0.00776   0.00000   0.00676   0.00000   0.00557   0.00000   0.00736   0.00000   0.00735
-15.07900   0.00000   0.00730   0.00000   0.00640   0.00000   0.00775   0.00000   0.00776   0.00000   0.00676   0.00000   0.00557   0.00000   0.00736   0.00000   0.00735
-15.02890   0.00000   0.00730   0.00000   0.00640   0.00000   0.00775   0.00000   0.00776   0.00000   0.00676   0.00000   0.00557   0.00000   0.00736   0.00000   0.00735
-14.97881   0.00000   0.00730   0.00000   0.00640   0.00000   0.00775   0.00000   0.00776   0.00000   0.00676   0.00000   0.00557   0.00000   0.00736   0.00000   0.00735
-14.92871   0.00000   0.00730   0.00000   0.00640   0.00000   0.00775   0.00000   0.00776   0.00000   0.00676   0.00000   0.00557   0.00000   0.00736   0.00000   0.00735
-14.87861   0.00000   0.00730   0.00000   0.00640   0.00000   0.00775   0.00000   0.00776   0.00000   0.00676   0.00000   0.00557   0.00000   0.00736   0.00000   0.00735
-14.82852   0.00000   0.00730   0.00000   0.00640   0.00000   0.00775   0.00000   0.00776   0.00000   0.00676   0.00000   0.00557   0.00000   0.00736   0.00000   0.00735
-14.77842   0.00000   0.00730   0.00000   0.00640   0.00000   0.00775   0.00000   0.00776   0.00000   0.00676   0.00000   0.00557   0.00000   0.00736   0.00000   0.00735
-14.72832   0.00000   0.00730   0.00000   0.00640   0.00000   0.00775   0.00000   0.00776   0.00000   0.00676   0.00000   0.00557   0.00000   0.00736   0.00000   0.00735
-14.67823   0.00000   0.00730   0.00000   0.00640   0.00000   0.00775   0.00000   0.00776   0.00000   0.00676   0.00000   0.00557   0.00000   0.00736   0.00000   0.00735
-14.62813   0.00000   0.00730   0.00000   0.00640   0.00000   0.00775   0.00000   0.00776   0.00000   0.00676   0.00000   0.00557   0.00000   0.00736   0.00000   0.00735
-14.57803   0.00000   0.00730   0.00000   0.00640   0.00000   0.00775   0.00000   0.00776   0.00000   0.00676   0.00000   0.00557   0.00000   0.00736   0.00000   0.00735
-14.52794   0.00000   0.00730   0.00000   0.00640   0.00000   0.00775   0.00000   0.00776   0.00000   0.00676   0.00000   0.00557   0.00000   0.00736   0.00000   0.00735
-14.47784   0.00000   0.00730   0.00000   0.00640   0.00000   0.00775   0.00000   0.00776   0.00000   0.00676   0.00000   0.00557   0.00000   0.00736   0.00000   0.00735
-14.42775   0.00000   0.00730   0.00000   0.00640   0.00000   0.00775   0.00000   0.00776   0.00000   0.00676   0.00000   0.00557   0.00000   0.00736   0.00000   0.00735
-14.37765   0.00000   0.00730   0.00000   0.00640   0.00000   0.00775   0.00000   0.00776   0.00000   0.00676   0.00000   0.00557   0.00000   0.00736   0.00000   0.00735
-14.32755   0.00000   0.00730   0.00000   0.00640   0.00000   0.00775   0.00000   0.00776   0.00000   0.00676   0.00000   0.00557   0.00000   0.00736   0.00000   0.00735
-14.27746   0.00000   0.00730   0.00000   0.00640   0.00000   0.00775   0.00000   0.00776   0.00000   0.00676   0.00000   0.00557   0.00000   0.00736   0.00000   0.00735
-14.22736   0.00000   0.00730   0.00000   0.00640   0.00000   0.00775   0.00000   0.00776   0.00000   0.00676   0.00000   0.00557   0.00000   0.00736   0.00000   0.00735
-14.17726   0.00000   0.00730   0.00000   0.00640   0.00000   0.00775   0.00000   0.00776   0.00000   0.00676   0.00000   0.00557   0.00000   0.00736   0.00000   0.00735
-14.12717   0.00000   0.00730   0.00000   0.00640   0.00000   0.00775   0.00000   0.00776   0.00000   0.00676   0.00000   0.00557   0.00000   0.00736   0.00000   0.00735
-14.07707   0.00000   0.00730   0.00000   0.00640   0.00000   0.00775   0.00000   0.00776   0.00000   0.00676   0.00000   0.00557   0.00000   0.00736   0.00000   0.00735
-14.02697   0.00000   0.00730   0.00000   0.00640   0.00000   0.00775   0.00000   0.00776   0.00000   0.00676   0.00000   0.00557   0.00000   0.00736   0.00000   0.00735
-13.97688   0.00000   0.00730   0.00000   0.00640   0.00000   0.00775   0.00000   0.00776   0.00000   0.00676   0.00000   0.00557   0.00000   0.00736   0.00000   0.00735
-13.92678   0.00000   0.00730   0.00000   0.00640   0.00000   0.00775   0.00000   0.00776   0.00000   0.00676   0.00000   0.00557   0.00000   0.00736   0.00000   0.00735
-13.87669   0.00000   0.00730   0.00000   0.00640   0.00000   0.00775   0.00000   0.00776   0.00000   0.00676   0.00000   0.00557   0.00000   0.00736   0.00000   0.00735
-13.82659   0.00000   0.00730   0.00000   0.00640   0.00000   0.00775   0.00000   0.00776   0.00000   0.00676   0.00000   0.00557   0.00000   0.00736   0.00000   0.00735
-13.77649   0.00000   0.00730   0.00000   0.00640   0.00000   0.00775   0.00000   0.00776   0.00000   0.00676   0.00000   0.00557   0.00000   0.00736   0.00000   0.00735
-13.72640   0.00000   0.00730   0.00000   0.00640   0.00000   0.00775   0.00000   0.00776   0.00000   0.00676   0.00000   0.00557   0.00000   0.00736   0.00000   0.00735
-13.67630   0.00000   0.00730   0.00000   0.00640   0.00000   0.00775   0.00000   0.00776   0.00000   0.00676   0.00000   0.00557   0.00000   0.00736   0.00000   0.00735
-13.62620   0.00000   0.00730   0.00000   0.00640   0.00000   0.00775   0.00000   0.00776   0.00000   0.00676   0.00000   0.00557   0.00000   0.00736   0.00000   0.00735
-13.57611   0.00000   0.00730   0.00000   0.00640   0.00000   0.00775   0.00000   0.00776   0.00000   0.00676   0.00000   0.00557   0.00000   0.00736   0.00000   0.00735
-13.52601   0.00000   0.00730   0.00000   0.00640   0.00000   0.00775   0.00000   0.00776   0.00000   0.00676   0.00000   0.00557   0.00000   0.00736   0.00000   0.00735
-13.47592   0.00000   0.00730   0.00000   0.00640   0.00000   0.00775   0.00000   0.00776   0.00000   0.00676   0.00000   0.00557   0.00000   0.00736   0.00000   0.00735
-13.42582   0.00000   0.00730   0.00000   0.00640   0.00000   0.00775   0.00000   0.00776   0.00000   0.00676   0.00000   0.00557   0.00000   0.00736   0.00000   0.00735
-13.37572   0.00000   0.00730   0.00000   0.00640   0.00000   0.00775   0.00000   0.00776   0.00000   0.00676   0.00000   0.00557   0.00000   0.00736   0.00000   0.00735
-13.32563   0.00000   0.00730   0.00000   0.00640   0.00000   0.00775   0.00000   0.00776   0.00000   0.00676   0.00000   0.00557   0.00000   0.00736   0.00000   0.00735
-13.27553   0.00000   0.00730   0.00000   0.00640   0.00000   0.00775   0.00000   0.00776   0.00000   0.00676   0.00000   0.00557   0.00000   0.00736   0.00000   0.00735
-13.22543   0.00000   0.00730   0.00000   0.00640   0.00000   0.00775   0.00000   0.00776   0.00000   0.00676   0.00000   0.00557   0.00000   0.00736   0.00000   0.00735
-13.17534   0.00000   0.00730   0.00000   0.00640   0.00000   0.00775   0.00000   0.00776   0.00000   0.00676   0.00000   0.00557   0.00000   0.00736   0.00000   0.00735
-13.12524   0.00000   0.00730   0.00000   0.00640   0.00000   0.00775   0.00000   0.00776   0.00000   0.00676   0.00000   0.00557   0.00000   0.00736   0.00000   0.00735
-13.07514   0.00000   0.00730   0.00000   0.00640   0.00000   0.00775   0.00000   0.00776   0.00000   0.00676   0.00000   0.00557   0.00000   0.00736   0.00000   0.00735
-13.02505   0.00000   0.00730   0.00000   0.00640   0.00000   0.00775   0.00000   0.00776   0.00000   0.00676   0.00000   0.00557   0.00000   0.00736   0.00000   0.00735
-12.97495   0.00000   0.00730   0.00000   0.00640   0.00000   0.00775   0.00000   0.00776   0.00000   0.00676   0.00000   0.00557   0.00000   0.00736   0.00000   0.00735
-12.92486   0.00000   0.00730   0.00000   0.00640   0.00000   0.00775   0.00000   0.00776   0.00000   0.00676   0.00000   0.00557   0.00000   0.00736   0.00000   0.00735
-12.87476   0.00000   0.00730   0.00000   0.00640   0.00000   0.00775   0.00000   0.00776   0.00000   0.00676   0.00000   0.00557   0.00000   0.00736   0.00000   0.00735
-12.82466   0.00000   0.00730   0.00000   0.00640   0.00000   0.00775   0.00000   0.00776   0.00000   0.00676   0.00000   0.00557   0.00000   0.00736   0.00000   0.00735
-12.77457   0.00000   0.00730   0.00000   0.00640   0.00000   0.00775   0.00000   0.00776   0.00000   0.00676   0.00000   0.00557   0.00000   0.00736   0.00000   0.00735
-12.72447   0.00000   0.00730   0.00000   0.00640   0.00000   0.00775   0.00000   0.00776   0.00000   0.00676   0.00000   0.00557   0.00000   0.00736   0.00000   0.00735
-12.67437   0.00000   0.00730   0.00000   0.00640   0.00000   0.00775   0.00000   0.00776   0.00000   0.00676   0.00000   0.00557   0.00000   0.00736   0.00000   0.00735
-12.62428   0.00000   0.00730   0.00000   0.00640   0.00000   0.00775   0.00000   0.00776   0.00000   0.00676   0.00000   0.00557   0.00000   0.00736   0.00000   0.00735
-12.57418   0.00000   0.00730   0.00000   0.00640   0.00000   0.00775   0.00000   0.00776   0.00000   0.00676   0.00000   0.00557   0.00000   0.00736   0.00000   0.00735
-12.52408   0.00000   0.00730   0.00000   0.00640   0.00000   0.00775   0.00000   0.00776   0.00000   0.00676   0.00000   0.00557   0.00000   0.00736   0.00000   0.00735
-12.47399   0.00000   0.00730   0.00000   0.00640   0.00000   0.00775   0.00000   0.00776   0.00000   0.00676   0.00000   0.00557   0.00000   0.00736   0.00000   0.00735
-12.42389   0.00000   0.00730   0.00000   0.00640   0.00000   0.00775   0.00000   0.00776   0.00000   0.00676   0.00000   0.00557   0.00000   0.00736   0.00000   0.00735
-12.37380   0.00000   0.00730   0.00000   0.00640   0.00000   0.00775   0.00000   0.00776   0.00000   0.00676   0.00000   0.00557   0.00000   0.00736   0.00000   0.00735
-12.32370   0.00000   0.00730   0.00000   0.00640   0.00000   0.00775   0.00000   0.00776   0.00000   0.00676   0.00000   0.00557   0.00000   0.00736   0.00000   0.00735
-12.27360   0.00000   0.00730   0.00000   0.00640   0.00000   0.00775   0.00000   0.00776   0.00000   0.00676   0.00000   0.00557   0.00000   0.00736   0.00000   0.00735
-12.22351   0.00000   0.00730   0.00000   0.00640   0.00000   0.00775   0.00000   0.00776   0.00000   0.00676   0.00000   0.00557   0.00000   0.00736   0.00000   0.00735
-12.17341   0.00000   0.00730   0.00000   0.00640   0.00000   0.00775   0.00000   0.00776   0.00000   0.00676   0.00000   0.00557   0.00000   0.00736   0.00000   0.00735
-12.12331   0.00000   0.00730   0.00000   0.00640   0.00000   0.00775   0.00000   0.00776   0.00000   0.00676   0.00000   0.00557   0.00000   0.00736   0.00000   0.00735
-12.07322   0.00000   0.00730   0.00000   0.00640   0.00000   0.00775   0.00000   0.00776   0.00000   0.00676   0.00000   0.00557   0.00000   0.00736   0.00000   0.00735
-12.02312   0.00000   0.00730   0.00000   0.00640   0.00000   0.00775   0.00000   0.00776   0.00000   0.00676   0.00000   0.00557   0.00000   0.00736   0.00000   0.00735
-11.97303   0.00000   0.00730   0.00000   0.00640   0.00000   0.00775   0.00000   0.00776   0.00000   0.00676   0.00000   0.00557   0.00000   0.00736   0.00000   0.00735
-11.92293   0.00000   0.00730   0.00000   0.00640   0.00000   0.00775   0.00000   0.00776   0.00000   0.00676   0.00000   0.00557   0.00000   0.00736   0.00000   0.00735
-11.87283   0.00000   0.00730   0.00000   0.00640   0.00000   0.00775   0.00000   0.00776   0.00000   0.00676   0.00000   0.00557   0.00000   0.00736   0.00000   0.00735
-11.82274   0.00000   0.00730   0.00000   0.00640   0.00000   0.00775   0.00000   0.00776   0.00000   0.00676   0.00000   0.00557   0.00000   0.00736   0.00000   0.00735
-11.77264   0.00000   0.00730   0.00000   0.00640   0.00000   0.00775   0.00000   0.00776   0.00000   0.00676   0.00000   0.00557   0.00000   0.00736   0.00000   0.00735
-11.72254   0.00000   0.00730   0.00000   0.00640   0.00000   0.00775   0.00000   0.00776   0.00000   0.00676   0.00000   0.00557   0.00000   0.00736   0.00000   0.00735
-11.67245   0.00000   0.00730   0.00000   0.00640   0.00000   0.00775   0.00000   0.00776   0.00000   0.00676   0.00000   0.00557   0.00000   0.00736   0.00000   0.00735
-11.62235   0.00000   0.00730   0.00000   0.00640   0.00000   0.00775   0.00000   0.00776   0.00000   0.00676   0.00000   0.00557   0.00000   0.00736   0.00000   0.00735
-11.57225   0.00000   0.00730   0.00000   0.00640   0.00000   0.00775   0.00000   0.00776   0.00000   0.00676   0.00000   0.00557   0.00000   0.00736   0.00000   0.00735
-11.52216   0.00000   0.00730   0.00000   0.00640   0.00000   0.00775   0.00000   0.00776   0.00000   0.00676   0.00000   0.00557   0.00000   0.00736   0.00000   0.00735
-11.47206   0.00000   0.00730   0.00000   0.00640   0.00000   0.00775   0.00000   0.00776   0.00000   0.00676   0.00000   0.00557   0.00000   0.00736   0.00000   0.00735
-11.42197   0.00000   0.00730   0.00000   0.00640   0.00000   0.00775   0.00000   0.00776   0.00000   0.00676   0.00000   0.00557   0.00000   0.00736   0.00000   0.00735
-11.37187   0.00000   0.00730   0.00000   0.00640   0.00000   0.00775   0.00000   0.00776   0.00000   0.00676   0.00000   0.00557   0.00000   0.00736   0.00000   0.00735