       N       E                     dE             d eps       ncg     rms          rms(c)
DAV:   1     0.463335625900E+04    0.46334E+04   -0.26848E+05  8280   0.162E+03
DAV:   2     0.856050094552E+02   -0.45478E+04   -0.42828E+04  8280   0.360E+02
DAV:   3    -0.351257780980E+03   -0.43686E+03   -0.37691E+03  8523   0.151E+02
DAV:   4    -0.369753873882E+03   -0.18496E+02   -0.18140E+02  8802   0.339E+01
DAV:   5    -0.370118904248E+03   -0.36503E+00   -0.36491E+00  9873   0.365E+00    0.343E-01
RMM:   6    -0.370143484496E+03   -0.24580E-01   -0.17729E-01  8565   0.101E+00    0.267E+00
RMM:   7    -0.370127334138E+03    0.16150E-01   -0.45436E-02 11984   0.336E-01    0.104E+00
RMM:   8    -0.370126741115E+03    0.59302E-03   -0.59083E-03  8727   0.184E-01    0.780E-01
RMM:   9    -0.370126175551E+03    0.56556E-03   -0.23126E-03  8786   0.117E-01    0.384E-01
RMM:  10    -0.370125933644E+03    0.24191E-03   -0.77965E-04  8769   0.675E-02    0.195E-01
RMM:  11    -0.370126021670E+03   -0.88026E-04   -0.31777E-04  8794   0.419E-02    0.230E-01
RMM:  12    -0.370125916944E+03    0.10473E-03   -0.14239E-04  8727   0.294E-02    0.972E-02
RMM:  13    -0.370125923235E+03   -0.62909E-05   -0.36034E-05  8779   0.133E-02    0.777E-02
RMM:  14    -0.370125949600E+03   -0.26365E-04   -0.14326E-05  8756   0.805E-03    0.744E-02
RMM:  15    -0.370125975335E+03   -0.25734E-04   -0.70685E-06  8185   0.610E-03    0.599E-02
RMM:  16    -0.370126000647E+03   -0.25312E-04   -0.40436E-06  6926   0.485E-03    0.559E-02
RMM:  17    -0.370126054436E+03   -0.53789E-04   -0.66812E-06  8553   0.631E-03    0.414E-02
RMM:  18    -0.370126073441E+03   -0.19006E-04   -0.38674E-06  6830   0.489E-03    0.295E-02
RMM:  19    -0.370126087255E+03   -0.13813E-04   -0.23486E-06  5505   0.387E-03    0.271E-02
RMM:  20    -0.370126084807E+03    0.24482E-05   -0.23580E-06  5430   0.412E-03    0.146E-02
RMM:  21    -0.370126080917E+03    0.38891E-05   -0.77857E-07  5113   0.234E-03    0.113E-02
RMM:  22    -0.370126073923E+03    0.69946E-05   -0.53339E-07  4960   0.189E-03    0.104E-02
RMM:  23    -0.370126068180E+03    0.57430E-05   -0.40651E-07  4832   0.171E-03    0.139E-02
RMM:  24    -0.370126063524E+03    0.46561E-05   -0.23736E-07  4779   0.130E-03    0.114E-02
RMM:  25    -0.370126058780E+03    0.47439E-05   -0.15923E-07  4743   0.114E-03    0.378E-03
RMM:  26    -0.370126058321E+03    0.45848E-06   -0.90590E-08  4703   0.796E-04
   1 F= -.38652686E+03 E0= -.38652686E+03  d E =0.000000E+00  mag=    71.5652
