 vasp.5.4.4.18Apr17-6-g9f103f2a35 (build Sep 06 2021 19:49:22) complex          
  
 executed on             LinuxIFC date 2022.01.05  02:48:00
 running on   72 total cores
 distrk:  each k-point on   72 cores,    1 groups
 distr:  one band on NCORES_PER_BAND=  24 cores,    3 groups


--------------------------------------------------------------------------------------------------------


 INCAR:
 POTCAR:    PAW_PBE Ni 02Aug2007                  
 POTCAR:    PAW_PBE Fe 06Sep2000                  

 ----------------------------------------------------------------------------- 
|                                                                             |
|           W    W    AA    RRRRR   N    N  II  N    N   GGGG   !!!           |
|           W    W   A  A   R    R  NN   N  II  NN   N  G    G  !!!           |
|           W    W  A    A  R    R  N N  N  II  N N  N  G       !!!           |
|           W WW W  AAAAAA  RRRRR   N  N N  II  N  N N  G  GGG   !            |
|           WW  WW  A    A  R   R   N   NN  II  N   NN  G    G                |
|           W    W  A    A  R    R  N    N  II  N    N   GGGG   !!!           |
|                                                                             |
|      For optimal performance we recommend to set                            |
|        NCORE= 4 - approx SQRT( number of cores)                             |
|      NCORE specifies how many cores store one orbital (NPAR=cpu/NCORE).     |
|      This setting can  greatly improve the performance of VASP for DFT.     |
|      The default,   NCORE=1            might be grossly inefficient         |
|      on modern multi-core architectures or massively parallel machines.     |
|      Do your own testing !!!!                                               |
|      Unfortunately you need to use the default for GW and RPA calculations. |
|      (for HF NCORE is supported but not extensively tested yet)             |
|                                                                             |
 ----------------------------------------------------------------------------- 

 POTCAR:    PAW_PBE Ni 02Aug2007                  
   VRHFIN =Ni:                                                                  
   LEXCH  = PE                                                                  
   EATOM  =  1077.6739 eV,   79.2068 Ry                                         
                                                                                
   TITEL  = PAW_PBE Ni 02Aug2007                                                
   LULTRA =        F    use ultrasoft PP ?                                      
   IUNSCR =        1    unscreen: 0-lin 1-nonlin 2-no                           
   RPACOR =    2.000    partial core radius                                     
   POMASS =   58.690; ZVAL   =   10.000    mass and valenz                      
   RCORE  =    2.300    outmost cutoff radius                                   
   RWIGS  =    2.430; RWIGS  =    1.286    wigner-seitz radius (au A)           
   ENMAX  =  269.532; ENMIN  =  202.149 eV                                      
   RCLOC  =    1.201    cutoff for local pot                                    
   LCOR   =        T    correct aug charges                                     
   LPAW   =        T    paw PP                                                  
   EAUG   =  544.565                                                            
   DEXC   =    0.000                                                            
   RMAX   =    2.357    core radius for proj-oper                               
   RAUG   =    1.300    factor for augmentation sphere                          
   RDEP   =    2.390    radius for radial grids                                 
   RDEPT  =    1.838    core radius for aug-charge                              
                                                                                
   Atomic configuration                                                         
    9 entries                                                                   
     n  l   j            E        occ.                                          
     1  0  0.50     -8206.4253   2.0000                                         
     2  0  0.50      -976.1748   2.0000                                         
     2  1  1.50      -839.0571   6.0000                                         
     3  0  0.50      -105.9991   2.0000                                         
     3  1  1.50       -66.4603   6.0000                                         
     3  2  2.50        -4.6458   9.0000                                         
     4  0  0.50        -4.4926   1.0000                                         
     4  1  1.50        -4.0817   0.0000                                         
     4  3  2.50        -1.3606   0.0000                                         
   Description                                                                  
     l       E           TYP  RCUT    TYP  RCUT                                 
     2     -4.6457903     23  2.300                                             
     2     -6.0063729     23  2.300                                             
     0     -4.4925590     23  2.300                                             
     0      5.0102601     23  2.300                                             
     1     -2.7211652     23  2.300                                             
     1     16.5183231     23  2.300                                             
  local pseudopotential read in
  partial core-charges read in
  partial kinetic energy density read in
  atomic valenz-charges read in
  non local Contribution for L=           2  read in
    real space projection operators read in
  non local Contribution for L=           2  read in
    real space projection operators read in
  non local Contribution for L=           0  read in
    real space projection operators read in
  non local Contribution for L=           0  read in
    real space projection operators read in
  non local Contribution for L=           1  read in
    real space projection operators read in
  non local Contribution for L=           1  read in
    real space projection operators read in
    PAW grid and wavefunctions read in
 
   number of l-projection  operators is LMAX  =           6
   number of lm-projection operators is LMMAX =          18
 
 POTCAR:    PAW_PBE Fe 06Sep2000                  
   VRHFIN =Fe:  d7 s1                                                           
   LEXCH  = PE                                                                  
   EATOM  =   594.3153 eV,   43.6809 Ry                                         
                                                                                
   TITEL  = PAW_PBE Fe 06Sep2000                                                
   LULTRA =        F    use ultrasoft PP ?                                      
   IUNSCR =        1    unscreen: 0-lin 1-nonlin 2-no                           
   RPACOR =    2.000    partial core radius                                     
   POMASS =   55.847; ZVAL   =    8.000    mass and valenz                      
   RCORE  =    2.300    outmost cutoff radius                                   
   RWIGS  =    2.460; RWIGS  =    1.302    wigner-seitz radius (au A)           
   ENMAX  =  267.882; ENMIN  =  200.911 eV                                      
   RCLOC  =    1.701    cutoff for local pot                                    
   LCOR   =        T    correct aug charges                                     
   LPAW   =        T    paw PP                                                  
   EAUG   =  511.368                                                            
   DEXC   =    0.000                                                            
   RMAX   =    2.356    core radius for proj-oper                               
   RAUG   =    1.300    factor for augmentation sphere                          
   RDEP   =    2.442    radius for radial grids                                 
   RDEPT  =    1.890    core radius for aug-charge                              
                                                                                
   Atomic configuration                                                         
    9 entries                                                                   
     n  l   j            E        occ.                                          
     1  0  0.50     -6993.8440   2.0000                                         
     2  0  0.50      -814.6047   2.0000                                         
     2  1  1.50      -693.3689   6.0000                                         
     3  0  0.50       -89.4732   2.0000                                         
     3  1  1.50       -55.6373   6.0000                                         
     3  2  2.50        -3.8151   7.0000                                         
     4  0  0.50        -4.2551   1.0000                                         
     4  1  1.50        -3.4015   0.0000                                         
     4  3  2.50        -1.3606   0.0000                                         
   Description                                                                  
     l       E           TYP  RCUT    TYP  RCUT                                 
     2     -3.8151135     23  2.300                                             
     2     -5.1756961     23  2.300                                             
     0     -4.2550963     23  2.300                                             
     0      7.2035603     23  2.300                                             
     1     -2.7211652     23  2.300                                             
     1     18.4316424     23  2.300                                             
  local pseudopotential read in
  partial core-charges read in
  partial kinetic energy density read in
  atomic valenz-charges read in
  non local Contribution for L=           2  read in
    real space projection operators read in
  non local Contribution for L=           2  read in
    real space projection operators read in
  non local Contribution for L=           0  read in
    real space projection operators read in
  non local Contribution for L=           0  read in
    real space projection operators read in
  non local Contribution for L=           1  read in
    real space projection operators read in
  non local Contribution for L=           1  read in
    real space projection operators read in
    PAW grid and wavefunctions read in
 
   number of l-projection  operators is LMAX  =           6
   number of lm-projection operators is LMMAX =          18
 
 Optimization of the real space projectors (new method)

 maximal supplied QI-value         = 16.25
 optimisation between [QCUT,QGAM] = [ 11.54, 23.24] = [ 37.28,151.24] Ry 
 Optimized for a Real-space Cutoff    1.45 Angstroem

   l    n(q)    QCUT    max X(q) W(low)/X(q) W(high)/X(q)  e(spline) 
   2      9    11.539    60.317    0.19E-03    0.47E-04    0.16E-06
   2      9    11.539    55.921    0.19E-03    0.48E-04    0.16E-06
   0     10    11.539    51.690    0.80E-04    0.50E-04    0.24E-06
   0     10    11.539    30.015    0.73E-04    0.45E-04    0.22E-06
   1     10    11.539    18.849    0.87E-04    0.16E-03    0.71E-07
   1     10    11.539    14.624    0.73E-04    0.13E-03    0.64E-07
 Optimization of the real space projectors (new method)

 maximal supplied QI-value         = 16.25
 optimisation between [QCUT,QGAM] = [ 11.54, 23.24] = [ 37.28,151.24] Ry 
 Optimized for a Real-space Cutoff    1.53 Angstroem

   l    n(q)    QCUT    max X(q) W(low)/X(q) W(high)/X(q)  e(spline) 
   2     10    11.539    80.901    0.11E-03    0.14E-03    0.21E-06
   2     10    11.539    75.754    0.11E-03    0.14E-03    0.22E-06
   0     11    11.539    58.752    0.52E-04    0.18E-04    0.33E-06
   0     11    11.539    30.679    0.44E-04    0.16E-04    0.30E-06
   1     10    11.539    17.977    0.53E-04    0.29E-04    0.13E-06
   1     10    11.539    13.559    0.44E-04    0.25E-04    0.11E-06
  PAW_PBE Ni 02Aug2007                  :
 energy of atom  1       EATOM=-1077.6739
 kinetic energy error for atom=    0.0030 (will be added to EATOM!!)
  PAW_PBE Fe 06Sep2000                  :
 energy of atom  2       EATOM= -594.3153
 kinetic energy error for atom=    0.0026 (will be added to EATOM!!)
 
 
 POSCAR: POSCAR                                  
  positions in direct lattice
  velocities in cartesian coordinates
 exchange correlation table for  LEXCH =        8
   RHO(1)=    0.500       N(1)  =     2000
   RHO(2)=  100.500       N(2)  =     4000
 


--------------------------------------------------------------------------------------------------------


 ion  position               nearest neighbor table
   1  0.001  0.001  0.096-  44 2.49   9 2.50  13 2.50  38 2.50   3 2.50  11 2.50  30 2.50   7 2.51
                            48 2.52
   2  0.000  0.000  0.382-  51 2.44  22 2.47  10 2.48   4 2.48  50 2.48  31 2.50  39 2.51   8 2.51
                            12 2.53
   3  0.250  0.000  0.095-  30 2.50   1 2.50  14 2.50  11 2.51   5 2.51  44 2.51  32 2.52  45 2.52
                            16 2.52
   4  0.249  0.002  0.382-  52 2.46  51 2.47  46 2.48   2 2.48  15 2.49  31 2.50  12 2.50  33 2.52
                             6 2.53
   5  0.499  0.999  0.096-  45 2.49  14 2.50   7 2.50  64 2.51  35 2.51   3 2.51  32 2.51  17 2.52
                            19 2.53
   6  0.500  0.999  0.383-  52 2.45  21 2.47  47 2.48  15 2.49   8 2.50  33 2.50  36 2.51  18 2.52
                             4 2.53
   7  0.749  0.999  0.096-  38 2.50   9 2.50   5 2.50  35 2.50  64 2.51  48 2.51  17 2.51   1 2.51
                            20 2.52
   8  0.749  0.999  0.382-  49 2.47  21 2.47  22 2.47  10 2.49   6 2.50  39 2.50  36 2.51   2 2.51
                            18 2.52
   9  0.999  0.249  0.096-  17 2.50   1 2.50   7 2.50  13 2.51  53 2.51  20 2.51  23 2.51  11 2.51
                            25 2.52
  10  0.998  0.247  0.384-  61 2.42   2 2.48   8 2.49  22 2.49  26 2.50  18 2.51  54 2.51  12 2.52
                            24 2.52
  11  0.250  0.250  0.095-   1 2.50  53 2.50   3 2.51  16 2.51   9 2.51  13 2.52  57 2.52  14 2.52
                            55 2.55
  12  0.252  0.253  0.384-  58 2.45  26 2.49  54 2.50   4 2.50  15 2.51  51 2.51  10 2.52  56 2.52
                             2 2.53
  13  0.083  0.166  0.192-  51 2.47  22 2.48  20 2.50   1 2.50  44 2.50  57 2.50  16 2.50   9 2.51
                            48 2.51  25 2.51  11 2.52  26 2.52
  14  0.501  0.249  0.096-   5 2.50  17 2.50   3 2.50  19 2.51  16 2.51  29 2.51  55 2.51  11 2.52
                            27 2.53
  15  0.499  0.247  0.385-  60 2.45  58 2.47   4 2.49   6 2.49  18 2.50  12 2.51  52 2.51  56 2.53
                            28 2.53
  16  0.333  0.167  0.192-  19 2.50  13 2.50  29 2.51  44 2.51  51 2.51  45 2.51  11 2.51  14 2.51
                            57 2.52   3 2.52  52 2.53  58 2.53
  17  0.751  0.250  0.097-  59 2.48   9 2.50  14 2.50  20 2.50   7 2.51  23 2.52  19 2.52   5 2.52
                            27 2.52
  18  0.750  0.251  0.385-  60 2.44  61 2.45  15 2.50  24 2.50  28 2.51  10 2.51  21 2.52   8 2.52
                             6 2.52
  19  0.582  0.167  0.193-  52 2.47  21 2.48  29 2.49  45 2.50  16 2.50  14 2.51  17 2.52  64 2.52
                            59 2.52  60 2.53  20 2.53   5 2.53
  20  0.834  0.167  0.193-  22 2.47  25 2.49  21 2.49  48 2.49  13 2.50  17 2.50  61 2.51   9 2.51
                            64 2.51   7 2.52  59 2.53  19 2.53
  21  0.666  0.084  0.288-  52 2.47  61 2.47   8 2.47   6 2.47  60 2.47  19 2.48  20 2.49  64 2.50
                            47 2.51  18 2.52  22 2.52  49 2.52
  22  0.917  0.083  0.288-  61 2.46  51 2.46   2 2.47  48 2.47  20 2.47   8 2.47  13 2.48  10 2.49
                            50 2.51  49 2.51  21 2.52  26 2.52
  23  0.002  0.500  0.094-  53 2.48  32 2.48   9 2.51  27 2.52  17 2.52  30 2.52  59 2.52  25 2.52
                            34 2.52
  24  0.001  0.500  0.382-  61 2.44  54 2.46  43 2.49  62 2.50  33 2.50  18 2.50  28 2.51  31 2.52
                            10 2.52
  25  0.081  0.416  0.193-  20 2.49  62 2.49  59 2.49  26 2.49  57 2.51  34 2.51  13 2.51   9 2.52
                            23 2.52  37 2.52  53 2.53  61 2.54
  26  0.167  0.336  0.289-  54 2.46  61 2.48  41 2.49  57 2.49  12 2.49  25 2.49  10 2.50  51 2.51
                            13 2.52  22 2.52  62 2.53  58 2.53
  27  0.752  0.502  0.095-  55 2.46  38 2.50  59 2.50  30 2.50  42 2.51  23 2.52  17 2.52  14 2.53
                            29 2.54
  28  0.751  0.501  0.383-  60 2.43  56 2.46  43 2.49  39 2.50  63 2.51  18 2.51  31 2.51  24 2.51
                            15 2.53
  29  0.584  0.416  0.193-  19 2.49  55 2.49  59 2.50  63 2.50  16 2.51  14 2.51  40 2.51  42 2.52
                            58 2.52  57 2.53  27 2.54  60 2.56
  30  0.001  0.751  0.095-   3 2.50  32 2.50  27 2.50   1 2.50  38 2.50  34 2.51  44 2.51  42 2.52
                            23 2.52
  31  0.001  0.751  0.381-  50 2.46  46 2.47  43 2.48  33 2.50   4 2.50   2 2.50  39 2.51  28 2.51
                            24 2.52
  32  0.249  0.749  0.094-  23 2.48  30 2.50  37 2.50  53 2.50  34 2.51   5 2.51  35 2.51   3 2.52
                            45 2.53
  33  0.249  0.750  0.382-  62 2.45  47 2.46  46 2.48  31 2.50   6 2.50  24 2.50  54 2.51  36 2.51
                             4 2.52
  34  0.084  0.668  0.191-  62 2.47  46 2.49  43 2.49  44 2.50  42 2.50  37 2.50  45 2.50  30 2.51
                            59 2.51  32 2.51  25 2.51  23 2.52
  35  0.500  0.749  0.095-  40 2.50  37 2.50   7 2.50   5 2.51  55 2.51  32 2.51  38 2.51  53 2.51
                            64 2.53
  36  0.499  0.748  0.383-  41 2.46  47 2.47  49 2.48  56 2.50  39 2.51   6 2.51   8 2.51  33 2.51
                            54 2.52
  37  0.333  0.667  0.191-  62 2.47  45 2.50  57 2.50  32 2.50  34 2.50  53 2.50  47 2.50  64 2.50
                            35 2.50  40 2.51  25 2.52  41 2.53
  38  0.751  0.751  0.095-  55 2.47  42 2.50   7 2.50  27 2.50  40 2.50   1 2.50  30 2.50  35 2.51
                            48 2.52
  39  0.750  0.750  0.382-  63 2.45  49 2.46  56 2.47  50 2.47  28 2.50   8 2.50  36 2.51  31 2.51
                             2 2.51
  40  0.583  0.667  0.191-  55 2.47  63 2.48  38 2.50  35 2.50  64 2.50  48 2.51  49 2.51  37 2.51
                            42 2.51  41 2.51  57 2.51  29 2.51
  41  0.417  0.582  0.288-  36 2.46  57 2.49  26 2.49  63 2.49  58 2.50  47 2.50  49 2.51  54 2.51
                            40 2.51  62 2.52  37 2.53  56 2.57
  42  0.834  0.668  0.192-  50 2.48  63 2.48  43 2.48  38 2.50  44 2.50  59 2.50  34 2.50  48 2.51
                            27 2.51  40 2.51  30 2.52  29 2.52
  43  0.916  0.582  0.287-  59 2.47  31 2.48  42 2.48  34 2.49  24 2.49  28 2.49  62 2.50  60 2.51
                            50 2.51  63 2.51  46 2.52  61 2.56
  44  0.083  0.917  0.192-  46 2.47  50 2.48   1 2.49  42 2.50  51 2.50  34 2.50  13 2.50  16 2.51
                            30 2.51   3 2.51  48 2.51  45 2.52
  45  0.334  0.917  0.192-  52 2.47  46 2.48   5 2.49  19 2.50  64 2.50  37 2.50  47 2.50  34 2.50
                            16 2.51   3 2.52  44 2.52  32 2.53
  46  0.167  0.835  0.287-  31 2.47  44 2.47  52 2.47  45 2.48   4 2.48  62 2.48  33 2.48  34 2.49
                            50 2.50  51 2.51  43 2.52  47 2.53
  47  0.417  0.832  0.288-  33 2.46  62 2.46  52 2.46  36 2.47   6 2.48  64 2.49  49 2.49  45 2.50
                            37 2.50  41 2.50  21 2.51  46 2.53
  48  0.832  0.917  0.193-  22 2.47  50 2.47  49 2.48  20 2.49  64 2.50  13 2.51  40 2.51   7 2.51
                            42 2.51  44 2.51  38 2.52   1 2.52
  49  0.666  0.833  0.288-  39 2.46  63 2.46   8 2.47  48 2.48  36 2.48  64 2.49  47 2.49  41 2.51
                            40 2.51  22 2.51  50 2.51  21 2.52
  50  0.916  0.833  0.287-  31 2.46  63 2.47  48 2.47  39 2.47  42 2.48  44 2.48   2 2.48  51 2.49
                            46 2.50  22 2.51  43 2.51  49 2.51
  51  0.162  0.083  0.288-   2 2.44  22 2.46  13 2.47   4 2.47  50 2.49  44 2.50  12 2.51  26 2.51
                            16 2.51  46 2.51  58 2.54  52 2.59
  52  0.417  0.078  0.288-   6 2.45   4 2.46  47 2.46  21 2.47  45 2.47  19 2.47  46 2.47  15 2.51
                            16 2.53  60 2.53  58 2.56  51 2.59
  53  0.248  0.499  0.095-  23 2.48  32 2.50  37 2.50  11 2.50   9 2.51  57 2.51  35 2.51  25 2.53
                            55 2.57
  54  0.246  0.499  0.384-  26 2.46  24 2.46  12 2.50  33 2.51  10 2.51  41 2.51  36 2.52  62 2.52
                            56 2.59
  55  0.506  0.503  0.096-  27 2.46  40 2.47  38 2.47  29 2.49  35 2.51  14 2.51  57 2.55  11 2.55
                            53 2.57
  56  0.506  0.502  0.388-  28 2.46  39 2.47  36 2.50  12 2.52  15 2.53  58 2.54  63 2.56  41 2.57
                            54 2.59
  57  0.331  0.417  0.192-  41 2.49  26 2.49  37 2.50  13 2.50  25 2.51  53 2.51  40 2.51  11 2.52
                            16 2.52  29 2.53  58 2.54  55 2.55
  58  0.418  0.333  0.290-  12 2.45  15 2.47  41 2.50  60 2.51  29 2.52  16 2.53  26 2.53  51 2.54
                            56 2.54  63 2.54  57 2.54  52 2.56
  59  0.834  0.418  0.191-  43 2.47  17 2.48  25 2.49  29 2.50  42 2.50  27 2.50  34 2.51  23 2.52
                            19 2.52  20 2.53  60 2.57  61 2.60
  60  0.667  0.332  0.292-  28 2.43  18 2.44  15 2.45  21 2.47  61 2.51  43 2.51  58 2.51  19 2.53
                            52 2.53  29 2.56  63 2.57  59 2.57
  61  0.915  0.327  0.291-  10 2.42  24 2.44  18 2.45  22 2.46  21 2.47  26 2.48  20 2.51  60 2.51
                            25 2.54  43 2.56  62 2.59  59 2.60
  62  0.169  0.589  0.286-  33 2.45  47 2.46  34 2.47  37 2.47  46 2.48  25 2.49  24 2.50  43 2.50
                            54 2.52  41 2.52  26 2.53  61 2.59
  63  0.669  0.588  0.287-  39 2.45  49 2.46  50 2.47  42 2.48  40 2.48  41 2.49  29 2.50  28 2.51
                            43 2.51  58 2.54  56 2.56  60 2.57
  64  0.583  0.917  0.193-  49 2.49  47 2.49  48 2.50  45 2.50  21 2.50  37 2.50  40 2.50   7 2.51
                             5 2.51  20 2.51  19 2.52  35 2.53
 

IMPORTANT INFORMATION: All symmetrisations will be switched off!
NOSYMM: (Re-)initialisation of all symmetry stuff for point group C_1.

 
 

Automatic generation of k-mesh.
 generate k-points for:    3    3    1
Space group operators:
 irot       det(A)        alpha          n_x          n_y          n_z        tau_x        tau_y        tau_z
    1     1.000000     0.000000     1.000000     0.000000     0.000000     0.000000     0.000000     0.000000
 
 Subroutine IBZKPT returns following result:
 ===========================================
 
 Found      5 irreducible k-points:
 
 Following reciprocal coordinates:
            Coordinates               Weight
  0.000000  0.000000  0.000000      1.000000
  0.333333  0.000000  0.000000      2.000000
  0.000000  0.333333  0.000000      2.000000
  0.333333  0.333333  0.000000      2.000000
 -0.333333  0.333333  0.000000      2.000000
 
 Following cartesian coordinates:
            Coordinates               Weight
  0.000000  0.000000  0.000000      1.000000
  0.033244  0.019194  0.000000      2.000000
  0.000000  0.038387  0.000000      2.000000
  0.033244  0.057581  0.000000      2.000000
 -0.033244  0.019194  0.000000      2.000000
 
 TETIRR: Found     24 inequivalent tetrahedra from       54


--------------------------------------------------------------------------------------------------------




 Dimension of arrays:
   k-points           NKPTS =      5   k-points in BZ     NKDIM =      5   number of bands    NBANDS=    414
   number of dos      NEDOS =    301   number of ions     NIONS =     64
   non local maximal  LDIM  =      6   non local SUM 2l+1 LMDIM =     18
   total plane-waves  NPLWV = ******
   max r-space proj   IRMAX =   8439   max aug-charges    IRDMAX=  19969
   dimension x,y,z NGX =    80 NGY =   80 NGZ =  160
   dimension x,y,z NGXF=   160 NGYF=  160 NGZF=  320
   support grid    NGXF=   160 NGYF=  160 NGZF=  320
   ions per type =              50  14
   NGX,Y,Z   is equivalent  to a cutoff of  13.26, 13.26, 12.55 a.u.
   NGXF,Y,Z  is equivalent  to a cutoff of  26.53, 26.53, 25.11 a.u.

 SYSTEM =  SQS-NiFe                                
 POSCAR =  POSCAR                                  

 Startparameter for this run:
   NWRITE =      2    write-flag & timer
   PREC   = accura    normal or accurate (medium, high low for compatibility)
   ISTART =      0    job   : 0-new  1-cont  2-samecut
   ICHARG =      1    charge: 1-file 2-atom 10-const
   ISPIN  =      2    spin polarized calculation?
   LNONCOLLINEAR =      F non collinear calculations
   LSORBIT =      F    spin-orbit coupling
   INIWAV =      1    electr: 0-lowe 1-rand  2-diag
   LASPH  =      F    aspherical Exc in radial PAW
   METAGGA=      F    non-selfconsistent MetaGGA calc.

 Electronic Relaxation 1
   ENCUT  =  520.0 eV  38.22 Ry    6.18 a.u.  18.64 18.64 39.40*2*pi/ulx,y,z
   ENINI  =  520.0     initial cutoff
   ENAUG  =  544.6 eV  augmentation charge cutoff
   NELM   =    200;   NELMIN=  2; NELMDL= -5     # of ELM steps 
   EDIFF  = 0.1E-05   stopping-criterion for ELM
   LREAL  =      T    real-space projection
   NLSPLINE    = F    spline interpolate recip. space projectors
   LCOMPAT=      F    compatible to vasp.4.4
   GGA_COMPAT  = T    GGA compatible to vasp.4.4-vasp.4.6
   LMAXPAW     = -100 max onsite density
   LMAXMIX     =    2 max onsite mixed and CHGCAR
   VOSKOWN=      0    Vosko Wilk Nusair interpolation
   ROPT   =   -0.00025  -0.00025
 Ionic relaxation
   EDIFFG = -.2E-01   stopping-criterion for IOM
   NSW    =      0    number of steps for IOM
   NBLOCK =      1;   KBLOCK =      1    inner block; outer block 
   IBRION =     -1    ionic relax: 0-MD 1-quasi-New 2-CG
   NFREE  =      0    steps in history (QN), initial steepest desc. (CG)
   ISIF   =      2    stress and relaxation
   IWAVPR =     10    prediction:  0-non 1-charg 2-wave 3-comb
   ISYM   =      0    0-nonsym 1-usesym 2-fastsym
   LCORR  =      T    Harris-Foulkes like correction to forces

   POTIM  = 0.5000    time-step for ionic-motion
   TEIN   =    0.0    initial temperature
   TEBEG  =    0.0;   TEEND  =   0.0 temperature during run
   SMASS  =  -3.00    Nose mass-parameter (am)
   estimated Nose-frequenzy (Omega)   =  0.10E-29 period in steps =****** mass=  -0.230E-26a.u.
   SCALEE = 1.0000    scale energy and forces
   NPACO  =    256;   APACO  = 16.0  distance and # of slots for P.C.
   PSTRESS=    0.0 pullay stress

  Mass of Ions in am
   POMASS =  58.69 55.85
  Ionic Valenz
   ZVAL   =  10.00  8.00
  Atomic Wigner-Seitz radii
   RWIGS  =  -1.00 -1.00
  virtual crystal weights 
   VCA    =   1.00  1.00
   NELECT =     612.0000    total number of electrons
   NUPDOWN=      -1.0000    fix difference up-down

 DOS related values:
   EMIN   =  10.00;   EMAX   =-10.00  energy-range for DOS
   EFERMI =   0.00
   ISMEAR =    -5;   SIGMA  =   0.20  broadening in eV -4-tet -1-fermi 0-gaus

 Electronic relaxation 2 (details)
   IALGO  =     68    algorithm
   LDIAG  =      T    sub-space diagonalisation (order eigenvalues)
   LSUBROT=      F    optimize rotation matrix (better conditioning)
   TURBO    =      0    0=normal 1=particle mesh
   IRESTART =      0    0=no restart 2=restart with 2 vectors
   NREBOOT  =      0    no. of reboots
   NMIN     =      0    reboot dimension
   EREF     =   0.00    reference energy to select bands
   IMIX   =      4    mixing-type and parameters
     AMIX     =   0.40;   BMIX     =  1.00
     AMIX_MAG =   1.60;   BMIX_MAG =  1.00
     AMIN     =   0.10
     WC   =   100.;   INIMIX=   1;  MIXPRE=   1;  MAXMIX= -45

 Intra band minimization:
   WEIMIN = 0.0000     energy-eigenvalue tresh-hold
   EBREAK =  0.60E-09  absolut break condition
   DEPER  =   0.30     relativ break condition  

   TIME   =   0.40     timestep for ELM

  volume/ion in A,a.u.               =      28.83       194.53
  Fermi-wavevector in a.u.,A,eV,Ry     =   1.133281  2.141591 17.474320  1.284326
  Thomas-Fermi vector in A             =   2.269984
 
 Write flags
   LWAVE        =      F    write WAVECAR
   LDOWNSAMPLE  =      F    k-point downsampling of WAVECAR
   LCHARG       =      F    write CHGCAR
   LVTOT        =      F    write LOCPOT, total local potential
   LVHAR        =      F    write LOCPOT, Hartree potential only
   LELF         =      F    write electronic localiz. function (ELF)
   LORBIT       =     11    0 simple, 1 ext, 2 COOP (PROOUT), +10 PAW based schemes


 Dipole corrections
   LMONO  =      F    monopole corrections only (constant potential shift)
   LDIPOL =      T    correct potential (dipole corrections)
   IDIPOL =      3    1-x, 2-y, 3-z, 4-all directions 
   EPSILON=  1.0000000 bulk dielectric constant

 Exchange correlation treatment:
   GGA     =    --    GGA type
   LEXCH   =     8    internal setting for exchange type
   VOSKOWN=      0    Vosko Wilk Nusair interpolation
   LHFCALC =     F    Hartree Fock is set to
   LHFONE  =     F    Hartree Fock one center treatment
   AEXX    =    0.0000 exact exchange contribution

 Linear response parameters
   LEPSILON=     F    determine dielectric tensor
   LRPA    =     F    only Hartree local field effects (RPA)
   LNABLA  =     F    use nabla operator in PAW spheres
   LVEL    =     F    velocity operator in full k-point grid
   LINTERFAST=   F  fast interpolation
   KINTER  =     0    interpolate to denser k-point grid
   CSHIFT  =0.1000    complex shift for real part using Kramers Kronig
   OMEGAMAX=  -1.0    maximum frequency
   DEG_THRESHOLD= 0.2000000E-02 threshold for treating states as degnerate
   RTIME   =   -0.100 relaxation time in fs
  (WPLASMAI=    0.000 imaginary part of plasma frequency in eV, 0.658/RTIME)
   DFIELD  = 0.0000000 0.0000000 0.0000000 field for delta impulse in time
 
 Orbital magnetization related:
   ORBITALMAG=     F  switch on orbital magnetization
   LCHIMAG   =     F  perturbation theory with respect to B field
   DQ        =  0.001000  dq finite difference perturbation B field
   LLRAUG    =     F  two centre corrections for induced B field



--------------------------------------------------------------------------------------------------------


 Static calculation
 charge density and potential will be updated during run
 spin polarized calculation
 RMM-DIIS sequential band-by-band and
  variant of blocked Davidson during initial phase
 perform sub-space diagonalisation
    before iterative eigenvector-optimisation
 modified Broyden-mixing scheme, WC =      100.0
 initial mixing is a Kerker type mixing with AMIX =  0.4000 and BMIX =      1.0000
 Hartree-type preconditioning will be used
 using additional bands          108
 real space projection scheme for non local part
 use partial core corrections
 calculate Harris-corrections to forces 
   (improved forces if not selfconsistent)
 use gradient corrections 
 use of overlap-Matrix (Vanderbilt PP)
 Fermi weights with tetrahedron method with Bloechl corrections


--------------------------------------------------------------------------------------------------------


  energy-cutoff  :      520.00
  volume of cell :     1844.86
      direct lattice vectors                 reciprocal lattice vectors
    10.026770000  0.000000000  0.000000000     0.099733015  0.057580883  0.000000000
    -5.013385000  8.683437540  0.000000000     0.000000000  0.115161766  0.000000000
     0.000000000  0.000000000 21.188983070     0.000000000  0.000000000  0.047194337

  length of vectors
    10.026770000 10.026770002 21.188983070     0.115161766  0.115161766  0.047194337


 
 k-points in units of 2pi/SCALE and weight: read from INCAR                         
   0.00000000  0.00000000  0.00000000       0.111
   0.03324434  0.01919363  0.00000000       0.222
   0.00000000  0.03838726  0.00000000       0.222
   0.03324434  0.05758088  0.00000000       0.222
  -0.03324434  0.01919363  0.00000000       0.222
 
 k-points in reciprocal lattice and weights: read from INCAR                         
   0.00000000  0.00000000  0.00000000       0.111
   0.33333333  0.00000000  0.00000000       0.222
   0.00000000  0.33333333  0.00000000       0.222
   0.33333333  0.33333333  0.00000000       0.222
  -0.33333333  0.33333333  0.00000000       0.222
 
 position of ions in fractional coordinates (direct lattice) 
   0.00052900  0.00053000  0.09593319
   0.00029197  0.00027097  0.38226740
   0.25001300  0.00028700  0.09507516
   0.24877910  0.00159649  0.38182477
   0.49948700  0.99908000  0.09580077
   0.49975913  0.99855374  0.38297659
   0.74930200  0.99919300  0.09588248
   0.74910613  0.99928694  0.38222719
   0.99864000  0.24850700  0.09577903
   0.99815726  0.24670308  0.38422973
   0.25012600  0.25021600  0.09542058
   0.25198788  0.25258835  0.38375587
   0.08288200  0.16633200  0.19236263
   0.50064200  0.24891300  0.09586799
   0.49898930  0.24695485  0.38452591
   0.33293900  0.16685800  0.19242841
   0.75052500  0.25006200  0.09669473
   0.75019684  0.25076038  0.38548852
   0.58230700  0.16720100  0.19338931
   0.83403200  0.16672400  0.19313692
   0.66605724  0.08431116  0.28834005
   0.91655597  0.08286786  0.28779582
   0.00183400  0.50047500  0.09438867
   0.00070152  0.49971888  0.38222824
   0.08092200  0.41609700  0.19263386
   0.16677895  0.33600836  0.28867503
   0.75170200  0.50186900  0.09460572
   0.75051258  0.50075367  0.38283399
   0.58357300  0.41617200  0.19261966
   0.00109100  0.75115300  0.09468309
   0.00064887  0.75111219  0.38114044
   0.24902600  0.74885700  0.09449183
   0.24946129  0.75042573  0.38152233
   0.08375800  0.66810400  0.19148344
   0.49972500  0.74917300  0.09464107
   0.49905315  0.74810061  0.38274740
   0.33297400  0.66727700  0.19107398
   0.75128300  0.75093600  0.09543333
   0.74982840  0.74989337  0.38189576
   0.58298100  0.66668200  0.19119569
   0.41705547  0.58225395  0.28834709
   0.83395900  0.66770600  0.19166513
   0.91626041  0.58243508  0.28667381
   0.08291700  0.91685800  0.19187232
   0.33420600  0.91705400  0.19206792
   0.16659648  0.83533629  0.28666060
   0.41684561  0.83194165  0.28805151
   0.83233100  0.91715000  0.19302274
   0.66612431  0.83292812  0.28794811
   0.91645060  0.83286022  0.28715088
   0.16195759  0.08345717  0.28795980
   0.41692099  0.07778548  0.28826836
   0.24829900  0.49904600  0.09513485
   0.24596970  0.49890350  0.38366682
   0.50648100  0.50259500  0.09587930
   0.50564080  0.50201419  0.38794943
   0.33134100  0.41714300  0.19246231
   0.41764193  0.33324589  0.29024079
   0.83354800  0.41839000  0.19117395
   0.66741332  0.33155684  0.29171160
   0.91502343  0.32699199  0.29147321
   0.16901914  0.58897331  0.28645745
   0.66862474  0.58845996  0.28719658
   0.58310400  0.91651500  0.19252114
 
 position of ions in cartesian coordinates  (Angst):
   0.00264707  0.00460222  2.03272674
   0.00156906  0.00235296  8.09985748
   2.50538401  0.00249215  2.01454596
   2.48644702  0.01386305  8.09047865
  -0.00053142  8.67544878  2.02992089
   0.00483551  8.67087900  8.11488446
   2.50373962  8.67643001  2.03165225
   2.50130470  8.67724575  8.09900539
   8.76727233  2.15789501  2.02946025
   8.77147572  2.14223081  8.14143715
   1.25352673  2.17273501  2.02186505
   1.26030185  2.19333515  8.13139661
  -0.00284760  1.44433353  4.07596851
   3.77192549  2.16142049  2.03134522
   3.76517118  2.14441702  8.14771290
   2.50177938  1.44890102  4.07736232
   6.27168447  2.17139776  2.04886300
   6.26489280  2.17746212  8.16810972
   5.00041537  1.45187944  4.09772282
   7.52679544  1.44773744  4.09237493
   6.25571847  0.73211073  6.10963251
   8.77464748  0.71957786  6.09810075
  -2.49068476  4.34584340  1.99999993
  -2.49824914  4.33927764  8.09902772
  -1.27466818  3.61315231  4.08171560
  -0.01228514  2.91770760  6.11673024
   5.02108055  4.35794811  2.00459900
   5.01474603  4.34826324  8.11186302
   3.76492179  3.61380357  4.08141471
  -3.75487998  6.52259016  2.00623839
  -3.75910856  6.52223578  8.07597830
  -1.25738202  6.50265299  2.00218579
  -1.26088206  6.51627492  8.08407017
  -2.50964037  5.80143935  4.05733937
   1.25473496  6.50539695  2.00534803
   1.25337478  6.49608492  8.11002824
  -0.00666279  5.79425815  4.04866333
   3.76821057  6.52070585  2.02213521
   3.75885268  6.51165228  8.09198284
   2.50308286  5.78909151  4.05124224
   1.26265611  5.05596577  6.10978165
   5.01444784  5.79798335  4.06118919
   6.26716113  5.05753862  6.07432652
  -3.76517246  7.96147918  4.06557934
  -1.24653807  7.96318113  4.06972391
  -2.51743783  7.25359051  6.07404652
   0.00877124  7.22411339  6.10351863
   3.74756545  7.96401474  4.08995557
   2.50328588  7.23267934  6.10132764
   5.01359045  7.23208968  6.08443506
   1.20550860  0.72469509  6.10157526
   3.79040230  0.67544539  6.10811340
  -0.01227277  4.33343477  2.01581073
  -0.03491368  4.33219734  8.12950980
   2.55866626  4.36425229  2.03158486
   2.55315353  4.35920889  8.22025381
   1.23098154  3.62223519  4.07808063
   2.51690968  2.89371985  6.14990728
   6.26024393  3.63306343  4.05078159
   5.02977775  2.87905308  6.18107220
   7.53539268  2.83941456  6.17602087
  -1.25803391  5.11431292  6.06974202
   3.75397010  5.10985533  6.08540351
   1.25180714  7.95850076  4.07932718
 


--------------------------------------------------------------------------------------------------------


 k-point  1 :   0.0000 0.0000 0.0000  plane waves:   49741
 k-point  2 :   0.3333 0.0000 0.0000  plane waves:   49680
 k-point  3 :   0.0000 0.3333 0.0000  plane waves:   49680
 k-point  4 :   0.3333 0.3333 0.0000  plane waves:   49662
 k-point  5 :  -0.3333 0.3333 0.0000  plane waves:   49680

 maximum and minimum number of plane-waves per node :      2099     2053

 maximum number of plane-waves:     49741
 maximum index in each direction: 
   IXMAX=   18   IYMAX=   18   IZMAX=   39
   IXMIN=  -18   IYMIN=  -18   IZMIN=  -39


 real space projection operators:
  total allocation   :      63943.73 KBytes
  max/ min on nodes  :       3186.14       2381.20


 parallel 3D FFT for wavefunctions:
    minimum data exchange during FFTs selected (reduces bandwidth)
 parallel 3D FFT for charge:
    minimum data exchange during FFTs selected (reduces bandwidth)


 total amount of memory used by VASP MPI-rank0   113069. kBytes
=======================================================================

   base      :      30000. kBytes
   nonlr-proj:      13089. kBytes
   fftplans  :       6402. kBytes
   grid      :      16455. kBytes
   one-center:         93. kBytes
   wavefun   :      47030. kBytes
 
     INWAV:  cpu time    0.0010: real time    0.0002
 Broyden mixing: mesh for mixing (old mesh)
   NGX = 37   NGY = 37   NGZ = 79
  (NGX  =160   NGY  =160   NGZ  =320)
  gives a total of 108151 points

 initial charge density was supplied:
 number of electron     612.0000062 magnetization      71.5634350
 keeping initial charge density in first step


--------------------------------------------------------------------------------------------------------


 Maximum index for non-local projection operator          767
 Maximum index for augmentation-charges         1116 (set IRDMAX)


--------------------------------------------------------------------------------------------------------


 First call to EWALD:  gamma=   0.145
 Maximum number of real-space cells 4x 4x 2
 Maximum number of reciprocal cells 2x 2x 4

    FEWALD:  cpu time    0.0060: real time    0.0061


--------------------------------------- Iteration      1(   1)  ---------------------------------------


    POTLOK:  cpu time    0.2500: real time    0.2561
    SETDIJ:  cpu time    0.0180: real time    0.0201
     EDDAV:  cpu time   25.1052: real time   25.2484
 BZINTS: Fermi energy: 11.445558;612.000000 electrons
         Band energy:3834.568225;  BLOECHL correction: -0.008315
       DOS:  cpu time    0.0450: real time    0.0454
    --------------------------------------------
      LOOP:  cpu time   25.4181: real time   25.5701

 eigenvalue-minimisations  :  8280
 total energy-change (2. order) : 0.4633356E+04  (-0.2684845E+05)
 number of electron     612.0000062 magnetization      71.5634350
 augmentation part      612.0000062 magnetization      71.5634350

 DIPCOR: dipole corrections for dipol
 direction  3 min pos   250,
 dipolmoment           0.000000      0.000000     -0.032051 electrons x Angstroem
 Tr[quadrupol]    -10379.891689

 energy correction for charged system         0.000000 eV
 dipol+quadrupol energy correction           -0.000050 eV
 added-field ion interaction         -1.591167 eV  (added to PSCEN)


 Free energy of the ion-electron system (eV)
  ---------------------------------------------------
  alpha Z        PSCENC =      1245.54579800
  Ewald energy   TEWEN  =    214171.34398573
  -Hartree energ DENC   =   -274867.49392543
  -exchange      EXHF   =         0.00000000
  -V(xc)+E(xc)   XCENC  =      1591.25955965
  PAW double counting   =     65742.49200889   -69288.28289306
  entropy T*S    EENTRO =         0.00000000
  eigenvalues    EBANDS =      3834.56822524
  atomic energy  EATOM  =     62203.92349997
  Solvation  Ediel_sol  =         0.00000000
  ---------------------------------------------------
  free energy    TOTEN  =      4633.35625900 eV

  energy without entropy =     4633.35625900  energy(sigma->0) =     4633.35625900


--------------------------------------------------------------------------------------------------------




--------------------------------------- Iteration      1(   2)  ---------------------------------------


     EDDAV:  cpu time   24.7902: real time   24.9007
 BZINTS: Fermi energy:  1.574740;612.000000 electrons
         Band energy:-713.183024;  BLOECHL correction: -0.012032
       DOS:  cpu time    0.0440: real time    0.0439
    --------------------------------------------
      LOOP:  cpu time   24.8342: real time   24.9446

 eigenvalue-minimisations  :  8280
 total energy-change (2. order) :-0.4547751E+04  (-0.4282772E+04)
 number of electron     612.0000062 magnetization      71.5634350
 augmentation part      612.0000062 magnetization      71.5634350

 DIPCOR: dipole corrections for dipol
 direction  3 min pos   250,
 dipolmoment           0.000000      0.000000     -0.032051 electrons x Angstroem
 Tr[quadrupol]    -10379.891689

 energy correction for charged system         0.000000 eV
 dipol+quadrupol energy correction           -0.000050 eV
 added-field ion interaction         -1.591167 eV  (added to PSCEN)


 Free energy of the ion-electron system (eV)
  ---------------------------------------------------
  alpha Z        PSCENC =      1245.54579800
  Ewald energy   TEWEN  =    214171.34398573
  -Hartree energ DENC   =   -274867.49392543
  -exchange      EXHF   =         0.00000000
  -V(xc)+E(xc)   XCENC  =      1591.25955965
  PAW double counting   =     65742.49200889   -69288.28289306
  entropy T*S    EENTRO =         0.00000000
  eigenvalues    EBANDS =      -713.18302430
  atomic energy  EATOM  =     62203.92349997
  Solvation  Ediel_sol  =         0.00000000
  ---------------------------------------------------
  free energy    TOTEN  =        85.60500946 eV

  energy without entropy =       85.60500946  energy(sigma->0) =       85.60500946


--------------------------------------------------------------------------------------------------------




--------------------------------------- Iteration      1(   3)  ---------------------------------------


     EDDAV:  cpu time   25.3491: real time   25.4472
 BZINTS: Fermi energy:  0.318598;612.000000 electrons
         Band energy:***********;  BLOECHL correction: -0.010030
       DOS:  cpu time    0.0430: real time    0.0425
    --------------------------------------------
      LOOP:  cpu time   25.3921: real time   25.4897

 eigenvalue-minimisations  :  8523
 total energy-change (2. order) :-0.4368628E+03  (-0.3769058E+03)
 number of electron     612.0000062 magnetization      71.5634350
 augmentation part      612.0000062 magnetization      71.5634350

 DIPCOR: dipole corrections for dipol
 direction  3 min pos   250,
 dipolmoment           0.000000      0.000000     -0.032051 electrons x Angstroem
 Tr[quadrupol]    -10379.891689

 energy correction for charged system         0.000000 eV
 dipol+quadrupol energy correction           -0.000050 eV
 added-field ion interaction         -1.591167 eV  (added to PSCEN)


 Free energy of the ion-electron system (eV)
  ---------------------------------------------------
  alpha Z        PSCENC =      1245.54579800
  Ewald energy   TEWEN  =    214171.34398573
  -Hartree energ DENC   =   -274867.49392543
  -exchange      EXHF   =         0.00000000
  -V(xc)+E(xc)   XCENC  =      1591.25955965
  PAW double counting   =     65742.49200889   -69288.28289306
  entropy T*S    EENTRO =         0.00000000
  eigenvalues    EBANDS =     -1150.04581474
  atomic energy  EATOM  =     62203.92349997
  Solvation  Ediel_sol  =         0.00000000
  ---------------------------------------------------
  free energy    TOTEN  =      -351.25778098 eV

  energy without entropy =     -351.25778098  energy(sigma->0) =     -351.25778098


--------------------------------------------------------------------------------------------------------




--------------------------------------- Iteration      1(   4)  ---------------------------------------


     EDDAV:  cpu time   26.4970: real time   26.6419
 BZINTS: Fermi energy:  0.288514;612.000000 electrons
         Band energy:***********;  BLOECHL correction: -0.007289
       DOS:  cpu time    0.0420: real time    0.0423
    --------------------------------------------
      LOOP:  cpu time   26.5390: real time   26.6842

 eigenvalue-minimisations  :  8802
 total energy-change (2. order) :-0.1849609E+02  (-0.1814004E+02)
 number of electron     612.0000062 magnetization      71.5634350
 augmentation part      612.0000062 magnetization      71.5634350

 DIPCOR: dipole corrections for dipol
 direction  3 min pos   250,
 dipolmoment           0.000000      0.000000     -0.032051 electrons x Angstroem
 Tr[quadrupol]    -10379.891689

 energy correction for charged system         0.000000 eV
 dipol+quadrupol energy correction           -0.000050 eV
 added-field ion interaction         -1.591167 eV  (added to PSCEN)


 Free energy of the ion-electron system (eV)
  ---------------------------------------------------
  alpha Z        PSCENC =      1245.54579800
  Ewald energy   TEWEN  =    214171.34398573
  -Hartree energ DENC   =   -274867.49392543
  -exchange      EXHF   =         0.00000000
  -V(xc)+E(xc)   XCENC  =      1591.25955965
  PAW double counting   =     65742.49200889   -69288.28289306
  entropy T*S    EENTRO =         0.00000000
  eigenvalues    EBANDS =     -1168.54190764
  atomic energy  EATOM  =     62203.92349997
  Solvation  Ediel_sol  =         0.00000000
  ---------------------------------------------------
  free energy    TOTEN  =      -369.75387388 eV

  energy without entropy =     -369.75387388  energy(sigma->0) =     -369.75387388


--------------------------------------------------------------------------------------------------------




--------------------------------------- Iteration      1(   5)  ---------------------------------------


     EDDAV:  cpu time   28.1967: real time   28.3034
 BZINTS: Fermi energy:  0.288059;612.000000 electrons
         Band energy:***********;  BLOECHL correction: -0.007199
       DOS:  cpu time    0.0400: real time    0.0413
    CHARGE:  cpu time    0.7769: real time    0.7786
    MIXING:  cpu time    0.0050: real time    0.0046
    --------------------------------------------
      LOOP:  cpu time   29.0186: real time   29.1280

 eigenvalue-minimisations  :  9873
 total energy-change (2. order) :-0.3650304E+00  (-0.3649086E+00)
 number of electron     612.0000062 magnetization      71.5675821
 augmentation part      367.2029653 magnetization      62.2658840

 DIPCOR: dipole corrections for dipol
 direction  3 min pos   250,
 dipolmoment           0.000000      0.000000     -0.032051 electrons x Angstroem
 Tr[quadrupol]    -10379.891689

 energy correction for charged system         0.000000 eV
 dipol+quadrupol energy correction           -0.000050 eV
 added-field ion interaction         -1.591167 eV  (added to PSCEN)


 Broyden mixing:
  rms(total) = 0.34317E-01    rms(broyden)= 0.34235E-01
  rms(prec ) = 0.35937E-01
  weight for this iteration     100.00

 Free energy of the ion-electron system (eV)
  ---------------------------------------------------
  alpha Z        PSCENC =      1245.54579800
  Ewald energy   TEWEN  =    214171.34398573
  -Hartree energ DENC   =   -274867.49392543
  -exchange      EXHF   =         0.00000000
  -V(xc)+E(xc)   XCENC  =      1591.25955965
  PAW double counting   =     65742.49200889   -69288.28289306
  entropy T*S    EENTRO =         0.00000000
  eigenvalues    EBANDS =     -1168.90693801
  atomic energy  EATOM  =     62203.92349997
  Solvation  Ediel_sol  =         0.00000000
  ---------------------------------------------------
  free energy    TOTEN  =      -370.11890425 eV

  energy without entropy =     -370.11890425  energy(sigma->0) =     -370.11890425


--------------------------------------------------------------------------------------------------------




--------------------------------------- Iteration      1(   6)  ---------------------------------------


    POTLOK:  cpu time    0.2440: real time    0.2458
    SETDIJ:  cpu time    0.0200: real time    0.0193
    EDDIAG:  cpu time    3.6874: real time    3.7003
  RMM-DIIS:  cpu time   15.6076: real time   15.6796
    ORTHCH:  cpu time    0.6789: real time    0.6818
 BZINTS: Fermi energy:  0.284060;612.000000 electrons
         Band energy:***********;  BLOECHL correction: -0.007712
       DOS:  cpu time    0.0400: real time    0.0405
    CHARGE:  cpu time    0.7759: real time    0.7904
    MIXING:  cpu time    0.0050: real time    0.0047
    --------------------------------------------
      LOOP:  cpu time   21.0588: real time   21.1624

 eigenvalue-minimisations  :  8565
 total energy-change (2. order) :-0.2458025E-01  (-0.1772877E-01)
 number of electron     612.0000063 magnetization      71.5672354
 augmentation part      367.2461025 magnetization      62.2472674

 DIPCOR: dipole corrections for dipol
 direction  3 min pos   239,
 dipolmoment           0.000000      0.000000     -0.009575 electrons x Angstroem
 Tr[quadrupol]    -10379.981797

 energy correction for charged system         0.000000 eV
 dipol+quadrupol energy correction           -0.000004 eV
 added-field ion interaction         -0.056693 eV  (added to PSCEN)


 Broyden mixing:
  rms(total) = 0.26724E+00    rms(broyden)= 0.26722E+00
  rms(prec ) = 0.34807E+00
  weight for this iteration     100.00

 eigenvalues of (default mixing * dielectric matrix)
  average eigenvalue GAMMA=   0.0713
  0.0713

 Free energy of the ion-electron system (eV)
  ---------------------------------------------------
  alpha Z        PSCENC =      1247.08031762
  Ewald energy   TEWEN  =    214171.34398573
  -Hartree energ DENC   =   -274869.13615260
  -exchange      EXHF   =         0.00000000
  -V(xc)+E(xc)   XCENC  =      1591.28797208
  PAW double counting   =     65803.52612190   -69349.32989215
  entropy T*S    EENTRO =         0.00000000
  eigenvalues    EBANDS =     -1168.83933704
  atomic energy  EATOM  =     62203.92349997
  Solvation  Ediel_sol  =         0.00000000
  ---------------------------------------------------
  free energy    TOTEN  =      -370.14348450 eV

  energy without entropy =     -370.14348450  energy(sigma->0) =     -370.14348450


--------------------------------------------------------------------------------------------------------




--------------------------------------- Iteration      1(   7)  ---------------------------------------


    POTLOK:  cpu time    0.2660: real time    0.2683
    SETDIJ:  cpu time    0.0190: real time    0.0193
    EDDIAG:  cpu time    3.6934: real time    3.7070
  RMM-DIIS:  cpu time   21.5807: real time   21.7148
    ORTHCH:  cpu time    0.6469: real time    0.6571
 BZINTS: Fermi energy:  0.288003;612.000000 electrons
         Band energy:***********;  BLOECHL correction: -0.006902
       DOS:  cpu time    0.0430: real time    0.0431
    CHARGE:  cpu time    0.8179: real time    0.8194
    MIXING:  cpu time    0.0050: real time    0.0047
    --------------------------------------------
      LOOP:  cpu time   27.0719: real time   27.2337

 eigenvalue-minimisations  : 11984
 total energy-change (2. order) : 0.1615036E-01  (-0.4543631E-02)
 number of electron     612.0000062 magnetization      71.5673912
 augmentation part      367.1614655 magnetization      62.2608302

 DIPCOR: dipole corrections for dipol
 direction  3 min pos   235,
 dipolmoment           0.000000      0.000000     -0.038704 electrons x Angstroem
 Tr[quadrupol]    -10379.979912

 energy correction for charged system         0.000000 eV
 dipol+quadrupol energy correction           -0.000073 eV
 added-field ion interaction          0.386231 eV  (added to PSCEN)


 Broyden mixing:
  rms(total) = 0.10394E+00    rms(broyden)= 0.10389E+00
  rms(prec ) = 0.13319E+00
  weight for this iteration     100.00

 eigenvalues of (default mixing * dielectric matrix)
  average eigenvalue GAMMA=   0.1597
  0.2762  0.0432

 Free energy of the ion-electron system (eV)
  ---------------------------------------------------
  alpha Z        PSCENC =      1247.52317275
  Ewald energy   TEWEN  =    214171.34398573
  -Hartree energ DENC   =   -274868.92173506
  -exchange      EXHF   =         0.00000000
  -V(xc)+E(xc)   XCENC  =      1591.31241839
  PAW double counting   =     65804.91660581   -69350.75861039
  entropy T*S    EENTRO =         0.00000000
  eigenvalues    EBANDS =     -1169.46667133
  atomic energy  EATOM  =     62203.92349997
  Solvation  Ediel_sol  =         0.00000000
  ---------------------------------------------------
  free energy    TOTEN  =      -370.12733414 eV

  energy without entropy =     -370.12733414  energy(sigma->0) =     -370.12733414


--------------------------------------------------------------------------------------------------------




--------------------------------------- Iteration      1(   8)  ---------------------------------------


    POTLOK:  cpu time    0.2410: real time    0.2451
    SETDIJ:  cpu time    0.0200: real time    0.0193
    EDDIAG:  cpu time    3.7434: real time    3.7601
  RMM-DIIS:  cpu time   16.0546: real time   16.1884
    ORTHCH:  cpu time    0.6429: real time    0.6485
 BZINTS: Fermi energy:  0.288252;612.000000 electrons
         Band energy:***********;  BLOECHL correction: -0.006649
       DOS:  cpu time    0.0410: real time    0.0414
    CHARGE:  cpu time    0.7939: real time    0.8001
    MIXING:  cpu time    0.0050: real time    0.0050
    --------------------------------------------
      LOOP:  cpu time   21.5417: real time   21.7079

 eigenvalue-minimisations  :  8727
 total energy-change (2. order) : 0.5930234E-03  (-0.5908327E-03)
 number of electron     612.0000062 magnetization      71.5675161
 augmentation part      367.1216809 magnetization      62.2980992

 DIPCOR: dipole corrections for dipol
 direction  3 min pos   242,
 dipolmoment           0.000000      0.000000     -0.026796 electrons x Angstroem
 Tr[quadrupol]    -10379.919923

 energy correction for charged system         0.000000 eV
 dipol+quadrupol energy correction           -0.000035 eV
 added-field ion interaction         -0.478190 eV  (added to PSCEN)


 Broyden mixing:
  rms(total) = 0.78013E-01    rms(broyden)= 0.78002E-01
  rms(prec ) = 0.91790E-01
  weight for this iteration     100.00

 eigenvalues of (default mixing * dielectric matrix)
  average eigenvalue GAMMA=   0.1854
  0.3881  0.1275  0.0405

 Free energy of the ion-electron system (eV)
  ---------------------------------------------------
  alpha Z        PSCENC =      1246.65878973
  Ewald energy   TEWEN  =    214171.34398573
  -Hartree energ DENC   =   -274868.13488713
  -exchange      EXHF   =         0.00000000
  -V(xc)+E(xc)   XCENC  =      1591.34323373
  PAW double counting   =     65804.47146103   -69350.41341587
  entropy T*S    EENTRO =         0.00000000
  eigenvalues    EBANDS =     -1169.31940830
  atomic energy  EATOM  =     62203.92349997
  Solvation  Ediel_sol  =         0.00000000
  ---------------------------------------------------
  free energy    TOTEN  =      -370.12674111 eV

  energy without entropy =     -370.12674111  energy(sigma->0) =     -370.12674111


--------------------------------------------------------------------------------------------------------




--------------------------------------- Iteration      1(   9)  ---------------------------------------


    POTLOK:  cpu time    0.2510: real time    0.2530
    SETDIJ:  cpu time    0.0200: real time    0.0199
    EDDIAG:  cpu time    3.8014: real time    3.8325
  RMM-DIIS:  cpu time   16.3605: real time   16.5282
    ORTHCH:  cpu time    0.6529: real time    0.6556
 BZINTS: Fermi energy:  0.286192;612.000000 electrons
         Band energy:***********;  BLOECHL correction: -0.006978
       DOS:  cpu time    0.0430: real time    0.0439
    CHARGE:  cpu time    0.7829: real time    0.7849
    MIXING:  cpu time    0.0060: real time    0.0055
    --------------------------------------------
      LOOP:  cpu time   21.9177: real time   22.1235

 eigenvalue-minimisations  :  8786
 total energy-change (2. order) : 0.5655641E-03  (-0.2312568E-03)
 number of electron     612.0000062 magnetization      71.5674733
 augmentation part      367.1518534 magnetization      62.2869910

 DIPCOR: dipole corrections for dipol
 direction  3 min pos   236,
 dipolmoment           0.000000      0.000000     -0.029851 electrons x Angstroem
 Tr[quadrupol]    -10379.953955

 energy correction for charged system         0.000000 eV
 dipol+quadrupol energy correction           -0.000044 eV
 added-field ion interaction          0.179230 eV  (added to PSCEN)


 Broyden mixing:
  rms(total) = 0.38392E-01    rms(broyden)= 0.38387E-01
  rms(prec ) = 0.42370E-01
  weight for this iteration     100.00

 eigenvalues of (default mixing * dielectric matrix)
  average eigenvalue GAMMA=   0.1805
  0.2915  0.2915  0.0407  0.0984

 Free energy of the ion-electron system (eV)
  ---------------------------------------------------
  alpha Z        PSCENC =      1247.31620136
  Ewald energy   TEWEN  =    214171.34398573
  -Hartree energ DENC   =   -274868.12514647
  -exchange      EXHF   =         0.00000000
  -V(xc)+E(xc)   XCENC  =      1591.30133876
  PAW double counting   =     65799.69306841   -69345.51242544
  entropy T*S    EENTRO =         0.00000000
  eigenvalues    EBANDS =     -1170.06669788
  atomic energy  EATOM  =     62203.92349997
  Solvation  Ediel_sol  =         0.00000000
  ---------------------------------------------------
  free energy    TOTEN  =      -370.12617555 eV

  energy without entropy =     -370.12617555  energy(sigma->0) =     -370.12617555


--------------------------------------------------------------------------------------------------------




--------------------------------------- Iteration      1(  10)  ---------------------------------------


    POTLOK:  cpu time    0.2690: real time    0.2714
    SETDIJ:  cpu time    0.0200: real time    0.0203
    EDDIAG:  cpu time    3.9174: real time    3.9427
  RMM-DIIS:  cpu time   16.3295: real time   16.4282
    ORTHCH:  cpu time    0.6649: real time    0.6691
 BZINTS: Fermi energy:  0.284842;612.000000 electrons
         Band energy:***********;  BLOECHL correction: -0.007003
       DOS:  cpu time    0.0420: real time    0.0419
    CHARGE:  cpu time    0.7849: real time    0.7885
    MIXING:  cpu time    0.0130: real time    0.0124
    --------------------------------------------
      LOOP:  cpu time   22.0406: real time   22.1747

 eigenvalue-minimisations  :  8769
 total energy-change (2. order) : 0.2419064E-03  (-0.7796481E-04)
 number of electron     612.0000062 magnetization      71.5672086
 augmentation part      367.1674161 magnetization      62.2786506

 DIPCOR: dipole corrections for dipol
 direction  3 min pos   231,
 dipolmoment           0.000000      0.000000     -0.029966 electrons x Angstroem
 Tr[quadrupol]    -10379.975956

 energy correction for charged system         0.000000 eV
 dipol+quadrupol energy correction           -0.000044 eV
 added-field ion interaction          0.775500 eV  (added to PSCEN)


 Broyden mixing:
  rms(total) = 0.19460E-01    rms(broyden)= 0.19457E-01
  rms(prec ) = 0.21513E-01
  weight for this iteration     100.00

 eigenvalues of (default mixing * dielectric matrix)
  average eigenvalue GAMMA=   0.2482
  0.4828  0.4828  0.0407  0.1359  0.0991

 Free energy of the ion-electron system (eV)
  ---------------------------------------------------
  alpha Z        PSCENC =      1247.91247158
  Ewald energy   TEWEN  =    214171.34398573
  -Hartree energ DENC   =   -274867.86154130
  -exchange      EXHF   =         0.00000000
  -V(xc)+E(xc)   XCENC  =      1591.27978714
  PAW double counting   =     65795.80186681   -69341.55686573
  entropy T*S    EENTRO =         0.00000000
  eigenvalues    EBANDS =     -1170.96913784
  atomic energy  EATOM  =     62203.92349997
  Solvation  Ediel_sol  =         0.00000000
  ---------------------------------------------------
  free energy    TOTEN  =      -370.12593364 eV

  energy without entropy =     -370.12593364  energy(sigma->0) =     -370.12593364


--------------------------------------------------------------------------------------------------------




--------------------------------------- Iteration      1(  11)  ---------------------------------------


    POTLOK:  cpu time    0.2780: real time    0.2825
    SETDIJ:  cpu time    0.0210: real time    0.0201
    EDDIAG:  cpu time    3.8644: real time    3.8930
  RMM-DIIS:  cpu time   16.3685: real time   16.4846
    ORTHCH:  cpu time    0.6519: real time    0.6545
 BZINTS: Fermi energy:  0.284857;612.000000 electrons
         Band energy:***********;  BLOECHL correction: -0.006933
       DOS:  cpu time    0.0390: real time    0.0393
    CHARGE:  cpu time    0.8049: real time    0.8077
    MIXING:  cpu time    0.0060: real time    0.0056
    --------------------------------------------
      LOOP:  cpu time   22.0336: real time   22.1874

 eigenvalue-minimisations  :  8794
 total energy-change (2. order) :-0.8802559E-04  (-0.3177712E-04)
 number of electron     612.0000062 magnetization      71.5669988
 augmentation part      367.1599830 magnetization      62.2812434

 DIPCOR: dipole corrections for dipol
 direction  3 min pos   231,
 dipolmoment           0.000000      0.000000     -0.030057 electrons x Angstroem
 Tr[quadrupol]    -10379.973286

 energy correction for charged system         0.000000 eV
 dipol+quadrupol energy correction           -0.000044 eV
 added-field ion interaction          0.777843 eV  (added to PSCEN)


 Broyden mixing:
  rms(total) = 0.23034E-01    rms(broyden)= 0.23033E-01
  rms(prec ) = 0.25102E-01
  weight for this iteration     100.00

 eigenvalues of (default mixing * dielectric matrix)
  average eigenvalue GAMMA=   0.2581
  0.5726  0.5726  0.0407  0.1556  0.1125  0.0945

 Free energy of the ion-electron system (eV)
  ---------------------------------------------------
  alpha Z        PSCENC =      1247.91481432
  Ewald energy   TEWEN  =    214171.34398573
  -Hartree energ DENC   =   -274867.81928940
  -exchange      EXHF   =         0.00000000
  -V(xc)+E(xc)   XCENC  =      1591.27762769
  PAW double counting   =     65788.17729621   -69333.95526144
  entropy T*S    EENTRO =         0.00000000
  eigenvalues    EBANDS =     -1170.98869475
  atomic energy  EATOM  =     62203.92349997
  Solvation  Ediel_sol  =         0.00000000
  ---------------------------------------------------
  free energy    TOTEN  =      -370.12602167 eV

  energy without entropy =     -370.12602167  energy(sigma->0) =     -370.12602167


--------------------------------------------------------------------------------------------------------




--------------------------------------- Iteration      1(  12)  ---------------------------------------


    POTLOK:  cpu time    0.2450: real time    0.2465
    SETDIJ:  cpu time    0.0210: real time    0.0208
    EDDIAG:  cpu time    3.8454: real time    3.8632
  RMM-DIIS:  cpu time   16.0306: real time   16.1705
    ORTHCH:  cpu time    0.6739: real time    0.6786
 BZINTS: Fermi energy:  0.285094;612.000000 electrons
         Band energy:***********;  BLOECHL correction: -0.006964
       DOS:  cpu time    0.0430: real time    0.0431
    CHARGE:  cpu time    0.7809: real time    0.7816
    MIXING:  cpu time    0.0060: real time    0.0054
    --------------------------------------------
      LOOP:  cpu time   21.6457: real time   21.8095

 eigenvalue-minimisations  :  8727
 total energy-change (2. order) : 0.1047254E-03  (-0.1423920E-04)
 number of electron     612.0000062 magnetization      71.5669389
 augmentation part      367.1561613 magnetization      62.2813421

 DIPCOR: dipole corrections for dipol
 direction  3 min pos   231,
 dipolmoment           0.000000      0.000000     -0.030334 electrons x Angstroem
 Tr[quadrupol]    -10379.974146

 energy correction for charged system         0.000000 eV
 dipol+quadrupol energy correction           -0.000045 eV
 added-field ion interaction          0.785020 eV  (added to PSCEN)


 Broyden mixing:
  rms(total) = 0.97172E-02    rms(broyden)= 0.97162E-02
  rms(prec ) = 0.10199E-01
  weight for this iteration     100.00

 eigenvalues of (default mixing * dielectric matrix)
  average eigenvalue GAMMA=   0.2543
  0.5979  0.5979  0.0407  0.1929  0.1484  0.0945  0.1076

 Free energy of the ion-electron system (eV)
  ---------------------------------------------------
  alpha Z        PSCENC =      1247.92198988
  Ewald energy   TEWEN  =    214171.34398573
  -Hartree energ DENC   =   -274867.88287176
  -exchange      EXHF   =         0.00000000
  -V(xc)+E(xc)   XCENC  =      1591.27857314
  PAW double counting   =     65783.35352606   -69329.15440725
  entropy T*S    EENTRO =         0.00000000
  eigenvalues    EBANDS =     -1170.91021271
  atomic energy  EATOM  =     62203.92349997
  Solvation  Ediel_sol  =         0.00000000
  ---------------------------------------------------
  free energy    TOTEN  =      -370.12591694 eV

  energy without entropy =     -370.12591694  energy(sigma->0) =     -370.12591694


--------------------------------------------------------------------------------------------------------




--------------------------------------- Iteration      1(  13)  ---------------------------------------


    POTLOK:  cpu time    0.2450: real time    0.2477
    SETDIJ:  cpu time    0.0200: real time    0.0201
    EDDIAG:  cpu time    3.8194: real time    3.8619
  RMM-DIIS:  cpu time   16.6665: real time   16.7881
    ORTHCH:  cpu time    0.7049: real time    0.7077
 BZINTS: Fermi energy:  0.285024;612.000000 electrons
         Band energy:***********;  BLOECHL correction: -0.006964
       DOS:  cpu time    0.0420: real time    0.0426
    CHARGE:  cpu time    0.7799: real time    0.7829
    MIXING:  cpu time    0.0070: real time    0.0059
    --------------------------------------------
      LOOP:  cpu time   22.2846: real time   22.4568

 eigenvalue-minimisations  :  8779
 total energy-change (2. order) :-0.6290924E-05  (-0.3603439E-05)
 number of electron     612.0000062 magnetization      71.5668109
 augmentation part      367.1564865 magnetization      62.2812731

 DIPCOR: dipole corrections for dipol
 direction  3 min pos   231,
 dipolmoment           0.000000      0.000000     -0.030353 electrons x Angstroem
 Tr[quadrupol]    -10379.973092

 energy correction for charged system         0.000000 eV
 dipol+quadrupol energy correction           -0.000045 eV
 added-field ion interaction          0.785505 eV  (added to PSCEN)


 Broyden mixing:
  rms(total) = 0.77672E-02    rms(broyden)= 0.77670E-02
  rms(prec ) = 0.79734E-02
  weight for this iteration     100.00

 eigenvalues of (default mixing * dielectric matrix)
  average eigenvalue GAMMA=   0.2832
  0.6983  0.6983  0.3404  0.0407  0.1717  0.1227  0.1023  0.0909

 Free energy of the ion-electron system (eV)
  ---------------------------------------------------
  alpha Z        PSCENC =      1247.92247486
  Ewald energy   TEWEN  =    214171.34398573
  -Hartree energ DENC   =   -274867.84114239
  -exchange      EXHF   =         0.00000000
  -V(xc)+E(xc)   XCENC  =      1591.27757711
  PAW double counting   =     65781.05001939   -69326.85265904
  entropy T*S    EENTRO =         0.00000000
  eigenvalues    EBANDS =     -1170.94967887
  atomic energy  EATOM  =     62203.92349997
  Solvation  Ediel_sol  =         0.00000000
  ---------------------------------------------------
  free energy    TOTEN  =      -370.12592324 eV

  energy without entropy =     -370.12592324  energy(sigma->0) =     -370.12592324


--------------------------------------------------------------------------------------------------------




--------------------------------------- Iteration      1(  14)  ---------------------------------------


    POTLOK:  cpu time    0.2460: real time    0.2483
    SETDIJ:  cpu time    0.0210: real time    0.0204
    EDDIAG:  cpu time    3.8184: real time    3.8367
  RMM-DIIS:  cpu time   16.0706: real time   16.1704
    ORTHCH:  cpu time    0.6719: real time    0.6748
 BZINTS: Fermi energy:  0.284974;612.000000 electrons
         Band energy:***********;  BLOECHL correction: -0.006959
       DOS:  cpu time    0.0410: real time    0.0409
    CHARGE:  cpu time    0.8059: real time    0.8121
    MIXING:  cpu time    0.0060: real time    0.0060
    --------------------------------------------
      LOOP:  cpu time   21.6807: real time   21.8096

 eigenvalue-minimisations  :  8756
 total energy-change (2. order) :-0.2636517E-04  (-0.1432606E-05)
 number of electron     612.0000062 magnetization      71.5666984
 augmentation part      367.1572967 magnetization      62.2810526

 DIPCOR: dipole corrections for dipol
 direction  3 min pos   231,
 dipolmoment           0.000000      0.000000     -0.030343 electrons x Angstroem
 Tr[quadrupol]    -10379.972735

 energy correction for charged system         0.000000 eV
 dipol+quadrupol energy correction           -0.000045 eV
 added-field ion interaction          0.785242 eV  (added to PSCEN)


 Broyden mixing:
  rms(total) = 0.74419E-02    rms(broyden)= 0.74417E-02
  rms(prec ) = 0.77634E-02
  weight for this iteration     100.00

 eigenvalues of (default mixing * dielectric matrix)
  average eigenvalue GAMMA=   0.2825
  0.7611  0.7611  0.3541  0.1954  0.0407  0.1212  0.1212  0.0939  0.0939

 Free energy of the ion-electron system (eV)
  ---------------------------------------------------
  alpha Z        PSCENC =      1247.92221196
  Ewald energy   TEWEN  =    214171.34398573
  -Hartree energ DENC   =   -274867.80157627
  -exchange      EXHF   =         0.00000000
  -V(xc)+E(xc)   XCENC  =      1591.27478957
  PAW double counting   =     65776.27421627   -69322.07628545
  entropy T*S    EENTRO =         0.00000000
  eigenvalues    EBANDS =     -1170.98679138
  atomic energy  EATOM  =     62203.92349997
  Solvation  Ediel_sol  =         0.00000000
  ---------------------------------------------------
  free energy    TOTEN  =      -370.12594960 eV

  energy without entropy =     -370.12594960  energy(sigma->0) =     -370.12594960


--------------------------------------------------------------------------------------------------------




--------------------------------------- Iteration      1(  15)  ---------------------------------------


    POTLOK:  cpu time    0.2450: real time    0.2460
    SETDIJ:  cpu time    0.0200: real time    0.0197
    EDDIAG:  cpu time    3.7784: real time    3.7999
  RMM-DIIS:  cpu time   15.2427: real time   15.3415
    ORTHCH:  cpu time    0.6969: real time    0.7012
 BZINTS: Fermi energy:  0.284912;612.000000 electrons
         Band energy:***********;  BLOECHL correction: -0.006962
       DOS:  cpu time    0.0410: real time    0.0410
    CHARGE:  cpu time    0.7799: real time    0.7831
    MIXING:  cpu time    0.0070: real time    0.0062
    --------------------------------------------
      LOOP:  cpu time   20.8108: real time   20.9387

 eigenvalue-minimisations  :  8185
 total energy-change (2. order) :-0.2573435E-04  (-0.7068531E-06)
 number of electron     612.0000062 magnetization      71.5665852
 augmentation part      367.1580235 magnetization      62.2809235

 DIPCOR: dipole corrections for dipol
 direction  3 min pos   231,
 dipolmoment           0.000000      0.000000     -0.030338 electrons x Angstroem
 Tr[quadrupol]    -10379.972495

 energy correction for charged system         0.000000 eV
 dipol+quadrupol energy correction           -0.000045 eV
 added-field ion interaction          0.785126 eV  (added to PSCEN)


 Broyden mixing:
  rms(total) = 0.59945E-02    rms(broyden)= 0.59944E-02
  rms(prec ) = 0.62473E-02
  weight for this iteration     100.00

 eigenvalues of (default mixing * dielectric matrix)
  average eigenvalue GAMMA=   0.2881
  0.8063  0.8063  0.3202  0.3202  0.0407  0.1470  0.1470  0.1019  0.1019  0.0893

 Free energy of the ion-electron system (eV)
  ---------------------------------------------------
  alpha Z        PSCENC =      1247.92209649
  Ewald energy   TEWEN  =    214171.34398573
  -Hartree energ DENC   =   -274867.77201545
  -exchange      EXHF   =         0.00000000
  -V(xc)+E(xc)   XCENC  =      1591.27244014
  PAW double counting   =     65772.11772079   -69317.91955824
  entropy T*S    EENTRO =         0.00000000
  eigenvalues    EBANDS =     -1171.01414477
  atomic energy  EATOM  =     62203.92349997
  Solvation  Ediel_sol  =         0.00000000
  ---------------------------------------------------
  free energy    TOTEN  =      -370.12597533 eV

  energy without entropy =     -370.12597533  energy(sigma->0) =     -370.12597533


--------------------------------------------------------------------------------------------------------




--------------------------------------- Iteration      1(  16)  ---------------------------------------


    POTLOK:  cpu time    0.2450: real time    0.2462
    SETDIJ:  cpu time    0.0200: real time    0.0198
    EDDIAG:  cpu time    3.8164: real time    3.8404
  RMM-DIIS:  cpu time   12.8950: real time   12.9682
    ORTHCH:  cpu time    0.6489: real time    0.6500
 BZINTS: Fermi energy:  0.284871;612.000000 electrons
         Band energy:***********;  BLOECHL correction: -0.006962
       DOS:  cpu time    0.0420: real time    0.0420
    CHARGE:  cpu time    0.7779: real time    0.7816
    MIXING:  cpu time    0.0080: real time    0.0067
    --------------------------------------------
      LOOP:  cpu time   18.4532: real time   18.5548

 eigenvalue-minimisations  :  6926
 total energy-change (2. order) :-0.2531178E-04  (-0.4043562E-06)
 number of electron     612.0000062 magnetization      71.5662731
 augmentation part      367.1585947 magnetization      62.2805951

 DIPCOR: dipole corrections for dipol
 direction  3 min pos   231,
 dipolmoment           0.000000      0.000000     -0.030373 electrons x Angstroem
 Tr[quadrupol]    -10379.971903

 energy correction for charged system         0.000000 eV
 dipol+quadrupol energy correction           -0.000045 eV
 added-field ion interaction          0.786024 eV  (added to PSCEN)


 Broyden mixing:
  rms(total) = 0.55868E-02    rms(broyden)= 0.55868E-02
  rms(prec ) = 0.58319E-02
  weight for this iteration     100.00

 eigenvalues of (default mixing * dielectric matrix)
  average eigenvalue GAMMA=   0.3219
  0.9466  0.9466  0.4390  0.4390  0.0407  0.1602  0.1602  0.1122  0.1122  0.0940
  0.0902

 Free energy of the ion-electron system (eV)
  ---------------------------------------------------
  alpha Z        PSCENC =      1247.92299387
  Ewald energy   TEWEN  =    214171.34398573
  -Hartree energ DENC   =   -274867.73532879
  -exchange      EXHF   =         0.00000000
  -V(xc)+E(xc)   XCENC  =      1591.27062785
  PAW double counting   =     65768.31566595   -69314.11893695
  entropy T*S    EENTRO =         0.00000000
  eigenvalues    EBANDS =     -1171.04850829
  atomic energy  EATOM  =     62203.92349997
  Solvation  Ediel_sol  =         0.00000000
  ---------------------------------------------------
  free energy    TOTEN  =      -370.12600065 eV

  energy without entropy =     -370.12600065  energy(sigma->0) =     -370.12600065


--------------------------------------------------------------------------------------------------------




--------------------------------------- Iteration      1(  17)  ---------------------------------------


    POTLOK:  cpu time    0.2460: real time    0.2474
    SETDIJ:  cpu time    0.0200: real time    0.0201
    EDDIAG:  cpu time    3.9454: real time    3.9645
  RMM-DIIS:  cpu time   15.7336: real time   16.0455
    ORTHCH:  cpu time    0.6769: real time    0.7017
 BZINTS: Fermi energy:  0.284809;612.000000 electrons
         Band energy:***********;  BLOECHL correction: -0.006960
       DOS:  cpu time    0.0430: real time    0.0427
    CHARGE:  cpu time    0.7949: real time    0.8000
    MIXING:  cpu time    0.0070: real time    0.0064
    --------------------------------------------
      LOOP:  cpu time   21.4667: real time   21.8284

 eigenvalue-minimisations  :  8553
 total energy-change (2. order) :-0.5378939E-04  (-0.6681201E-06)
 number of electron     612.0000062 magnetization      71.5660915
 augmentation part      367.1584024 magnetization      62.2807077

 DIPCOR: dipole corrections for dipol
 direction  3 min pos   231,
 dipolmoment           0.000000      0.000000     -0.030489 electrons x Angstroem
 Tr[quadrupol]    -10379.970694

 energy correction for charged system         0.000000 eV
 dipol+quadrupol energy correction           -0.000046 eV
 added-field ion interaction          0.789019 eV  (added to PSCEN)


 Broyden mixing:
  rms(total) = 0.41380E-02    rms(broyden)= 0.41379E-02
  rms(prec ) = 0.43303E-02
  weight for this iteration     100.00

 eigenvalues of (default mixing * dielectric matrix)
  average eigenvalue GAMMA=   0.3291
  1.0415  1.0415  0.4658  0.4658  0.0407  0.1804  0.1804  0.1240  0.1240  0.0980
  0.0980  0.0892

 Free energy of the ion-electron system (eV)
  ---------------------------------------------------
  alpha Z        PSCENC =      1247.92598878
  Ewald energy   TEWEN  =    214171.34398573
  -Hartree energ DENC   =   -274867.67213878
  -exchange      EXHF   =         0.00000000
  -V(xc)+E(xc)   XCENC  =      1591.26725689
  PAW double counting   =     65758.89645699   -69304.70775438
  entropy T*S    EENTRO =         0.00000000
  eigenvalues    EBANDS =     -1171.10334964
  atomic energy  EATOM  =     62203.92349997
  Solvation  Ediel_sol  =         0.00000000
  ---------------------------------------------------
  free energy    TOTEN  =      -370.12605444 eV

  energy without entropy =     -370.12605444  energy(sigma->0) =     -370.12605444


--------------------------------------------------------------------------------------------------------




--------------------------------------- Iteration      1(  18)  ---------------------------------------


    POTLOK:  cpu time    0.2490: real time    0.2499
    SETDIJ:  cpu time    0.0190: real time    0.0198
    EDDIAG:  cpu time    3.8094: real time    3.8778
[...]
   0.107E+02 -.231E+02 0.286E+04   -.107E+02 0.231E+02 -.286E+04   0.145E-01 -.427E-01 -.131E+01   0.926E-03 0.396E-02 0.788E-04
   0.210E+02 -.367E+02 -.291E+04   -.209E+02 0.368E+02 0.291E+04   -.403E-01 -.149E+00 0.149E+01   -.212E-02 0.982E-03 -.173E-02
   0.171E+01 -.583E+02 0.864E+03   -.175E+01 0.584E+02 -.864E+03   0.824E-01 -.760E-01 -.240E+00   -.149E-03 0.382E-02 -.227E-02
   0.518E+02 -.605E+02 0.909E+03   -.518E+02 0.606E+02 -.909E+03   -.610E-01 0.298E-01 -.219E+00   0.129E-02 0.462E-02 -.361E-02
   0.491E+02 -.675E+02 -.952E+03   -.490E+02 0.675E+02 0.952E+03   -.356E-01 0.158E-01 0.211E+00   -.155E-02 0.363E-02 -.303E-02
   -.129E+02 -.632E+02 -.976E+03   0.128E+02 0.630E+02 0.976E+03   0.115E+00 0.136E+00 0.222E+00   0.126E-02 0.452E-02 -.496E-02
   -.234E+02 0.284E+02 0.290E+04   0.233E+02 -.284E+02 -.290E+04   -.338E-01 -.322E-01 -.136E+01   -.381E-03 -.339E-02 0.155E-03
   -.395E+02 0.781E+01 -.286E+04   0.396E+02 -.782E+01 0.286E+04   -.120E+00 0.191E-01 0.113E+01   0.152E-02 0.675E-03 -.147E-02
   -.166E+02 -.217E+02 0.907E+03   0.167E+02 0.217E+02 -.907E+03   -.111E+00 -.201E-01 -.334E+00   -.559E-03 -.264E-02 -.332E-02
   -.528E+02 -.591E+02 -.993E+03   0.529E+02 0.591E+02 0.992E+03   -.655E-01 0.102E-01 0.353E+00   0.819E-03 0.506E-03 -.373E-02
   0.313E+02 0.371E+02 0.289E+04   -.312E+02 -.371E+02 -.289E+04   -.877E-03 -.238E-01 -.139E+01   0.161E-02 -.265E-02 -.260E-04
   0.541E+02 0.278E+02 -.285E+04   -.541E+02 -.277E+02 0.285E+04   0.395E-01 -.594E-01 0.122E+01   -.125E-02 -.226E-02 -.178E-02
   0.362E+02 0.117E+02 0.862E+03   -.364E+02 -.118E+02 -.861E+03   0.168E+00 0.535E-01 -.623E+00   0.823E-03 -.160E-02 -.197E-02
   -.126E+00 0.251E+02 0.293E+04   0.131E+00 -.252E+02 -.293E+04   -.726E-02 -.200E-01 -.126E+01   0.172E-03 -.175E-02 -.613E-03
   -.860E+01 0.283E+02 -.291E+04   0.855E+01 -.282E+02 0.291E+04   0.407E-01 -.104E+00 0.139E+01   0.295E-02 -.259E-03 0.132E-03
   -.446E+02 0.385E+02 0.293E+04   0.446E+02 -.386E+02 -.293E+04   0.501E-01 0.123E+00 -.123E+01   -.227E-02 -.235E-02 -.145E-02
   -.194E+02 0.551E+02 -.290E+04   0.194E+02 -.553E+02 0.290E+04   -.219E-01 0.152E+00 0.102E+01   0.229E-03 -.194E-03 0.507E-03
   -.194E+02 0.779E+02 0.941E+03   0.194E+02 -.777E+02 -.941E+03   0.587E-01 -.209E+00 -.102E+00   -.646E-03 -.371E-02 -.277E-02
   0.164E+01 0.701E+02 0.291E+04   -.168E+01 -.702E+02 -.290E+04   0.279E-01 0.172E+00 -.111E+01   -.247E-03 -.191E-02 -.130E-02
   0.793E+01 0.951E+02 -.293E+04   -.797E+01 -.953E+02 0.292E+04   0.376E-01 0.193E+00 0.944E+00   -.243E-02 -.251E-02 0.982E-03
   -.416E+02 0.708E+02 0.975E+03   0.416E+02 -.708E+02 -.975E+03   0.112E-01 -.924E-01 -.149E+00   -.156E-02 -.388E-02 -.172E-02
   0.420E+02 0.468E+02 0.292E+04   -.419E+02 -.468E+02 -.292E+04   -.820E-01 0.351E-01 -.127E+01   0.236E-02 -.195E-02 -.967E-03
   0.194E+02 0.749E+02 -.290E+04   -.194E+02 -.750E+02 0.290E+04   -.296E-02 0.763E-01 0.921E+00   -.627E-03 -.295E-02 0.440E-04
   0.388E+02 0.910E+02 0.966E+03   -.389E+02 -.910E+02 -.966E+03   -.320E-01 -.101E+00 -.250E+00   0.142E-02 -.322E-02 -.163E-02
   -.261E+02 0.109E+03 -.101E+04   0.262E+02 -.109E+03 0.101E+04   -.971E-01 0.159E+00 0.184E+00   -.184E-03 -.451E-02 -.597E-03
   0.227E+02 0.950E+02 0.936E+03   -.227E+02 -.949E+02 -.936E+03   -.319E-01 -.200E+00 -.139E+00   0.774E-03 -.343E-02 -.308E-02
   0.524E+01 0.117E+03 -.937E+03   -.520E+01 -.118E+03 0.937E+03   -.340E-01 0.216E+00 0.325E+00   0.443E-03 -.255E-02 -.354E-02
   -.211E+02 -.366E+02 0.934E+03   0.212E+02 0.367E+02 -.934E+03   0.234E-01 0.778E-02 -.954E-01   0.659E-04 0.220E-02 -.322E-02
   -.333E+02 -.278E+02 0.929E+03   0.333E+02 0.278E+02 -.929E+03   0.926E-02 -.528E-02 -.131E+00   -.162E-02 0.191E-02 -.211E-02
   -.283E+02 -.203E+02 -.966E+03   0.281E+02 0.203E+02 0.965E+03   0.104E+00 -.867E-02 0.342E+00   0.866E-03 0.400E-03 -.509E-03
   0.798E+01 0.190E+02 -.959E+03   -.786E+01 -.191E+02 0.959E+03   -.127E+00 0.375E-01 0.281E+00   -.193E-02 -.485E-03 0.173E-03
   0.377E+02 0.101E+02 0.948E+03   -.377E+02 -.101E+02 -.948E+03   -.956E-02 0.103E-01 -.240E+00   0.136E-02 0.232E-02 -.327E-02
   0.242E+02 0.569E+02 -.958E+03   -.242E+02 -.568E+02 0.958E+03   0.357E-01 -.135E+00 0.252E+00   -.444E-03 -.134E-02 -.227E-02
   -.321E+01 0.254E+02 -.974E+03   0.323E+01 -.254E+02 0.974E+03   -.141E-01 -.453E-02 0.306E+00   0.145E-02 -.735E-03 -.326E-02
   -.700E+02 -.788E+02 -.784E+03   0.702E+02 0.791E+02 0.784E+03   -.170E+00 -.260E+00 0.291E+00   0.143E-02 0.312E-02 -.229E-02
   0.384E+02 -.927E+02 -.783E+03   -.385E+02 0.930E+02 0.782E+03   0.112E+00 -.315E+00 0.291E+00   -.124E-02 0.272E-02 -.394E-03
   -.605E+02 0.152E+02 0.231E+04   0.607E+02 -.152E+02 -.231E+04   -.294E+00 -.573E-02 -.276E+01   -.187E-02 -.355E-02 -.206E-03
   -.362E+02 0.878E+00 -.232E+04   0.362E+02 -.879E+00 0.231E+04   0.254E-01 -.116E-02 0.249E+01   0.554E-03 0.182E-03 -.112E-02
   0.594E+02 0.303E+02 0.230E+04   -.595E+02 -.303E+02 -.230E+04   0.274E+00 -.517E-01 -.273E+01   0.989E-03 -.299E-02 -.364E-03
   0.287E+02 0.326E+02 -.233E+04   -.287E+02 -.324E+02 0.233E+04   -.470E-01 -.876E-01 0.326E+01   -.892E-03 -.197E-02 -.113E-02
   -.322E+02 -.761E+01 0.756E+03   0.323E+02 0.776E+01 -.756E+03   -.631E-01 -.245E+00 -.371E-01   -.813E-03 -.292E-02 -.125E-02
   -.241E+02 -.206E+02 -.810E+03   0.246E+02 0.205E+02 0.810E+03   -.468E+00 0.839E-01 0.281E+00   0.656E-04 -.407E-03 -.146E-02
   0.115E+02 0.264E+02 0.713E+03   -.116E+02 -.267E+02 -.712E+03   0.502E-01 0.171E+00 -.498E+00   0.602E-03 -.861E-03 -.317E-02
   0.454E+02 -.266E+02 -.796E+03   -.455E+02 0.264E+02 0.796E+03   0.102E+00 0.151E+00 0.415E+00   -.131E-02 -.447E-04 -.242E-02
   0.276E+02 -.651E+02 -.798E+03   -.279E+02 0.651E+02 0.797E+03   0.300E+00 0.205E-02 0.264E+00   0.506E-03 0.932E-03 -.379E-02
   -.158E+02 0.695E+02 -.776E+03   0.160E+02 -.696E+02 0.776E+03   -.234E+00 0.109E+00 0.181E+00   0.343E-04 -.216E-02 -.115E-02
   0.295E+02 0.118E+03 -.785E+03   -.298E+02 -.119E+03 0.785E+03   0.302E+00 0.367E+00 0.149E+00   -.199E-03 -.359E-02 -.215E-02
   0.134E+02 0.430E+01 0.763E+03   -.134E+02 -.438E+01 -.763E+03   -.368E-01 0.922E-01 -.338E+00   0.127E-03 0.184E-02 -.143E-02
 -----------------------------------------------------------------------------------------------
   0.165E+00 0.335E+00 -.191E+00   0.128E-12 -.718E-12 0.227E-11   -.163E+00 -.336E+00 0.294E+00   0.415E-03 0.286E-02 -.969E-01
 
 
 POSITION                                       TOTAL-FORCE (eV/Angst)
 -----------------------------------------------------------------------------------
      0.00265      0.00460      2.03273        -0.024445     -0.007101      0.330457
      0.00157      0.00235      8.09986         0.000181      0.031780     -0.049071
      2.50538      0.00249      2.01455         0.023882     -0.056587      0.360867
      2.48645      0.01386      8.09048         0.013858      0.005935     -0.050459
     -0.00053      8.67545      2.02992         0.019870     -0.085578      0.264932
      0.00484      8.67088      8.11488        -0.009261     -0.007384     -0.077390
      2.50374      8.67643      2.03165        -0.014043     -0.112590      0.270255
      2.50130      8.67725      8.09901         0.008442     -0.015165     -0.062800
      8.76727      2.15790      2.02946        -0.000760      0.056602      0.283830
      8.77148      2.14223      8.14144         0.015285      0.033229     -0.053607
      1.25353      2.17274      2.02187         0.017853      0.129424      0.330855
      1.26030      2.19334      8.13140         0.012256      0.001914     -0.078202
     -0.00285      1.44433      4.07597         0.022370      0.097068     -0.123499
      3.77193      2.16142      2.03135        -0.033699      0.099451      0.307926
      3.76517      2.14442      8.14771        -0.031681      0.021573     -0.049562
      2.50178      1.44890      4.07736         0.011318      0.058841      0.107932
      6.27168      2.17140      2.04886         0.035190      0.011610      0.181529
      6.26489      2.17746      8.16811         0.016512     -0.014906     -0.076305
      5.00042      1.45188      4.09772         0.042823      0.082054     -0.064059
      7.52680      1.44774      4.09237        -0.089353      0.128040     -0.098228
      6.25572      0.73211      6.10963         0.004881      0.009284     -0.143139
      8.77465      0.71958      6.09810        -0.004303      0.005557     -0.120381
     -2.49068      4.34584      2.00000        -0.058844     -0.033816      0.415461
     -2.49825      4.33928      8.09903         0.038134      0.007592     -0.074191
     -1.27467      3.61315      4.08172         0.041340     -0.005995     -0.037599
     -0.01229      2.91771      6.11673         0.021247      0.018730     -0.114023
      5.02108      4.35795      2.00460         0.059373     -0.047802      0.309840
      5.01475      4.34826      8.11186        -0.035588     -0.008890     -0.070451
      3.76492      3.61380      4.08141        -0.045579     -0.036577     -0.015722
     -3.75488      6.52259      2.00624        -0.001774     -0.072053      0.208381
     -3.75911      6.52224      8.07598        -0.001423     -0.000649     -0.066474
     -1.25738      6.50265      2.00219         0.085084      0.072389      0.334178
     -1.26088      6.51627      8.08407         0.006306     -0.040316     -0.040267
     -2.50964      5.80144      4.05734         0.011106     -0.045483     -0.179309
      1.25473      6.50540      2.00535        -0.014470      0.036781      0.164715
      1.25337      6.49608      8.11003         0.000886     -0.042463     -0.057787
     -0.00666      5.79426      4.04866         0.082034     -0.066043     -0.020895
      3.76821      6.52071      2.02214        -0.044865      0.112258      0.337615
      3.75885      6.51165      8.09198        -0.000459     -0.044001     -0.054036
      2.50308      5.78909      4.05124        -0.092203     -0.089469     -0.055908
      1.26266      5.05597      6.10978        -0.012360     -0.038444     -0.118426
      5.01445      5.79798      4.06119        -0.018288     -0.079919     -0.145197
      6.26716      5.05754      6.07433         0.005366     -0.018136     -0.063072
     -3.76517      7.96148      4.06558         0.034909      0.088008     -0.097014
     -1.24654      7.96318      4.06972         0.003275      0.003166     -0.081939
     -2.51744      7.25359      6.07405        -0.001670      0.020365     -0.088469
      0.00877      7.22411      6.10352        -0.009359     -0.006950     -0.107710
      3.74757      7.96401      4.08996        -0.025379     -0.003014     -0.129505
      2.50329      7.23268      6.10133         0.004911      0.003771     -0.105218
      5.01359      7.23209      6.08444         0.007495     -0.029687     -0.118096
      1.20551      0.72470      6.10158         0.001490     -0.000831     -0.132177
      3.79040      0.67545      6.10811         0.030978     -0.000689     -0.127178
     -0.01227      4.33343      2.01581        -0.092095      0.032920      0.133172
     -0.03491      4.33220      8.12951         0.000182     -0.004025     -0.101964
      2.55867      4.36425      2.03158         0.074004     -0.080070      0.032168
      2.55315      4.35921      8.22025         0.009806      0.036315     -0.048745
      1.23098      3.62224      4.07808        -0.001914     -0.089002     -0.104798
      2.51691      2.89372      6.14991        -0.021985     -0.005757     -0.088053
      6.26024      3.63306      4.05078        -0.013752     -0.058553     -0.324402
      5.02978      2.87905      6.18107        -0.000655      0.022164     -0.100736
      7.53539      2.83941      6.17602        -0.017366     -0.004049     -0.078967
     -1.25803      5.11431      6.06974        -0.002537     -0.010488     -0.088831
      3.75397      5.10986      6.08540        -0.008437      0.018446     -0.091672
      1.25181      7.95850      4.07933        -0.034099      0.017216     -0.198578
 -----------------------------------------------------------------------------------
    total drift:                                0.001505      0.001772      0.005518


--------------------------------------------------------------------------------------------------------



  FREE ENERGIE OF THE ION-ELECTRON SYSTEM (eV)
  ---------------------------------------------------
  free  energy   TOTEN  =      -386.52685650 eV

  energy  without entropy=     -386.52685650  energy(sigma->0) =     -386.52685650
 


--------------------------------------------------------------------------------------------------------


    POTLOK:  cpu time    0.3090: real time    0.3121


--------------------------------------------------------------------------------------------------------


     LOOP+:  cpu time  558.7151: real time  562.8757
    4ORBIT:  cpu time    0.0000: real time    0.0000
 


 total charge     
 
# of ion       s       p       d       tot
------------------------------------------
    1        0.481   0.365   8.306   9.152
    2        0.492   0.380   8.321   9.194
    3        0.479   0.360   8.306   9.145
    4        0.496   0.388   8.312   9.196
    5        0.484   0.367   8.308   9.158
    6        0.489   0.378   8.319   9.185
    7        0.485   0.366   8.311   9.162
    8        0.483   0.374   8.314   9.172
    9        0.483   0.370   8.313   9.166
   10        0.494   0.386   8.323   9.204
   11        0.492   0.381   8.299   9.172
   12        0.503   0.397   8.313   9.213
   13        0.494   0.492   8.323   9.308
   14        0.481   0.367   8.310   9.159
   15        0.503   0.395   8.318   9.216
   16        0.496   0.492   8.321   9.309
   17        0.484   0.369   8.311   9.164
   18        0.494   0.381   8.323   9.198
   19        0.499   0.501   8.321   9.321
   20        0.497   0.498   8.315   9.311
   21        0.510   0.514   8.336   9.360
   22        0.504   0.509   8.327   9.341
   23        0.488   0.374   8.310   9.171
   24        0.500   0.394   8.314   9.208
   25        0.504   0.504   8.323   9.330
   26        0.513   0.523   8.328   9.364
   27        0.489   0.373   8.316   9.178
   28        0.501   0.394   8.318   9.212
   29        0.504   0.504   8.326   9.335
   30        0.480   0.362   8.310   9.152
   31        0.482   0.376   8.311   9.169
   32        0.483   0.369   8.312   9.165
   33        0.495   0.388   8.320   9.203
   34        0.496   0.496   8.314   9.306
   35        0.491   0.381   8.311   9.184
   36        0.494   0.389   8.308   9.190
   37        0.500   0.503   8.330   9.334
   38        0.486   0.376   8.309   9.171
   39        0.500   0.392   8.323   9.214
   40        0.501   0.505   8.330   9.335
   41        0.510   0.517   8.324   9.350
   42        0.495   0.495   8.315   9.305
   43        0.508   0.509   8.332   9.348
   44        0.490   0.487   8.318   9.295
   45        0.494   0.488   8.328   9.310
   46        0.507   0.510   8.331   9.348
   47        0.506   0.510   8.338   9.354
   48        0.490   0.485   8.322   9.297
   49        0.502   0.504   8.329   9.335
   50        0.503   0.506   8.332   9.341
   51        0.477   0.511   6.163   7.152
   52        0.479   0.516   6.179   7.175
   53        0.466   0.395   6.115   6.975
   54        0.465   0.399   6.125   6.989
   55        0.468   0.398   6.115   6.981
   56        0.463   0.387   6.120   6.971
   57        0.469   0.498   6.178   7.145
   58        0.475   0.509   6.207   7.191
   59        0.468   0.496   6.144   7.109
   60        0.480   0.516   6.207   7.203
   61        0.477   0.515   6.178   7.171
   62        0.476   0.512   6.165   7.153
   63        0.477   0.513   6.170   7.160
   64        0.467   0.498   6.136   7.101
--------------------------------------------------
tot         31.345  28.307 502.134 561.786
 


 magnetization (x)
 
# of ion       s       p       d       tot
------------------------------------------
    1       -0.007  -0.021   0.676   0.649
    2       -0.011  -0.021   0.677   0.645
    3       -0.008  -0.020   0.674   0.646
    4       -0.013  -0.025   0.733   0.695
    5       -0.012  -0.024   0.687   0.651
    6       -0.010  -0.022   0.690   0.658
    7       -0.012  -0.023   0.673   0.638
    8       -0.006  -0.021   0.675   0.648
    9       -0.011  -0.025   0.656   0.620
   10       -0.014  -0.028   0.675   0.633
   11       -0.020  -0.035   0.733   0.678
   12       -0.019  -0.034   0.741   0.687
   13       -0.010  -0.031   0.700   0.659
   14       -0.011  -0.027   0.665   0.627
   15       -0.018  -0.030   0.730   0.681
   16       -0.016  -0.037   0.702   0.649
   17       -0.012  -0.025   0.668   0.631
   18       -0.016  -0.027   0.691   0.648
   19       -0.015  -0.039   0.721   0.667
   20       -0.013  -0.037   0.739   0.689
   21       -0.016  -0.034   0.701   0.651
   22       -0.011  -0.031   0.711   0.669
   23       -0.012  -0.026   0.702   0.664
   24       -0.017  -0.031   0.734   0.685
   25       -0.019  -0.043   0.741   0.679
   26       -0.020  -0.048   0.751   0.683
   27       -0.014  -0.026   0.680   0.641
   28       -0.016  -0.029   0.723   0.678
   29       -0.021  -0.046   0.717   0.650
   30       -0.011  -0.023   0.641   0.608
   31       -0.006  -0.023   0.685   0.656
   32       -0.010  -0.025   0.656   0.621
   33       -0.016  -0.028   0.679   0.636
   34       -0.010  -0.033   0.742   0.698
   35       -0.018  -0.034   0.695   0.643
   36       -0.015  -0.031   0.711   0.665
   37       -0.016  -0.043   0.699   0.639
   38       -0.009  -0.025   0.684   0.650
   39       -0.017  -0.028   0.668   0.624
   40       -0.016  -0.043   0.702   0.644
   41       -0.022  -0.049   0.748   0.677
   42       -0.010  -0.033   0.733   0.690
   43       -0.019  -0.037   0.716   0.660
   44       -0.008  -0.029   0.697   0.660
   45       -0.011  -0.029   0.669   0.629
   46       -0.014  -0.031   0.712   0.667
   47       -0.014  -0.032   0.683   0.637
   48       -0.008  -0.027   0.679   0.644
   49       -0.012  -0.032   0.694   0.650
   50       -0.011  -0.028   0.694   0.655
   51        0.006  -0.010   2.802   2.798
   52        0.004  -0.015   2.758   2.747
   53        0.013  -0.011   2.893   2.894
   54        0.013  -0.012   2.880   2.882
   55        0.012  -0.011   2.891   2.891
   56        0.012  -0.011   2.896   2.897
   57        0.004  -0.019   2.745   2.729
   58       -0.004  -0.029   2.670   2.637
   59        0.007  -0.012   2.836   2.831
   60       -0.002  -0.023   2.679   2.654
   61        0.004  -0.016   2.766   2.754
   62        0.007  -0.013   2.803   2.798
   63        0.005  -0.016   2.787   2.775
   64        0.011  -0.010   2.850   2.851
--------------------------------------------------
tot         -0.578  -1.736  74.205  71.891
 
 BZINTS: Fermi energy:  0.284643;612.000000 electrons
         Band energy:***********;  BLOECHL correction: -0.006954

 total amount of memory used by VASP MPI-rank0   113069. kBytes
=======================================================================

   base      :      30000. kBytes
   nonlr-proj:      13089. kBytes
   fftplans  :       6402. kBytes
   grid      :      16455. kBytes
   one-center:         93. kBytes
   wavefun   :      47030. kBytes
 
  
  
 General timing and accounting informations for this job:
 ========================================================
  
                  Total CPU time used (sec):      594.525
                            User time (sec):      588.554
                          System time (sec):        5.971
                         Elapsed time (sec):      607.341
  
                   Maximum memory used (kb):      194576.
                   Average memory used (kb):           0.
  
                          Minor page faults:        91965
                          Major page faults:            0
                 Voluntary context switches:        10477
