       N       E                     dE             d eps       ncg     rms          rms(c)
DAV:   1    -0.358462660588E+03   -0.35846E+03   -0.62459E-02  9243   0.238E+00    0.145E+00
RMM:   2    -0.360089359448E+03   -0.16267E+01   -0.30080E-01  9147   0.138E+00    0.273E+01
RMM:   3    -0.358257557949E+03    0.18318E+01   -0.15525E-01  9130   0.983E-01    0.250E+00
RMM:   4    -0.358288189465E+03   -0.30632E-01   -0.68023E-02  8962   0.627E-01    0.382E+00
RMM:   5    -0.358264439089E+03    0.23750E-01   -0.25330E-02  9118   0.406E-01    0.224E+00
RMM:   6    -0.358253901324E+03    0.10538E-01   -0.14113E-02  9055   0.304E-01    0.147E+00
RMM:   7    -0.358253510866E+03    0.39046E-03   -0.65219E-03  9034   0.199E-01    0.137E+00
RMM:   8    -0.358252198238E+03    0.13126E-02   -0.43081E-03  9037   0.164E-01    0.154E+00
RMM:   9    -0.358246980482E+03    0.52178E-02   -0.30514E-03  8932   0.144E-01    0.631E-01
RMM:  10    -0.358247537004E+03   -0.55652E-03   -0.20985E-03  8877   0.112E-01    0.902E-01
RMM:  11    -0.358246037213E+03    0.14998E-02   -0.13243E-03  8876   0.929E-02    0.598E-01
RMM:  12    -0.358245429039E+03    0.60817E-03   -0.85100E-04  8775   0.736E-02    0.476E-01
RMM:  13    -0.358244815264E+03    0.61378E-03   -0.46397E-04  8808   0.546E-02    0.418E-01
RMM:  14    -0.358244344375E+03    0.47089E-03   -0.26993E-04  8789   0.430E-02    0.287E-01
RMM:  15    -0.358244339256E+03    0.51189E-05   -0.12314E-04  8838   0.283E-02    0.325E-01
RMM:  16    -0.358244449433E+03   -0.11018E-03   -0.13153E-04  8790   0.292E-02    0.312E-01
RMM:  17    -0.358244519985E+03   -0.70552E-04   -0.13429E-04  8848   0.294E-02    0.269E-01
RMM:  18    -0.358244994760E+03   -0.47477E-03   -0.29434E-04  8836   0.416E-02    0.384E-01
RMM:  19    -0.358245138869E+03   -0.14411E-03   -0.22321E-04  8807   0.376E-02    0.341E-01
RMM:  20    -0.358245457995E+03   -0.31913E-03   -0.25543E-04  8787   0.402E-02    0.359E-01
RMM:  21    -0.358245694937E+03   -0.23694E-03   -0.20005E-04  8760   0.360E-02    0.277E-01
RMM:  22    -0.358244846940E+03    0.84800E-03   -0.15993E-04  8776   0.323E-02    0.242E-01
RMM:  23    -0.358246381983E+03   -0.15350E-02   -0.12377E-04  8876   0.270E-02    0.272E-01
RMM:  24    -0.358246683301E+03   -0.30132E-03   -0.81720E-05  8874   0.230E-02    0.234E-01
RMM:  25    -0.358246514788E+03    0.16851E-03   -0.62974E-05  8825   0.201E-02    0.217E-01
RMM:  26    -0.358249118611E+03   -0.26038E-02   -0.66158E-05  8780   0.192E-02    0.185E-01
RMM:  27    -0.358250382885E+03   -0.12643E-02   -0.54377E-05  8850   0.186E-02    0.150E-01
RMM:  28    -0.358252248022E+03   -0.18651E-02   -0.70961E-05  8796   0.193E-02    0.219E-01
RMM:  29    -0.358252002941E+03    0.24508E-03   -0.52649E-05  8856   0.186E-02    0.206E-01
RMM:  30    -0.358252455944E+03   -0.45300E-03   -0.19785E-05  8919   0.112E-02    0.219E-01
RMM:  31    -0.358252415937E+03    0.40007E-04   -0.49643E-06  7730   0.605E-03    0.217E-01
RMM:  32    -0.358253030652E+03   -0.61471E-03   -0.12199E-05  8948   0.848E-03    0.196E-01
RMM:  33    -0.358253215743E+03   -0.18509E-03   -0.87778E-06  8798   0.749E-03    0.166E-01
RMM:  34    -0.358254284794E+03   -0.10691E-02   -0.21264E-05  8776   0.107E-02    0.159E-01
RMM:  35    -0.358255196908E+03   -0.91211E-03   -0.27081E-05  8816   0.126E-02    0.146E-01
RMM:  36    -0.358256569473E+03   -0.13726E-02   -0.35680E-05  8829   0.135E-02    0.175E-01
RMM:  37    -0.358256216825E+03    0.35265E-03   -0.35923E-05  8819   0.143E-02    0.166E-01
RMM:  38    -0.358256367151E+03   -0.15033E-03   -0.77020E-06  8815   0.664E-03    0.156E-01
RMM:  39    -0.358256440761E+03   -0.73611E-04   -0.37863E-06  6989   0.489E-03    0.155E-01
RMM:  40    -0.358256582069E+03   -0.14131E-03   -0.73990E-06  8563   0.590E-03    0.151E-01
RMM:  41    -0.358256725169E+03   -0.14310E-03   -0.12987E-05  8825   0.825E-03    0.137E-01
RMM:  42    -0.358256922913E+03   -0.19774E-03   -0.26378E-05  8866   0.117E-02    0.131E-01
RMM:  43    -0.358257074587E+03   -0.15167E-03   -0.21383E-05  8898   0.107E-02    0.104E-01
RMM:  44    -0.358257124117E+03   -0.49530E-04   -0.79664E-06  8881   0.701E-03    0.928E-02
RMM:  45    -0.358257205100E+03   -0.80983E-04   -0.12478E-05  8916   0.860E-03    0.796E-02
RMM:  46    -0.358257239999E+03   -0.34898E-04   -0.10287E-05  8833   0.813E-03    0.523E-02
RMM:  47    -0.358257339714E+03   -0.99716E-04   -0.27209E-05  8919   0.125E-02    0.112E-01
RMM:  48    -0.358257282312E+03    0.57402E-04   -0.18189E-05  8780   0.111E-02    0.732E-02
RMM:  49    -0.358257287169E+03   -0.48570E-05   -0.23479E-06  5586   0.420E-03    0.677E-02
RMM:  50    -0.358257294950E+03   -0.77815E-05   -0.97861E-07  5188   0.292E-03    0.721E-02
RMM:  51    -0.358257294580E+03    0.37070E-06   -0.29667E-07  5248   0.158E-03
   1 F= -.37624855E+03 E0= -.37624855E+03  d E =0.000000E+00  mag=    43.1270
