  71  71   1   0
  0.2652218E+02  0.1011163E-08  0.1011163E-08  0.2126643E-08  0.1500000E-16
  1.000000000000000E-004
  CAR 
 SQS-NiFe                                
      2.42607110    -24.58621468  301     -0.43682802      1.00000000
    -24.586  0.0000E+00  0.0000E+00
    -24.496  0.0000E+00  0.0000E+00
    -24.406  0.0000E+00  0.0000E+00
    -24.316  0.0000E+00  0.0000E+00
    -24.226  0.0000E+00  0.0000E+00
    -24.136  0.0000E+00  0.0000E+00
    -24.046  0.0000E+00  0.0000E+00
    -23.956  0.0000E+00  0.0000E+00
    -23.866  0.0000E+00  0.0000E+00
    -23.776  0.0000E+00  0.0000E+00
    -23.686  0.9431E-16  0.8492E-17
    -23.596  0.1169E-13  0.1061E-14
    -23.506  0.9790E-12  0.8921E-13
    -23.416  0.5504E-10  0.5045E-11
    -23.326  0.2078E-08  0.1922E-09
    -23.236  0.5275E-07  0.4942E-08
    -23.146  0.9006E-06  0.8603E-07
    -23.056  0.1035E-04  0.1018E-05
    -22.965  0.8018E-04  0.8237E-05
    -22.875  0.4188E-03  0.4594E-04
    -22.785  0.1476E-02  0.1789E-03
    -22.695  0.3514E-02  0.4952E-03
    -22.605  0.5650E-02  0.1004E-02
    -22.515  0.6140E-02  0.1557E-02
    -22.425  0.4509E-02  0.1963E-02
    -22.335  0.2237E-02  0.2164E-02
    -22.245  0.7498E-03  0.2232E-02
    -22.155  0.1696E-03  0.2247E-02
    -22.065  0.2589E-04  0.2249E-02
    -21.975  0.2663E-05  0.2250E-02
    -21.885  0.1845E-06  0.2250E-02
    -21.795  0.8602E-08  0.2250E-02
    -21.705  0.2697E-09  0.2250E-02
    -21.615  0.5679E-11  0.2250E-02
    -21.525  0.8029E-13  0.2250E-02
    -21.435  0.7601E-15  0.2250E-02
    -21.345  0.5548E-17  0.2250E-02
    -21.255  0.0000E+00  0.2250E-02
    -21.165  0.0000E+00  0.2250E-02
    -21.075  0.0000E+00  0.2250E-02
    -20.985  0.0000E+00  0.2250E-02
    -20.895  0.0000E+00  0.2250E-02
    -20.804  0.5271E-16  0.2250E-02
    -20.714  0.6922E-14  0.2250E-02
    -20.624  0.6083E-12  0.2250E-02
    -20.534  0.3594E-10  0.2250E-02
    -20.444  0.1429E-08  0.2250E-02
    -20.354  0.3835E-07  0.2250E-02
    -20.264  0.6960E-06  0.2250E-02
    -20.174  0.8585E-05  0.2251E-02
    -20.084  0.7238E-04  0.2257E-02
    -19.994  0.4208E-03  0.2295E-02
    -19.904  0.1709E-02  0.2449E-02
    -19.814  0.4927E-02  0.2892E-02
    -19.724  0.1032E-01  0.3821E-02
    -19.634  0.1611E-01  0.5272E-02
    -19.544  0.1932E-01  0.7011E-02
    -19.454  0.1836E-01  0.8665E-02
    -19.364  0.1408E-01  0.9933E-02
    -19.274  0.8644E-02  0.1071E-01
    -19.184  0.4101E-02  0.1108E-01
    -19.094  0.1439E-02  0.1121E-01
    -19.004  0.3597E-03  0.1124E-01
    -18.914  0.6256E-04  0.1125E-01
    -18.824  0.7459E-05  0.1125E-01
    -18.734  0.6207E-06  0.1125E-01
    -18.644  0.3562E-06  0.1125E-01
    -18.553  0.4313E-05  0.1125E-01
    -18.463  0.3876E-04  0.1125E-01
    -18.373  0.2349E-03  0.1127E-01
    -18.283  0.9606E-03  0.1136E-01
    -18.193  0.2652E-02  0.1160E-01
    -18.103  0.4945E-02  0.1204E-01
    -18.013  0.6231E-02  0.1261E-01
    -17.923  0.5306E-02  0.1308E-01
    -17.833  0.3053E-02  0.1336E-01
    -17.743  0.1187E-02  0.1346E-01
    -17.653  0.3114E-03  0.1349E-01
    -17.563  0.5515E-04  0.1350E-01
    -17.473  0.6585E-05  0.1350E-01
    -17.383  0.5297E-06  0.1350E-01
    -17.293  0.2869E-07  0.1350E-01
    -17.203  0.1045E-08  0.1350E-01
    -17.113  0.2557E-10  0.1350E-01
    -17.023  0.4203E-12  0.1350E-01
    -16.933  0.4638E-14  0.1350E-01
    -16.843  0.3329E-16  0.1350E-01
    -16.753  0.0000E+00  0.1350E-01
    -16.663  0.0000E+00  0.1350E-01
    -16.573  0.0000E+00  0.1350E-01
    -16.483  0.0000E+00  0.1350E-01
    -16.392  0.0000E+00  0.1350E-01
    -16.302  0.0000E+00  0.1350E-01
    -16.212  0.0000E+00  0.1350E-01
    -16.122  0.0000E+00  0.1350E-01
    -16.032  0.0000E+00  0.1350E-01
    -15.942  0.0000E+00  0.1350E-01
    -15.852  0.0000E+00  0.1350E-01
    -15.762  0.0000E+00  0.1350E-01
    -15.672  0.0000E+00  0.1350E-01
    -15.582  0.0000E+00  0.1350E-01
    -15.492  0.0000E+00  0.1350E-01
    -15.402  0.0000E+00  0.1350E-01
    -15.312  0.0000E+00  0.1350E-01
    -15.222  0.0000E+00  0.1350E-01
    -15.132  0.0000E+00  0.1350E-01
    -15.042  0.0000E+00  0.1350E-01
    -14.952  0.0000E+00  0.1350E-01
    -14.862  0.0000E+00  0.1350E-01
    -14.772  0.0000E+00  0.1350E-01
    -14.682  0.0000E+00  0.1350E-01
    -14.592  0.0000E+00  0.1350E-01
    -14.502  0.0000E+00  0.1350E-01
    -14.412  0.0000E+00  0.1350E-01
    -14.322  0.0000E+00  0.1350E-01
    -14.232  0.0000E+00  0.1350E-01
    -14.141  0.0000E+00  0.1350E-01
    -14.051  0.0000E+00  0.1350E-01
    -13.961  0.0000E+00  0.1350E-01
    -13.871  0.0000E+00  0.1350E-01
    -13.781  0.0000E+00  0.1350E-01
    -13.691  0.0000E+00  0.1350E-01
    -13.601  0.0000E+00  0.1350E-01
    -13.511  0.0000E+00  0.1350E-01
    -13.421  0.0000E+00  0.1350E-01
    -13.331  0.0000E+00  0.1350E-01
    -13.241  0.0000E+00  0.1350E-01
    -13.151  0.0000E+00  0.1350E-01
    -13.061  0.0000E+00  0.1350E-01
    -12.971  0.0000E+00  0.1350E-01
    -12.881  0.0000E+00  0.1350E-01
    -12.791  0.0000E+00  0.1350E-01
    -12.701  0.0000E+00  0.1350E-01
    -12.611  0.0000E+00  0.1350E-01
    -12.521  0.0000E+00  0.1350E-01
    -12.431  0.0000E+00  0.1350E-01
    -12.341  0.0000E+00  0.1350E-01
    -12.251  0.0000E+00  0.1350E-01
    -12.161  0.0000E+00  0.1350E-01
    -12.071  0.0000E+00  0.1350E-01
    -11.980  0.0000E+00  0.1350E-01
    -11.890  0.0000E+00  0.1350E-01
    -11.800  0.0000E+00  0.1350E-01
    -11.710  0.0000E+00  0.1350E-01
    -11.620  0.0000E+00  0.1350E-01
    -11.530  0.0000E+00  0.1350E-01
    -11.440  0.0000E+00  0.1350E-01
    -11.350  0.0000E+00  0.1350E-01
    -11.260  0.0000E+00  0.1350E-01
    -11.170  0.0000E+00  0.1350E-01
    -11.080  0.0000E+00  0.1350E-01
    -10.990  0.0000E+00  0.1350E-01
    -10.900  0.0000E+00  0.1350E-01
    -10.810  0.0000E+00  0.1350E-01
    -10.720  0.0000E+00  0.1350E-01
    -10.630  0.0000E+00  0.1350E-01
    -10.540  0.0000E+00  0.1350E-01
    -10.450  0.0000E+00  0.1350E-01
    -10.360  0.0000E+00  0.1350E-01
    -10.270  0.0000E+00  0.1350E-01
    -10.180  0.0000E+00  0.1350E-01
    -10.090  0.0000E+00  0.1350E-01
    -10.000  0.6935E-17  0.1350E-01
     -9.910  0.9820E-15  0.1350E-01
     -9.819  0.1014E-12  0.1350E-01
     -9.729  0.7026E-11  0.1350E-01
     -9.639  0.3267E-09  0.1350E-01
     -9.549  0.1021E-07  0.1350E-01
     -9.459  0.2144E-06  0.1350E-01
     -9.369  0.3031E-05  0.1350E-01
     -9.279  0.2886E-04  0.1350E-01
     -9.189  0.1852E-03  0.1352E-01
     -9.099  0.8019E-03  0.1359E-01
     -9.009  0.2344E-02  0.1380E-01
     -8.919  0.4629E-02  0.1422E-01
     -8.829  0.6189E-02  0.1478E-01
     -8.739  0.5678E-02  0.1529E-01
     -8.649  0.3937E-02  0.1564E-01
     -8.559  0.3185E-02  0.1593E-01
     -8.469  0.4345E-02  0.1632E-01
     -8.379  0.5986E-02  0.1686E-01
     -8.289  0.5980E-02  0.1740E-01
     -8.199  0.4074E-02  0.1776E-01
     -8.109  0.1878E-02  0.1793E-01
     -8.019  0.5846E-03  0.1798E-01
     -7.929  0.1229E-03  0.1800E-01
     -7.839  0.1745E-04  0.1800E-01
     -7.749  0.2309E-05  0.1800E-01
     -7.659  0.7940E-05  0.1800E-01
     -7.568  0.6432E-04  0.1800E-01
     -7.478  0.3592E-03  0.1804E-01
     -7.388  0.1377E-02  0.1816E-01
     -7.298  0.3682E-02  0.1849E-01
     -7.208  0.7053E-02  0.1913E-01
     -7.118  0.1010E-01  0.2004E-01
     -7.028  0.1155E-01  0.2108E-01
     -6.938  0.1199E-01  0.2216E-01
     -6.848  0.1385E-01  0.2340E-01
     -6.758  0.1918E-01  0.2513E-01
     -6.668  0.2687E-01  0.2755E-01
     -6.578  0.3227E-01  0.3046E-01
     -6.488  0.3119E-01  0.3326E-01
     -6.398  0.2475E-01  0.3549E-01
     -6.308  0.1841E-01  0.3715E-01
     -6.218  0.1722E-01  0.3870E-01
     -6.128  0.2319E-01  0.4079E-01
     -6.038  0.3388E-01  0.4384E-01
     -5.948  0.4359E-01  0.4776E-01
     -5.858  0.4835E-01  0.5212E-01
     -5.768  0.4768E-01  0.5641E-01
     -5.678  0.4143E-01  0.6014E-01
     -5.588  0.3013E-01  0.6285E-01
     -5.498  0.1805E-01  0.6448E-01
     -5.407  0.1166E-01  0.6553E-01
     -5.317  0.1470E-01  0.6685E-01
     -5.227  0.2486E-01  0.6909E-01
     -5.137  0.3455E-01  0.7220E-01
     -5.047  0.3695E-01  0.7553E-01
     -4.957  0.3190E-01  0.7840E-01
     -4.867  0.2530E-01  0.8068E-01
     -4.777  0.2372E-01  0.8281E-01
     -4.687  0.2918E-01  0.8544E-01
     -4.597  0.3786E-01  0.8885E-01
     -4.507  0.4274E-01  0.9270E-01
     -4.417  0.4051E-01  0.9635E-01
     -4.327  0.3812E-01  0.9978E-01
     -4.237  0.4691E-01  0.1040E+00
     -4.147  0.6877E-01  0.1102E+00
     -4.057  0.9590E-01  0.1188E+00
     -3.967  0.1209E+00  0.1297E+00
     -3.877  0.1377E+00  0.1421E+00
     -3.787  0.1393E+00  0.1547E+00
     -3.697  0.1243E+00  0.1658E+00
     -3.607  0.1019E+00  0.1750E+00
     -3.517  0.8677E-01  0.1828E+00
     -3.427  0.8898E-01  0.1908E+00
     -3.337  0.1045E+00  0.2003E+00
     -3.247  0.1174E+00  0.2108E+00
     -3.156  0.1162E+00  0.2213E+00
     -3.066  0.1076E+00  0.2310E+00
     -2.976  0.1071E+00  0.2406E+00
     -2.886  0.1192E+00  0.2513E+00
     -2.796  0.1331E+00  0.2633E+00
     -2.706  0.1384E+00  0.2758E+00
     -2.616  0.1375E+00  0.2882E+00
     -2.526  0.1378E+00  0.3006E+00
     -2.436  0.1407E+00  0.3133E+00
     -2.346  0.1441E+00  0.3262E+00
     -2.256  0.1501E+00  0.3397E+00
     -2.166  0.1628E+00  0.3544E+00
     -2.076  0.1809E+00  0.3707E+00
     -1.986  0.1968E+00  0.3884E+00
     -1.896  0.2042E+00  0.4068E+00
     -1.806  0.2035E+00  0.4251E+00
     -1.716  0.1972E+00  0.4429E+00
     -1.626  0.1850E+00  0.4595E+00
     -1.536  0.1679E+00  0.4746E+00
     -1.446  0.1506E+00  0.4882E+00
     -1.356  0.1386E+00  0.5007E+00
     -1.266  0.1347E+00  0.5128E+00
     -1.176  0.1384E+00  0.5253E+00
     -1.086  0.1468E+00  0.5385E+00
     -0.995  0.1559E+00  0.5525E+00
     -0.905  0.1637E+00  0.5673E+00
     -0.815  0.1706E+00  0.5826E+00
     -0.725  0.1780E+00  0.5987E+00
     -0.635  0.1861E+00  0.6154E+00
     -0.545  0.1926E+00  0.6328E+00
     -0.455  0.1924E+00  0.6501E+00
     -0.365  0.1822E+00  0.6665E+00
     -0.275  0.1652E+00  0.6814E+00
     -0.185  0.1486E+00  0.6948E+00
     -0.095  0.1379E+00  0.7072E+00
     -0.005  0.1347E+00  0.7193E+00
      0.085  0.1380E+00  0.7317E+00
      0.175  0.1429E+00  0.7446E+00
      0.265  0.1396E+00  0.7572E+00
      0.355  0.1203E+00  0.7680E+00
      0.445  0.8632E-01  0.7758E+00
      0.535  0.4917E-01  0.7802E+00
      0.625  0.2136E-01  0.7821E+00
      0.715  0.6841E-02  0.7827E+00
      0.805  0.1576E-02  0.7829E+00
      0.895  0.2561E-03  0.7829E+00
      0.985  0.2897E-04  0.7829E+00
      1.075  0.2261E-05  0.7829E+00
      1.165  0.1209E-06  0.7829E+00
      1.256  0.4405E-08  0.7829E+00
      1.346  0.1090E-09  0.7829E+00
      1.436  0.1827E-11  0.7829E+00
      1.526  0.2070E-13  0.7829E+00
      1.616  0.1553E-15  0.7829E+00
      1.706  0.0000E+00  0.7829E+00
      1.796  0.0000E+00  0.7829E+00
      1.886  0.0000E+00  0.7829E+00
      1.976  0.0000E+00  0.7829E+00
      2.066  0.0000E+00  0.7829E+00
      2.156  0.0000E+00  0.7829E+00
      2.246  0.0000E+00  0.7829E+00
      2.336  0.0000E+00  0.7829E+00
      2.426  0.0000E+00  0.7829E+00
      2.42607110    -24.58621468  301     -0.43682802      1.00000000
    -24.586  0.0000E+00  0.0000E+00  0.0000E+00
    -24.496  0.0000E+00  0.0000E+00  0.0000E+00
    -24.406  0.0000E+00  0.0000E+00  0.0000E+00
    -24.316  0.0000E+00  0.0000E+00  0.0000E+00
    -24.226  0.0000E+00  0.0000E+00  0.0000E+00
    -24.136  0.0000E+00  0.0000E+00  0.0000E+00
    -24.046  0.0000E+00  0.0000E+00  0.0000E+00
    -23.956  0.0000E+00  0.0000E+00  0.0000E+00
    -23.866  0.0000E+00  0.0000E+00  0.0000E+00
    -23.776  0.0000E+00  0.0000E+00  0.0000E+00
    -23.686  0.2889E-25  0.1392E-26  0.7129E-24
    -23.596  0.3579E-23  0.1725E-24  0.8833E-22
    -23.506  0.2999E-21  0.1445E-22  0.7400E-20
    -23.416  0.1686E-19  0.8124E-21  0.4161E-18
    -23.326  0.6366E-18  0.3067E-19  0.1571E-16
    -23.236  0.1616E-16  0.7785E-18  0.3987E-15
    -23.146  0.2758E-15  0.1329E-16  0.6807E-14
    -23.056  0.3171E-14  0.1528E-15  0.7825E-13
    -22.965  0.2456E-13  0.1183E-14  0.6060E-12
    -22.875  0.1283E-12  0.6180E-14  0.3165E-11
    -22.785  0.4521E-12  0.2179E-13  0.1116E-10
    -22.695  0.1076E-11  0.5186E-13  0.2656E-10
    -22.605  0.1731E-11  0.8339E-13  0.4271E-10
    -22.515  0.1881E-11  0.9062E-13  0.4641E-10
    -22.425  0.1381E-11  0.6655E-13  0.3408E-10
    -22.335  0.6853E-12  0.3302E-13  0.1691E-10
    -22.245  0.2297E-12  0.1107E-13  0.5668E-11
    -22.155  0.5195E-13  0.2503E-14  0.1282E-11
    -22.065  0.7929E-14  0.3821E-15  0.1957E-12
    -21.975  0.8157E-15  0.3930E-16  0.2013E-13
    -21.885  0.5651E-16  0.2723E-17  0.1395E-14
    -21.795  0.2635E-17  0.1270E-18  0.6502E-16
    -21.705  0.8259E-19  0.3980E-20  0.2038E-17
    -21.615  0.1739E-20  0.8382E-22  0.4293E-19
    -21.525  0.2459E-22  0.1185E-23  0.6069E-21
    -21.435  0.2328E-24  0.1122E-25  0.5745E-23
    -21.345  0.1699E-26  0.8188E-28  0.4194E-25
    -21.255  0.0000E+00  0.0000E+00  0.0000E+00
    -21.165  0.0000E+00  0.0000E+00  0.0000E+00
    -21.075  0.0000E+00  0.0000E+00  0.0000E+00
    -20.985  0.0000E+00  0.0000E+00  0.0000E+00
    -20.895  0.0000E+00  0.0000E+00  0.0000E+00
    -20.804  0.6732E-24  0.5209E-24  0.2680E-24
    -20.714  0.8838E-22  0.6835E-22  0.3514E-22
    -20.624  0.7765E-20  0.6003E-20  0.3085E-20
    -20.534  0.4586E-18  0.3544E-18  0.1820E-18
    -20.444  0.1823E-16  0.1407E-16  0.7221E-17
    -20.354  0.4888E-15  0.3769E-15  0.1931E-15
    -20.264  0.8864E-14  0.6822E-14  0.3485E-14
    -20.174  0.1092E-12  0.8381E-13  0.4263E-13
    -20.084  0.9197E-12  0.7029E-12  0.3549E-12
    -19.994  0.5343E-11  0.4060E-11  0.2025E-11
    -19.904  0.2170E-10  0.1637E-10  0.7997E-11
    -19.814  0.6277E-10  0.4691E-10  0.2220E-10
    -19.724  0.1324E-09  0.9796E-10  0.4420E-10
    -19.634  0.2090E-09  0.1534E-09  0.6484E-10
    -19.544  0.2539E-09  0.1855E-09  0.7234E-10
    -19.454  0.2432E-09  0.1773E-09  0.6337E-10
    -19.364  0.1861E-09  0.1355E-09  0.4465E-10
    -19.274  0.1130E-09  0.8216E-10  0.2536E-10
    -19.184  0.5285E-10  0.3834E-10  0.1133E-10
    -19.094  0.1831E-10  0.1325E-10  0.3815E-11
    -19.004  0.4537E-11  0.3277E-11  0.9305E-12
    -18.914  0.7847E-12  0.5660E-12  0.1595E-12
    -18.824  0.9323E-13  0.6719E-13  0.1887E-13
    -18.734  0.7546E-14  0.5435E-14  0.1561E-14
    -18.644  0.5356E-15  0.3772E-15  0.8675E-15
    -18.553  0.1654E-14  0.1078E-14  0.1047E-13
    -18.463  0.1474E-13  0.9594E-14  0.9410E-13
    -18.373  0.8931E-13  0.5814E-13  0.5703E-12
    -18.283  0.3652E-12  0.2378E-12  0.2332E-11
    -18.193  0.1008E-11  0.6564E-12  0.6437E-11
    -18.103  0.1880E-11  0.1224E-11  0.1200E-10
    -18.013  0.2369E-11  0.1542E-11  0.1513E-10
    -17.923  0.2017E-11  0.1313E-11  0.1288E-10
    -17.833  0.1160E-11  0.7556E-12  0.7411E-11
    -17.743  0.4511E-12  0.2937E-12  0.2880E-11
    -17.653  0.1184E-12  0.7707E-13  0.7559E-12
    -17.563  0.2096E-13  0.1365E-13  0.1339E-12
    -17.473  0.2503E-14  0.1630E-14  0.1598E-13
    -17.383  0.2014E-15  0.1311E-15  0.1286E-14
    -17.293  0.1090E-16  0.7100E-17  0.6964E-16
    -17.203  0.3972E-18  0.2586E-18  0.2536E-17
    -17.113  0.9721E-20  0.6329E-20  0.6208E-19
    -17.023  0.1598E-21  0.1040E-21  0.1020E-20
    -16.933  0.1763E-23  0.1148E-23  0.1126E-22
    -16.843  0.1265E-25  0.8239E-26  0.8080E-25
    -16.753  0.0000E+00  0.0000E+00  0.0000E+00
    -16.663  0.0000E+00  0.0000E+00  0.0000E+00
    -16.573  0.0000E+00  0.0000E+00  0.0000E+00
    -16.483  0.0000E+00  0.0000E+00  0.0000E+00
    -16.392  0.0000E+00  0.0000E+00  0.0000E+00
    -16.302  0.0000E+00  0.0000E+00  0.0000E+00
    -16.212  0.0000E+00  0.0000E+00  0.0000E+00
    -16.122  0.0000E+00  0.0000E+00  0.0000E+00
    -16.032  0.0000E+00  0.0000E+00  0.0000E+00
    -15.942  0.0000E+00  0.0000E+00  0.0000E+00
    -15.852  0.0000E+00  0.0000E+00  0.0000E+00
    -15.762  0.0000E+00  0.0000E+00  0.0000E+00
    -15.672  0.0000E+00  0.0000E+00  0.0000E+00
    -15.582  0.0000E+00  0.0000E+00  0.0000E+00
    -15.492  0.0000E+00  0.0000E+00  0.0000E+00
    -15.402  0.0000E+00  0.0000E+00  0.0000E+00
    -15.312  0.0000E+00  0.0000E+00  0.0000E+00
    -15.222  0.0000E+00  0.0000E+00  0.0000E+00
    -15.132  0.0000E+00  0.0000E+00  0.0000E+00
    -15.042  0.0000E+00  0.0000E+00  0.0000E+00
    -14.952  0.0000E+00  0.0000E+00  0.0000E+00
    -14.862  0.0000E+00  0.0000E+00  0.0000E+00
    -14.772  0.0000E+00  0.0000E+00  0.0000E+00
    -14.682  0.0000E+00  0.0000E+00  0.0000E+00
    -14.592  0.0000E+00  0.0000E+00  0.0000E+00
    -14.502  0.0000E+00  0.0000E+00  0.0000E+00
    -14.412  0.0000E+00  0.0000E+00  0.0000E+00
    -14.322  0.0000E+00  0.0000E+00  0.0000E+00
    -14.232  0.0000E+00  0.0000E+00  0.0000E+00
    -14.141  0.0000E+00  0.0000E+00  0.0000E+00
    -14.051  0.0000E+00  0.0000E+00  0.0000E+00
    -13.961  0.0000E+00  0.0000E+00  0.0000E+00
    -13.871  0.0000E+00  0.0000E+00  0.0000E+00
    -13.781  0.0000E+00  0.0000E+00  0.0000E+00
    -13.691  0.0000E+00  0.0000E+00  0.0000E+00
    -13.601  0.0000E+00  0.0000E+00  0.0000E+00
    -13.511  0.0000E+00  0.0000E+00  0.0000E+00
    -13.421  0.0000E+00  0.0000E+00  0.0000E+00
    -13.331  0.0000E+00  0.0000E+00  0.0000E+00
    -13.241  0.0000E+00  0.0000E+00  0.0000E+00
    -13.151  0.0000E+00  0.0000E+00  0.0000E+00
    -13.061  0.0000E+00  0.0000E+00  0.0000E+00
    -12.971  0.0000E+00  0.0000E+00  0.0000E+00
    -12.881  0.0000E+00  0.0000E+00  0.0000E+00
    -12.791  0.0000E+00  0.0000E+00  0.0000E+00
    -12.701  0.0000E+00  0.0000E+00  0.0000E+00
    -12.611  0.0000E+00  0.0000E+00  0.0000E+00
    -12.521  0.0000E+00  0.0000E+00  0.0000E+00
    -12.431  0.0000E+00  0.0000E+00  0.0000E+00
    -12.341  0.0000E+00  0.0000E+00  0.0000E+00
    -12.251  0.0000E+00  0.0000E+00  0.0000E+00
    -12.161  0.0000E+00  0.0000E+00  0.0000E+00
    -12.071  0.0000E+00  0.0000E+00  0.0000E+00
    -11.980  0.0000E+00  0.0000E+00  0.0000E+00
    -11.890  0.0000E+00  0.0000E+00  0.0000E+00
    -11.800  0.0000E+00  0.0000E+00  0.0000E+00
    -11.710  0.0000E+00  0.0000E+00  0.0000E+00
    -11.620  0.0000E+00  0.0000E+00  0.0000E+00
    -11.530  0.0000E+00  0.0000E+00  0.0000E+00
    -11.440  0.0000E+00  0.0000E+00  0.0000E+00
    -11.350  0.0000E+00  0.0000E+00  0.0000E+00
    -11.260  0.0000E+00  0.0000E+00  0.0000E+00
    -11.170  0.0000E+00  0.0000E+00  0.0000E+00
    -11.080  0.0000E+00  0.0000E+00  0.0000E+00
    -10.990  0.0000E+00  0.0000E+00  0.0000E+00
    -10.900  0.0000E+00  0.0000E+00  0.0000E+00
    -10.810  0.0000E+00  0.0000E+00  0.0000E+00
    -10.720  0.0000E+00  0.0000E+00  0.0000E+00
    -10.630  0.0000E+00  0.0000E+00  0.0000E+00
    -10.540  0.0000E+00  0.0000E+00  0.0000E+00
    -10.450  0.0000E+00  0.0000E+00  0.0000E+00
    -10.360  0.0000E+00  0.0000E+00  0.0000E+00
    -10.270  0.0000E+00  0.0000E+00  0.0000E+00
    -10.180  0.0000E+00  0.0000E+00  0.0000E+00
    -10.090  0.0000E+00  0.0000E+00  0.0000E+00
    -10.000  0.4247E-18  0.6286E-19  0.1084E-21
     -9.910  0.6014E-16  0.8900E-17  0.1535E-19
     -9.819  0.6212E-14  0.9194E-15  0.1586E-17
     -9.729  0.4303E-12  0.6368E-13  0.1098E-15
     -9.639  0.2001E-10  0.2961E-11  0.5107E-14
     -9.549  0.6251E-09  0.9251E-10  0.1595E-12
     -9.459  0.1313E-07  0.1943E-08  0.3351E-11
     -9.369  0.1856E-06  0.2747E-07  0.4737E-10
     -9.279  0.1767E-05  0.2615E-06  0.4511E-09
     -9.189  0.1134E-04  0.1679E-05  0.2895E-08
     -9.099  0.4913E-04  0.7271E-05  0.1254E-07
     -9.009  0.1440E-03  0.2130E-04  0.3671E-07
     -8.919  0.2897E-03  0.4275E-04  0.7345E-07
     -8.829  0.4451E-03  0.6450E-04  0.1084E-06
     -8.739  0.8228E-03  0.1120E-03  0.1724E-06
     -8.649  0.2546E-02  0.3292E-03  0.4675E-06
     -8.559  0.7743E-02  0.9899E-03  0.1379E-05
     -8.469  0.1696E-01  0.2165E-02  0.3008E-05
     -8.379  0.2530E-01  0.3230E-02  0.4486E-05
     -8.289  0.2555E-01  0.3260E-02  0.4528E-05
     -8.199  0.1743E-01  0.2224E-02  0.3089E-05
     -8.109  0.8035E-02  0.1025E-02  0.1424E-05
     -8.019  0.2501E-02  0.3192E-03  0.4434E-06
     -7.929  0.5256E-03  0.6708E-04  0.9326E-07
     -7.839  0.7458E-04  0.9512E-05  0.1557E-07
     -7.749  0.8535E-05  0.9764E-06  0.4406E-07
     -7.659  0.1784E-04  0.8909E-06  0.5278E-06
     -7.568  0.1456E-03  0.6943E-05  0.4473E-05
     -7.478  0.8442E-03  0.3992E-04  0.2652E-04
     -7.388  0.3468E-02  0.1616E-03  0.1131E-03
     -7.298  0.1040E-01  0.4746E-03  0.3592E-03
     -7.208  0.2352E-01  0.1049E-02  0.8744E-03
     -7.118  0.4066E-01  0.1815E-02  0.1660E-02
     -7.028  0.5338E-01  0.2600E-02  0.2517E-02
     -6.938  0.5312E-01  0.3567E-02  0.3320E-02
     -6.848  0.4474E-01  0.5823E-02  0.4436E-02
     -6.758  0.4581E-01  0.1088E-01  0.6341E-02
     -6.668  0.6373E-01  0.1818E-01  0.8638E-02
     -6.578  0.8079E-01  0.2330E-01  0.9983E-02
     -6.488  0.7464E-01  0.2182E-01  0.9430E-02
     -6.398  0.4856E-01  0.1538E-01  0.7738E-02
     -6.308  0.2573E-01  0.1084E-01  0.7045E-02
     -6.218  0.2178E-01  0.1366E-01  0.9482E-02
     -6.128  0.3593E-01  0.2321E-01  0.1529E-01
     -6.038  0.5613E-01  0.3208E-01  0.2116E-01
     -5.948  0.6853E-01  0.3295E-01  0.2275E-01
     -5.858  0.7109E-01  0.2718E-01  0.1979E-01
     -5.768  0.7218E-01  0.2131E-01  0.1531E-01
     -5.678  0.7203E-01  0.1732E-01  0.1105E-01
     -5.588  0.6214E-01  0.1305E-01  0.7403E-02
     -5.498  0.4772E-01  0.8569E-02  0.6504E-02
     -5.407  0.5571E-01  0.7342E-02  0.1324E-01
     -5.317  0.1123E+00  0.1285E-01  0.3189E-01
     -5.227  0.2024E+00  0.2582E-01  0.5717E-01
     -5.137  0.2571E+00  0.4304E-01  0.7215E-01
     -5.047  0.2234E+00  0.5727E-01  0.6563E-01
     -4.957  0.1339E+00  0.5932E-01  0.4615E-01
     -4.867  0.5871E-01  0.4632E-01  0.3066E-01
     -4.777  0.2517E-01  0.2765E-01  0.3055E-01
     -4.687  0.1782E-01  0.1572E-01  0.5077E-01
     -4.597  0.1717E-01  0.1389E-01  0.8735E-01
     -4.507  0.1635E-01  0.1706E-01  0.1210E+00
     -4.417  0.2014E-01  0.1968E-01  0.1343E+00
     -4.327  0.4000E-01  0.2234E-01  0.1462E+00
     -4.237  0.8381E-01  0.3034E-01  0.2012E+00
     -4.147  0.1435E+00  0.4690E-01  0.3142E+00
     -4.057  0.1989E+00  0.7278E-01  0.4677E+00
     -3.967  0.2357E+00  0.1059E+00  0.6539E+00
     -3.877  0.2484E+00  0.1335E+00  0.8412E+00
     -3.787  0.2323E+00  0.1367E+00  0.9204E+00
     -3.697  0.1895E+00  0.1122E+00  0.8076E+00
     -3.607  0.1336E+00  0.7664E-01  0.5872E+00
     -3.517  0.8371E-01  0.5028E-01  0.4466E+00
     -3.427  0.5296E-01  0.4154E-01  0.4873E+00
     -3.337  0.4006E-01  0.4512E-01  0.6463E+00
     -3.247  0.3409E-01  0.4940E-01  0.7758E+00
     -3.156  0.2810E-01  0.4830E-01  0.7955E+00
     -3.066  0.2200E-01  0.4695E-01  0.7667E+00
     -2.976  0.1723E-01  0.5392E-01  0.8104E+00
     -2.886  0.1441E-01  0.6830E-01  0.9622E+00
     -2.796  0.1345E-01  0.7926E-01  0.1129E+01
     -2.706  0.1415E-01  0.7958E-01  0.1197E+01
     -2.616  0.1710E-01  0.7301E-01  0.1163E+01
     -2.526  0.2210E-01  0.6636E-01  0.1131E+01
     -2.436  0.2627E-01  0.6211E-01  0.1153E+01
     -2.346  0.2763E-01  0.6323E-01  0.1177E+01
     -2.256  0.2908E-01  0.8007E-01  0.1186E+01
     -2.166  0.3616E-01  0.1219E+00  0.1296E+01
     -2.076  0.5336E-01  0.1773E+00  0.1620E+01
     -1.986  0.8055E-01  0.2126E+00  0.2106E+01
     -1.896  0.1079E+00  0.2053E+00  0.2601E+01
     -1.806  0.1199E+00  0.1676E+00  0.3026E+01
     -1.716  0.1111E+00  0.1262E+00  0.3322E+01
     -1.626  0.8907E-01  0.9327E-01  0.3367E+01
     -1.536  0.6341E-01  0.6864E-01  0.3086E+01
     -1.446  0.4027E-01  0.5119E-01  0.2571E+01
     -1.356  0.2437E-01  0.3977E-01  0.2033E+01
     -1.266  0.1739E-01  0.3203E-01  0.1682E+01
     -1.176  0.1675E-01  0.2647E-01  0.1579E+01
     -1.086  0.1797E-01  0.2311E-01  0.1640E+01
     -0.995  0.1766E-01  0.2244E-01  0.1787E+01
     -0.905  0.1578E-01  0.2472E-01  0.2020E+01
     -0.815  0.1471E-01  0.2951E-01  0.2365E+01
     -0.725  0.1581E-01  0.3640E-01  0.2804E+01
     -0.635  0.1863E-01  0.4648E-01  0.3243E+01
     -0.545  0.2238E-01  0.6151E-01  0.3507E+01
     -0.455  0.2572E-01  0.8059E-01  0.3456E+01
     -0.365  0.2601E-01  0.9845E-01  0.3105E+01
     -0.275  0.2199E-01  0.1075E+00  0.2634E+01
     -0.185  0.1630E-01  0.1032E+00  0.2284E+01
     -0.095  0.1252E-01  0.8887E-01  0.2176E+01
     -0.005  0.1157E-01  0.7298E-01  0.2242E+01
      0.085  0.1256E-01  0.6133E-01  0.2338E+01
      0.175  0.1518E-01  0.5399E-01  0.2300E+01
      0.265  0.1996E-01  0.4863E-01  0.1994E+01
      0.355  0.2555E-01  0.4276E-01  0.1470E+01
      0.445  0.2709E-01  0.3397E-01  0.9259E+00
      0.535  0.2133E-01  0.2219E-01  0.4986E+00
      0.625  0.1186E-01  0.1101E-01  0.2201E+00
      0.715  0.4558E-02  0.3946E-02  0.7463E-01
      0.805  0.1199E-02  0.9925E-03  0.1840E-01
      0.895  0.2147E-03  0.1726E-03  0.3193E-02
      0.985  0.2613E-04  0.2056E-04  0.3829E-03
      1.075  0.2155E-05  0.1671E-05  0.3142E-04
      1.165  0.1203E-06  0.9225E-07  0.1755E-05
      1.256  0.4541E-08  0.3452E-08  0.6644E-07
      1.346  0.1157E-09  0.8735E-10  0.1701E-08
      1.436  0.1987E-11  0.1493E-11  0.2939E-10
      1.526  0.2299E-13  0.1719E-13  0.3421E-12
      1.616  0.1797E-15  0.1332E-15  0.2671E-14
      1.706  0.0000E+00  0.0000E+00  0.0000E+00
      1.796  0.0000E+00  0.0000E+00  0.0000E+00
      1.886  0.0000E+00  0.0000E+00  0.0000E+00
      1.976  0.0000E+00  0.0000E+00  0.0000E+00
      2.066  0.0000E+00  0.0000E+00  0.0000E+00
      2.156  0.0000E+00  0.0000E+00  0.0000E+00
      2.246  0.0000E+00  0.0000E+00  0.0000E+00
      2.336  0.0000E+00  0.0000E+00  0.0000E+00
      2.426  0.0000E+00  0.0000E+00  0.0000E+00
      2.42607110    -24.58621468  301     -0.43682802      1.00000000
    -24.586  0.0000E+00  0.0000E+00  0.0000E+00
    -24.496  0.0000E+00  0.0000E+00  0.0000E+00
    -24.406  0.0000E+00  0.0000E+00  0.0000E+00
    -24.316  0.0000E+00  0.0000E+00  0.0000E+00
    -24.226  0.0000E+00  0.0000E+00  0.0000E+00
    -24.136  0.0000E+00  0.0000E+00  0.0000E+00
    -24.046  0.0000E+00  0.0000E+00  0.0000E+00
    -23.956  0.0000E+00  0.0000E+00  0.0000E+00
    -23.866  0.0000E+00  0.0000E+00  0.0000E+00
    -23.776  0.0000E+00  0.0000E+00  0.0000E+00
    -23.686  0.4845E-20  0.1438E-20  0.1019E-20
    -23.596  0.6003E-18  0.1781E-18  0.1262E-18
    -23.506  0.5029E-16  0.1493E-16  0.1058E-16
    -23.416  0.2828E-14  0.8392E-15  0.5947E-15
    -23.326  0.1068E-12  0.3169E-13  0.2245E-13
    -23.236  0.2710E-11  0.8042E-12  0.5699E-12
    -23.146  0.4626E-10  0.1373E-10  0.9729E-11
    -23.056  0.5318E-09  0.1578E-09  0.1118E-09
    -22.965  0.4119E-08  0.1222E-08  0.8662E-09
    -22.875  0.2151E-07  0.6384E-08  0.4524E-08
    -22.785  0.7583E-07  0.2251E-07  0.1595E-07
    -22.695  0.1805E-06  0.5357E-07  0.3796E-07
    -22.605  0.2903E-06  0.8614E-07  0.6104E-07
    -22.515  0.3154E-06  0.9361E-07  0.6634E-07
    -22.425  0.2316E-06  0.6874E-07  0.4871E-07
    -22.335  0.1149E-06  0.3411E-07  0.2417E-07
    -22.245  0.3852E-07  0.1143E-07  0.8100E-08
    -22.155  0.8714E-08  0.2586E-08  0.1833E-08
    -22.065  0.1330E-08  0.3947E-09  0.2797E-09
    -21.975  0.1368E-09  0.4060E-10  0.2877E-10
    -21.885  0.9478E-11  0.2813E-11  0.1993E-11
    -21.795  0.4419E-12  0.1311E-12  0.9293E-13
    -21.705  0.1385E-13  0.4111E-14  0.2913E-14
    -21.615  0.2918E-15  0.8658E-16  0.6135E-16
    -21.525  0.4125E-17  0.1224E-17  0.8674E-18
    -21.435  0.3905E-19  0.1159E-19  0.8211E-20
    -21.345  0.2850E-21  0.8458E-22  0.5994E-22
    -21.255  0.0000E+00  0.0000E+00  0.0000E+00
    -21.165  0.0000E+00  0.0000E+00  0.0000E+00
    -21.075  0.0000E+00  0.0000E+00  0.0000E+00
    -20.985  0.0000E+00  0.0000E+00  0.0000E+00
    -20.895  0.0000E+00  0.0000E+00  0.0000E+00
    -20.804  0.2126E-17  0.2130E-17  0.1440E-17
    -20.714  0.2779E-15  0.2784E-15  0.1882E-15
    -20.624  0.2436E-13  0.2441E-13  0.1650E-13
    -20.534  0.1434E-11  0.1436E-11  0.9711E-12
    -20.444  0.5668E-10  0.5679E-10  0.3839E-10
    -20.354  0.1507E-08  0.1510E-08  0.1021E-08
    -20.264  0.2698E-07  0.2704E-07  0.1828E-07
    -20.174  0.3260E-06  0.3270E-06  0.2211E-06
    -20.084  0.2668E-05  0.2680E-05  0.1812E-05
    -19.994  0.1488E-04  0.1499E-04  0.1013E-04
    -19.904  0.5723E-04  0.5791E-04  0.3915E-04
    -19.814  0.1550E-03  0.1582E-03  0.1070E-03
    -19.724  0.3070E-03  0.3180E-03  0.2150E-03
    -19.634  0.4709E-03  0.4973E-03  0.3362E-03
    -19.544  0.5938E-03  0.6397E-03  0.4325E-03
    -19.454  0.6327E-03  0.6908E-03  0.4671E-03
    -19.364  0.5555E-03  0.6096E-03  0.4123E-03
    -19.274  0.3811E-03  0.4183E-03  0.2830E-03
    -19.184  0.1942E-03  0.2128E-03  0.1440E-03
    -19.094  0.7084E-04  0.7754E-04  0.5246E-04
    -19.004  0.1806E-04  0.1975E-04  0.1337E-04
    -18.914  0.3171E-05  0.3465E-05  0.2345E-05
    -18.824  0.3798E-06  0.4148E-06  0.2807E-06
    -18.734  0.3084E-07  0.3368E-07  0.2279E-07
    -18.644  0.1702E-08  0.1931E-08  0.1305E-08
    -18.553  0.1983E-09  0.1185E-08  0.7741E-09
    -18.463  0.1222E-08  0.1004E-07  0.6545E-08
    -18.373  0.7394E-08  0.6085E-07  0.3966E-07
    -18.283  0.3024E-07  0.2488E-06  0.1622E-06
    -18.193  0.8347E-07  0.6869E-06  0.4477E-06
    -18.103  0.1556E-06  0.1281E-05  0.8348E-06
    -18.013  0.1961E-06  0.1614E-05  0.1052E-05
    -17.923  0.1670E-06  0.1374E-05  0.8956E-06
    -17.833  0.9608E-07  0.7907E-06  0.5153E-06
    -17.743  0.3735E-07  0.3073E-06  0.2003E-06
    -17.653  0.9801E-08  0.8066E-07  0.5257E-07
    -17.563  0.1736E-08  0.1428E-07  0.9309E-08
    -17.473  0.2073E-09  0.1706E-08  0.1112E-08
    -17.383  0.1667E-10  0.1372E-09  0.8942E-10
    -17.293  0.9029E-12  0.7430E-11  0.4842E-11
    -17.203  0.3288E-13  0.2706E-12  0.1764E-12
    -17.113  0.8049E-15  0.6623E-14  0.4317E-14
    -17.023  0.1323E-16  0.1089E-15  0.7095E-16
    -16.933  0.1460E-18  0.1201E-17  0.7829E-18
    -16.843  0.1048E-20  0.8622E-20  0.5619E-20
    -16.753  0.0000E+00  0.0000E+00  0.0000E+00
    -16.663  0.0000E+00  0.0000E+00  0.0000E+00
    -16.573  0.0000E+00  0.0000E+00  0.0000E+00