       N       E                     dE             d eps       ncg     rms          rms(c)
DAV:   1     0.556931418931E+04    0.55693E+04   -0.28721E+05   696   0.197E+03
DAV:   2     0.219843415185E+03   -0.53495E+04   -0.52342E+04   696   0.440E+02
DAV:   3    -0.351152811322E+03   -0.57100E+03   -0.51027E+03   729   0.185E+02
DAV:   4    -0.471377177723E+03   -0.12022E+03   -0.11106E+03  1374   0.547E+01
DAV:   5    -0.491436653533E+03   -0.20059E+02   -0.18932E+02  1221   0.220E+01    0.313E+01
RMM:   6    -0.781322115242E+03   -0.28989E+03   -0.39992E+02   888   0.452E+01    0.163E+02
RMM:   7    -0.544597059239E+03    0.23673E+03   -0.17358E+02   699   0.415E+01    0.933E+01
RMM:   8    -0.500983112791E+03    0.43614E+02   -0.72062E+01   709   0.233E+01    0.479E+01
RMM:   9    -0.492374375466E+03    0.86087E+01   -0.30085E+01   791   0.117E+01    0.257E+01
RMM:  10    -0.497439823507E+03   -0.50654E+01   -0.21255E+01   751   0.107E+01    0.421E+01
RMM:  11    -0.496004750053E+03    0.14351E+01   -0.14411E+01   738   0.981E+00    0.388E+01
RMM:  12    -0.494137032732E+03    0.18677E+01   -0.11776E+01   708   0.984E+00    0.313E+01
RMM:  13    -0.496008233792E+03   -0.18712E+01   -0.13574E+01   709   0.100E+01    0.355E+01
RMM:  14    -0.492755761137E+03    0.32525E+01   -0.69391E+00   715   0.800E+00    0.246E+01
RMM:  15    -0.490964565911E+03    0.17912E+01   -0.32416E+00   725   0.521E+00    0.137E+01
RMM:  16    -0.490689562822E+03    0.27500E+00   -0.14774E+00   748   0.302E+00    0.103E+01
RMM:  17    -0.490676541713E+03    0.13021E-01   -0.11241E+00   771   0.245E+00    0.971E+00
RMM:  18    -0.490662918157E+03    0.13624E-01   -0.91293E-01   752   0.251E+00    0.936E+00
RMM:  19    -0.490717631968E+03   -0.54714E-01   -0.90547E-01   751   0.246E+00    0.966E+00
RMM:  20    -0.490717340540E+03    0.29143E-03   -0.80377E-01   732   0.243E+00    0.961E+00
RMM:  21    -0.490594646487E+03    0.12269E+00   -0.50905E-01   731   0.202E+00    0.836E+00
RMM:  22    -0.490476840225E+03    0.11781E+00   -0.25706E-01   782   0.114E+00    0.554E+00
RMM:  23    -0.490448985968E+03    0.27854E-01   -0.14376E-01   810   0.790E-01    0.488E+00
RMM:  24    -0.490406219236E+03    0.42767E-01   -0.67777E-02   792   0.583E-01    0.329E+00
RMM:  25    -0.490394756058E+03    0.11463E-01   -0.43108E-02   821   0.414E-01    0.262E+00
RMM:  26    -0.490401115973E+03   -0.63599E-02   -0.61553E-02   768   0.601E-01    0.271E+00
RMM:  27    -0.490397891630E+03    0.32243E-02   -0.58867E-02   738   0.650E-01    0.259E+00
RMM:  28    -0.490383513652E+03    0.14378E-01   -0.35925E-02   753   0.500E-01    0.170E+00
RMM:  29    -0.490379117475E+03    0.43962E-02   -0.20396E-02   774   0.336E-01    0.118E+00
RMM:  30    -0.490382360490E+03   -0.32430E-02   -0.21154E-02   827   0.298E-01    0.143E+00
RMM:  31    -0.490377089653E+03    0.52708E-02   -0.93863E-03   755   0.246E-01    0.715E-01
RMM:  32    -0.490376140757E+03    0.94890E-03   -0.67789E-03   848   0.156E-01    0.505E-01
RMM:  33    -0.490376106654E+03    0.34103E-04   -0.36622E-03   829   0.121E-01    0.441E-01
RMM:  34    -0.490375979008E+03    0.12765E-03   -0.25847E-03   811   0.108E-01    0.370E-01
RMM:  35    -0.490375604202E+03    0.37481E-03   -0.14201E-03   792   0.837E-02    0.166E-01
RMM:  36    -0.490375771585E+03   -0.16738E-03   -0.10501E-03   833   0.636E-02    0.227E-01
RMM:  37    -0.490375768095E+03    0.34900E-05   -0.59183E-04   769   0.580E-02    0.177E-01
RMM:  38    -0.490375723519E+03    0.44576E-04   -0.35115E-04   773   0.450E-02    0.130E-01
RMM:  39    -0.490375745167E+03   -0.21648E-04   -0.23020E-04   823   0.284E-02    0.124E-01
RMM:  40    -0.490375799609E+03   -0.54442E-04   -0.18567E-04   768   0.310E-02    0.128E-01
RMM:  41    -0.490375779001E+03    0.20608E-04   -0.11526E-04   758   0.263E-02    0.633E-02
RMM:  42    -0.490375799159E+03   -0.20157E-04   -0.88432E-05   804   0.184E-02    0.528E-02
RMM:  43    -0.490375835573E+03   -0.36415E-04   -0.70567E-05   797   0.167E-02    0.647E-02
RMM:  44    -0.490375841137E+03   -0.55634E-05   -0.38982E-05   761   0.131E-02    0.253E-02
RMM:  45    -0.490375854762E+03   -0.13625E-04   -0.29114E-05   814   0.767E-03    0.328E-02
RMM:  46    -0.490375893571E+03   -0.38809E-04   -0.19367E-05   708   0.767E-03    0.256E-02
RMM:  47    -0.490375908944E+03   -0.15373E-04   -0.12755E-05   564   0.632E-03    0.153E-02
RMM:  48    -0.490375920887E+03   -0.11943E-04   -0.94518E-06   486   0.475E-03    0.123E-02
RMM:  49    -0.490375955792E+03   -0.34904E-04   -0.10298E-05   555   0.538E-03    0.204E-02
RMM:  50    -0.490375974440E+03   -0.18648E-04   -0.73921E-06   462   0.488E-03    0.833E-03
RMM:  51    -0.490375983140E+03   -0.86999E-05   -0.58957E-06   434   0.346E-03    0.110E-02
RMM:  52    -0.490376009877E+03   -0.26737E-04   -0.61860E-06   460   0.421E-03    0.111E-02
RMM:  53    -0.490376029619E+03   -0.19743E-04   -0.53403E-06   446   0.376E-03    0.734E-03
RMM:  54    -0.490376038144E+03   -0.85253E-05   -0.40155E-06   421   0.273E-03    0.566E-03
RMM:  55    -0.490376060183E+03   -0.22038E-04   -0.46634E-06   453   0.287E-03    0.950E-03
RMM:  56    -0.490376071446E+03   -0.11263E-04   -0.37866E-06   425   0.324E-03    0.668E-03
RMM:  57    -0.490376076713E+03   -0.52670E-05   -0.28535E-06   413   0.215E-03    0.375E-03
RMM:  58    -0.490376085812E+03   -0.90988E-05   -0.27685E-06   410   0.197E-03    0.610E-03
RMM:  59    -0.490376092909E+03   -0.70976E-05   -0.24793E-06   407   0.221E-03    0.290E-03
RMM:  60    -0.490376095465E+03   -0.25561E-05   -0.19242E-06   395   0.140E-03    0.235E-03
RMM:  61    -0.490376098106E+03   -0.26404E-05   -0.16765E-06   390   0.133E-03    0.351E-03
RMM:  62    -0.490376099938E+03   -0.18319E-05   -0.14590E-06   388   0.123E-03    0.176E-03
RMM:  63    -0.490376102492E+03   -0.25546E-05   -0.13033E-06   339   0.779E-04    0.218E-03
RMM:  64    -0.490376104848E+03   -0.23557E-05   -0.11660E-06   341   0.913E-04    0.114E-03
RMM:  65    -0.490376106060E+03   -0.12125E-05   -0.10050E-06   299   0.681E-04    0.124E-03
RMM:  66    -0.490376106714E+03   -0.65324E-06   -0.87754E-07   301   0.641E-04
   1 F= -.50529553E+03 E0= -.50363660E+03  d E =-.331785E+01
       N       E                     dE             d eps       ncg     rms          rms(c)
DAV:   1    -0.490370588974E+03    0.55171E-02   -0.12486E+00   735   0.147E+00    0.223E-01
RMM:   2    -0.490374082284E+03   -0.34933E-02   -0.33006E-02   736   0.326E-01    0.384E-01
RMM:   3    -0.490374300506E+03   -0.21822E-03   -0.50773E-03   720   0.170E-01    0.511E-01
RMM:   4    -0.490375633375E+03   -0.13329E-02   -0.34834E-03   737   0.146E-01    0.860E-01
RMM:   5    -0.490374516357E+03    0.11170E-02   -0.23963E-03   702   0.139E-01    0.557E-01
RMM:   6    -0.490374062415E+03    0.45394E-03   -0.10678E-03   708   0.935E-02    0.433E-01
RMM:   7    -0.490373856086E+03    0.20633E-03   -0.78678E-04   785   0.608E-02    0.336E-01
RMM:   8    -0.490374405846E+03   -0.54976E-03   -0.14077E-03   704   0.971E-02    0.503E-01
RMM:   9    -0.490374075248E+03    0.33060E-03   -0.10820E-03   703   0.946E-02    0.405E-01
RMM:  10    -0.490373641943E+03    0.43331E-03   -0.53283E-04   701   0.704E-02    0.194E-01
RMM:  11    -0.490373586936E+03    0.55007E-04   -0.26860E-04   708   0.440E-02    0.145E-01
RMM:  12    -0.490373601972E+03   -0.15036E-04   -0.20723E-04   719   0.370E-02    0.159E-01
RMM:  13    -0.490373533989E+03    0.67983E-04   -0.96179E-05   710   0.279E-02    0.842E-02
RMM:  14    -0.490373522439E+03    0.11550E-04   -0.53424E-05   754   0.180E-02    0.569E-02
RMM:  15    -0.490373527732E+03   -0.52931E-05   -0.46993E-05   755   0.162E-02    0.625E-02
RMM:  16    -0.490373522577E+03    0.51547E-05   -0.26253E-05   721   0.136E-02    0.498E-02
RMM:  17    -0.490373515165E+03    0.74123E-05   -0.13501E-05   725   0.949E-03    0.214E-02
RMM:  18    -0.490373514567E+03    0.59748E-06   -0.67885E-06   615   0.506E-03
   2 F= -.50529286E+03 E0= -.50363370E+03  d E =-.331831E+01
       N       E                     dE             d eps       ncg     rms          rms(c)
DAV:   1    -0.490365027587E+03    0.84876E-02   -0.49786E+00   702   0.292E+00    0.460E-01
RMM:   2    -0.490379470816E+03   -0.14443E-01   -0.13729E-01   730   0.665E-01    0.813E-01
RMM:   3    -0.490381187988E+03   -0.17172E-02   -0.23033E-02   718   0.368E-01    0.117E+00
RMM:   4    -0.490387202552E+03   -0.60146E-02   -0.13926E-02   728   0.298E-01    0.182E+00
RMM:   5    -0.490386378656E+03    0.82390E-03   -0.89111E-03   718   0.252E-01    0.176E+00
RMM:   6    -0.490378893886E+03    0.74848E-02   -0.54453E-03   706   0.205E-01    0.850E-01
RMM:   7    -0.490377649081E+03    0.12448E-02   -0.38699E-03   718   0.165E-01    0.560E-01
RMM:   8    -0.490380035338E+03   -0.23863E-02   -0.55210E-03   716   0.185E-01    0.978E-01
RMM:   9    -0.490378859716E+03    0.11756E-02   -0.38816E-03   701   0.179E-01    0.764E-01
RMM:  10    -0.490377232503E+03    0.16272E-02   -0.21557E-03   699   0.144E-01    0.375E-01
RMM:  11    -0.490377303272E+03   -0.70769E-04   -0.13726E-03   710   0.964E-02    0.407E-01
RMM:  12    -0.490377394864E+03   -0.91592E-04   -0.13284E-03   708   0.982E-02    0.405E-01
RMM:  13    -0.490376957678E+03    0.43719E-03   -0.67235E-04   701   0.776E-02    0.256E-01
RMM:  14    -0.490376771031E+03    0.18665E-03   -0.27180E-04   735   0.436E-02    0.906E-02
RMM:  15    -0.490376781851E+03   -0.10821E-04   -0.17341E-04   798   0.279E-02    0.102E-01
RMM:  16    -0.490376790998E+03   -0.91472E-05   -0.10303E-04   766   0.230E-02    0.111E-01
RMM:  17    -0.490376762357E+03    0.28642E-04   -0.52552E-05   728   0.193E-02    0.545E-02
RMM:  18    -0.490376754603E+03    0.77542E-05   -0.29531E-05   818   0.112E-02    0.227E-02
RMM:  19    -0.490376757653E+03   -0.30507E-05   -0.18526E-05   795   0.770E-03    0.325E-02
RMM:  20    -0.490376758556E+03   -0.90250E-06   -0.98134E-06   672   0.759E-03
   3 F= -.50529627E+03 E0= -.50363756E+03  d E =-.331742E+01
       N       E                     dE             d eps       ncg     rms          rms(c)
DAV:   1    -0.490377126214E+03   -0.36856E-03   -0.24975E+00   708   0.210E+00    0.293E-01
RMM:   2    -0.490383549284E+03   -0.64231E-02   -0.60132E-02   852   0.443E-01    0.533E-01
RMM:   3    -0.490385085656E+03   -0.15364E-02   -0.97626E-03   746   0.222E-01    0.896E-01
RMM:   4    -0.490387230595E+03   -0.21449E-02   -0.59503E-03   737   0.187E-01    0.120E+00
RMM:   5    -0.490386264414E+03    0.96618E-03   -0.33621E-03   712   0.160E-01    0.104E+00
RMM:   6    -0.490383828259E+03    0.24362E-02   -0.25381E-03   705   0.137E-01    0.565E-01
RMM:   7    -0.490383411342E+03    0.41692E-03   -0.19593E-03   706   0.118E-01    0.438E-01
RMM:   8    -0.490384250416E+03   -0.83907E-03   -0.24747E-03   716   0.130E-01    0.624E-01
RMM:   9    -0.490383625025E+03    0.62539E-03   -0.17342E-03   707   0.121E-01    0.461E-01
RMM:  10    -0.490383020522E+03    0.60450E-03   -0.90175E-04   702   0.931E-02    0.227E-01
RMM:  11    -0.490383239793E+03   -0.21927E-03   -0.80790E-04   706   0.735E-02    0.358E-01
RMM:  12    -0.490383100825E+03    0.13897E-03   -0.51598E-04   714   0.629E-02    0.268E-01
RMM:  13    -0.490382899585E+03    0.20124E-03   -0.25510E-04   708   0.474E-02    0.124E-01
RMM:  14    -0.490382857854E+03    0.41731E-04   -0.11599E-04   756   0.266E-02    0.611E-02
RMM:  15    -0.490382879388E+03   -0.21534E-04   -0.93988E-05   791   0.205E-02    0.989E-02
RMM:  16    -0.490382856782E+03    0.22605E-04   -0.39526E-05   727   0.164E-02    0.530E-02
RMM:  17    -0.490382849278E+03    0.75043E-05   -0.22021E-05   780   0.103E-02    0.227E-02
RMM:  18    -0.490382849149E+03    0.12872E-06   -0.10866E-05   666   0.561E-03    0.178E-02
RMM:  19    -0.490382850099E+03   -0.94984E-06   -0.59655E-06   581   0.558E-03
   4 F= -.50530233E+03 E0= -.50364392E+03  d E =-.331683E+01
       N       E                     dE             d eps       ncg     rms          rms(c)
DAV:   1    -0.490355833273E+03    0.27016E-01   -0.50042E+00   696   0.294E+00    0.429E-01
RMM:   2    -0.490371138788E+03   -0.15306E-01   -0.12584E-01   789   0.672E-01    0.104E+00
RMM:   3    -0.490371506976E+03   -0.36819E-03   -0.18144E-02   734   0.316E-01    0.123E+00
RMM:   4    -0.490376057837E+03   -0.45509E-02   -0.11566E-02   780   0.242E-01    0.167E+00
RMM:   5    -0.490376581195E+03   -0.52336E-03   -0.84346E-03   717   0.238E-01    0.166E+00
RMM:   6    -0.490370276557E+03    0.63046E-02   -0.66119E-03   701   0.229E-01    0.927E-01
RMM:   7    -0.490368252861E+03    0.20237E-02   -0.35122E-03   704   0.166E-01    0.465E-01
RMM:   8    -0.490371015997E+03   -0.27631E-02   -0.56990E-03   712   0.195E-01    0.974E-01
RMM:   9    -0.490370189642E+03    0.82636E-03   -0.46147E-03   701   0.196E-01    0.833E-01
RMM:  10    -0.490368600400E+03    0.15892E-02   -0.25338E-03   700   0.153E-01    0.542E-01
RMM:  11    -0.490367854508E+03    0.74589E-03   -0.12692E-03   707   0.985E-02    0.238E-01
RMM:  12    -0.490368112859E+03   -0.25835E-03   -0.10395E-03   723   0.834E-02    0.353E-01
RMM:  13    -0.490367897996E+03    0.21486E-03   -0.49046E-04   707   0.626E-02    0.274E-01
RMM:  14    -0.490367687393E+03    0.21060E-03   -0.22337E-04   722   0.420E-02    0.878E-02
RMM:  15    -0.490367680000E+03    0.73936E-05   -0.15164E-04   865   0.217E-02    0.612E-02
RMM:  16    -0.490367683706E+03   -0.37060E-05   -0.71280E-05   804   0.172E-02    0.649E-02
RMM:  17    -0.490367677021E+03    0.66842E-05   -0.36104E-05   790   0.137E-02    0.492E-02
RMM:  18    -0.490367670557E+03    0.64641E-05   -0.19152E-05   774   0.970E-03    0.214E-02
RMM:  19    -0.490367672930E+03   -0.23726E-05   -0.13909E-05   751   0.744E-03    0.287E-02
RMM:  20    -0.490367672287E+03    0.64322E-06   -0.78612E-06   641   0.712E-03
   5 F= -.50528704E+03 E0= -.50362761E+03  d E =-.331885E+01
       N       E                     dE             d eps       ncg     rms          rms(c)
DAV:   1    -0.490364548834E+03    0.31241E-02   -0.24478E+00   708   0.200E+00    0.358E-01
RMM:   2    -0.490376247787E+03   -0.11699E-01   -0.75172E-02   713   0.531E-01    0.126E+00
RMM:   3    -0.490375996266E+03    0.25152E-03   -0.13279E-02   720   0.254E-01    0.142E+00
RMM:   4    -0.490371907533E+03    0.40887E-02   -0.56107E-03   734   0.180E-01    0.714E-01
RMM:   5    -0.490375237264E+03   -0.33297E-02   -0.70853E-03   708   0.219E-01    0.126E+00
RMM:   6    -0.490371568448E+03    0.36688E-02   -0.36657E-03   702   0.185E-01    0.647E-01
RMM:   7    -0.490370926898E+03    0.64155E-03   -0.22834E-03   709   0.135E-01    0.467E-01
RMM:   8    -0.490372640773E+03   -0.17139E-02   -0.40444E-03   702   0.166E-01    0.801E-01
RMM:   9    -0.490372478608E+03    0.16217E-03   -0.34808E-03   704   0.168E-01    0.731E-01
RMM:  10    -0.490370866311E+03    0.16123E-02   -0.19830E-03   702   0.139E-01    0.371E-01
RMM:  11    -0.490370608499E+03    0.25781E-03   -0.76124E-04   709   0.762E-02    0.260E-01
RMM:  12    -0.490370867221E+03   -0.25872E-03   -0.79632E-04   723   0.709E-02    0.379E-01
RMM:  13    -0.490370521268E+03    0.34595E-03   -0.41899E-04   705   0.601E-02    0.179E-01
RMM:  14    -0.490370435806E+03    0.85463E-04   -0.18348E-04   717   0.377E-02    0.108E-01
RMM:  15    -0.490370420297E+03    0.15508E-04   -0.10358E-04   753   0.241E-02    0.810E-02
RMM:  16    -0.490370423929E+03   -0.36321E-05   -0.68882E-05   750   0.202E-02    0.881E-02
RMM:  17    -0.490370402689E+03    0.21240E-04   -0.31614E-05   729   0.153E-02    0.418E-02
RMM:  18    -0.490370399856E+03    0.28333E-05   -0.18871E-05   777   0.936E-03    0.275E-02
RMM:  19    -0.490370404589E+03   -0.47329E-05   -0.17470E-05   741   0.973E-03    0.416E-02
RMM:  20    -0.490370403032E+03    0.15569E-05   -0.11665E-05   698   0.947E-03    0.328E-02
RMM:  21    -0.490370400626E+03    0.24062E-05   -0.70857E-06   640   0.736E-03    0.192E-02
RMM:  22    -0.490370401425E+03   -0.79958E-06   -0.44060E-06   512   0.589E-03
   6 F= -.50528938E+03 E0= -.50363055E+03  d E =-.331767E+01
       N       E                     dE             d eps       ncg     rms          rms(c)
DAV:   1    -0.490369558236E+03    0.84239E-03   -0.47900E+00   696   0.261E+00    0.572E-01
RMM:   2    -0.490392478569E+03   -0.22920E-01   -0.15652E-01   709   0.775E-01    0.181E+00
RMM:   3    -0.490394858053E+03   -0.23795E-02   -0.29688E-02   734   0.366E-01    0.226E+00
RMM:   4    -0.490385398305E+03    0.94597E-02   -0.14452E-02   719   0.308E-01    0.129E+00
RMM:   5    -0.490391402358E+03   -0.60041E-02   -0.18683E-02   706   0.368E-01    0.190E+00
RMM:   6    -0.490382886377E+03    0.85160E-02   -0.92064E-03   701   0.296E-01    0.967E-01
RMM:   7    -0.490381713693E+03    0.11727E-02   -0.56364E-03   713   0.208E-01    0.784E-01
RMM:   8    -0.490387941080E+03   -0.62274E-02   -0.12413E-02   709   0.290E-01    0.147E+00
RMM:   9    -0.490385214510E+03    0.27266E-02   -0.87104E-03   705   0.274E-01    0.116E+00
RMM:  10    -0.490381448539E+03    0.37660E-02   -0.46172E-03   702   0.207E-01    0.583E-01
RMM:  11    -0.490380675858E+03    0.77268E-03   -0.20435E-03   711   0.123E-01    0.364E-01
RMM:  12    -0.490381095702E+03   -0.41984E-03   -0.17730E-03   723   0.106E-01    0.499E-01
RMM:  13    -0.490380461389E+03    0.63431E-03   -0.97057E-04   709   0.882E-02    0.285E-01
RMM:  14    -0.490380213016E+03    0.24837E-03   -0.37675E-04   715   0.562E-02    0.130E-01
RMM:  15    -0.490380210460E+03    0.25556E-05   -0.20436E-04   777   0.320E-02    0.127E-01
RMM:  16    -0.490380239162E+03   -0.28702E-04   -0.16163E-04   741   0.310E-02    0.145E-01
RMM:  17    -0.490380198698E+03    0.40464E-04   -0.92869E-05   725   0.263E-02    0.913E-02
RMM:  18    -0.490380174997E+03    0.23701E-04   -0.43058E-05   742   0.176E-02    0.336E-02
RMM:  19    -0.490380186716E+03   -0.11719E-04   -0.42842E-05   777   0.148E-02    0.530E-02
RMM:  20    -0.490380198678E+03   -0.11962E-04   -0.34781E-05   722   0.151E-02    0.591E-02
RMM:  21    -0.490380193414E+03    0.52636E-05   -0.19124E-05   708   0.123E-02    0.302E-02
RMM:  22    -0.490380194538E+03   -0.11242E-05   -0.11065E-05   708   0.763E-03    0.216E-02
RMM:  23    -0.490380202849E+03   -0.83103E-05   -0.11561E-05   725   0.775E-03    0.334E-02
RMM:  24    -0.490380204879E+03   -0.20301E-05   -0.52499E-06   539   0.652E-03    0.148E-02
RMM:  25    -0.490380206089E+03   -0.12103E-05   -0.20673E-06   418   0.418E-03    0.900E-03
RMM:  26    -0.490380209710E+03   -0.36210E-05   -0.17328E-06   405   0.376E-03    0.118E-02
RMM:  27    -0.490380215366E+03   -0.56564E-05   -0.16028E-06   399   0.378E-03    0.110E-02
RMM:  28    -0.490380220227E+03   -0.48611E-05   -0.13041E-06   388   0.344E-03    0.683E-03
RMM:  29    -0.490380222405E+03   -0.21777E-05   -0.81330E-07   379   0.256E-03    0.556E-03
RMM:  30    -0.490380229669E+03   -0.72637E-05   -0.10549E-06   384   0.258E-03    0.861E-03
RMM:  31    -0.490380232766E+03   -0.30971E-05   -0.67189E-07   378   0.257E-03    0.307E-03
RMM:  32    -0.490380234454E+03   -0.16885E-05   -0.39997E-07   374   0.151E-03    0.327E-03
RMM:  33    -0.490380237730E+03   -0.32754E-05   -0.43417E-07   375   0.171E-03    0.425E-03
RMM:  34    -0.490380241413E+03   -0.36836E-05   -0.44870E-07   377   0.162E-03    0.259E-03
RMM:  35    -0.490380242468E+03   -0.10543E-05   -0.23475E-07   370   0.123E-03    0.181E-03
RMM:  36    -0.490380245507E+03   -0.30392E-05   -0.33717E-07   371   0.113E-03    0.274E-03
RMM:  37    -0.490380246928E+03   -0.14211E-05   -0.21239E-07   365   0.121E-03    0.150E-03
RMM:  38    -0.490380247613E+03   -0.68540E-06   -0.13327E-07   317   0.813E-04
   7 F= -.50530014E+03 E0= -.50364115E+03  d E =-.331796E+01
       N       E                     dE             d eps       ncg     rms          rms(c)
DAV:   1    -0.490368721470E+03    0.11525E-01   -0.23907E+00   696   0.208E+00    0.377E-01
RMM:   2    -0.490380507398E+03   -0.11786E-01   -0.73459E-02   813   0.447E-01    0.125E+00
RMM:   3    -0.490380138531E+03    0.36887E-03   -0.10161E-02   726   0.218E-01    0.139E+00
RMM:   4    -0.490376610928E+03    0.35276E-02   -0.64984E-03   717   0.202E-01    0.795E-01
RMM:   5    -0.490377816980E+03   -0.12061E-02   -0.67791E-03   707   0.222E-01    0.101E+00
RMM:   6    -0.490374871498E+03    0.29455E-02   -0.36218E-03   702   0.186E-01    0.386E-01
RMM:   7    -0.490377006583E+03   -0.21351E-02   -0.44338E-03   712   0.177E-01    0.923E-01
RMM:   8    -0.490379012244E+03   -0.20057E-02   -0.56632E-03   709   0.195E-01    0.121E+00
RMM:   9    -0.490375452511E+03    0.35597E-02   -0.31595E-03   702   0.175E-01    0.479E-01
RMM:  10    -0.490374955054E+03    0.49746E-03   -0.18609E-03   707   0.120E-01    0.336E-01
RMM:  11    -0.490375146096E+03   -0.19104E-03   -0.14354E-03   707   0.101E-01    0.391E-01
RMM:  12    -0.490375006128E+03    0.13997E-03   -0.88978E-04   702   0.852E-02    0.363E-01
RMM:  13    -0.490374595972E+03    0.41016E-03   -0.36153E-04   702   0.592E-02    0.126E-01
RMM:  14    -0.490374576881E+03    0.19092E-04   -0.17204E-04   745   0.326E-02    0.109E-01
RMM:  15    -0.490374605660E+03   -0.28780E-04   -0.12852E-04   741   0.271E-02    0.141E-01
RMM:  16    -0.490374573389E+03    0.32271E-04   -0.79563E-05   718   0.246E-02    0.924E-02
RMM:  17    -0.490374546573E+03    0.26816E-04   -0.39680E-05   722   0.182E-02    0.359E-02
RMM:  18    -0.490374553900E+03   -0.73268E-05   -0.32364E-05   755   0.130E-02    0.558E-02
RMM:  19    -0.490374551266E+03    0.26342E-05   -0.22547E-05   729   0.122E-02    0.469E-02
RMM:  20    -0.490374545069E+03    0.61963E-05   -0.12631E-05   711   0.101E-02    0.227E-02
RMM:  21    -0.490374545363E+03   -0.29380E-06   -0.96661E-06   707   0.738E-03
   8 F= -.50529399E+03 E0= -.50363530E+03  d E =-.331738E+01
       N       E                     dE             d eps       ncg     rms          rms(c)
DAV:   1    -0.490365082894E+03    0.94622E-02   -0.50521E+00   696   0.306E+00    0.559E-01
RMM:   2    -0.490375831187E+03   -0.10748E-01   -0.10575E-01   746   0.508E-01    0.114E+00
RMM:   3    -0.490389276021E+03   -0.13445E-01   -0.19098E-02   723   0.339E-01    0.250E+00
RMM:   4    -0.490392067950E+03   -0.27919E-02   -0.23612E-02   732   0.374E-01    0.260E+00
RMM:   5    -0.490378367384E+03    0.13701E-01   -0.17133E-02   700   0.386E-01    0.143E+00
RMM:   6    -0.490373382399E+03    0.49850E-02   -0.96350E-03   708   0.286E-01    0.938E-01
RMM:   7    -0.490372697973E+03    0.68443E-03   -0.55925E-03   707   0.204E-01    0.777E-01
RMM:   8    -0.490375148170E+03   -0.24502E-02   -0.73223E-03   709   0.229E-01    0.112E+00
RMM:   9    -0.490371728224E+03    0.34199E-02   -0.36183E-03   705   0.191E-01    0.543E-01
RMM:  10    -0.490371711431E+03    0.16793E-04   -0.24695E-03   707   0.139E-01    0.554E-01
RMM:  11    -0.490372074019E+03   -0.36259E-03   -0.25481E-03   703   0.137E-01    0.583E-01
RMM:  12    -0.490371338599E+03    0.73542E-03   -0.13726E-03   705   0.114E-01    0.384E-01
RMM:  13    -0.490370827400E+03    0.51120E-03   -0.50371E-04   706   0.698E-02    0.138E-01
RMM:  14    -0.490370783395E+03    0.44005E-04   -0.17163E-04   737   0.335E-02    0.923E-02
RMM:  15    -0.490370832208E+03   -0.48813E-04   -0.14490E-04   753   0.279E-02    0.156E-01
RMM:  16    -0.490370785016E+03    0.47193E-04   -0.71318E-05   727   0.232E-02    0.847E-02
RMM:  17    -0.490370766479E+03    0.18537E-04   -0.38267E-05   738   0.164E-02    0.422E-02
RMM:  18    -0.490370766333E+03    0.14571E-06   -0.24526E-05   750   0.119E-02    0.333E-02
RMM:  19    -0.490370776497E+03   -0.10164E-04   -0.25999E-05   737   0.129E-02    0.511E-02
RMM:  20    -0.490370771093E+03    0.54038E-05   -0.13931E-05   707   0.112E-02    0.238E-02
RMM:  21    -0.490370773944E+03   -0.28509E-05   -0.10187E-05   701   0.843E-03    0.275E-02
RMM:  22    -0.490370777956E+03   -0.40117E-05   -0.79116E-06   625   0.771E-03    0.317E-02
RMM:  23    -0.490370776913E+03    0.10431E-05   -0.38015E-06   491   0.651E-03    0.135E-02
RMM:  24    -0.490370777200E+03   -0.28675E-06   -0.14031E-06   397   0.377E-03
   9 F= -.50529019E+03 E0= -.50363104E+03  d E =-.331830E+01
       N       E                     dE             d eps       ncg     rms          rms(c)
DAV:   1    -0.490371507337E+03   -0.73042E-03   -0.26071E+00   696   0.233E+00    0.363E-01
RMM:   2    -0.490376006666E+03   -0.44993E-02   -0.44984E-02   703   0.328E-01    0.386E-01
RMM:   3    -0.490387274895E+03   -0.11268E-01   -0.13039E-02   745   0.269E-01    0.196E+00
RMM:   4    -0.490385925063E+03    0.13498E-02   -0.91407E-03   727   0.233E-01    0.174E+00
RMM:   5    -0.490379840494E+03    0.60846E-02   -0.71053E-03   702   0.244E-01    0.111E+00
RMM:   6    -0.490376294589E+03    0.35459E-02   -0.37314E-03   702   0.175E-01    0.460E-01
RMM:   7    -0.490376068056E+03    0.22653E-03   -0.17911E-03   718   0.106E-01    0.378E-01
RMM:   8    -0.490377079345E+03   -0.10113E-02   -0.23353E-03   710   0.124E-01    0.655E-01
RMM:   9    -0.490376177682E+03    0.90166E-03   -0.13646E-03   704   0.110E-01    0.388E-01
RMM:  10    -0.490375795952E+03    0.38173E-03   -0.69224E-04   702   0.767E-02    0.211E-01
RMM:  11    -0.490375793716E+03    0.22363E-05   -0.43976E-04   708   0.554E-02    0.204E-01
RMM:  12    -0.490375862025E+03   -0.68308E-04   -0.37728E-04   712   0.529E-02    0.248E-01
RMM:  13    -0.490375687869E+03    0.17416E-03   -0.17701E-04   707   0.411E-02    0.104E-01
RMM:  14    -0.490375660314E+03    0.27555E-04   -0.73597E-05   717   0.237E-02    0.528E-02
RMM:  15    -0.490375669185E+03   -0.88709E-05   -0.53109E-05   728   0.180E-02    0.676E-02
RMM:  16    -0.490375660548E+03    0.86366E-05   -0.25362E-05   708   0.143E-02    0.506E-02
RMM:  17    -0.490375654356E+03    0.61922E-05   -0.12147E-05   703   0.928E-03    0.274E-02
RMM:  18    -0.490375654235E+03    0.12106E-06   -0.68994E-06   594   0.596E-03
  10 F= -.50529508E+03 E0= -.50363620E+03  d E =-.331776E+01
       N       E                     dE             d eps       ncg     rms          rms(c)
DAV:   1    -0.490366329792E+03    0.93246E-02   -0.51778E+00   696   0.323E+00    0.525E-01
RMM:   2    -0.490375601175E+03   -0.92714E-02   -0.89061E-02   720   0.460E-01    0.844E-01
RMM:   3    -0.490390504394E+03   -0.14903E-01   -0.15833E-02   737   0.313E-01    0.240E+00
RMM:   4    -0.490405569788E+03   -0.15065E-01   -0.29101E-02   765   0.388E-01    0.332E+00
RMM:   5    -0.490380106804E+03    0.25463E-01   -0.15032E-02   701   0.371E-01    0.140E+00
RMM:   6    -0.490374082571E+03    0.60242E-02   -0.66147E-03   718   0.227E-01    0.519E-01
RMM:   7    -0.490374985750E+03   -0.90318E-03   -0.53732E-03   726   0.178E-01    0.707E-01
RMM:   8    -0.490375303995E+03   -0.31825E-03   -0.42305E-03   713   0.173E-01    0.729E-01
RMM:   9    -0.490373823907E+03    0.14801E-02   -0.24126E-03   704   0.150E-01    0.381E-01
RMM:  10    -0.490373676886E+03    0.14702E-03   -0.14877E-03   722   0.101E-01    0.321E-01
RMM:  11    -0.490373881032E+03   -0.20415E-03   -0.12291E-03   708   0.941E-02    0.398E-01
RMM:  12    -0.490373558833E+03    0.32220E-03   -0.56529E-04   712   0.705E-02    0.280E-01
RMM:  13    -0.490373349982E+03    0.20885E-03   -0.24311E-04   721   0.445E-02    0.108E-01
RMM:  14    -0.490373343488E+03    0.64940E-05   -0.14004E-04   767   0.274E-02    0.954E-02
RMM:  15    -0.490373351171E+03   -0.76836E-05   -0.10277E-04   744   0.254E-02    0.101E-01
RMM:  16    -0.490373327575E+03    0.23596E-04   -0.51931E-05   712   0.206E-02    0.627E-02
RMM:  17    -0.490373318472E+03    0.91034E-05   -0.27436E-05   740   0.136E-02    0.333E-02
RMM:  18    -0.490373326396E+03   -0.79242E-05   -0.25632E-05   741   0.120E-02    0.518E-02
RMM:  19    -0.490373321605E+03    0.47912E-05   -0.12545E-05   698   0.103E-02    0.286E-02
RMM:  20    -0.490373320475E+03    0.11293E-05   -0.70528E-06   629   0.708E-03    0.217E-02
RMM:  21    -0.490373321563E+03   -0.10874E-05   -0.45542E-06   527   0.571E-03    0.225E-02
RMM:  22    -0.490373324464E+03   -0.29014E-05   -0.51931E-06   556   0.628E-03    0.281E-02
RMM:  23    -0.490373323298E+03    0.11666E-05   -0.26084E-06   443   0.558E-03    0.102E-02
RMM:  24    -0.490373323598E+03   -0.30069E-06   -0.11293E-06   389   0.333E-03
  11 F= -.50529274E+03 E0= -.50363375E+03  d E =-.331799E+01
       N       E                     dE             d eps       ncg     rms          rms(c)
DAV:   1    -0.490373372855E+03   -0.49557E-04   -0.24861E+00   696   0.222E+00    0.422E-01
RMM:   2    -0.490377489526E+03   -0.41167E-02   -0.58196E-02   795   0.355E-01    0.405E-01
RMM:   3    -0.490400882565E+03   -0.23393E-01   -0.20520E-02   764   0.327E-01    0.278E+00
RMM:   4    -0.490388133581E+03    0.12749E-01   -0.10974E-02   727   0.265E-01    0.180E+00
RMM:   5    -0.490379448108E+03    0.86855E-02   -0.77048E-03   699   0.261E-01    0.822E-01
RMM:   6    -0.490377716002E+03    0.17321E-02   -0.34451E-03   732   0.149E-01    0.445E-01
RMM:   7    -0.490378111737E+03   -0.39574E-03   -0.25681E-03   732   0.125E-01    0.535E-01
RMM:   8    -0.490379108154E+03   -0.99642E-03   -0.33598E-03   709   0.147E-01    0.741E-01
RMM:   9    -0.490377440557E+03    0.16676E-02   -0.16976E-03   704   0.128E-01    0.264E-01
RMM:  10    -0.490377543258E+03   -0.10270E-03   -0.10346E-03   715   0.850E-02    0.342E-01
RMM:  11    -0.490377614029E+03   -0.70771E-04   -0.78005E-04   707   0.728E-02    0.368E-01
RMM:  12    -0.490377359227E+03    0.25480E-03   -0.48766E-04   705   0.636E-02    0.235E-01
RMM:  13    -0.490377188479E+03    0.17075E-03   -0.23129E-04   706   0.447E-02    0.844E-02
RMM:  14    -0.490377217724E+03   -0.29245E-04   -0.15923E-04   747   0.314E-02    0.119E-01
RMM:  15    -0.490377225198E+03   -0.74744E-05   -0.10201E-04   719   0.264E-02    0.121E-01
RMM:  16    -0.490377184750E+03    0.40448E-04   -0.48898E-05   716   0.206E-02    0.504E-02
RMM:  17    -0.490377180169E+03    0.45810E-05   -0.26283E-05   784   0.110E-02    0.291E-02
RMM:  18    -0.490377183010E+03   -0.28410E-05   -0.15490E-05   755   0.810E-03    0.319E-02
RMM:  19    -0.490377188243E+03   -0.52332E-05   -0.12103E-05   716   0.822E-03    0.352E-02
RMM:  20    -0.490377187521E+03    0.72159E-06   -0.56258E-06   549   0.689E-03
  12 F= -.50529647E+03 E0= -.50363708E+03  d E =-.331880E+01
       N       E                     dE             d eps       ncg     rms          rms(c)
DAV:   1    -0.490362741026E+03    0.14447E-01   -0.48375E+00   696   0.309E+00    0.534E-01
RMM:   2    -0.490377845352E+03   -0.15104E-01   -0.12107E-01   857   0.519E-01    0.132E+00
RMM:   3    -0.490380297305E+03   -0.24520E-02   -0.22868E-02   805   0.281E-01    0.167E+00
RMM:   4    -0.490384546587E+03   -0.42493E-02   -0.19622E-02   750   0.329E-01    0.194E+00
RMM:   5    -0.490377507170E+03    0.70394E-02   -0.14622E-02   706   0.340E-01    0.114E+00
RMM:   6    -0.490374840984E+03    0.26662E-02   -0.89065E-03   711   0.273E-01    0.892E-01
RMM:   7    -0.490376822632E+03   -0.19816E-02   -0.82730E-03   708   0.242E-01    0.119E+00
RMM:   8    -0.490379050633E+03   -0.22280E-02   -0.89940E-03   711   0.259E-01    0.141E+00
RMM:   9    -0.490373361201E+03    0.56894E-02   -0.46088E-03   703   0.217E-01    0.506E-01
RMM:  10    -0.490373333029E+03    0.28172E-04   -0.27552E-03   706   0.144E-01    0.520E-01
RMM:  11    -0.490373415544E+03   -0.82515E-04   -0.22668E-03   705   0.130E-01    0.502E-01
RMM:  12    -0.490372803649E+03    0.61190E-03   -0.10583E-03   703   0.101E-01    0.337E-01
RMM:  13    -0.490372458449E+03    0.34520E-03   -0.41500E-04   707   0.597E-02    0.151E-01
RMM:  14    -0.490372431233E+03    0.27216E-04   -0.19045E-04   767   0.324E-02    0.120E-01
RMM:  15    -0.490372461816E+03   -0.30583E-04   -0.17097E-04   742   0.325E-02    0.142E-01
RMM:  16    -0.490372411151E+03    0.50666E-04   -0.93653E-05   730   0.285E-02    0.733E-02
RMM:  17    -0.490372400658E+03    0.10492E-04   -0.54937E-05   772   0.186E-02    0.526E-02
RMM:  18    -0.490372416718E+03   -0.16059E-04   -0.53052E-05   737   0.181E-02    0.809E-02
RMM:  19    -0.490372410511E+03    0.62069E-05   -0.34982E-05   719   0.166E-02    0.650E-02
RMM:  20    -0.490372401219E+03    0.92923E-05   -0.16808E-05   714   0.119E-02    0.341E-02
RMM:  21    -0.490372404970E+03   -0.37513E-05   -0.17347E-05   720   0.103E-02    0.386E-02
RMM:  22    -0.490372410916E+03   -0.59466E-05   -0.15150E-05   712   0.100E-02    0.400E-02
RMM:  23    -0.490372408037E+03    0.28792E-05   -0.71956E-06   620   0.796E-03    0.160E-02
RMM:  24    -0.490372409166E+03   -0.11283E-05   -0.31152E-06   461   0.483E-03    0.126E-02
RMM:  25    -0.490372412373E+03   -0.32074E-05   -0.23395E-06   427   0.445E-03    0.144E-02
RMM:  26    -0.490372418079E+03   -0.57061E-05   -0.19878E-06   416   0.432E-03    0.130E-02
RMM:  27    -0.490372420270E+03   -0.21913E-05   -0.10760E-06   381   0.339E-03    0.582E-03
RMM:  28    -0.490372426923E+03   -0.66522E-05   -0.14461E-06   390   0.334E-03    0.125E-02
RMM:  29    -0.490372437224E+03   -0.10301E-04   -0.18630E-06   398   0.424E-03    0.987E-03
RMM:  30    -0.490372441561E+03   -0.43370E-05   -0.10277E-06   374   0.305E-03    0.627E-03
RMM:  31    -0.490372443929E+03   -0.23687E-05   -0.61133E-07   371   0.228E-03    0.424E-03
RMM:  32    -0.490372450600E+03   -0.66701E-05   -0.77843E-07   375   0.212E-03    0.696E-03
RMM:  33    -0.490372453606E+03   -0.30065E-05   -0.54320E-07   370   0.228E-03    0.235E-03
RMM:  34    -0.490372456402E+03   -0.27956E-05   -0.39167E-07   367   0.146E-03    0.372E-03
RMM:  35    -0.490372462919E+03   -0.65169E-05   -0.53426E-07   370   0.183E-03    0.434E-03
RMM:  36    -0.490372466691E+03   -0.37721E-05   -0.40555E-07   369   0.163E-03    0.204E-03
RMM:  37    -0.490372467863E+03   -0.11721E-05   -0.20849E-07   355   0.107E-03    0.193E-03
RMM:  38    -0.490372471262E+03   -0.33994E-05   -0.23428E-07   356   0.104E-03    0.269E-03
RMM:  39    -0.490372473182E+03   -0.19198E-05   -0.16407E-07   350   0.105E-03    0.118E-03
RMM:  40    -0.490372474048E+03   -0.86627E-06   -0.94489E-08   276   0.692E-04
  13 F= -.50529206E+03 E0= -.50363359E+03  d E =-.331694E+01
       N       E                     dE             d eps       ncg     rms          rms(c)
DAV:   1    -0.490370474521E+03    0.19987E-02   -0.13248E+00   696   0.156E+00    0.341E-01
RMM:   2    -0.490372753757E+03   -0.22792E-02   -0.35033E-02   924   0.262E-01    0.433E-01
RMM:   3    -0.490382630709E+03   -0.98770E-02   -0.10820E-02   785   0.221E-01    0.184E+00
RMM:   4    -0.490381664690E+03    0.96602E-03   -0.10621E-02   762   0.235E-01    0.167E+00
RMM:   5    -0.490373681711E+03    0.79830E-02   -0.63301E-03   702   0.240E-01    0.549E-01
RMM:   6    -0.490372990755E+03    0.69096E-03   -0.30068E-03   754   0.131E-01    0.421E-01
RMM:   7    -0.490373332221E+03   -0.34147E-03   -0.20177E-03   733   0.108E-01    0.530E-01
RMM:   8    -0.490373834656E+03   -0.50243E-03   -0.22980E-03   712   0.123E-01    0.634E-01
RMM:   9    -0.490372629971E+03    0.12047E-02   -0.13253E-03   707   0.109E-01    0.225E-01
RMM:  10    -0.490372878185E+03   -0.24821E-03   -0.10111E-03   720   0.819E-02    0.377E-01
RMM:  11    -0.490372782400E+03    0.95785E-04   -0.68039E-04   706   0.701E-02    0.311E-01
RMM:  12    -0.490372554379E+03    0.22802E-03   -0.39253E-04   704   0.592E-02    0.189E-01
RMM:  13    -0.490372451280E+03    0.10310E-03   -0.17436E-04   701   0.378E-02    0.871E-02
RMM:  14    -0.490372495519E+03   -0.44238E-04   -0.14166E-04   734   0.296E-02    0.145E-01
RMM:  15    -0.490372480346E+03    0.15173E-04   -0.11039E-04   721   0.263E-02    0.112E-01
RMM:  16    -0.490372448324E+03    0.32022E-04   -0.50761E-05   723   0.203E-02    0.458E-02
RMM:  17    -0.490372446566E+03    0.17577E-05   -0.28154E-05   818   0.107E-02    0.332E-02
RMM:  18    -0.490372449801E+03   -0.32352E-05   -0.17053E-05   754   0.959E-03    0.349E-02
RMM:  19    -0.490372450686E+03   -0.88436E-06   -0.11880E-05   698   0.833E-03    0.243E-02
RMM:  20    -0.490372451731E+03   -0.10451E-05   -0.62456E-06   581   0.701E-03    0.178E-02
RMM:  21    -0.490372461331E+03   -0.96005E-05   -0.10335E-05   694   0.805E-03    0.358E-02
RMM:  22    -0.490372464583E+03   -0.32518E-05   -0.61523E-06   574   0.722E-03    0.213E-02
RMM:  23    -0.490372465757E+03   -0.11742E-05   -0.27434E-06   427   0.520E-03    0.110E-02
RMM:  24    -0.490372466964E+03   -0.12066E-05   -0.12567E-06   386   0.335E-03    0.850E-03
RMM:  25    -0.490372470964E+03   -0.40003E-05   -0.12239E-06   387   0.322E-03    0.120E-02
RMM:  26    -0.490372472983E+03   -0.20187E-05   -0.79731E-07   376   0.302E-03    0.451E-03
RMM:  27    -0.490372474856E+03   -0.18726E-05   -0.51511E-07   374   0.189E-03    0.607E-03
RMM:  28    -0.490372479495E+03   -0.46397E-05   -0.66620E-07   372   0.232E-03    0.616E-03
RMM:  29    -0.490372483914E+03   -0.44182E-05   -0.62894E-07   371   0.223E-03    0.556E-03
RMM:  30    -0.490372485959E+03   -0.20450E-05   -0.38428E-07   366   0.180E-03    0.306E-03
RMM:  31    -0.490372488895E+03   -0.29363E-05   -0.39388E-07   367   0.157E-03    0.480E-03
RMM:  32    -0.490372492594E+03   -0.36996E-05   -0.44719E-07   366   0.174E-03    0.279E-03
RMM:  33    -0.490372493472E+03   -0.87735E-06   -0.19888E-07   360   0.115E-03
  14 F= -.50529192E+03 E0= -.50363307E+03  d E =-.331771E+01
       N       E                     dE             d eps       ncg     rms          rms(c)
DAV:   1    -0.490373818159E+03   -0.13256E-02   -0.31821E-01   879   0.515E-01    0.291E-01
RMM:   2    -0.490373925459E+03   -0.10730E-03   -0.14399E-02   858   0.156E-01    0.438E-01
RMM:   3    -0.490382511850E+03   -0.85864E-02   -0.68492E-03   785   0.184E-01    0.176E+00
RMM:   4    -0.490379066565E+03    0.34453E-02   -0.75243E-03   737   0.211E-01    0.127E+00
RMM:   5    -0.490374142017E+03    0.49245E-02   -0.42937E-03   702   0.207E-01    0.448E-01
RMM:   6    -0.490373699326E+03    0.44269E-03   -0.19923E-03   708   0.122E-01    0.348E-01
RMM:   7    -0.490374337669E+03   -0.63834E-03   -0.16998E-03   721   0.106E-01    0.589E-01
RMM:   8    -0.490373776049E+03    0.56162E-03   -0.11154E-03   716   0.939E-02    0.402E-01
RMM:   9    -0.490373385592E+03    0.39046E-03   -0.61658E-04   710   0.733E-02    0.183E-01
RMM:  10    -0.490373863865E+03   -0.47827E-03   -0.10113E-03   707   0.828E-02    0.403E-01
RMM:  11    -0.490373475214E+03    0.38865E-03   -0.50108E-04   703   0.697E-02    0.226E-01
RMM:  12    -0.490373328968E+03    0.14625E-03   -0.20112E-04   706   0.424E-02    0.115E-01
RMM:  13    -0.490373300757E+03    0.28211E-04   -0.97633E-05   737   0.251E-02    0.694E-02
RMM:  14    -0.490373322601E+03   -0.21844E-04   -0.79814E-05   726   0.223E-02    0.105E-01
RMM:  15    -0.490373303610E+03    0.18992E-04   -0.46473E-05   718   0.183E-02    0.709E-02
RMM:  16    -0.490373290300E+03    0.13310E-04   -0.22159E-05   730   0.127E-02    0.273E-02
RMM:  17    -0.490373290891E+03   -0.59092E-06   -0.13488E-05   754   0.738E-03    0.259E-02
RMM:  18    -0.490373293219E+03   -0.23280E-05   -0.75094E-06   598   0.653E-03    0.332E-02
RMM:  19    -0.490373292408E+03    0.81074E-06   -0.48580E-06   511   0.649E-03
  15 F= -.50529272E+03 E0= -.50363373E+03  d E =-.331797E+01
       N       E                     dE             d eps       ncg     rms          rms(c)
DAV:   1    -0.490375074304E+03   -0.17811E-02   -0.13717E-01   714   0.331E-01    0.121E-01
RMM:   2    -0.490375364371E+03   -0.29007E-03   -0.23208E-03   717   0.727E-02    0.154E-01
RMM:   3    -0.490376042310E+03   -0.67794E-03   -0.92795E-04   703   0.787E-02    0.500E-01
RMM:   4    -0.490376959692E+03   -0.91738E-03   -0.12638E-03   718   0.909E-02    0.721E-01
RMM:   5    -0.490375780480E+03    0.11792E-02   -0.51262E-04   700   0.694E-02    0.353E-01
RMM:   6    -0.490375438431E+03    0.34205E-03   -0.34311E-04   701   0.531E-02    0.160E-01
RMM:   7    -0.490375439537E+03   -0.11057E-05   -0.25935E-04   705   0.411E-02    0.154E-01
RMM:   8    -0.490375476576E+03   -0.37040E-04   -0.20071E-04   714   0.374E-02    0.191E-01
RMM:   9    -0.490375394438E+03    0.82138E-04   -0.11542E-04   705   0.314E-02    0.102E-01
RMM:  10    -0.490375374474E+03    0.19964E-04   -0.61611E-05   703   0.220E-02    0.647E-02
RMM:  11    -0.490375390443E+03   -0.15969E-04   -0.56294E-05   698   0.195E-02    0.924E-02
RMM:  12    -0.490375372139E+03    0.18304E-04   -0.27505E-05   697   0.157E-02    0.536E-02
RMM:  13    -0.490375364645E+03    0.74945E-05   -0.11086E-05   695   0.975E-03    0.282E-02
RMM:  14    -0.490375362961E+03    0.16834E-05   -0.40739E-06   518   0.541E-03    0.156E-02
RMM:  15    -0.490375364513E+03   -0.15519E-05   -0.34306E-06   477   0.515E-03    0.248E-02
RMM:  16    -0.490375363972E+03    0.54091E-06   -0.24104E-06   414   0.517E-03
  16 F= -.50529481E+03 E0= -.50363590E+03  d E =-.331782E+01
       N       E                     dE             d eps       ncg     rms          rms(c)
DAV:   1    -0.490373886649E+03    0.14779E-02   -0.28820E-01   786   0.483E-01    0.229E-01
RMM:   2    -0.490374546496E+03   -0.65985E-03   -0.78567E-03   776   0.133E-01    0.455E-01
RMM:   3    -0.490377006605E+03   -0.24601E-02   -0.27669E-03   740   0.127E-01    0.104E+00
RMM:   4    -0.490378195163E+03   -0.11886E-02   -0.50793E-03   752   0.165E-01    0.116E+00
RMM:   5    -0.490375068880E+03    0.31263E-02   -0.31508E-03   702   0.169E-01    0.556E-01
RMM:   6    -0.490374349898E+03    0.71898E-03   -0.15860E-03   715   0.111E-01    0.394E-01
RMM:   7    -0.490374229479E+03    0.12042E-03   -0.10130E-03   705   0.853E-02    0.313E-01
RMM:   8    -0.490374517146E+03   -0.28767E-03   -0.10112E-03   713   0.857E-02    0.426E-01
RMM:   9    -0.490374016327E+03    0.50082E-03   -0.50871E-04   705   0.702E-02    0.182E-01
RMM:  10    -0.490374079026E+03   -0.62699E-04   -0.39839E-04   717   0.531E-02    0.230E-01
RMM:  11    -0.490374120821E+03   -0.41795E-04   -0.40463E-04   702   0.544E-02    0.227E-01
RMM:  12    -0.490373994490E+03    0.12633E-03   -0.20663E-04   702   0.445E-02    0.143E-01
RMM:  13    -0.490373925959E+03    0.68531E-04   -0.73681E-05   700   0.259E-02    0.496E-02
RMM:  14    -0.490373924700E+03    0.12586E-05   -0.32341E-05   753   0.136E-02    0.439E-02
RMM:  15    -0.490373929468E+03   -0.47677E-05   -0.26544E-05   721   0.126E-02    0.528E-02
RMM:  16    -0.490373922903E+03    0.65655E-05   -0.13462E-05   697   0.104E-02    0.305E-02
RMM:  17    -0.490373920985E+03    0.19171E-05   -0.57490E-06   571   0.623E-03    0.188E-02
RMM:  18    -0.490373921598E+03   -0.61272E-06   -0.33532E-06   459   0.513E-03
  17 F= -.50529333E+03 E0= -.50363436E+03  d E =-.331794E+01
       N       E                     dE             d eps       ncg     rms          rms(c)
DAV:   1    -0.490376348786E+03   -0.24278E-02   -0.14456E-01   786   0.335E-01    0.147E-01
RMM:   2    -0.490376894608E+03   -0.54582E-03   -0.38476E-03   744   0.107E-01    0.400E-01
RMM:   3    -0.490376977093E+03   -0.82486E-04   -0.12984E-03   717   0.926E-02    0.457E-01
RMM:   4    -0.490378470367E+03   -0.14933E-02   -0.17601E-03   740   0.103E-01    0.813E-01
RMM:   5    -0.490377473921E+03    0.99645E-03   -0.11932E-03   719   0.903E-02    0.555E-01
RMM:   6    -0.490376740837E+03    0.73308E-03   -0.92846E-04   701   0.915E-02    0.307E-01
RMM:   7    -0.490376539095E+03    0.20174E-03   -0.49853E-04   702   0.620E-02    0.187E-01
RMM:   8    -0.490376625104E+03   -0.86009E-04   -0.43076E-04   711   0.556E-02    0.239E-01
RMM:   9    -0.490376543266E+03    0.81838E-04   -0.29334E-04   710   0.487E-02    0.181E-01
RMM:  10    -0.490376454527E+03    0.88739E-04   -0.16877E-04   706   0.401E-02    0.948E-02
RMM:  11    -0.490376541348E+03   -0.86822E-04   -0.19099E-04   706   0.356E-02    0.188E-01
RMM:  12    -0.490376475308E+03    0.66040E-04   -0.11358E-04   698   0.316E-02    0.108E-01
RMM:  13    -0.490376439226E+03    0.36082E-04   -0.47059E-05   702   0.218E-02    0.503E-02
RMM:  14    -0.490376433864E+03    0.53617E-05   -0.17786E-05   697   0.110E-02    0.317E-02
RMM:  15    -0.490376434898E+03   -0.10331E-05   -0.13116E-05   700   0.906E-03    0.323E-02
RMM:  16    -0.490376435844E+03   -0.94641E-06   -0.96507E-06   653   0.809E-03
  18 F= -.50529553E+03 E0= -.50363667E+03  d E =-.331772E+01
       N       E                     dE             d eps       ncg     rms          rms(c)
DAV:   1    -0.490373695480E+03    0.27394E-02   -0.27941E-01   723   0.442E-01    0.151E-01
RMM:   2    -0.490374577576E+03   -0.88210E-03   -0.56140E-03   715   0.110E-01    0.351E-01
RMM:   3    -0.490374766172E+03   -0.18860E-03   -0.16758E-03   756   0.817E-02    0.428E-01
RMM:   4    -0.490375712277E+03   -0.94610E-03   -0.18301E-03   725   0.108E-01    0.638E-01
RMM:   5    -0.490375738433E+03   -0.26156E-04   -0.10319E-03   728   0.827E-02    0.645E-01
RMM:   6    -0.490374769510E+03    0.96892E-03   -0.10091E-03   702   0.909E-02    0.345E-01
RMM:   7    -0.490374508829E+03    0.26068E-03   -0.64289E-04   698   0.723E-02    0.211E-01
RMM:   8    -0.490374669628E+03   -0.16080E-03   -0.58146E-04   713   0.630E-02    0.300E-01
RMM:   9    -0.490374524845E+03    0.14478E-03   -0.37812E-04   707   0.552E-02    0.206E-01
RMM:  10    -0.490374422453E+03    0.10239E-03   -0.21999E-04   708   0.448E-02    0.127E-01
RMM:  11    -0.490374431873E+03   -0.94199E-05   -0.16608E-04   702   0.350E-02    0.130E-01
RMM:  12    -0.490374438443E+03   -0.65698E-05   -0.12005E-04   701   0.311E-02    0.131E-01
RMM:  13    -0.490374390135E+03    0.48308E-04   -0.53459E-05   702   0.228E-02    0.641E-02
RMM:  14    -0.490374379580E+03    0.10555E-04   -0.19684E-05   709   0.120E-02    0.290E-02
RMM:  15    -0.490374381351E+03   -0.17713E-05   -0.12935E-05   712   0.753E-03    0.304E-02
RMM:  16    -0.490374382800E+03   -0.14493E-05   -0.71828E-06   607   0.703E-03    0.240E-02
RMM:  17    -0.490374383333E+03   -0.53275E-06   -0.36176E-06   464   0.587E-03
  19 F= -.50529413E+03 E0= -.50363510E+03  d E =-.331805E+01
