 vasp.5.4.4.18Apr17-6-g9f103f2a35 (build Dec 15 2018 21:27:54) gamma-only       
  
 executed on             LinuxIFC date 2022.03.05  23:04:35
 running on   72 total cores
 distrk:  each k-point on   72 cores,    1 groups
 distr:  one band on NCORES_PER_BAND=  24 cores,    3 groups


--------------------------------------------------------------------------------------------------------


 INCAR:
 POTCAR:    PAW_PBE Fe 06Sep2000                  
 POTCAR:    PAW_PBE Ni 02Aug2007                  
 POTCAR:    PAW_PBE O 08Apr2002                   
 POTCAR:    PAW_PBE H 15Jun2001                   

 ----------------------------------------------------------------------------- 
|                                                                             |
|           W    W    AA    RRRRR   N    N  II  N    N   GGGG   !!!           |
|           W    W   A  A   R    R  NN   N  II  NN   N  G    G  !!!           |
|           W    W  A    A  R    R  N N  N  II  N N  N  G       !!!           |
|           W WW W  AAAAAA  RRRRR   N  N N  II  N  N N  G  GGG   !            |
|           WW  WW  A    A  R   R   N   NN  II  N   NN  G    G                |
|           W    W  A    A  R    R  N    N  II  N    N   GGGG   !!!           |
|                                                                             |
|      For optimal performance we recommend to set                            |
|        NCORE= 4 - approx SQRT( number of cores)                             |
|      NCORE specifies how many cores store one orbital (NPAR=cpu/NCORE).     |
|      This setting can  greatly improve the performance of VASP for DFT.     |
|      The default,   NCORE=1            might be grossly inefficient         |
|      on modern multi-core architectures or massively parallel machines.     |
|      Do your own testing !!!!                                               |
|      Unfortunately you need to use the default for GW and RPA calculations. |
|      (for HF NCORE is supported but not extensively tested yet)             |
|                                                                             |
 ----------------------------------------------------------------------------- 

 POTCAR:    PAW_PBE Fe 06Sep2000                  
   VRHFIN =Fe:  d7 s1                                                           
   LEXCH  = PE                                                                  
   EATOM  =   594.3153 eV,   43.6809 Ry                                         
                                                                                
   TITEL  = PAW_PBE Fe 06Sep2000                                                
   LULTRA =        F    use ultrasoft PP ?                                      
   IUNSCR =        1    unscreen: 0-lin 1-nonlin 2-no                           
   RPACOR =    2.000    partial core radius                                     
   POMASS =   55.847; ZVAL   =    8.000    mass and valenz                      
   RCORE  =    2.300    outmost cutoff radius                                   
   RWIGS  =    2.460; RWIGS  =    1.302    wigner-seitz radius (au A)           
   ENMAX  =  267.882; ENMIN  =  200.911 eV                                      
   RCLOC  =    1.701    cutoff for local pot                                    
   LCOR   =        T    correct aug charges                                     
   LPAW   =        T    paw PP                                                  
   EAUG   =  511.368                                                            
   DEXC   =    0.000                                                            
   RMAX   =    2.356    core radius for proj-oper                               
   RAUG   =    1.300    factor for augmentation sphere                          
   RDEP   =    2.442    radius for radial grids                                 
   RDEPT  =    1.890    core radius for aug-charge                              
                                                                                
   Atomic configuration                                                         
    9 entries                                                                   
     n  l   j            E        occ.                                          
     1  0  0.50     -6993.8440   2.0000                                         
     2  0  0.50      -814.6047   2.0000                                         
     2  1  1.50      -693.3689   6.0000                                         
     3  0  0.50       -89.4732   2.0000                                         
     3  1  1.50       -55.6373   6.0000                                         
     3  2  2.50        -3.8151   7.0000                                         
     4  0  0.50        -4.2551   1.0000                                         
     4  1  1.50        -3.4015   0.0000                                         
     4  3  2.50        -1.3606   0.0000                                         
   Description                                                                  
     l       E           TYP  RCUT    TYP  RCUT                                 
     2     -3.8151135     23  2.300                                             
     2     -5.1756961     23  2.300                                             
     0     -4.2550963     23  2.300                                             
     0      7.2035603     23  2.300                                             
     1     -2.7211652     23  2.300                                             
     1     18.4316424     23  2.300                                             
  local pseudopotential read in
  partial core-charges read in
  partial kinetic energy density read in
  atomic valenz-charges read in
  non local Contribution for L=           2  read in
    real space projection operators read in
  non local Contribution for L=           2  read in
    real space projection operators read in
  non local Contribution for L=           0  read in
    real space projection operators read in
  non local Contribution for L=           0  read in
    real space projection operators read in
  non local Contribution for L=           1  read in
    real space projection operators read in
  non local Contribution for L=           1  read in
    real space projection operators read in
    PAW grid and wavefunctions read in
 
   number of l-projection  operators is LMAX  =           6
   number of lm-projection operators is LMMAX =          18
 
 POTCAR:    PAW_PBE Ni 02Aug2007                  
   VRHFIN =Ni:                                                                  
   LEXCH  = PE                                                                  
   EATOM  =  1077.6739 eV,   79.2068 Ry                                         
                                                                                
   TITEL  = PAW_PBE Ni 02Aug2007                                                
   LULTRA =        F    use ultrasoft PP ?                                      
   IUNSCR =        1    unscreen: 0-lin 1-nonlin 2-no                           
   RPACOR =    2.000    partial core radius                                     
   POMASS =   58.690; ZVAL   =   10.000    mass and valenz                      
   RCORE  =    2.300    outmost cutoff radius                                   
   RWIGS  =    2.430; RWIGS  =    1.286    wigner-seitz radius (au A)           
   ENMAX  =  269.532; ENMIN  =  202.149 eV                                      
   RCLOC  =    1.201    cutoff for local pot                                    
   LCOR   =        T    correct aug charges                                     
   LPAW   =        T    paw PP                                                  
   EAUG   =  544.565                                                            
   DEXC   =    0.000                                                            
   RMAX   =    2.357    core radius for proj-oper                               
   RAUG   =    1.300    factor for augmentation sphere                          
   RDEP   =    2.390    radius for radial grids                                 
   RDEPT  =    1.838    core radius for aug-charge                              
                                                                                
   Atomic configuration                                                         
    9 entries                                                                   
     n  l   j            E        occ.                                          
     1  0  0.50     -8206.4253   2.0000                                         
     2  0  0.50      -976.1748   2.0000                                         
     2  1  1.50      -839.0571   6.0000                                         
     3  0  0.50      -105.9991   2.0000                                         
     3  1  1.50       -66.4603   6.0000                                         
     3  2  2.50        -4.6458   9.0000                                         
     4  0  0.50        -4.4926   1.0000                                         
     4  1  1.50        -4.0817   0.0000                                         
     4  3  2.50        -1.3606   0.0000                                         
   Description                                                                  
     l       E           TYP  RCUT    TYP  RCUT                                 
     2     -4.6457903     23  2.300                                             
     2     -6.0063729     23  2.300                                             
     0     -4.4925590     23  2.300                                             
     0      5.0102601     23  2.300                                             
     1     -2.7211652     23  2.300                                             
     1     16.5183231     23  2.300                                             
  local pseudopotential read in
  partial core-charges read in
  partial kinetic energy density read in
  atomic valenz-charges read in
  non local Contribution for L=           2  read in
    real space projection operators read in
  non local Contribution for L=           2  read in
    real space projection operators read in
  non local Contribution for L=           0  read in
    real space projection operators read in
  non local Contribution for L=           0  read in
    real space projection operators read in
  non local Contribution for L=           1  read in
    real space projection operators read in
  non local Contribution for L=           1  read in
    real space projection operators read in
    PAW grid and wavefunctions read in
 
   number of l-projection  operators is LMAX  =           6
   number of lm-projection operators is LMMAX =          18
 
 POTCAR:    PAW_PBE O 08Apr2002                   
   VRHFIN =O: s2p4                                                              
   LEXCH  = PE                                                                  
   EATOM  =   432.3788 eV,   31.7789 Ry                                         
                                                                                
   TITEL  = PAW_PBE O 08Apr2002                                                 
   LULTRA =        F    use ultrasoft PP ?                                      
   IUNSCR =        1    unscreen: 0-lin 1-nonlin 2-no                           
   RPACOR =    1.200    partial core radius                                     
   POMASS =   16.000; ZVAL   =    6.000    mass and valenz                      
   RCORE  =    1.520    outmost cutoff radius                                   
   RWIGS  =    1.550; RWIGS  =    0.820    wigner-seitz radius (au A)           
   ENMAX  =  400.000; ENMIN  =  300.000 eV                                      
   ICORE  =        2    local potential                                         
   LCOR   =        T    correct aug charges                                     
   LPAW   =        T    paw PP                                                  
   EAUG   =  605.392                                                            
   DEXC   =    0.000                                                            
   RMAX   =    1.553    core radius for proj-oper                               
   RAUG   =    1.300    factor for augmentation sphere                          
   RDEP   =    1.550    radius for radial grids                                 
   RDEPT  =    1.329    core radius for aug-charge                              
                                                                                
   Atomic configuration                                                         
    4 entries                                                                   
     n  l   j            E        occ.                                          
     1  0  0.50      -514.6923   2.0000                                         
     2  0  0.50       -23.9615   2.0000                                         
     2  1  0.50        -9.0305   4.0000                                         
     3  2  1.50        -9.5241   0.0000                                         
   Description                                                                  
     l       E           TYP  RCUT    TYP  RCUT                                 
     0    -23.9615318     23  1.200                                             
     0     -9.5240782     23  1.200                                             
     1     -9.0304911     23  1.520                                             
     1      8.1634956     23  1.520                                             
     2     -9.5240782      7  1.500                                             
  local pseudopotential read in
  partial core-charges read in
  partial kinetic energy density read in
  kinetic energy density of atom read in
  atomic valenz-charges read in
  non local Contribution for L=           0  read in
    real space projection operators read in
  non local Contribution for L=           0  read in
    real space projection operators read in
  non local Contribution for L=           1  read in
    real space projection operators read in
  non local Contribution for L=           1  read in
    real space projection operators read in
    PAW grid and wavefunctions read in
 
   number of l-projection  operators is LMAX  =           4
   number of lm-projection operators is LMMAX =           8
 
 POTCAR:    PAW_PBE H 15Jun2001                   
   VRHFIN =H: ultrasoft test                                                    
   LEXCH  = PE                                                                  
   EATOM  =    12.4884 eV,    0.9179 Ry                                         
                                                                                
   TITEL  = PAW_PBE H 15Jun2001                                                 
   LULTRA =        F    use ultrasoft PP ?                                      
   IUNSCR =        0    unscreen: 0-lin 1-nonlin 2-no                           
   RPACOR =    0.000    partial core radius                                     
   POMASS =    1.000; ZVAL   =    1.000    mass and valenz                      
   RCORE  =    1.100    outmost cutoff radius                                   
   RWIGS  =    0.700; RWIGS  =    0.370    wigner-seitz radius (au A)           
   ENMAX  =  250.000; ENMIN  =  200.000 eV                                      
   RCLOC  =    0.701    cutoff for local pot                                    
   LCOR   =        T    correct aug charges                                     
   LPAW   =        T    paw PP                                                  
   EAUG   =  400.000                                                            
   RMAX   =    1.123    core radius for proj-oper                               
   RAUG   =    1.200    factor for augmentation sphere                          
   RDEP   =    1.112    radius for radial grids                                 
   RDEPT  =    0.926    core radius for aug-charge                              
                                                                                
   Atomic configuration                                                         
    2 entries                                                                   
     n  l   j            E        occ.                                          
     1  0  0.50        -6.4927   1.0000                                         
     2  1  0.50        -3.4015   0.0000                                         
   Description                                                                  
     l       E           TYP  RCUT    TYP  RCUT                                 
     0     -6.4927494     23  1.100                                             
     0      6.8029130     23  1.100                                             
     1     -4.0817478     23  1.100                                             
  local pseudopotential read in
  atomic valenz-charges read in
  non local Contribution for L=           0  read in
    real space projection operators read in
  non local Contribution for L=           0  read in
    real space projection operators read in
  non local Contribution for L=           1  read in
    real space projection operators read in
    PAW grid and wavefunctions read in
 
   number of l-projection  operators is LMAX  =           3
   number of lm-projection operators is LMMAX =           5
 
 Optimization of the real space projectors (new method)

 maximal supplied QI-value         = 16.25
 optimisation between [QCUT,QGAM] = [ 11.54, 23.24] = [ 37.28,151.24] Ry 
 Optimized for a Real-space Cutoff    1.53 Angstroem

   l    n(q)    QCUT    max X(q) W(low)/X(q) W(high)/X(q)  e(spline) 
   2     10    11.539    80.901    0.11E-03    0.14E-03    0.21E-06
   2     10    11.539    75.754    0.11E-03    0.14E-03    0.22E-06
   0     11    11.539    58.752    0.52E-04    0.18E-04    0.33E-06
   0     11    11.539    30.679    0.44E-04    0.16E-04    0.30E-06
   1     10    11.539    17.977    0.53E-04    0.29E-04    0.13E-06
   1     10    11.539    13.559    0.44E-04    0.25E-04    0.11E-06
 Optimization of the real space projectors (new method)

 maximal supplied QI-value         = 16.25
 optimisation between [QCUT,QGAM] = [ 11.54, 23.24] = [ 37.28,151.24] Ry 
 Optimized for a Real-space Cutoff    1.45 Angstroem

   l    n(q)    QCUT    max X(q) W(low)/X(q) W(high)/X(q)  e(spline) 
   2      9    11.539    60.317    0.19E-03    0.47E-04    0.16E-06
   2      9    11.539    55.921    0.19E-03    0.48E-04    0.16E-06
   0     10    11.539    51.690    0.80E-04    0.50E-04    0.24E-06
   0     10    11.539    30.015    0.73E-04    0.45E-04    0.22E-06
   1     10    11.539    18.849    0.87E-04    0.16E-03    0.71E-07
   1     10    11.539    14.624    0.73E-04    0.13E-03    0.64E-07
 Optimization of the real space projectors (new method)

 maximal supplied QI-value         = 24.76
 optimisation between [QCUT,QGAM] = [ 11.64, 23.27] = [ 37.91,151.63] Ry 
 Optimized for a Real-space Cutoff    1.14 Angstroem

   l    n(q)    QCUT    max X(q) W(low)/X(q) W(high)/X(q)  e(spline) 
   0      8    11.635    20.381    0.10E-03    0.33E-03    0.24E-06
   0      8    11.635    15.268    0.11E-03    0.35E-03    0.26E-06
   1      7    11.635     5.964    0.24E-03    0.31E-03    0.30E-06
   1      7    11.635     5.382    0.22E-03    0.25E-03    0.26E-06
 Optimization of the real space projectors (new method)

 maximal supplied QI-value         = 34.20
 optimisation between [QCUT,QGAM] = [ 11.63, 23.26] = [ 37.87,151.49] Ry 
 Optimized for a Real-space Cutoff    1.21 Angstroem

   l    n(q)    QCUT    max X(q) W(low)/X(q) W(high)/X(q)  e(spline) 
   0      8    11.629    19.460    0.17E-03    0.34E-03    0.21E-06
   0      8    11.629    12.209    0.16E-03    0.33E-03    0.21E-06
   1      8    11.629     4.655    0.18E-03    0.16E-03    0.26E-06
  PAW_PBE Fe 06Sep2000                  :
 energy of atom  1       EATOM= -594.3153
 kinetic energy error for atom=    0.0026 (will be added to EATOM!!)
  PAW_PBE Ni 02Aug2007                  :
 energy of atom  2       EATOM=-1077.6739
 kinetic energy error for atom=    0.0030 (will be added to EATOM!!)
  PAW_PBE O 08Apr2002                   :
 energy of atom  3       EATOM= -432.3788
 kinetic energy error for atom=    0.0208 (will be added to EATOM!!)
  PAW_PBE H 15Jun2001                   :
 energy of atom  4       EATOM=  -12.4884
 kinetic energy error for atom=    0.0014 (will be added to EATOM!!)
 
 
 POSCAR: POSCAR                                  
  positions in direct lattice
  velocities in cartesian coordinates
 exchange correlation table for  LEXCH =        8
   RHO(1)=    0.500       N(1)  =     2000
   RHO(2)=  100.500       N(2)  =     4000

 VTST: version 3.2, (02/03/18)

 CHAIN: initializing optimizer
 
 OPT: Using VASP Dynamics algorithm
 CHAIN: Read ICHAIN            0
 
 POSCAR: POSCAR                                  
  positions in direct lattice
  velocities in cartesian coordinates
 


--------------------------------------------------------------------------------------------------------


 ion  position               nearest neighbor table
   1  0.002  0.999  0.097-   9 2.45  29 2.50  49 2.51  64 2.51  44 2.53   7 2.53  51 2.54  38 2.55
                             5 2.60
   2  0.996  0.995  0.380-  11 2.46   6 2.48  57 2.48  48 2.49  39 2.50   8 2.50  30 2.52  52 2.54
                            50 2.58
   3  0.499  0.996  0.096-   5 2.47  62 2.50  34 2.52  31 2.52  49 2.53  45 2.55  55 2.55  12 2.56
                            53 2.58
   4  0.500  0.991  0.378-  15 2.39  63 2.43  13 2.44  35 2.50  32 2.51   6 2.52  50 2.55  54 2.57
                            56 2.58
   5  0.743  0.996  0.094-   3 2.47  34 2.47  62 2.52  38 2.53  55 2.54  64 2.58  14 2.58  51 2.59
                             1 2.60
   6  0.753  0.998  0.386-  68 1.82  39 2.47   2 2.48  56 2.52   4 2.52  35 2.54  47 2.54  15 2.55
                            52 2.57  57 2.58
   7  0.249  0.253  0.097-  22 2.43   9 2.44  51 2.49  18 2.52  20 2.53   1 2.53  53 2.54  10 2.55
                            49 2.58
   8  0.245  0.241  0.382-  66 1.79  11 2.46  52 2.46  19 2.50   2 2.50  59 2.51  26 2.52  54 2.53
                            50 2.55  21 2.56
   9  0.089  0.161  0.191-  10 2.41   7 2.44   1 2.45  44 2.47  11 2.49  57 2.52  51 2.52  59 2.53
                            64 2.54  22 2.55  58 2.62  14 2.68
  10  0.330  0.166  0.195-  26 2.41   9 2.41  11 2.44  22 2.48  45 2.48  44 2.49  13 2.50   7 2.55
                            12 2.57  49 2.58  53 2.59  25 2.59
  11  0.165  0.078  0.287-  10 2.44  44 2.45   8 2.46   2 2.46   9 2.49  13 2.49  48 2.51  57 2.52
                            46 2.53  26 2.54  59 2.56  50 2.58
  12  0.583  0.166  0.194-  14 2.45  15 2.49  27 2.50  13 2.52  62 2.52  45 2.54  28 2.54  55 2.55
                             3 2.56  10 2.57  53 2.58  25 2.58
  13  0.413  0.081  0.290-   4 2.44  11 2.49  10 2.50  45 2.51  50 2.51  26 2.52  12 2.52  54 2.53
                            46 2.54  15 2.57  63 2.57  28 2.58
  14  0.827  0.167  0.193-  60 2.44  12 2.45  15 2.47  57 2.50  62 2.51  55 2.51  27 2.53  58 2.56
                            51 2.56   5 2.58  64 2.59   9 2.68
  15  0.666  0.081  0.289-   4 2.39  14 2.47  12 2.49  56 2.51  62 2.51  60 2.52  47 2.52  57 2.54
                             6 2.55  28 2.55  63 2.56  13 2.57
  16  0.003  0.511  0.095-  31 2.44  29 2.45  23 2.48  33 2.51  58 2.57  18 2.58  27 2.59  55 2.60
                            51 2.63
  17  0.004  0.502  0.375-  37 2.38  60 2.42  43 2.49  32 2.49  30 2.52  19 2.53  52 2.55  56 2.56
                            24 2.56
  18  0.256  0.506  0.097-  36 2.40  31 2.45  34 2.47  22 2.47  20 2.48   7 2.52  58 2.53  51 2.58
                            16 2.58
  19  0.247  0.489  0.385-  67 1.86  52 2.41  59 2.50   8 2.50  21 2.53  17 2.53  61 2.57  37 2.59
                            35 2.59  32 2.60
  20  0.500  0.503  0.098-  22 2.41  40 2.43  34 2.48  18 2.48  38 2.50  25 2.53   7 2.53  53 2.54
                            23 2.58
  21  0.498  0.494  0.375-  26 2.38  61 2.42  42 2.43  19 2.53  35 2.53  54 2.55  24 2.55   8 2.56
                            39 2.57
  22  0.339  0.416  0.189-  20 2.41   7 2.43  40 2.46  18 2.47  25 2.48  26 2.48  10 2.48  61 2.51
                            36 2.53   9 2.55  59 2.56  58 2.60
  23  0.757  0.508  0.096-  29 2.40  41 2.46  16 2.48  27 2.48  38 2.48  25 2.56  55 2.57  20 2.58
                            53 2.60
  24  0.749  0.494  0.390-  65 1.88  69 1.94  28 2.51  56 2.52  21 2.55  54 2.56  17 2.56  30 2.59
                            39 2.61  42 2.63  43 2.75
  25  0.586  0.422  0.194-  42 2.42  40 2.45  41 2.46  27 2.46  26 2.47  22 2.48  20 2.53  28 2.55
                            23 2.56  53 2.58  12 2.58  10 2.59
  26  0.413  0.331  0.286-  21 2.38  10 2.41  25 2.47  22 2.48  59 2.50   8 2.52  13 2.52  61 2.52
                            11 2.54  28 2.57  42 2.59  54 2.66
  27  0.827  0.417  0.192-  43 2.41  41 2.45  25 2.46  23 2.48  60 2.50  12 2.50  55 2.51  28 2.53
                            14 2.53  58 2.59  16 2.59  33 2.60
  28  0.669  0.335  0.292-  56 2.49  60 2.49  42 2.50  24 2.51  27 2.53  12 2.54  43 2.54  15 2.55
                            25 2.55  26 2.57  13 2.58  54 2.58
  29  0.992  0.747  0.096-  23 2.40  16 2.45  38 2.48  41 2.50   1 2.50  33 2.54  44 2.56  49 2.57
                            31 2.63
  30  0.003  0.750  0.384-  65 1.85  46 2.44  50 2.46  32 2.50   2 2.52  17 2.52  48 2.55  24 2.59
                            39 2.59  43 2.61
  31  0.251  0.746  0.097-  16 2.44  36 2.44  18 2.45  33 2.49  34 2.52   3 2.52  45 2.55  49 2.56
                            29 2.63
  32  0.249  0.747  0.387-  67 1.87  50 2.47  17 2.49  30 2.50   4 2.51  46 2.53  35 2.57  63 2.59
                            19 2.60  37 2.61
  33  0.086  0.671  0.192-  43 2.40  45 2.48  44 2.48  46 2.49  31 2.49  37 2.49  16 2.51  36 2.52
                            41 2.52  29 2.54  58 2.55  27 2.60
  34  0.502  0.749  0.098-  18 2.47   5 2.47  40 2.48  36 2.48  20 2.48  62 2.49  38 2.49  31 2.52
                             3 2.52
  35  0.503  0.746  0.385-  67 1.87  39 2.45  47 2.49   4 2.50  21 2.53   6 2.54  61 2.55  32 2.57
                            63 2.58  19 2.59
  36  0.330  0.661  0.190-  18 2.40  31 2.44  34 2.48  37 2.48  58 2.49  61 2.49  63 2.50  33 2.52
                            22 2.53  40 2.53  62 2.56  45 2.62
  37  0.168  0.581  0.286-  17 2.38  58 2.45  36 2.48  63 2.49  61 2.49  33 2.49  59 2.51  46 2.51
                            60 2.55  43 2.55  19 2.59  32 2.61
  38  0.748  0.749  0.094-  29 2.48  23 2.48  34 2.49  20 2.50   5 2.53  40 2.54  64 2.55   1 2.55
                            41 2.58
  39  0.747  0.751  0.387-  65 1.84  35 2.45   6 2.47   2 2.50  47 2.52  21 2.57  42 2.58  30 2.59
                            24 2.61  48 2.61
  40  0.580  0.661  0.192-  20 2.43  25 2.45  22 2.46  61 2.47  34 2.48  42 2.52  36 2.53  38 2.54
                            41 2.54  47 2.54  62 2.56  64 2.57
  41  0.832  0.662  0.193-  43 2.35  42 2.43  48 2.45  27 2.45  25 2.46  23 2.46  29 2.50  33 2.52
                            40 2.54  64 2.54  44 2.57  38 2.58
  42  0.673  0.584  0.287-  25 2.42  21 2.43  41 2.43  43 2.47  48 2.47  28 2.50  40 2.52  47 2.54
                            39 2.58  26 2.59  61 2.60  24 2.63
  43  0.919  0.587  0.281-  41 2.35  33 2.40  27 2.41  46 2.46  42 2.47  48 2.47  17 2.49  28 2.54
                            37 2.55  60 2.56  30 2.61  24 2.75
  44  0.086  0.916  0.194-  45 2.43  11 2.45  48 2.45   9 2.47  33 2.48  10 2.49  46 2.52   1 2.53
                            49 2.53  64 2.54  29 2.56  41 2.57
  45  0.327  0.919  0.193-  44 2.43  33 2.48  10 2.48  49 2.49  13 2.51  46 2.51  63 2.52  12 2.54
                            31 2.55   3 2.55  62 2.59  36 2.62
  46  0.164  0.827  0.290-  30 2.44  43 2.46  33 2.49  50 2.51  45 2.51  37 2.51  44 2.52  63 2.52
                            48 2.52  32 2.53  11 2.53  13 2.54
  47  0.665  0.831  0.289-  35 2.49  39 2.52  62 2.52  15 2.52  64 2.52  63 2.53  61 2.53  42 2.54
                            48 2.54   6 2.54  40 2.54  57 2.56
  48  0.916  0.830  0.285-  44 2.45  41 2.45  64 2.46  42 2.47  43 2.47   2 2.49  11 2.51  46 2.52
                            47 2.54  30 2.55  57 2.56  39 2.61
  49  0.249  0.998  0.096-  45 2.49   1 2.51  44 2.53   3 2.53  53 2.55  31 2.56  29 2.57  10 2.58
                             7 2.58
  50  0.248  0.991  0.386-  66 1.87  30 2.46  32 2.47  46 2.51  13 2.51  54 2.52   8 2.55   4 2.55
                             2 2.58  11 2.58
  51  0.001  0.250  0.097-   7 2.49  58 2.51   9 2.52   1 2.54  55 2.55  14 2.56  18 2.58   5 2.59
                            16 2.63
  52  0.007  0.251  0.381-  68 1.89  19 2.41  59 2.46   8 2.46  57 2.50  56 2.54   2 2.54  60 2.54
                            17 2.55   6 2.57
  53  0.499  0.252  0.095-  55 2.53   7 2.54  20 2.54  49 2.55   3 2.58  25 2.58  12 2.58  10 2.59
                            23 2.60
  54  0.495  0.242  0.389-  66 1.92  69 2.03  50 2.52   8 2.53  13 2.53  21 2.55  24 2.56   4 2.57
                            28 2.58  56 2.59  26 2.66
  55  0.749  0.251  0.096-  14 2.51  27 2.51  53 2.53   5 2.54  51 2.55   3 2.55  12 2.55  23 2.57
                            16 2.60
  56  0.754  0.248  0.385-  69 1.94  68 1.96  28 2.49  15 2.51   6 2.52  24 2.52  60 2.52  52 2.54
                            17 2.56   4 2.58  54 2.59
  57  0.919  0.084  0.286-   2 2.48  64 2.49  14 2.50  52 2.50  59 2.51  11 2.52   9 2.52  60 2.53
                            15 2.54  48 2.56  47 2.56   6 2.58
  58  0.083  0.417  0.192-  37 2.45  60 2.48  36 2.49  59 2.50  51 2.51  18 2.53  33 2.55  14 2.56
                            16 2.57  27 2.59  22 2.60   9 2.62
  59  0.167  0.332  0.287-  52 2.46  58 2.50  19 2.50  26 2.50  61 2.51  37 2.51   8 2.51  57 2.51
                             9 2.53  22 2.56  11 2.56  60 2.56
  60  0.913  0.331  0.286-  17 2.42  14 2.44  58 2.48  28 2.49  27 2.50  15 2.52  56 2.52  57 2.53
                            52 2.54  37 2.55  43 2.56  59 2.56
  61  0.414  0.581  0.286-  21 2.42  40 2.47  36 2.49  37 2.49  63 2.50  22 2.51  59 2.51  26 2.52
                            47 2.53  35 2.55  19 2.57  42 2.60
  62  0.582  0.915  0.192-  63 2.48  34 2.49   3 2.50  14 2.51  15 2.51   5 2.52  47 2.52  12 2.52
                            64 2.55  36 2.56  40 2.56  45 2.59
  63  0.413  0.827  0.286-   4 2.43  62 2.48  37 2.49  61 2.50  36 2.50  45 2.52  46 2.52  47 2.53
                            15 2.56  13 2.57  35 2.58  32 2.59
  64  0.834  0.915  0.192-  48 2.46  57 2.49   1 2.51  47 2.52   9 2.54  44 2.54  41 2.54  38 2.55
                            62 2.55  40 2.57   5 2.58  14 2.59
  65  0.838  0.673  0.438-  39 1.84  30 1.85  24 1.88
  66  0.313  0.161  0.439-   8 1.79  50 1.87  54 1.92
  67  0.334  0.657  0.438-  19 1.86  35 1.87  32 1.87
  68  0.845  0.160  0.440-   6 1.82  52 1.89  56 1.96
  69  0.676  0.326  0.449-  70 1.54  24 1.94  56 1.94  54 2.03
  70  0.721  0.319  0.518-  71 0.99  69 1.54
  71  0.770  0.257  0.510-  70 0.99
 

IMPORTANT INFORMATION: All symmetrisations will be switched off!
NOSYMM: (Re-)initialisation of all symmetry stuff for point group C_1.

 
 

Automatic generation of k-mesh.
 generate k-points for:    1    1    1
Space group operators:
 irot       det(A)        alpha          n_x          n_y          n_z        tau_x        tau_y        tau_z
    1     1.000000     0.000000     1.000000     0.000000     0.000000     0.000000     0.000000     0.000000
 
 Subroutine IBZKPT returns following result:
 ===========================================
 
 Found      1 irreducible k-points:
 
 Following reciprocal coordinates:
            Coordinates               Weight
  0.000000  0.000000  0.000000      1.000000
 
 Following cartesian coordinates:
            Coordinates               Weight
  0.000000  0.000000  0.000000      1.000000
 
 
 Subroutine IBZKPT_HF returns following result:
 ==============================================
 
 Found      1 k-points in 1st BZ
 the following      1 k-points will be used (e.g. in the exchange kernel)
 Following reciprocal coordinates:   # in IRBZ
  0.000000  0.000000  0.000000    1.00000000   1 t-inv F


--------------------------------------------------------------------------------------------------------




 Dimension of arrays:
   k-points           NKPTS =      1   k-points in BZ     NKDIM =      1   number of bands    NBANDS=    348
   number of dos      NEDOS =    301   number of ions     NIONS =     71
   non local maximal  LDIM  =      6   non local SUM 2l+1 LMDIM =     18
   total plane-waves  NPLWV = ******
   max r-space proj   IRMAX =   8269   max aug-charges    IRDMAX=  19568
   dimension x,y,z NGX =    80 NGY =   80 NGZ =  160
   dimension x,y,z NGXF=   160 NGYF=  160 NGZF=  320
   support grid    NGXF=   160 NGYF=  160 NGZF=  320
   ions per type =              48  16   6   1
   NGX,Y,Z   is equivalent  to a cutoff of  13.15, 13.15, 12.51 a.u.
   NGXF,Y,Z  is equivalent  to a cutoff of  26.31, 26.31, 25.02 a.u.

 SYSTEM =  SQS-NiFe                                
 POSCAR =  POSCAR                                  

 Startparameter for this run:
   NWRITE =      2    write-flag & timer
   PREC   = accura    normal or accurate (medium, high low for compatibility)
   ISTART =      0    job   : 0-new  1-cont  2-samecut
   ICHARG =      1    charge: 1-file 2-atom 10-const
   ISPIN  =      1    spin polarized calculation?
   LNONCOLLINEAR =      F non collinear calculations
   LSORBIT =      F    spin-orbit coupling
   INIWAV =      1    electr: 0-lowe 1-rand  2-diag
   LASPH  =      F    aspherical Exc in radial PAW
   METAGGA=      F    non-selfconsistent MetaGGA calc.

 Electronic Relaxation 1
   ENCUT  =  520.0 eV  38.22 Ry    6.18 a.u.  18.80 18.80 39.54*2*pi/ulx,y,z
   ENINI  =  520.0     initial cutoff
   ENAUG  =  605.4 eV  augmentation charge cutoff
   NELM   =    200;   NELMIN=  2; NELMDL= -5     # of ELM steps 
   EDIFF  = 0.1E-05   stopping-criterion for ELM
   LREAL  =      T    real-space projection
   NLSPLINE    = F    spline interpolate recip. space projectors
   LCOMPAT=      F    compatible to vasp.4.4
   GGA_COMPAT  = T    GGA compatible to vasp.4.4-vasp.4.6
   LMAXPAW     = -100 max onsite density
   LMAXMIX     =    2 max onsite mixed and CHGCAR
   VOSKOWN=      0    Vosko Wilk Nusair interpolation
   ROPT   =   -0.00025  -0.00025  -0.00025  -0.00025
 Ionic relaxation
   EDIFFG = -.2E-01   stopping-criterion for IOM
   NSW    =    889    number of steps for IOM
   NBLOCK =      1;   KBLOCK =    889    inner block; outer block 
   IBRION =      5    ionic relax: 0-MD 1-quasi-New 2-CG
   NFREE  =      2    steps in history (QN), initial steepest desc. (CG)
   ISIF   =      2    stress and relaxation
   IWAVPR =     11    prediction:  0-non 1-charg 2-wave 3-comb
   ISYM   =      0    0-nonsym 1-usesym 2-fastsym
   LCORR  =      T    Harris-Foulkes like correction to forces

   POTIM  = 0.0150    time-step for ionic-motion
   TEIN   =    0.0    initial temperature
   TEBEG  =    0.0;   TEEND  =   0.0 temperature during run
   SMASS  =  -3.00    Nose mass-parameter (am)
   estimated Nose-frequenzy (Omega)   =  0.10E-29 period in steps =****** mass=  -0.234E-26a.u.
   SCALEE = 1.0000    scale energy and forces
   NPACO  =    256;   APACO  = 16.0  distance and # of slots for P.C.
   PSTRESS=    0.0 pullay stress

  Mass of Ions in am
   POMASS =  55.85 58.69 16.00  1.00
  Ionic Valenz
   ZVAL   =   8.00 10.00  6.00  1.00
  Atomic Wigner-Seitz radii
   RWIGS  =  -1.00 -1.00 -1.00 -1.00
  virtual crystal weights 
   VCA    =   1.00  1.00  1.00  1.00
   NELECT =     581.0000    total number of electrons
   NUPDOWN=      -1.0000    fix difference up-down

 DOS related values:
   EMIN   =  10.00;   EMAX   =-10.00  energy-range for DOS
   EFERMI =   0.00
   ISMEAR =     0;   SIGMA  =   0.20  broadening in eV -4-tet -1-fermi 0-gaus

 Electronic relaxation 2 (details)
   IALGO  =     68    algorithm
   LDIAG  =      T    sub-space diagonalisation (order eigenvalues)
   LSUBROT=      F    optimize rotation matrix (better conditioning)
   TURBO    =      0    0=normal 1=particle mesh
   IRESTART =      0    0=no restart 2=restart with 2 vectors
   NREBOOT  =      0    no. of reboots
   NMIN     =      0    reboot dimension
   EREF     =   0.00    reference energy to select bands
   IMIX   =      4    mixing-type and parameters
     AMIX     =   0.40;   BMIX     =  1.00
     AMIX_MAG =   1.60;   BMIX_MAG =  1.00
     AMIN     =   0.10
     WC   =   100.;   INIMIX=   1;  MIXPRE=   1;  MAXMIX= -45

 Intra band minimization:
   WEIMIN = 0.0010     energy-eigenvalue tresh-hold
   EBREAK =  0.72E-09  absolut break condition
   DEPER  =   0.30     relativ break condition  

   TIME   =   0.40     timestep for ELM

  volume/ion in A,a.u.               =      26.52       178.98
  Fermi-wavevector in a.u.,A,eV,Ry     =   1.106227  2.090466 16.649976  1.223739
  Thomas-Fermi vector in A             =   2.242725
 
 Write flags
   LWAVE        =      F    write WAVECAR
   LDOWNSAMPLE  =      F    k-point downsampling of WAVECAR
   LCHARG       =      F    write CHGCAR
   LVTOT        =      F    write LOCPOT, total local potential
   LVHAR        =      F    write LOCPOT, Hartree potential only
   LELF         =      F    write electronic localiz. function (ELF)
   LORBIT       =     10    0 simple, 1 ext, 2 COOP (PROOUT), +10 PAW based schemes


 Dipole corrections
   LMONO  =      F    monopole corrections only (constant potential shift)
   LDIPOL =      F    correct potential (dipole corrections)
   IDIPOL =      0    1-x, 2-y, 3-z, 4-all directions 
   EPSILON=  1.0000000 bulk dielectric constant

 Exchange correlation treatment:
   GGA     =    --    GGA type
   LEXCH   =     8    internal setting for exchange type
   VOSKOWN=      0    Vosko Wilk Nusair interpolation
   LHFCALC =     F    Hartree Fock is set to
   LHFONE  =     F    Hartree Fock one center treatment
   AEXX    =    0.0000 exact exchange contribution

 Linear response parameters
   LEPSILON=     F    determine dielectric tensor
   LRPA    =     F    only Hartree local field effects (RPA)
   LNABLA  =     F    use nabla operator in PAW spheres
   LVEL    =     F    velocity operator in full k-point grid
   LINTERFAST=   F  fast interpolation
   KINTER  =     0    interpolate to denser k-point grid
   CSHIFT  =0.1000    complex shift for real part using Kramers Kronig
   OMEGAMAX=  -1.0    maximum frequency
   DEG_THRESHOLD= 0.2000000E-02 threshold for treating states as degnerate
   RTIME   =   -0.100 relaxation time in fs
  (WPLASMAI=    0.000 imaginary part of plasma frequency in eV, 0.658/RTIME)
   DFIELD  = 0.0000000 0.0000000 0.0000000 field for delta impulse in time
 
 Orbital magnetization related:
   ORBITALMAG=     F  switch on orbital magnetization
   LCHIMAG   =     F  perturbation theory with respect to B field
   DQ        =  0.001000  dq finite difference perturbation B field
   LLRAUG    =     F  two centre corrections for induced B field



--------------------------------------------------------------------------------------------------------


 finite differences
   using selective dynamics as specified on POSCAR
 charge density and potential will be updated during run
 non-spin polarized calculation
 RMM-DIIS sequential band-by-band and
  variant of blocked Davidson during initial phase
 perform sub-space diagonalisation
    before iterative eigenvector-optimisation
 modified Broyden-mixing scheme, WC =      100.0
 initial mixing is a Kerker type mixing with AMIX =  0.4000 and BMIX =      1.0000
 Hartree-type preconditioning will be used
 using additional bands           57
 real space projection scheme for non local part
 use partial core corrections
 calculate Harris-corrections to forces 
   (improved forces if not selfconsistent)
 use gradient corrections 
 use of overlap-Matrix (Vanderbilt PP)
 Gauss-broadening in eV      SIGMA  =   0.20


--------------------------------------------------------------------------------------------------------


  energy-cutoff  :      520.00
  volume of cell :     1883.07
      direct lattice vectors                 reciprocal lattice vectors
    10.111630000  0.000000000  0.000000000     0.098896024  0.057097646  0.000000000
    -5.055815000  8.756928450  0.000000000     0.000000000  0.114195292  0.000000000
     0.000000000  0.000000000 21.266430000     0.000000000  0.000000000  0.047022467

  length of vectors
    10.111630000 10.111629997 21.266430000     0.114195292  0.114195292  0.047022467


 
 k-points in units of 2pi/SCALE and weight: read from INCAR                         
   0.00000000  0.00000000  0.00000000       1.000
 
 k-points in reciprocal lattice and weights: read from INCAR                         
   0.00000000  0.00000000  0.00000000       1.000
 
 position of ions in fractional coordinates (direct lattice) 
   0.00194700  0.99920000  0.09682900
   0.99614495  0.99532530  0.38029916
   0.49880600  0.99647600  0.09614500
   0.50049910  0.99109162  0.37823114
   0.74316000  0.99645900  0.09443100
   0.75301378  0.99824685  0.38635471
   0.24913600  0.25322600  0.09681000
   0.24491720  0.24092205  0.38186232
   0.08873200  0.16149400  0.19059200
   0.32962600  0.16609800  0.19506300
   0.16468759  0.07798057  0.28749756
   0.58333000  0.16550300  0.19443700
   0.41292331  0.08131548  0.29005616
   0.82651500  0.16651000  0.19326300
   0.66636286  0.08082327  0.28885810
   0.00320800  0.51090900  0.09451300
   0.00387156  0.50206501  0.37518435
   0.25586900  0.50577700  0.09734600
   0.24678854  0.48889632  0.38476130
   0.49960200  0.50304900  0.09754100
   0.49827504  0.49352985  0.37515455
   0.33859900  0.41583700  0.18939300
   0.75679100  0.50804300  0.09630900
   0.74863783  0.49375289  0.38974999
   0.58633600  0.42229400  0.19423600
   0.41335449  0.33077913  0.28575539
   0.82677100  0.41676200  0.19199500
   0.66928455  0.33457987  0.29151211
   0.99180600  0.74702800  0.09571300
   0.00349582  0.75023316  0.38373584
   0.25104600  0.74563900  0.09703600
   0.24902815  0.74708717  0.38727692
   0.08604600  0.67086900  0.19220200
   0.50153700  0.74905700  0.09752900
   0.50269755  0.74557761  0.38461713
   0.33005900  0.66135600  0.19018600
   0.16786823  0.58079140  0.28566676
   0.74777500  0.74863100  0.09404500
   0.74730851  0.75097858  0.38657458
   0.58008200  0.66096300  0.19152700
   0.83213700  0.66199500  0.19303500
   0.67317161  0.58357229  0.28673204
   0.91876186  0.58655522  0.28135105
   0.08603600  0.91635500  0.19371200
   0.32743000  0.91932200  0.19293700
   0.16395993  0.82701058  0.28981480
   0.66534569  0.83075362  0.28864119
   0.91612541  0.82980447  0.28529347
   0.24916500  0.99813100  0.09559800
   0.24845256  0.99066231  0.38643502
   0.00129700  0.24974200  0.09658600
   0.00681609  0.25146908  0.38149150
   0.49933100  0.25162700  0.09537300
   0.49481706  0.24172359  0.38905664
   0.74944200  0.25071300  0.09573100
   0.75411416  0.24772538  0.38456180
   0.91889871  0.08430853  0.28608805
   0.08260800  0.41708000  0.19225300
   0.16720235  0.33233182  0.28667401
   0.91336815  0.33121784  0.28562834
   0.41439960  0.58085110  0.28559073
   0.58190700  0.91526900  0.19241300
   0.41322923  0.82726531  0.28586432
   0.83399900  0.91457100  0.19240400
   0.83829152  0.67332666  0.43776998
   0.31330800  0.16053318  0.43921923
   0.33383061  0.65743003  0.43813303
   0.84504919  0.15987796  0.43976397
   0.67568727  0.32622498  0.44906445
   0.72073568  0.31852627  0.51765061
   0.77006053  0.25655653  0.50981547
 
 position of ions in cartesian coordinates  (Angst):
  -5.03208300  8.74992291  2.05920715
   5.04046858  8.71599240  8.08760543
   0.00574341  8.72606903  2.04466091
   0.05008586  8.67891843  8.04362616
   2.47664659  8.72592017  2.00821025
   2.56724537  8.74157620  8.21638549
   1.23890724  2.21748196  2.05880309
   1.25845477  2.10973716  8.12084825
   0.08074137  1.41419140  4.05321143
   2.49329539  1.45450830  4.14829364
   1.27100459  0.68287029  6.11404671
   5.06166458  1.44929793  4.13498085
   3.76421170  0.71207385  6.16845910
   7.51557011  1.45811616  4.11001406
   6.32938713  0.70776363  6.14298065
  -2.55062328  4.47399356  2.00995410
  -2.49920000  4.39654739  7.97883176
   0.03013771  4.42905300  2.07020189
   0.02366506  4.28123013  8.18249918
   2.50846789  4.40516410  2.07434885
   2.54317718  4.32180558  7.97819805
   1.32139286  3.64145486  4.02771298
   5.08381916  4.44889620  2.04814861
   5.07362543  4.32375873  8.28859084
   3.79377235  3.69799834  4.13070630
   2.50732961  2.89660917  6.07699707
   6.25293088  3.64955501  4.08304823
   5.07598383  2.92989198  6.19942183
   6.25193994  6.54167075  2.03547381
  -3.75769161  6.56973806  8.16069139
  -1.23132858  6.52950737  2.06360930
  -1.25905403  6.54218892  8.23599760
  -2.52172424  5.87475183  4.08745038
   1.28426296  6.55943855  2.07409365
   1.31358916  6.52896980  8.17943317
  -0.00625910  5.79144717  4.04457726
  -1.23895244  5.08594875  6.07511208
   3.77628428  6.55570810  2.00000141
   3.75969834  6.57626571  8.22106117
   2.52386790  5.78800570  4.07309554
   5.06733720  5.79704285  4.10516532
   3.85642872  5.11030079  6.09776682
   6.32466528  5.13642211  5.98333242
  -3.76295716  8.02445517  4.11956269
  -1.33707095  8.05043698  4.10308120
  -2.52331032  7.24207244  6.16332618
   2.52759286  7.27485000  6.13836773
   5.06818330  7.26653840  6.06717354
  -2.52690139  8.74056175  2.03302818
  -2.49634499  8.67515898  8.21809324
  -1.24953457  2.18697282  2.05403941
  -1.20245933  2.20209675  8.11296235
   3.77687076  2.20347964  2.02824323
   3.78129721  2.11675621  8.27384576
   6.31052166  2.19547580  2.03585661
   6.37286966  2.16931346  8.17825660
   8.86531545  0.73828374  6.08407149
  -1.27337779  3.65233972  4.08853497
   0.01048011  2.91020601  6.09653286
   7.56106467  2.90045089  6.07429515
   1.25357973  5.08647149  6.07349537
   1.25659754  8.01494515  4.09193760
  -0.00407928  7.24430311  6.07931346
   3.80918753  8.00883281  4.09174620
   5.07227863  5.89627338  9.30980466
   2.35642852  1.40577755  9.34062498
   0.05172704  5.75706769  9.31752531
   7.73651134  1.40003983  9.35220976
   5.18296656  2.85672877  9.54999771
   5.67740266  2.78931174 11.00858053
   6.48946482  2.24664716 10.84195499
 


--------------------------------------------------------------------------------------------------------


 use parallel FFT for orbitals z direction half grid
 k-point  1 :   0.0000 0.0000 0.0000  plane waves:   25381

 maximum and minimum number of plane-waves per node :      1060     1055

 maximum number of plane-waves:     25381
 maximum index in each direction: 
   IXMAX=   18   IYMAX=   18   IZMAX=   39
   IXMIN=  -18   IYMIN=  -18   IZMIN=    0


 real space projection operators:
  total allocation   :      70262.41 KBytes
  max/ min on nodes  :       3503.99       2632.56


 parallel 3D FFT for wavefunctions:
    minimum data exchange during FFTs selected (reduces bandwidth)
 parallel 3D FFT for charge:
    minimum data exchange during FFTs selected (reduces bandwidth)


 total amount of memory used by VASP MPI-rank0    55443. kBytes
=======================================================================

   base      :      30000. kBytes
   nonlr-proj:       4274. kBytes
   fftplans  :       5965. kBytes
   grid      :      13166. kBytes
   one-center:         23. kBytes
   wavefun   :       2015. kBytes
 
     INWAV:  cpu time    0.0009: real time    0.0001
 Broyden mixing: mesh for mixing (old mesh)
   NGX = 37   NGY = 37   NGZ = 79
  (NGX  =160   NGY  =160   NGZ  =320)
  gives a total of 108151 points

 initial charge density was supplied:
 number of electron     581.0000099 magnetization 
 keeping initial charge density in first step


--------------------------------------------------------------------------------------------------------


 Maximum index for non-local projection operator          763
 Maximum index for augmentation-charges         1126 (set IRDMAX)


--------------------------------------------------------------------------------------------------------


 First call to EWALD:  gamma=   0.144
 Maximum number of real-space cells 4x 4x 2
 Maximum number of reciprocal cells 2x 2x 4

    FEWALD:  cpu time    0.0035: real time    0.0035


--------------------------------------- Iteration      1(   1)  ---------------------------------------


    POTLOK:  cpu time    0.1976: real time    0.2040
    SETDIJ:  cpu time    0.0384: real time    0.0385
     EDDAV:  cpu time    2.0522: real time    2.0647
       DOS:  cpu time    0.0064: real time    0.0064
    --------------------------------------------
      LOOP:  cpu time    2.2946: real time    2.3136

 eigenvalue-minimisations  :   696
 total energy-change (2. order) : 0.5569314E+04  (-0.2872145E+05)
 number of electron     581.0000099 magnetization 
 augmentation part      581.0000099 magnetization 

 Free energy of the ion-electron system (eV)
  ---------------------------------------------------
  alpha Z        PSCENC =      1574.84167972
  Ewald energy   TEWEN  =    174617.10601979
  -Hartree energ DENC   =   -222588.59800606
  -exchange      EXHF   =         0.00000000
  -V(xc)+E(xc)   XCENC  =       802.62459676
  PAW double counting   =     55056.57773884   -56598.53603906
  entropy T*S    EENTRO =        -0.41885732
  eigenvalues    EBANDS =      4329.33878241
  atomic energy  EATOM  =     48376.37827422
  Solvation  Ediel_sol  =         0.00000000
  ---------------------------------------------------
  free energy    TOTEN  =      5569.31418931 eV

  energy without entropy =     5569.73304663  energy(sigma->0) =     5569.52361797


--------------------------------------------------------------------------------------------------------




--------------------------------------- Iteration      1(   2)  ---------------------------------------


     EDDAV:  cpu time    1.9733: real time    1.9857
       DOS:  cpu time    0.0013: real time    0.0013
    --------------------------------------------
      LOOP:  cpu time    1.9746: real time    1.9870

 eigenvalue-minimisations  :   696
 total energy-change (2. order) :-0.5349471E+04  (-0.5234246E+04)
 number of electron     581.0000099 magnetization 
 augmentation part      581.0000099 magnetization 

 Free energy of the ion-electron system (eV)
  ---------------------------------------------------
  alpha Z        PSCENC =      1574.84167972
  Ewald energy   TEWEN  =    174617.10601979
  -Hartree energ DENC   =   -222588.59800606
  -exchange      EXHF   =         0.00000000
  -V(xc)+E(xc)   XCENC  =       802.62459676
  PAW double counting   =     55056.57773884   -56598.53603906
  entropy T*S    EENTRO =        -1.61883813
  eigenvalues    EBANDS =     -1018.93201090
  atomic energy  EATOM  =     48376.37827422
  Solvation  Ediel_sol  =         0.00000000
  ---------------------------------------------------
  free energy    TOTEN  =       219.84341518 eV

  energy without entropy =      221.46225331  energy(sigma->0) =      220.65283425


--------------------------------------------------------------------------------------------------------




--------------------------------------- Iteration      1(   3)  ---------------------------------------


     EDDAV:  cpu time    2.0500: real time    2.0657
       DOS:  cpu time    0.0014: real time    0.0014
    --------------------------------------------
      LOOP:  cpu time    2.0515: real time    2.0672

 eigenvalue-minimisations  :   729
 total energy-change (2. order) :-0.5709962E+03  (-0.5102716E+03)
 number of electron     581.0000099 magnetization 
 augmentation part      581.0000099 magnetization 

 Free energy of the ion-electron system (eV)
  ---------------------------------------------------
  alpha Z        PSCENC =      1574.84167972
  Ewald energy   TEWEN  =    174617.10601979
  -Hartree energ DENC   =   -222588.59800606
  -exchange      EXHF   =         0.00000000
  -V(xc)+E(xc)   XCENC  =       802.62459676
  PAW double counting   =     55056.57773884   -56598.53603906
  entropy T*S    EENTRO =        -2.48284813
  eigenvalues    EBANDS =     -1589.06422740
  atomic energy  EATOM  =     48376.37827422
  Solvation  Ediel_sol  =         0.00000000
  ---------------------------------------------------
  free energy    TOTEN  =      -351.15281132 eV

  energy without entropy =     -348.66996319  energy(sigma->0) =     -349.91138726


--------------------------------------------------------------------------------------------------------




--------------------------------------- Iteration      1(   4)  ---------------------------------------


     EDDAV:  cpu time    3.3953: real time    3.4091
       DOS:  cpu time    0.0020: real time    0.0020
    --------------------------------------------
      LOOP:  cpu time    3.3983: real time    3.4111

 eigenvalue-minimisations  :  1374
 total energy-change (2. order) :-0.1202244E+03  (-0.1110595E+03)
 number of electron     581.0000099 magnetization 
 augmentation part      581.0000099 magnetization 

 Free energy of the ion-electron system (eV)
  ---------------------------------------------------
  alpha Z        PSCENC =      1574.84167972
  Ewald energy   TEWEN  =    174617.10601979
  -Hartree energ DENC   =   -222588.59800606
  -exchange      EXHF   =         0.00000000
  -V(xc)+E(xc)   XCENC  =       802.62459676
  PAW double counting   =     55056.57773884   -56598.53603906
  entropy T*S    EENTRO =        -2.81089312
  eigenvalues    EBANDS =     -1708.96054882
  atomic energy  EATOM  =     48376.37827422
  Solvation  Ediel_sol  =         0.00000000
  ---------------------------------------------------
  free energy    TOTEN  =      -471.37717772 eV

  energy without entropy =     -468.56628460  energy(sigma->0) =     -469.97173116


--------------------------------------------------------------------------------------------------------




--------------------------------------- Iteration      1(   5)  ---------------------------------------


     EDDAV:  cpu time    3.0433: real time    3.0560
       DOS:  cpu time    0.0015: real time    0.0015
    CHARGE:  cpu time    0.1155: real time    0.1155
    MIXING:  cpu time    0.0137: real time    0.0137
    --------------------------------------------
      LOOP:  cpu time    3.1731: real time    3.1867

 eigenvalue-minimisations  :  1221
 total energy-change (2. order) :-0.2005948E+02  (-0.1893235E+02)
 number of electron     581.0000097 magnetization 
 augmentation part      300.0174082 magnetization 

 Broyden mixing:
  rms(total) = 0.31261E+01    rms(broyden)= 0.31258E+01
  rms(prec ) = 0.35332E+01
  weight for this iteration     100.00

 Free energy of the ion-electron system (eV)
  ---------------------------------------------------
  alpha Z        PSCENC =      1574.84167972
  Ewald energy   TEWEN  =    174617.10601979
  -Hartree energ DENC   =   -222588.59800606
  -exchange      EXHF   =         0.00000000
  -V(xc)+E(xc)   XCENC  =       802.62459676
  PAW double counting   =     55056.57773884   -56598.53603906
  entropy T*S    EENTRO =        -2.97789612
  eigenvalues    EBANDS =     -1728.85302162
  atomic energy  EATOM  =     48376.37827422
  Solvation  Ediel_sol  =         0.00000000
  ---------------------------------------------------
  free energy    TOTEN  =      -491.43665353 eV

  energy without entropy =     -488.45875741  energy(sigma->0) =     -489.94770547


--------------------------------------------------------------------------------------------------------




--------------------------------------- Iteration      1(   6)  ---------------------------------------


    POTLOK:  cpu time    0.1845: real time    0.1955
    SETDIJ:  cpu time    0.0108: real time    0.0108
    EDDIAG:  cpu time    0.2937: real time    0.2938
  RMM-DIIS:  cpu time    1.7948: real time    1.7954
    ORTHCH:  cpu time    0.0615: real time    0.0615
       DOS:  cpu time    0.0019: real time    0.0019
    CHARGE:  cpu time    0.0983: real time    0.0984
    MIXING:  cpu time    0.0053: real time    0.0053
    --------------------------------------------
      LOOP:  cpu time    2.4507: real time    2.4626

 eigenvalue-minimisations  :   888
 total energy-change (2. order) :-0.2898855E+03  (-0.3999177E+02)
 number of electron     581.0000098 magnetization 
 augmentation part      312.6439952 magnetization 

 Broyden mixing:
  rms(total) = 0.16290E+02    rms(broyden)= 0.16290E+02
  rms(prec ) = 0.22035E+02
  weight for this iteration     100.00

 eigenvalues of (default mixing * dielectric matrix)
  average eigenvalue GAMMA=   0.1322
  0.1322

 Free energy of the ion-electron system (eV)
  ---------------------------------------------------
  alpha Z        PSCENC =      1574.84167972
  Ewald energy   TEWEN  =    174617.10601979
  -Hartree energ DENC   =   -222560.08265889
  -exchange      EXHF   =         0.00000000
  -V(xc)+E(xc)   XCENC  =       797.81210617
  PAW double counting   =     54351.68270762   -55856.14823550
  entropy T*S    EENTRO =        -0.91118174
  eigenvalues    EBANDS =     -2082.00082663
  atomic energy  EATOM  =     48376.37827422
  Solvation  Ediel_sol  =         0.00000000
  ---------------------------------------------------
  free energy    TOTEN  =      -781.32211524 eV

  energy without entropy =     -780.41093350  energy(sigma->0) =     -780.86652437


--------------------------------------------------------------------------------------------------------




--------------------------------------- Iteration      1(   7)  ---------------------------------------


    POTLOK:  cpu time    0.1841: real time    0.1953
    SETDIJ:  cpu time    0.0107: real time    0.0107
    EDDIAG:  cpu time    0.2920: real time    0.2920
  RMM-DIIS:  cpu time    1.4025: real time    1.4031
    ORTHCH:  cpu time    0.0615: real time    0.0615
       DOS:  cpu time    0.0020: real time    0.0020
    CHARGE:  cpu time    0.1041: real time    0.1041
    MIXING:  cpu time    0.0035: real time    0.0034
    --------------------------------------------
      LOOP:  cpu time    2.0604: real time    2.0722

 eigenvalue-minimisations  :   699
 total energy-change (2. order) : 0.2367251E+03  (-0.1735775E+02)
 number of electron     581.0000103 magnetization 
 augmentation part      303.5664634 magnetization 

 Broyden mixing:
  rms(total) = 0.93343E+01    rms(broyden)= 0.93340E+01
  rms(prec ) = 0.11115E+02
  weight for this iteration     100.00

 eigenvalues of (default mixing * dielectric matrix)
  average eigenvalue GAMMA=   0.1167
  0.1557  0.0777

 Free energy of the ion-electron system (eV)
  ---------------------------------------------------
  alpha Z        PSCENC =      1574.84167972
  Ewald energy   TEWEN  =    174617.10601979
  -Hartree energ DENC   =   -222609.65985757
  -exchange      EXHF   =         0.00000000
  -V(xc)+E(xc)   XCENC  =       799.70388644
  PAW double counting   =     54463.96530145   -55982.56532488
  entropy T*S    EENTRO =        -2.10967938
  eigenvalues    EBANDS =     -1782.25735903
  atomic energy  EATOM  =     48376.37827422
  Solvation  Ediel_sol  =         0.00000000
  ---------------------------------------------------
  free energy    TOTEN  =      -544.59705924 eV

  energy without entropy =     -542.48737986  energy(sigma->0) =     -543.54221955


--------------------------------------------------------------------------------------------------------




--------------------------------------- Iteration      1(   8)  ---------------------------------------


    POTLOK:  cpu time    0.1861: real time    0.1984
    SETDIJ:  cpu time    0.0107: real time    0.0107
    EDDIAG:  cpu time    0.2919: real time    0.2920
  RMM-DIIS:  cpu time    1.4268: real time    1.4278
    ORTHCH:  cpu time    0.0609: real time    0.0609
       DOS:  cpu time    0.0026: real time    0.0026
    CHARGE:  cpu time    0.1066: real time    0.1066
    MIXING:  cpu time    0.0036: real time    0.0036
    --------------------------------------------
      LOOP:  cpu time    2.0892: real time    2.1027

 eigenvalue-minimisations  :   709
 total energy-change (2. order) : 0.4361395E+02  (-0.7206187E+01)
 number of electron     581.0000102 magnetization 
 augmentation part      300.2664564 magnetization 

 Broyden mixing:
  rms(total) = 0.47925E+01    rms(broyden)= 0.47922E+01
  rms(prec ) = 0.55854E+01
  weight for this iteration     100.00

 eigenvalues of (default mixing * dielectric matrix)
  average eigenvalue GAMMA=   0.1206
  0.1961  0.0829  0.0829

 Free energy of the ion-electron system (eV)
  ---------------------------------------------------
  alpha Z        PSCENC =      1574.84167972
  Ewald energy   TEWEN  =    174617.10601979
  -Hartree energ DENC   =   -222648.57183441
  -exchange      EXHF   =         0.00000000
  -V(xc)+E(xc)   XCENC  =       800.66866634
  PAW double counting   =     54496.15079338   -56021.67629976
  entropy T*S    EENTRO =        -2.66928701
  eigenvalues    EBANDS =     -1693.21112506
  atomic energy  EATOM  =     48376.37827422
  Solvation  Ediel_sol  =         0.00000000
  ---------------------------------------------------
  free energy    TOTEN  =      -500.98311279 eV

  energy without entropy =     -498.31382578  energy(sigma->0) =     -499.64846928


--------------------------------------------------------------------------------------------------------




--------------------------------------- Iteration      1(   9)  ---------------------------------------


    POTLOK:  cpu time    0.1894: real time    0.2000
    SETDIJ:  cpu time    0.0107: real time    0.0107
    EDDIAG:  cpu time    0.2931: real time    0.2932
  RMM-DIIS:  cpu time    1.5990: real time    1.5995
    ORTHCH:  cpu time    0.0611: real time    0.0611
       DOS:  cpu time    0.0023: real time    0.0023
    CHARGE:  cpu time    0.1123: real time    0.1123
    MIXING:  cpu time    0.0039: real time    0.0039
    --------------------------------------------
      LOOP:  cpu time    2.2718: real time    2.2830

 eigenvalue-minimisations  :   791
 total energy-change (2. order) : 0.8608737E+01  (-0.3008536E+01)
 number of electron     581.0000098 magnetization 
 augmentation part      299.8934974 magnetization 

 Broyden mixing:
  rms(total) = 0.25732E+01    rms(broyden)= 0.25729E+01
  rms(prec ) = 0.31106E+01
  weight for this iteration     100.00

 eigenvalues of (default mixing * dielectric matrix)
  average eigenvalue GAMMA=   0.1863
  0.4442  0.1186  0.1186  0.0640

 Free energy of the ion-electron system (eV)
  ---------------------------------------------------
  alpha Z        PSCENC =      1574.84167972
  Ewald energy   TEWEN  =    174617.10601979
  -Hartree energ DENC   =   -222618.37025684
  -exchange      EXHF   =         0.00000000
  -V(xc)+E(xc)   XCENC  =       801.25362448
  PAW double counting   =     54467.98653966   -55995.63854854
  entropy T*S    EENTRO =        -2.98758720
  eigenvalues    EBANDS =     -1712.94412075
  atomic energy  EATOM  =     48376.37827422
  Solvation  Ediel_sol  =         0.00000000
  ---------------------------------------------------
  free energy    TOTEN  =      -492.37437547 eV

  energy without entropy =     -489.38678826  energy(sigma->0) =     -490.88058186


--------------------------------------------------------------------------------------------------------




--------------------------------------- Iteration      1(  10)  ---------------------------------------


    POTLOK:  cpu time    0.1860: real time    0.1998
    SETDIJ:  cpu time    0.0107: real time    0.0107
    EDDIAG:  cpu time    0.2917: real time    0.2918
  RMM-DIIS:  cpu time    1.5370: real time    1.5374
    ORTHCH:  cpu time    0.0608: real time    0.0608
       DOS:  cpu time    0.0022: real time    0.0022
    CHARGE:  cpu time    0.1063: real time    0.1064
    MIXING:  cpu time    0.0038: real time    0.0038
    --------------------------------------------
      LOOP:  cpu time    2.1994: real time    2.2129

 eigenvalue-minimisations  :   751
 total energy-change (2. order) :-0.5065448E+01  (-0.2125451E+01)
 number of electron     581.0000099 magnetization 
 augmentation part      299.6798633 magnetization 

 Broyden mixing:
  rms(total) = 0.42100E+01    rms(broyden)= 0.42098E+01
  rms(prec ) = 0.49198E+01
  weight for this iteration     100.00

 eigenvalues of (default mixing * dielectric matrix)
  average eigenvalue GAMMA=   0.3270
  1.2311  0.1244  0.1244  0.0945  0.0605

 Free energy of the ion-electron system (eV)
  ---------------------------------------------------
  alpha Z        PSCENC =      1574.84167972
  Ewald energy   TEWEN  =    174617.10601979
  -Hartree energ DENC   =   -222639.39907464
  -exchange      EXHF   =         0.00000000
  -V(xc)+E(xc)   XCENC  =       801.60152697
  PAW double counting   =     54360.63058389   -55886.97657881
  entropy T*S    EENTRO =        -3.03704856
  eigenvalues    EBANDS =     -1698.58520609
  atomic energy  EATOM  =     48376.37827422
  Solvation  Ediel_sol  =         0.00000000
  ---------------------------------------------------
  free energy    TOTEN  =      -497.43982351 eV

  energy without entropy =     -494.40277494  energy(sigma->0) =     -495.92129923


--------------------------------------------------------------------------------------------------------




--------------------------------------- Iteration      1(  11)  ---------------------------------------


    POTLOK:  cpu time    0.1883: real time    0.2005
    SETDIJ:  cpu time    0.0107: real time    0.0107
    EDDIAG:  cpu time    0.2919: real time    0.2922
  RMM-DIIS:  cpu time    1.4880: real time    1.4884
    ORTHCH:  cpu time    0.0621: real time    0.0621
       DOS:  cpu time    0.0021: real time    0.0021
    CHARGE:  cpu time    0.1063: real time    0.1063
    MIXING:  cpu time    0.0039: real time    0.0039
    --------------------------------------------
      LOOP:  cpu time    2.1524: real time    2.1662

 eigenvalue-minimisations  :   738
 total energy-change (2. order) : 0.1435073E+01  (-0.1441078E+01)
 number of electron     581.0000097 magnetization 
 augmentation part      301.9845159 magnetization 

 Broyden mixing:
  rms(total) = 0.38752E+01    rms(broyden)= 0.38750E+01
  rms(prec ) = 0.47727E+01
  weight for this iteration     100.00

 eigenvalues of (default mixing * dielectric matrix)
  average eigenvalue GAMMA=   0.3379
  1.4888  0.1490  0.1490  0.0909  0.0909  0.0585

 Free energy of the ion-electron system (eV)
  ---------------------------------------------------
  alpha Z        PSCENC =      1574.84167972
  Ewald energy   TEWEN  =    174617.10601979
  -Hartree energ DENC   =   -222566.43960434
  -exchange      EXHF   =         0.00000000
  -V(xc)+E(xc)   XCENC  =       801.06843487
  PAW double counting   =     54050.45398955   -55562.91942245
  entropy T*S    EENTRO =        -2.91067277
  eigenvalues    EBANDS =     -1783.58344864
  atomic energy  EATOM  =     48376.37827422
  Solvation  Ediel_sol  =         0.00000000
  ---------------------------------------------------
  free energy    TOTEN  =      -496.00475005 eV

  energy without entropy =     -493.09407728  energy(sigma->0) =     -494.54941367


--------------------------------------------------------------------------------------------------------




--------------------------------------- Iteration      1(  12)  ---------------------------------------


    POTLOK:  cpu time    0.1879: real time    0.2007
    SETDIJ:  cpu time    0.0106: real time    0.0106
    EDDIAG:  cpu time    0.2908: real time    0.2909
  RMM-DIIS:  cpu time    1.4282: real time    1.4286
    ORTHCH:  cpu time    0.0612: real time    0.0612
       DOS:  cpu time    0.0019: real time    0.0019
    CHARGE:  cpu time    0.1064: real time    0.1064
    MIXING:  cpu time    0.0040: real time    0.0040
    --------------------------------------------
      LOOP:  cpu time    2.0910: real time    2.1043

 eigenvalue-minimisations  :   708
 total energy-change (2. order) : 0.1867717E+01  (-0.1177597E+01)
 number of electron     581.0000101 magnetization 
 augmentation part      302.0058756 magnetization 

 Broyden mixing:
  rms(total) = 0.31316E+01    rms(broyden)= 0.31314E+01
  rms(prec ) = 0.36209E+01
  weight for this iteration     100.00

 eigenvalues of (default mixing * dielectric matrix)
  average eigenvalue GAMMA=   0.3944
  1.8903  0.3875  0.1437  0.1064  0.1064  0.0699  0.0567

 Free energy of the ion-electron system (eV)
  ---------------------------------------------------
  alpha Z        PSCENC =      1574.84167972
  Ewald energy   TEWEN  =    174617.10601979
  -Hartree energ DENC   =   -222586.89867377
  -exchange      EXHF   =         0.00000000
  -V(xc)+E(xc)   XCENC  =       800.97759175
  PAW double counting   =     53946.85981099   -55455.95171940
  entropy T*S    EENTRO =        -2.92609968
  eigenvalues    EBANDS =     -1764.52391636
  atomic energy  EATOM  =     48376.37827422
  Solvation  Ediel_sol  =         0.00000000
  ---------------------------------------------------
  free energy    TOTEN  =      -494.13703273 eV

  energy without entropy =     -491.21093306  energy(sigma->0) =     -492.67398289


--------------------------------------------------------------------------------------------------------




--------------------------------------- Iteration      1(  13)  ---------------------------------------


    POTLOK:  cpu time    0.1897: real time    0.2016
    SETDIJ:  cpu time    0.0106: real time    0.0106
    EDDIAG:  cpu time    0.2939: real time    0.2940
  RMM-DIIS:  cpu time    1.4349: real time    1.4356
    ORTHCH:  cpu time    0.0614: real time    0.0615
       DOS:  cpu time    0.0020: real time    0.0020
    CHARGE:  cpu time    0.1061: real time    0.1061
    MIXING:  cpu time    0.0041: real time    0.0041
    --------------------------------------------
      LOOP:  cpu time    2.1037: real time    2.1155

 eigenvalue-minimisations  :   709
 total energy-change (2. order) :-0.1871201E+01  (-0.1357389E+01)
 number of electron     581.0000102 magnetization 
 augmentation part      301.3850092 magnetization 

 Broyden mixing:
  rms(total) = 0.35474E+01    rms(broyden)= 0.35472E+01
  rms(prec ) = 0.40548E+01
  weight for this iteration     100.00

 eigenvalues of (default mixing * dielectric matrix)
  average eigenvalue GAMMA=   0.4108
  2.1554  0.5511  0.1366  0.1141  0.1141  0.0898  0.0685  0.0567

 Free energy of the ion-electron system (eV)
  ---------------------------------------------------
  alpha Z        PSCENC =      1574.84167972
  Ewald energy   TEWEN  =    174617.10601979
  -Hartree energ DENC   =   -222595.92459265
  -exchange      EXHF   =         0.00000000
  -V(xc)+E(xc)   XCENC  =       801.65419921
  PAW double counting   =     53817.68532147   -55327.81215446
  entropy T*S    EENTRO =        -3.05930697
  eigenvalues    EBANDS =     -1756.87767412
  atomic energy  EATOM  =     48376.37827422
  Solvation  Ediel_sol  =         0.00000000
  ---------------------------------------------------
  free energy    TOTEN  =      -496.00823379 eV

  energy without entropy =     -492.94892683  energy(sigma->0) =     -494.47858031


--------------------------------------------------------------------------------------------------------




--------------------------------------- Iteration      1(  14)  ---------------------------------------


    POTLOK:  cpu time    0.1872: real time    0.1998
    SETDIJ:  cpu time    0.0109: real time    0.0109
    EDDIAG:  cpu time    0.2915: real time    0.2915
  RMM-DIIS:  cpu time    1.4378: real time    1.4383
    ORTHCH:  cpu time    0.0620: real time    0.0620
       DOS:  cpu time    0.0020: real time    0.0020
    CHARGE:  cpu time    0.1062: real time    0.1062
    MIXING:  cpu time    0.0042: real time    0.0042
    --------------------------------------------
      LOOP:  cpu time    2.1018: real time    2.1149

 eigenvalue-minimisations  :   715
 total energy-change (2. order) : 0.3252473E+01  (-0.6939111E+00)
 number of electron     581.0000095 magnetization 
 augmentation part      300.7334736 magnetization 

 Broyden mixing:
  rms(total) = 0.24594E+01    rms(broyden)= 0.24592E+01
  rms(prec ) = 0.28032E+01
  weight for this iteration     100.00

 eigenvalues of (default mixing * dielectric matrix)
  average eigenvalue GAMMA=   0.3984
  2.2980  0.5973  0.1409  0.1409  0.1043  0.1043  0.0767  0.0566  0.0667

 Free energy of the ion-electron system (eV)
  ---------------------------------------------------
  alpha Z        PSCENC =      1574.84167972
  Ewald energy   TEWEN  =    174617.10601979
  -Hartree energ DENC   =   -222617.97315695
  -exchange      EXHF   =         0.00000000
  -V(xc)+E(xc)   XCENC  =       802.11026494
  PAW double counting   =     53731.68201681   -55243.46018881
  entropy T*S    EENTRO =        -3.14684543
  eigenvalues    EBANDS =     -1730.29382544
  atomic energy  EATOM  =     48376.37827422
  Solvation  Ediel_sol  =         0.00000000
  ---------------------------------------------------
  free energy    TOTEN  =      -492.75576114 eV

  energy without entropy =     -489.60891570  energy(sigma->0) =     -491.18233842


--------------------------------------------------------------------------------------------------------




--------------------------------------- Iteration      1(  15)  ---------------------------------------


    POTLOK:  cpu time    0.1897: real time    0.2014
    SETDIJ:  cpu time    0.0109: real time    0.0109
    EDDIAG:  cpu time    0.2908: real time    0.2908
  RMM-DIIS:  cpu time    1.4746: real time    1.4751
    ORTHCH:  cpu time    0.0619: real time    0.0619
       DOS:  cpu time    0.0021: real time    0.0021
    CHARGE:  cpu time    0.1065: real time    0.1065
    MIXING:  cpu time    0.0044: real time    0.0044
    --------------------------------------------
      LOOP:  cpu time    2.1400: real time    2.1531

 eigenvalue-minimisations  :   725
 total energy-change (2. order) : 0.1791195E+01  (-0.3241583E+00)
 number of electron     581.0000099 magnetization 
 augmentation part      300.6657400 magnetization 

 Broyden mixing:
  rms(total) = 0.13711E+01    rms(broyden)= 0.13709E+01
  rms(prec ) = 0.15767E+01
  weight for this iteration     100.00

 eigenvalues of (default mixing * dielectric matrix)
  average eigenvalue GAMMA=   0.3858
  2.4160  0.6047  0.1842  0.1516  0.1116  0.1116  0.0898  0.0716  0.0563  0.0602

 Free energy of the ion-electron system (eV)
  ---------------------------------------------------
  alpha Z        PSCENC =      1574.84167972
  Ewald energy   TEWEN  =    174617.10601979
  -Hartree energ DENC   =   -222616.85917866
  -exchange      EXHF   =         0.00000000
  -V(xc)+E(xc)   XCENC  =       802.11145271
  PAW double counting   =     53680.34517602   -55191.24564244
  entropy T*S    EENTRO =        -3.21788035
  eigenvalues    EBANDS =     -1730.42446693
  atomic energy  EATOM  =     48376.37827422
  Solvation  Ediel_sol  =         0.00000000
  ---------------------------------------------------
  free energy    TOTEN  =      -490.96456591 eV

  energy without entropy =     -487.74668556  energy(sigma->0) =     -489.35562574


--------------------------------------------------------------------------------------------------------




--------------------------------------- Iteration      1(  16)  ---------------------------------------


    POTLOK:  cpu time    0.1894: real time    0.2019
    SETDIJ:  cpu time    0.0110: real time    0.0110
    EDDIAG:  cpu time    0.2907: real time    0.2908
  RMM-DIIS:  cpu time    1.5246: real time    1.5253
    ORTHCH:  cpu time    0.0610: real time    0.0610
       DOS:  cpu time    0.0044: real time    0.0044
    CHARGE:  cpu time    0.1086: real time    0.1086
    MIXING:  cpu time    0.0047: real time    0.0047
    --------------------------------------------
      LOOP:  cpu time    2.1944: real time    2.2077

 eigenvalue-minimisations  :   748
 total energy-change (2. order) : 0.2750031E+00  (-0.1477407E+00)
 number of electron     581.0000099 magnetization 
 augmentation part      300.8150171 magnetization 

 Broyden mixing:
  rms(total) = 0.10330E+01    rms(broyden)= 0.10330E+01
  rms(prec ) = 0.11742E+01
  weight for this iteration     100.00

 eigenvalues of (default mixing * dielectric matrix)
  average eigenvalue GAMMA=   0.3858
  2.5764  0.5984  0.3184  0.1398  0.1398  0.1041  0.1041  0.0826  0.0681  0.0558
  0.0558

 Free energy of the ion-electron system (eV)
  ---------------------------------------------------
  alpha Z        PSCENC =      1574.84167972
  Ewald energy   TEWEN  =    174617.10601979
  -Hartree energ DENC   =   -222611.24411319
  -exchange      EXHF   =         0.00000000
  -V(xc)+E(xc)   XCENC  =       801.94641075
  PAW double counting   =     53632.42251706   -55141.35316924
  entropy T*S    EENTRO =        -3.22822581
  eigenvalues    EBANDS =     -1737.55895612
  atomic energy  EATOM  =     48376.37827422
  Solvation  Ediel_sol  =         0.00000000
  ---------------------------------------------------
  free energy    TOTEN  =      -490.68956282 eV

  energy without entropy =     -487.46133701  energy(sigma->0) =     -489.07544992


--------------------------------------------------------------------------------------------------------




--------------------------------------- Iteration      1(  17)  ---------------------------------------


    POTLOK:  cpu time    0.1888: real time    0.2011
    SETDIJ:  cpu time    0.0106: real time    0.0106
    EDDIAG:  cpu time    0.2912: real time    0.2913
  RMM-DIIS:  cpu time    1.5723: real time    1.5726
    ORTHCH:  cpu time    0.0613: real time    0.0613
       DOS:  cpu time    0.0019: real time    0.0019
    CHARGE:  cpu time    0.1063: real time    0.1064
    MIXING:  cpu time    0.0047: real time    0.0047
    --------------------------------------------
      LOOP:  cpu time    2.2372: real time    2.2500

 eigenvalue-minimisations  :   771
 total energy-change (2. order) : 0.1302111E-01  (-0.1124126E+00)
 number of electron     581.0000099 magnetization 
 augmentation part      301.0574274 magnetization 

 Broyden mixing:
  rms(total) = 0.97094E+00    rms(broyden)= 0.97088E+00
  rms(prec ) = 0.11168E+01
  weight for this iteration     100.00

 eigenvalues of (default mixing * dielectric matrix)
  average eigenvalue GAMMA=   0.3893
  2.7283  0.5210  0.5210  0.1705  0.1705  0.1103  0.1103  0.0867  0.0757  0.0673
  0.0571  0.0525

 Free energy of the ion-electron system (eV)
  ---------------------------------------------------
  alpha Z        PSCENC =      1574.84167972
  Ewald energy   TEWEN  =    174617.10601979
  -Hartree energ DENC   =   -222607.10146769
  -exchange      EXHF   =         0.00000000
  -V(xc)+E(xc)   XCENC  =       801.71194715
  PAW double counting   =     53567.47168270   -55073.65862126
  entropy T*S    EENTRO =        -3.24666986
  eigenvalues    EBANDS =     -1744.17938648
  atomic energy  EATOM  =     48376.37827422
  Solvation  Ediel_sol  =         0.00000000
  ---------------------------------------------------
  free energy    TOTEN  =      -490.67654171 eV

  energy without entropy =     -487.42987185  energy(sigma->0) =     -489.05320678


--------------------------------------------------------------------------------------------------------




--------------------------------------- Iteration      1(  18)  ---------------------------------------


[...]
      1.258455  2.109737  8.120848            0           0           0  
      0.080741  1.414191  4.053211            0           0           0  
      2.493295  1.454508  4.148294            0           0           0  
      1.271005  0.682870  6.114047            0           0           0  
      5.061665  1.449298  4.134981            0           0           0  
      3.764212  0.712074  6.168459            0           0           0  
      7.515570  1.458116  4.110014            0           0           0  
      6.329387  0.707764  6.142981            0           0           0  
     -2.550623  4.473994  2.009954            0           0           0  
     -2.499200  4.396547  7.978832            0           0           0  
      0.030138  4.429053  2.070202            0           0           0  
      0.023665  4.281230  8.182499            0           0           0  
      2.508468  4.405164  2.074349            0           0           0  
      2.543177  4.321806  7.978198            0           0           0  
      1.321393  3.641455  4.027713            0           0           0  
      5.083819  4.448896  2.048149            0           0           0  
      5.073625  4.323759  8.288591            0           0           0  
      3.793772  3.697998  4.130706            0           0           0  
      2.507330  2.896609  6.076997            0           0           0  
      6.252931  3.649555  4.083048            0           0           0  
      5.075984  2.929892  6.199422            0           0           0  
      6.251940  6.541671  2.035474            0           0           0  
     -3.757692  6.569738  8.160691            0           0           0  
     -1.231329  6.529507  2.063609            0           0           0  
     -1.259054  6.542189  8.235998            0           0           0  
     -2.521724  5.874752  4.087450            0           0           0  
      1.284263  6.559439  2.074094            0           0           0  
      1.313589  6.528970  8.179433            0           0           0  
     -0.006259  5.791447  4.044577            0           0           0  
     -1.238952  5.085949  6.075112            0           0           0  
      3.776284  6.555708  2.000001            0           0           0  
      3.759698  6.576266  8.221061            0           0           0  
      2.523868  5.788006  4.073096            0           0           0  
      5.067337  5.797043  4.105165            0           0           0  
      3.856429  5.110301  6.097767            0           0           0  
      6.324665  5.136422  5.983332            0           0           0  
     -3.762957  8.024455  4.119563            0           0           0  
     -1.337071  8.050437  4.103081            0           0           0  
     -2.523310  7.242072  6.163326            0           0           0  
      2.527593  7.274850  6.138368            0           0           0  
      5.068183  7.266538  6.067174            0           0           0  
     -2.526901  8.740562  2.033028            0           0           0  
     -2.496345  8.675159  8.218093            0           0           0  
     -1.249535  2.186973  2.054039            0           0           0  
     -1.202459  2.202097  8.112962            0           0           0  
      3.776871  2.203480  2.028243            0           0           0  
      3.781297  2.116756  8.273846            0           0           0  
      6.310522  2.195476  2.035857            0           0           0  
      6.372870  2.169313  8.178257            0           0           0  
      8.865315  0.738284  6.084071            0           0           0  
     -1.273378  3.652340  4.088535            0           0           0  
      0.010480  2.910206  6.096533            0           0           0  
      7.561065  2.900451  6.074295            0           0           0  
      1.253580  5.086471  6.073495            0           0           0  
      1.256598  8.014945  4.091938            0           0           0  
     -0.004079  7.244303  6.079313            0           0           0  
      3.809188  8.008833  4.091746            0           0           0  
      5.072279  5.896273  9.309805            0           0           0  
      2.356429  1.405778  9.340625            0           0           0  
      0.051727  5.757068  9.317525            0           0           0  
      7.736511  1.400040  9.352210            0           0           0  
      5.182967  2.856729  9.549998     0.384202   -0.026240    0.580253  
      5.677403  2.789312 11.008581     0.015471   -0.023966    0.683484  
      6.489465  2.246647 10.841955     0.029354    0.023749    0.213579  
 
   8 f  =    2.704674 THz    16.993966 2PiTHz   90.218203 cm-1    11.185636 meV
             X         Y         Z           dx          dy          dz
     -5.032083  8.749923  2.059207            0           0           0  
      5.040469  8.715992  8.087605            0           0           0  
      0.005743  8.726069  2.044661            0           0           0  
      0.050086  8.678918  8.043626            0           0           0  
      2.476647  8.725920  2.008210            0           0           0  
      2.567245  8.741576  8.216385            0           0           0  
      1.238907  2.217482  2.058803            0           0           0  
      1.258455  2.109737  8.120848            0           0           0  
      0.080741  1.414191  4.053211            0           0           0  
      2.493295  1.454508  4.148294            0           0           0  
      1.271005  0.682870  6.114047            0           0           0  
      5.061665  1.449298  4.134981            0           0           0  
      3.764212  0.712074  6.168459            0           0           0  
      7.515570  1.458116  4.110014            0           0           0  
      6.329387  0.707764  6.142981            0           0           0  
     -2.550623  4.473994  2.009954            0           0           0  
     -2.499200  4.396547  7.978832            0           0           0  
      0.030138  4.429053  2.070202            0           0           0  
      0.023665  4.281230  8.182499            0           0           0  
      2.508468  4.405164  2.074349            0           0           0  
      2.543177  4.321806  7.978198            0           0           0  
      1.321393  3.641455  4.027713            0           0           0  
      5.083819  4.448896  2.048149            0           0           0  
      5.073625  4.323759  8.288591            0           0           0  
      3.793772  3.697998  4.130706            0           0           0  
      2.507330  2.896609  6.076997            0           0           0  
      6.252931  3.649555  4.083048            0           0           0  
      5.075984  2.929892  6.199422            0           0           0  
      6.251940  6.541671  2.035474            0           0           0  
     -3.757692  6.569738  8.160691            0           0           0  
     -1.231329  6.529507  2.063609            0           0           0  
     -1.259054  6.542189  8.235998            0           0           0  
     -2.521724  5.874752  4.087450            0           0           0  
      1.284263  6.559439  2.074094            0           0           0  
      1.313589  6.528970  8.179433            0           0           0  
     -0.006259  5.791447  4.044577            0           0           0  
     -1.238952  5.085949  6.075112            0           0           0  
      3.776284  6.555708  2.000001            0           0           0  
      3.759698  6.576266  8.221061            0           0           0  
      2.523868  5.788006  4.073096            0           0           0  
      5.067337  5.797043  4.105165            0           0           0  
      3.856429  5.110301  6.097767            0           0           0  
      6.324665  5.136422  5.983332            0           0           0  
     -3.762957  8.024455  4.119563            0           0           0  
     -1.337071  8.050437  4.103081            0           0           0  
     -2.523310  7.242072  6.163326            0           0           0  
      2.527593  7.274850  6.138368            0           0           0  
      5.068183  7.266538  6.067174            0           0           0  
     -2.526901  8.740562  2.033028            0           0           0  
     -2.496345  8.675159  8.218093            0           0           0  
     -1.249535  2.186973  2.054039            0           0           0  
     -1.202459  2.202097  8.112962            0           0           0  
      3.776871  2.203480  2.028243            0           0           0  
      3.781297  2.116756  8.273846            0           0           0  
      6.310522  2.195476  2.035857            0           0           0  
      6.372870  2.169313  8.178257            0           0           0  
      8.865315  0.738284  6.084071            0           0           0  
     -1.273378  3.652340  4.088535            0           0           0  
      0.010480  2.910206  6.096533            0           0           0  
      7.561065  2.900451  6.074295            0           0           0  
      1.253580  5.086471  6.073495            0           0           0  
      1.256598  8.014945  4.091938            0           0           0  
     -0.004079  7.244303  6.079313            0           0           0  
      3.809188  8.008833  4.091746            0           0           0  
      5.072279  5.896273  9.309805            0           0           0  
      2.356429  1.405778  9.340625            0           0           0  
      0.051727  5.757068  9.317525            0           0           0  
      7.736511  1.400040  9.352210            0           0           0  
      5.182967  2.856729  9.549998    -0.104903    0.171617   -0.100634  
      5.677403  2.789312 11.008581    -0.479034    0.798015    0.145121  
      6.489465  2.246647 10.841955    -0.136156    0.149892    0.145078  
 
   9 f  =    1.783624 THz    11.206842 2PiTHz   59.495301 cm-1     7.376480 meV
             X         Y         Z           dx          dy          dz
     -5.032083  8.749923  2.059207            0           0           0  
      5.040469  8.715992  8.087605            0           0           0  
      0.005743  8.726069  2.044661            0           0           0  
      0.050086  8.678918  8.043626            0           0           0  
      2.476647  8.725920  2.008210            0           0           0  
      2.567245  8.741576  8.216385            0           0           0  
      1.238907  2.217482  2.058803            0           0           0  
      1.258455  2.109737  8.120848            0           0           0  
      0.080741  1.414191  4.053211            0           0           0  
      2.493295  1.454508  4.148294            0           0           0  
      1.271005  0.682870  6.114047            0           0           0  
      5.061665  1.449298  4.134981            0           0           0  
      3.764212  0.712074  6.168459            0           0           0  
      7.515570  1.458116  4.110014            0           0           0  
      6.329387  0.707764  6.142981            0           0           0  
     -2.550623  4.473994  2.009954            0           0           0  
     -2.499200  4.396547  7.978832            0           0           0  
      0.030138  4.429053  2.070202            0           0           0  
      0.023665  4.281230  8.182499            0           0           0  
      2.508468  4.405164  2.074349            0           0           0  
      2.543177  4.321806  7.978198            0           0           0  
      1.321393  3.641455  4.027713            0           0           0  
      5.083819  4.448896  2.048149            0           0           0  
      5.073625  4.323759  8.288591            0           0           0  
      3.793772  3.697998  4.130706            0           0           0  
      2.507330  2.896609  6.076997            0           0           0  
      6.252931  3.649555  4.083048            0           0           0  
      5.075984  2.929892  6.199422            0           0           0  
      6.251940  6.541671  2.035474            0           0           0  
     -3.757692  6.569738  8.160691            0           0           0  
     -1.231329  6.529507  2.063609            0           0           0  
     -1.259054  6.542189  8.235998            0           0           0  
     -2.521724  5.874752  4.087450            0           0           0  
      1.284263  6.559439  2.074094            0           0           0  
      1.313589  6.528970  8.179433            0           0           0  
     -0.006259  5.791447  4.044577            0           0           0  
     -1.238952  5.085949  6.075112            0           0           0  
      3.776284  6.555708  2.000001            0           0           0  
      3.759698  6.576266  8.221061            0           0           0  
      2.523868  5.788006  4.073096            0           0           0  
      5.067337  5.797043  4.105165            0           0           0  
      3.856429  5.110301  6.097767            0           0           0  
      6.324665  5.136422  5.983332            0           0           0  
     -3.762957  8.024455  4.119563            0           0           0  
     -1.337071  8.050437  4.103081            0           0           0  
     -2.523310  7.242072  6.163326            0           0           0  
      2.527593  7.274850  6.138368            0           0           0  
      5.068183  7.266538  6.067174            0           0           0  
     -2.526901  8.740562  2.033028            0           0           0  
     -2.496345  8.675159  8.218093            0           0           0  
     -1.249535  2.186973  2.054039            0           0           0  
     -1.202459  2.202097  8.112962            0           0           0  
      3.776871  2.203480  2.028243            0           0           0  
      3.781297  2.116756  8.273846            0           0           0  
      6.310522  2.195476  2.035857            0           0           0  
      6.372870  2.169313  8.178257            0           0           0  
      8.865315  0.738284  6.084071            0           0           0  
     -1.273378  3.652340  4.088535            0           0           0  
      0.010480  2.910206  6.096533            0           0           0  
      7.561065  2.900451  6.074295            0           0           0  
      1.253580  5.086471  6.073495            0           0           0  
      1.256598  8.014945  4.091938            0           0           0  
     -0.004079  7.244303  6.079313            0           0           0  
      3.809188  8.008833  4.091746            0           0           0  
      5.072279  5.896273  9.309805            0           0           0  
      2.356429  1.405778  9.340625            0           0           0  
      0.051727  5.757068  9.317525            0           0           0  
      7.736511  1.400040  9.352210            0           0           0  
      5.182967  2.856729  9.549998    -0.171721   -0.131428   -0.085077  
      5.677403  2.789312 11.008581    -0.781926   -0.526959    0.148672  
      6.489465  2.246647 10.841955    -0.152996   -0.075862    0.075101  
 
 Finite differences POTIM=  1.500000000000000E-002
     LOOP+:  cpu time   39.3195: real time   39.5528
    4ORBIT:  cpu time    0.0000: real time    0.0000
 


 total charge     
 
# of ion       s       p       d       tot
------------------------------------------
    1        0.467   0.358   6.256   7.081
    2        0.456   0.362   6.300   7.118
    3        0.459   0.349   6.250   7.057
    4        0.469   0.361   6.303   7.133
    5        0.452   0.346   6.244   7.042
    6        0.480   0.516   6.277   7.272
    7        0.469   0.366   6.266   7.101
    8        0.492   0.538   6.301   7.331
    9        0.476   0.499   6.264   7.239
   10        0.491   0.517   6.278   7.286
   11        0.488   0.522   6.278   7.289
   12        0.471   0.488   6.250   7.208
   13        0.473   0.501   6.261   7.235
   14        0.460   0.468   6.262   7.190
   15        0.477   0.504   6.260   7.240
   16        0.462   0.352   6.252   7.066
   17        0.474   0.370   6.293   7.136
   18        0.482   0.392   6.265   7.139
   19        0.459   0.483   6.282   7.223
   20        0.487   0.395   6.267   7.150
   21        0.475   0.377   6.293   7.145
   22        0.491   0.534   6.278   7.303
   23        0.478   0.381   6.262   7.120
   24        0.433   0.527   6.294   7.253
   25        0.489   0.529   6.272   7.290
   26        0.482   0.521   6.270   7.273
   27        0.482   0.514   6.268   7.264
   28        0.467   0.492   6.257   7.216
   29        0.481   0.385   6.261   7.127
   30        0.470   0.508   6.279   7.257
   31        0.483   0.384   6.260   7.127
   32        0.457   0.481   6.274   7.211
   33        0.493   0.534   6.274   7.300
   34        0.489   0.407   6.262   7.157
   35        0.462   0.494   6.274   7.230
   36        0.484   0.518   6.277   7.280
   37        0.477   0.507   6.270   7.255
   38        0.472   0.378   6.251   7.101
   39        0.474   0.508   6.280   7.262
   40        0.483   0.517   6.273   7.274
   41        0.503   0.547   6.295   7.345
   42        0.491   0.524   6.274   7.290
   43        0.498   0.541   6.285   7.325
   44        0.490   0.531   6.274   7.295
   45        0.475   0.506   6.257   7.238
   46        0.489   0.523   6.282   7.294
   47        0.469   0.480   6.261   7.210
   48        0.485   0.525   6.268   7.278
   49        0.505   0.364   8.299   9.168
   50        0.508   0.511   8.305   9.324
   51        0.499   0.352   8.301   9.152
   52        0.500   0.508   8.313   9.321
   53        0.490   0.339   8.303   9.132
   54        0.450   0.495   8.326   9.272
   55        0.502   0.353   8.302   9.157
   56        0.469   0.551   8.322   9.342
   57        0.504   0.502   8.298   9.304
   58        0.501   0.495   8.296   9.292
   59        0.508   0.504   8.319   9.331
   60        0.512   0.511   8.313   9.336
   61        0.518   0.526   8.295   9.339
   62        0.510   0.514   8.287   9.311
   63        0.511   0.516   8.294   9.322
   64        0.503   0.499   8.293   9.295
   65        1.584   3.354   0.000   4.939
   66        1.585   3.332   0.000   4.917
   67        1.583   3.347   0.000   4.930
   68        1.580   3.337   0.000   4.918
   69        1.588   3.282   0.000   4.871
   70        1.597   3.340   0.000   4.937
   71        0.599   0.111   0.000   0.710
--------------------------------------------------
tot         40.973  50.002 433.899 524.875
 

 total amount of memory used by VASP MPI-rank0    55443. kBytes
=======================================================================

   base      :      30000. kBytes
   nonlr-proj:       4274. kBytes
   fftplans  :       5965. kBytes
   grid      :      13166. kBytes
   one-center:         23. kBytes
   wavefun   :       2015. kBytes
 
  
  
 General timing and accounting informations for this job:
 ========================================================
  
                  Total CPU time used (sec):     1051.140
                            User time (sec):     1032.995
                          System time (sec):       18.145
                         Elapsed time (sec):     1057.526
  
                   Maximum memory used (kb):      297564.
                   Average memory used (kb):           0.
  
                          Minor page faults:      5461050
                          Major page faults:            0
                 Voluntary context switches:         2050
