  69  69   1   0
  0.2729094E+02  0.1011163E-08  0.1011163E-08  0.2126643E-08  0.5000000E-15
  1.000000000000000E-004
  CAR 
 SQS-NiFe                                
      5.21616051    -21.83500382  301     -0.29711921      1.00000000
    -21.835  0.0000E+00  0.0000E+00  0.0000E+00  0.0000E+00
    -21.745  0.0000E+00  0.0000E+00  0.0000E+00  0.0000E+00
    -21.655  0.0000E+00  0.0000E+00  0.0000E+00  0.0000E+00
    -21.564  0.0000E+00  0.0000E+00  0.0000E+00  0.0000E+00
    -21.474 -0.1646E-29  0.0000E+00 -0.1484E-30  0.0000E+00
    -21.384 -0.2061E-26  0.0000E+00 -0.1860E-27  0.0000E+00
    -21.294 -0.1714E-23 -0.1474E-28 -0.1547E-24 -0.1329E-29
    -21.204 -0.9452E-21 -0.1632E-25 -0.8538E-22 -0.1473E-26
    -21.114 -0.3455E-18 -0.1199E-22 -0.3124E-19 -0.1082E-23
    -21.023 -0.8366E-16 -0.5841E-20 -0.7575E-17 -0.5278E-21
    -20.933 -0.1296E-13 -0.1886E-17 -0.1176E-14 -0.1706E-18
    -20.843 -0.1364E-11 -0.3909E-15 -0.1242E-12 -0.3542E-16
    -20.753 -0.9446E-10 -0.5509E-13 -0.8641E-11 -0.5003E-14
    -20.663 -0.4291E-08 -0.5111E-11 -0.3956E-09 -0.4659E-12
    -20.573 -0.1273E-06 -0.3119E-09 -0.1187E-07 -0.2859E-10
    -20.482 -0.2444E-05 -0.1247E-07 -0.2323E-06 -0.1153E-08
    -20.392 -0.3001E-04 -0.3250E-06 -0.2938E-05 -0.3046E-07
    -20.302 -0.2302E-03 -0.5471E-05 -0.2370E-04 -0.5237E-06
    -20.212 -0.1050E-02 -0.5865E-04 -0.1184E-03 -0.5812E-05
    -20.122 -0.2461E-02 -0.3901E-03 -0.3403E-03 -0.4099E-04
    -20.032 -0.7576E-03 -0.1520E-02 -0.4086E-03 -0.1781E-03
    -19.941  0.1140E-01 -0.2881E-02  0.6195E-03 -0.4379E-03
    -19.851  0.3414E-01  0.5549E-03  0.3698E-02 -0.3878E-03
    -19.761  0.5808E-01  0.1615E-01  0.8935E-02  0.1068E-02
    -19.671  0.7892E-01  0.4435E-01  0.1605E-01  0.5068E-02
    -19.581  0.9465E-01  0.8037E-01  0.2459E-01  0.1231E-01
    -19.491  0.1005E+00  0.1151E+00  0.3365E-01  0.2269E-01
    -19.400  0.9330E-01  0.1268E+00  0.4206E-01  0.3413E-01
    -19.310  0.6729E-01  0.1035E+00  0.4813E-01  0.4346E-01
    -19.220  0.2969E-01  0.6085E-01  0.5081E-01  0.4895E-01
    -19.130  0.3406E-02  0.2218E-01  0.5111E-01  0.5095E-01
    -19.040 -0.3740E-02  0.1154E-02  0.5078E-01  0.5105E-01
    -18.950 -0.2271E-02 -0.3533E-02  0.5057E-01  0.5074E-01
    -18.859 -0.6228E-03 -0.1948E-02  0.5051E-01  0.5056E-01
    -18.769 -0.9951E-04 -0.5227E-03  0.5051E-01  0.5051E-01
    -18.679 -0.9904E-05 -0.8266E-04  0.5051E-01  0.5051E-01
    -18.589 -0.6309E-06 -0.8148E-05  0.5051E-01  0.5051E-01
    -18.499 -0.2608E-07 -0.5129E-06  0.5051E-01  0.5051E-01
    -18.409 -0.7045E-09 -0.2089E-07  0.5051E-01  0.5051E-01
    -18.318 -0.1250E-10 -0.5548E-09  0.5051E-01  0.5051E-01
    -18.228 -0.1461E-12 -0.9661E-11  0.5051E-01  0.5051E-01
    -18.138 -0.1128E-14 -0.1107E-12  0.5051E-01  0.5051E-01
    -18.048  0.0000E+00 -0.8457E-15  0.5051E-01  0.5051E-01
    -17.958  0.0000E+00  0.0000E+00  0.5051E-01  0.5051E-01
    -17.867  0.0000E+00  0.0000E+00  0.5051E-01  0.5051E-01
    -17.777  0.0000E+00  0.0000E+00  0.5051E-01  0.5051E-01
    -17.687  0.0000E+00  0.0000E+00  0.5051E-01  0.5051E-01
    -17.597  0.0000E+00  0.0000E+00  0.5051E-01  0.5051E-01
    -17.507  0.0000E+00  0.0000E+00  0.5051E-01  0.5051E-01
    -17.417  0.0000E+00  0.0000E+00  0.5051E-01  0.5051E-01
    -17.326  0.0000E+00  0.0000E+00  0.5051E-01  0.5051E-01
    -17.236  0.0000E+00  0.0000E+00  0.5051E-01  0.5051E-01
    -17.146  0.0000E+00  0.0000E+00  0.5051E-01  0.5051E-01
    -17.056  0.0000E+00  0.0000E+00  0.5051E-01  0.5051E-01
    -16.966  0.0000E+00  0.0000E+00  0.5051E-01  0.5051E-01
    -16.876  0.0000E+00  0.0000E+00  0.5051E-01  0.5051E-01
    -16.785  0.0000E+00  0.0000E+00  0.5051E-01  0.5051E-01
    -16.695  0.0000E+00  0.0000E+00  0.5051E-01  0.5051E-01
    -16.605  0.0000E+00  0.0000E+00  0.5051E-01  0.5051E-01
    -16.515  0.0000E+00  0.0000E+00  0.5051E-01  0.5051E-01
    -16.425  0.0000E+00  0.0000E+00  0.5051E-01  0.5051E-01
    -16.335  0.0000E+00  0.0000E+00  0.5051E-01  0.5051E-01
    -16.244  0.0000E+00  0.0000E+00  0.5051E-01  0.5051E-01
    -16.154  0.0000E+00  0.0000E+00  0.5051E-01  0.5051E-01
    -16.064  0.0000E+00  0.0000E+00  0.5051E-01  0.5051E-01
    -15.974  0.0000E+00  0.0000E+00  0.5051E-01  0.5051E-01
    -15.884  0.0000E+00  0.0000E+00  0.5051E-01  0.5051E-01
    -15.794  0.0000E+00  0.0000E+00  0.5051E-01  0.5051E-01
    -15.703  0.0000E+00  0.0000E+00  0.5051E-01  0.5051E-01
    -15.613  0.0000E+00  0.0000E+00  0.5051E-01  0.5051E-01
    -15.523  0.0000E+00  0.0000E+00  0.5051E-01  0.5051E-01
    -15.433  0.0000E+00  0.0000E+00  0.5051E-01  0.5051E-01
    -15.343  0.0000E+00  0.0000E+00  0.5051E-01  0.5051E-01
    -15.253  0.0000E+00  0.0000E+00  0.5051E-01  0.5051E-01
    -15.162  0.0000E+00  0.0000E+00  0.5051E-01  0.5051E-01
    -15.072  0.0000E+00  0.0000E+00  0.5051E-01  0.5051E-01
    -14.982  0.0000E+00  0.0000E+00  0.5051E-01  0.5051E-01
    -14.892  0.0000E+00  0.0000E+00  0.5051E-01  0.5051E-01
    -14.802  0.0000E+00  0.0000E+00  0.5051E-01  0.5051E-01
    -14.712  0.0000E+00  0.0000E+00  0.5051E-01  0.5051E-01
    -14.621  0.0000E+00  0.0000E+00  0.5051E-01  0.5051E-01
    -14.531  0.0000E+00  0.0000E+00  0.5051E-01  0.5051E-01
    -14.441  0.0000E+00  0.0000E+00  0.5051E-01  0.5051E-01
    -14.351  0.0000E+00  0.0000E+00  0.5051E-01  0.5051E-01
    -14.261  0.0000E+00  0.0000E+00  0.5051E-01  0.5051E-01
    -14.171  0.0000E+00  0.0000E+00  0.5051E-01  0.5051E-01
    -14.080  0.0000E+00  0.0000E+00  0.5051E-01  0.5051E-01
    -13.990  0.0000E+00  0.0000E+00  0.5051E-01  0.5051E-01
    -13.900  0.0000E+00  0.0000E+00  0.5051E-01  0.5051E-01
    -13.810  0.0000E+00  0.0000E+00  0.5051E-01  0.5051E-01
    -13.720  0.0000E+00  0.0000E+00  0.5051E-01  0.5051E-01
    -13.629  0.0000E+00  0.0000E+00  0.5051E-01  0.5051E-01
    -13.539  0.0000E+00  0.0000E+00  0.5051E-01  0.5051E-01
    -13.449  0.0000E+00  0.0000E+00  0.5051E-01  0.5051E-01
    -13.359  0.0000E+00  0.0000E+00  0.5051E-01  0.5051E-01
    -13.269  0.0000E+00  0.0000E+00  0.5051E-01  0.5051E-01
    -13.179  0.0000E+00  0.0000E+00  0.5051E-01  0.5051E-01
    -13.088  0.0000E+00  0.0000E+00  0.5051E-01  0.5051E-01
    -12.998  0.0000E+00  0.0000E+00  0.5051E-01  0.5051E-01
    -12.908  0.0000E+00  0.0000E+00  0.5051E-01  0.5051E-01
    -12.818  0.0000E+00  0.0000E+00  0.5051E-01  0.5051E-01
    -12.728  0.0000E+00  0.0000E+00  0.5051E-01  0.5051E-01
    -12.638  0.0000E+00  0.0000E+00  0.5051E-01  0.5051E-01
    -12.547  0.0000E+00  0.0000E+00  0.5051E-01  0.5051E-01
    -12.457  0.0000E+00  0.0000E+00  0.5051E-01  0.5051E-01
    -12.367  0.0000E+00  0.0000E+00  0.5051E-01  0.5051E-01
    -12.277  0.0000E+00  0.0000E+00  0.5051E-01  0.5051E-01
    -12.187  0.0000E+00  0.0000E+00  0.5051E-01  0.5051E-01
    -12.097  0.0000E+00  0.0000E+00  0.5051E-01  0.5051E-01
    -12.006  0.0000E+00  0.0000E+00  0.5051E-01  0.5051E-01
    -11.916  0.0000E+00  0.0000E+00  0.5051E-01  0.5051E-01
    -11.826  0.0000E+00  0.0000E+00  0.5051E-01  0.5051E-01
    -11.736  0.0000E+00  0.0000E+00  0.5051E-01  0.5051E-01
    -11.646  0.0000E+00  0.0000E+00  0.5051E-01  0.5051E-01
    -11.556  0.0000E+00  0.0000E+00  0.5051E-01  0.5051E-01
    -11.465  0.0000E+00  0.0000E+00  0.5051E-01  0.5051E-01
    -11.375  0.0000E+00  0.0000E+00  0.5051E-01  0.5051E-01
    -11.285  0.0000E+00  0.0000E+00  0.5051E-01  0.5051E-01
    -11.195  0.0000E+00  0.0000E+00  0.5051E-01  0.5051E-01
    -11.105  0.0000E+00  0.0000E+00  0.5051E-01  0.5051E-01
    -11.015  0.0000E+00  0.0000E+00  0.5051E-01  0.5051E-01
    -10.924  0.0000E+00  0.0000E+00  0.5051E-01  0.5051E-01
    -10.834  0.0000E+00  0.0000E+00  0.5051E-01  0.5051E-01
    -10.744  0.0000E+00  0.0000E+00  0.5051E-01  0.5051E-01
    -10.654  0.0000E+00  0.0000E+00  0.5051E-01  0.5051E-01
    -10.564  0.0000E+00  0.0000E+00  0.5051E-01  0.5051E-01
    -10.474  0.0000E+00  0.0000E+00  0.5051E-01  0.5051E-01
    -10.383  0.0000E+00  0.0000E+00  0.5051E-01  0.5051E-01
    -10.293  0.0000E+00  0.0000E+00  0.5051E-01  0.5051E-01
    -10.203 -0.2568E-31  0.0000E+00  0.5051E-01  0.5051E-01
    -10.113 -0.3586E-28 -0.2495E-31  0.5051E-01  0.5051E-01
    -10.023 -0.3325E-25 -0.3489E-28  0.5051E-01  0.5051E-01
     -9.932 -0.2045E-22 -0.3240E-25  0.5051E-01  0.5051E-01
     -9.842 -0.8339E-20 -0.1996E-22  0.5051E-01  0.5051E-01
     -9.752 -0.2253E-17 -0.8152E-20  0.5051E-01  0.5051E-01
     -9.662 -0.3903E-15 -0.2206E-17  0.5051E-01  0.5051E-01
     -9.572 -0.4584E-13 -0.3826E-15  0.5051E-01  0.5051E-01
     -9.482 -0.3548E-11 -0.4504E-13  0.5051E-01  0.5051E-01
     -9.391 -0.1804E-09 -0.3492E-11  0.5051E-01  0.5051E-01
     -9.301 -0.5992E-08 -0.1778E-09  0.5051E-01  0.5051E-01
     -9.211 -0.1292E-06 -0.5916E-08  0.5051E-01  0.5051E-01
     -9.121 -0.1790E-05 -0.1278E-06  0.5050E-01  0.5051E-01
     -9.031 -0.1563E-04 -0.1773E-05  0.5050E-01  0.5050E-01
     -8.941 -0.8311E-04 -0.1551E-04  0.5050E-01  0.5050E-01
     -8.850 -0.2501E-03 -0.8272E-04  0.5047E-01  0.5050E-01
     -8.760 -0.3310E-03 -0.2498E-03  0.5044E-01  0.5047E-01
     -8.670  0.2314E-03 -0.3341E-03  0.5046E-01  0.5044E-01
     -8.580  0.2022E-02  0.2215E-03  0.5065E-01  0.5046E-01
     -8.490  0.6720E-02  0.2014E-02  0.5125E-01  0.5064E-01
     -8.400  0.1681E-01  0.6734E-02  0.5277E-01  0.5125E-01
     -8.309  0.2665E-01  0.1682E-01  0.5517E-01  0.5277E-01
     -8.219  0.2369E-01  0.2660E-01  0.5731E-01  0.5517E-01
     -8.129  0.1048E-01  0.2384E-01  0.5825E-01  0.5732E-01
     -8.039  0.4808E-02  0.1152E-01  0.5869E-01  0.5836E-01
     -7.949  0.1372E-01  0.6201E-02  0.5992E-01  0.5892E-01
     -7.859  0.2704E-01  0.1216E-01  0.6236E-01  0.6001E-01
     -7.768  0.3489E-01  0.2107E-01  0.6551E-01  0.6191E-01
     -7.678  0.3502E-01  0.2964E-01  0.6866E-01  0.6458E-01
     -7.588  0.2524E-01  0.3573E-01  0.7094E-01  0.6781E-01
     -7.498  0.8888E-02  0.3041E-01  0.7174E-01  0.7055E-01
     -7.408 -0.2060E-02  0.1386E-01  0.7156E-01  0.7180E-01
     -7.318  0.3260E-02 -0.4054E-03  0.7185E-01  0.7176E-01
     -7.227  0.3085E-01 -0.2971E-02  0.7463E-01  0.7149E-01
     -7.137  0.6798E-01  0.1064E-01  0.8076E-01  0.7245E-01
     -7.047  0.8075E-01  0.4110E-01  0.8804E-01  0.7616E-01
     -6.957  0.6207E-01  0.7016E-01  0.9364E-01  0.8248E-01
     -6.867  0.4759E-01  0.7162E-01  0.9793E-01  0.8894E-01
     -6.777  0.5770E-01  0.5074E-01  0.1031E+00  0.9352E-01
     -6.686  0.7657E-01  0.3853E-01  0.1100E+00  0.9699E-01
     -6.596  0.9317E-01  0.4489E-01  0.1184E+00  0.1010E+00
     -6.506  0.1146E+00  0.5274E-01  0.1288E+00  0.1058E+00
     -6.416  0.1428E+00  0.5378E-01  0.1416E+00  0.1106E+00
     -6.326  0.1706E+00  0.6372E-01  0.1570E+00  0.1164E+00
     -6.235  0.1867E+00  0.9262E-01  0.1739E+00  0.1247E+00
     -6.145  0.1817E+00  0.1175E+00  0.1902E+00  0.1353E+00
     -6.055  0.1651E+00  0.1173E+00  0.2051E+00  0.1459E+00
     -5.965  0.1612E+00  0.1138E+00  0.2197E+00  0.1562E+00
     -5.875  0.1777E+00  0.1383E+00  0.2357E+00  0.1686E+00
     -5.785  0.1891E+00  0.1841E+00  0.2527E+00  0.1852E+00
     -5.694  0.1681E+00  0.2215E+00  0.2679E+00  0.2052E+00
     -5.604  0.1307E+00  0.2343E+00  0.2797E+00  0.2263E+00
     -5.514  0.1075E+00  0.2204E+00  0.2894E+00  0.2462E+00
     -5.424  0.9778E-01  0.1798E+00  0.2982E+00  0.2624E+00
     -5.334  0.1014E+00  0.1282E+00  0.3073E+00  0.2740E+00
     -5.244  0.1414E+00  0.9534E-01  0.3201E+00  0.2826E+00
     -5.153  0.2217E+00  0.8720E-01  0.3401E+00  0.2904E+00
     -5.063  0.3020E+00  0.8907E-01  0.3673E+00  0.2985E+00
     -4.973  0.3350E+00  0.1046E+00  0.3975E+00  0.3079E+00
     -4.883  0.3143E+00  0.1379E+00  0.4259E+00  0.3203E+00
     -4.793  0.2779E+00  0.1664E+00  0.4509E+00  0.3353E+00
     -4.703  0.2751E+00  0.1776E+00  0.4757E+00  0.3514E+00
     -4.612  0.3229E+00  0.1928E+00  0.5048E+00  0.3688E+00
     -4.522  0.4002E+00  0.2230E+00  0.5409E+00  0.3889E+00
     -4.432  0.4854E+00  0.2463E+00  0.5847E+00  0.4111E+00
     -4.342  0.5566E+00  0.2445E+00  0.6349E+00  0.4331E+00
     -4.252  0.5820E+00  0.2252E+00  0.6874E+00  0.4534E+00
     -4.162  0.5623E+00  0.2153E+00  0.7381E+00  0.4728E+00
     -4.071  0.5367E+00  0.2388E+00  0.7865E+00  0.4944E+00
     -3.981  0.5291E+00  0.2844E+00  0.8342E+00  0.5200E+00
     -3.891  0.5281E+00  0.3164E+00  0.8818E+00  0.5485E+00
     -3.801  0.5223E+00  0.3243E+00  0.9289E+00  0.5778E+00
     -3.711  0.5219E+00  0.3266E+00  0.9759E+00  0.6072E+00
     -3.621  0.5390E+00  0.3307E+00  0.1025E+01  0.6371E+00
     -3.530  0.5665E+00  0.3297E+00  0.1076E+01  0.6668E+00
     -3.440  0.5817E+00  0.3310E+00  0.1128E+01  0.6966E+00
     -3.350  0.5756E+00  0.3464E+00  0.1180E+01  0.7279E+00
     -3.260  0.5669E+00  0.3675E+00  0.1231E+01  0.7610E+00
     -3.170  0.5763E+00  0.3819E+00  0.1283E+01  0.7954E+00
     -3.080  0.6149E+00  0.3872E+00  0.1339E+01  0.8303E+00
     -2.989  0.6855E+00  0.3917E+00  0.1400E+01  0.8657E+00
     -2.899  0.7674E+00  0.4166E+00  0.1470E+01  0.9032E+00
     -2.809  0.8303E+00  0.4620E+00  0.1544E+01  0.9449E+00
     -2.719  0.8646E+00  0.4951E+00  0.1622E+01  0.9895E+00
     -2.629  0.8806E+00  0.5042E+00  0.1702E+01  0.1035E+01
     -2.539  0.8944E+00  0.5133E+00  0.1782E+01  0.1081E+01
     -2.448  0.9072E+00  0.5391E+00  0.1864E+01  0.1130E+01
     -2.358  0.8986E+00  0.5705E+00  0.1945E+01  0.1181E+01
     -2.268  0.8577E+00  0.5854E+00  0.2023E+01  0.1234E+01
     -2.178  0.8089E+00  0.5793E+00  0.2096E+01  0.1286E+01
     -2.088  0.7824E+00  0.5682E+00  0.2166E+01  0.1338E+01
     -1.997  0.7764E+00  0.5663E+00  0.2236E+01  0.1389E+01
     -1.907  0.7719E+00  0.5771E+00  0.2306E+01  0.1441E+01
     -1.817  0.7674E+00  0.5985E+00  0.2375E+01  0.1495E+01
     -1.727  0.7741E+00  0.6246E+00  0.2445E+01  0.1551E+01
     -1.637  0.7940E+00  0.6476E+00  0.2516E+01  0.1609E+01
     -1.547  0.8154E+00  0.6590E+00  0.2590E+01  0.1669E+01
     -1.456  0.8217E+00  0.6559E+00  0.2664E+01  0.1728E+01
     -1.366  0.8075E+00  0.6477E+00  0.2737E+01  0.1786E+01
     -1.276  0.7827E+00  0.6446E+00  0.2807E+01  0.1844E+01
     -1.186  0.7526E+00  0.6425E+00  0.2875E+01  0.1902E+01
     -1.096  0.7136E+00  0.6323E+00  0.2939E+01  0.1959E+01
     -1.006  0.6667E+00  0.6158E+00  0.3000E+01  0.2015E+01
     -0.915  0.6213E+00  0.6034E+00  0.3056E+01  0.2069E+01
     -0.825  0.5845E+00  0.6037E+00  0.3108E+01  0.2124E+01
     -0.735  0.5569E+00  0.6157E+00  0.3159E+01  0.2179E+01
     -0.645  0.5322E+00  0.6268E+00  0.3207E+01  0.2236E+01
     -0.555  0.4995E+00  0.6201E+00  0.3252E+01  0.2292E+01
     -0.465  0.4584E+00  0.5935E+00  0.3293E+01  0.2345E+01
     -0.374  0.4163E+00  0.5629E+00  0.3330E+01  0.2396E+01
     -0.284  0.3780E+00  0.5444E+00  0.3365E+01  0.2445E+01
     -0.194  0.3478E+00  0.5396E+00  0.3396E+01  0.2494E+01
     -0.104  0.3310E+00  0.5371E+00  0.3426E+01  0.2542E+01
     -0.014  0.3355E+00  0.5282E+00  0.3456E+01  0.2590E+01
      0.076  0.3558E+00  0.5209E+00  0.3488E+01  0.2637E+01
      0.167  0.3615E+00  0.5274E+00  0.3521E+01  0.2684E+01
      0.257  0.3368E+00  0.5479E+00  0.3551E+01  0.2734E+01
      0.347  0.3029E+00  0.5786E+00  0.3578E+01  0.2786E+01
      0.437  0.2788E+00  0.6086E+00  0.3603E+01  0.2841E+01
      0.527  0.2555E+00  0.6205E+00  0.3627E+01  0.2897E+01
      0.617  0.2253E+00  0.6163E+00  0.3647E+01  0.2952E+01
      0.708  0.1949E+00  0.6164E+00  0.3664E+01  0.3008E+01
      0.798  0.1630E+00  0.6284E+00  0.3679E+01  0.3065E+01
      0.888  0.1293E+00  0.6397E+00  0.3691E+01  0.3122E+01
      0.978  0.1103E+00  0.6401E+00  0.3701E+01  0.3180E+01
      1.068  0.1110E+00  0.6314E+00  0.3711E+01  0.3237E+01
      1.158  0.1171E+00  0.6180E+00  0.3721E+01  0.3293E+01
      1.249  0.1206E+00  0.6038E+00  0.3732E+01  0.3347E+01
      1.339  0.1177E+00  0.5954E+00  0.3743E+01  0.3401E+01
      1.429  0.1067E+00  0.5899E+00  0.3752E+01  0.3454E+01
      1.519  0.9613E-01  0.5741E+00  0.3761E+01  0.3506E+01
      1.609  0.9117E-01  0.5424E+00  0.3769E+01  0.3555E+01
      1.700  0.9199E-01  0.4865E+00  0.3778E+01  0.3599E+01
      1.790  0.1047E+00  0.3952E+00  0.3787E+01  0.3634E+01
      1.880  0.1256E+00  0.2899E+00  0.3798E+01  0.3660E+01
      1.970  0.1347E+00  0.2116E+00  0.3810E+01  0.3679E+01
      2.060  0.1275E+00  0.1727E+00  0.3822E+01  0.3695E+01
      2.150  0.1158E+00  0.1579E+00  0.3832E+01  0.3709E+01
      2.241  0.9377E-01  0.1507E+00  0.3841E+01  0.3723E+01
      2.331  0.5612E-01  0.1390E+00  0.3846E+01  0.3735E+01
      2.421  0.2232E-01  0.1204E+00  0.3848E+01  0.3746E+01
      2.511  0.6329E-02  0.1097E+00  0.3849E+01  0.3756E+01
      2.601  0.1266E-02  0.1221E+00  0.3849E+01  0.3767E+01
      2.691 -0.5184E-03  0.1493E+00  0.3849E+01  0.3781E+01
      2.782 -0.7482E-03  0.1686E+00  0.3849E+01  0.3796E+01
      2.872 -0.3553E-03  0.1677E+00  0.3848E+01  0.3811E+01
      2.962 -0.9040E-04  0.1483E+00  0.3848E+01  0.3824E+01
      3.052 -0.1368E-04  0.1178E+00  0.3848E+01  0.3835E+01
      3.142 -0.1289E-05  0.8419E-01  0.3848E+01  0.3842E+01
      3.232 -0.7736E-07  0.5032E-01  0.3848E+01  0.3847E+01
      3.323 -0.2999E-08  0.2011E-01  0.3848E+01  0.3849E+01
      3.413 -0.7572E-10  0.2066E-02  0.3848E+01  0.3849E+01
      3.503 -0.1253E-11 -0.2762E-02  0.3848E+01  0.3849E+01
      3.593 -0.1363E-13 -0.1766E-02  0.3848E+01  0.3849E+01
      3.683 -0.9949E-16 -0.5321E-03  0.3848E+01  0.3848E+01
      3.773  0.0000E+00 -0.9567E-04  0.3848E+01  0.3848E+01
      3.864  0.0000E+00 -0.1090E-04  0.3848E+01  0.3848E+01
      3.954  0.0000E+00 -0.8062E-06  0.3848E+01  0.3848E+01
      4.044  0.0000E+00 -0.3907E-07  0.3848E+01  0.3848E+01
      4.134  0.0000E+00 -0.1248E-08  0.3848E+01  0.3848E+01
      4.224  0.0000E+00 -0.2634E-10  0.3848E+01  0.3848E+01
      4.314  0.0000E+00 -0.3682E-12  0.3848E+01  0.3848E+01
      4.405  0.0000E+00 -0.3416E-14  0.3848E+01  0.3848E+01
      4.495  0.0000E+00 -0.1658E-16  0.3848E+01  0.3848E+01
      4.585  0.0000E+00  0.0000E+00  0.3848E+01  0.3848E+01
      4.675  0.0000E+00  0.0000E+00  0.3848E+01  0.3848E+01
      4.765  0.0000E+00  0.0000E+00  0.3848E+01  0.3848E+01
      4.855  0.0000E+00  0.0000E+00  0.3848E+01  0.3848E+01
      4.946  0.0000E+00  0.0000E+00  0.3848E+01  0.3848E+01
      5.036  0.0000E+00  0.0000E+00  0.3848E+01  0.3848E+01
      5.126  0.0000E+00  0.0000E+00  0.3848E+01  0.3848E+01
      5.216  0.0000E+00  0.0000E+00  0.3848E+01  0.3848E+01
      5.21616051    -21.83500382  301     -0.29711921      1.00000000
    -21.835  0.0000E+00  0.0000E+00  0.0000E+00  0.0000E+00  0.0000E+00  0.0000E+00
    -21.745  0.0000E+00  0.0000E+00  0.0000E+00  0.0000E+00  0.0000E+00  0.0000E+00
    -21.655  0.0000E+00  0.0000E+00  0.0000E+00  0.0000E+00  0.0000E+00  0.0000E+00
    -21.564  0.0000E+00  0.0000E+00  0.0000E+00  0.0000E+00  0.0000E+00  0.0000E+00
    -21.474 -0.1361E-38  0.0000E+00 -0.1261E-38  0.0000E+00 -0.1351E-38  0.0000E+00
    -21.384 -0.1704E-35  0.0000E+00 -0.1579E-35  0.0000E+00 -0.1693E-35  0.0000E+00
    -21.294 -0.1416E-32 -0.1151E-37 -0.1312E-32 -0.1044E-37 -0.1408E-32 -0.1164E-37
    -21.204 -0.7808E-30 -0.1273E-34 -0.7236E-30 -0.1155E-34 -0.7766E-30 -0.1289E-34
    -21.114 -0.2853E-27 -0.9341E-32 -0.2645E-27 -0.8478E-32 -0.2840E-27 -0.9473E-32
    -21.023 -0.6906E-25 -0.4547E-29 -0.6403E-25 -0.4128E-29 -0.6877E-25 -0.4617E-29
    -20.933 -0.1070E-22 -0.1467E-26 -0.9918E-23 -0.1332E-26 -0.1066E-22 -0.1492E-26
    -20.843 -0.1125E-20 -0.3037E-24 -0.1043E-20 -0.2760E-24 -0.1122E-20 -0.3092E-24
    -20.753 -0.7786E-19 -0.4274E-22 -0.7224E-19 -0.3886E-22 -0.7769E-19 -0.4359E-22
    -20.663 -0.3536E-17 -0.3961E-20 -0.3281E-17 -0.3603E-20 -0.3530E-17 -0.4046E-20
    -20.573 -0.1048E-15 -0.2415E-18 -0.9725E-16 -0.2197E-18 -0.1047E-15 -0.2470E-18
    -20.482 -0.2010E-14 -0.9646E-17 -0.1867E-14 -0.8781E-17 -0.2010E-14 -0.9877E-17
    -20.392 -0.2465E-13 -0.2510E-15 -0.2289E-13 -0.2287E-15 -0.2466E-13 -0.2574E-15
    -20.302 -0.1884E-12 -0.4221E-14 -0.1750E-12 -0.3846E-14 -0.1887E-12 -0.4332E-14
    -20.212 -0.8516E-12 -0.4518E-13 -0.7911E-12 -0.4119E-13 -0.8535E-12 -0.4640E-13
    -20.122 -0.1937E-11 -0.2997E-12 -0.1798E-11 -0.2735E-12 -0.1944E-11 -0.3077E-12
    -20.032 -0.2463E-12 -0.1161E-11 -0.2178E-12 -0.1061E-11 -0.2525E-12 -0.1187E-11
    -19.941  0.1012E-10 -0.2161E-11  0.9447E-11 -0.1982E-11  0.1020E-10 -0.2159E-11
    -19.851  0.2736E-10  0.5977E-12  0.2549E-10  0.5066E-12  0.2792E-10  0.9179E-12
    -19.761  0.4041E-10  0.1240E-10  0.3744E-10  0.1123E-10  0.4221E-10  0.1352E-10
    -19.671  0.4900E-10  0.3231E-10  0.4487E-10  0.2945E-10  0.5087E-10  0.3379E-10
    -19.581  0.6704E-10  0.5687E-10  0.6105E-10  0.5228E-10  0.6130E-10  0.5582E-10
    -19.491  0.9844E-10  0.8600E-10  0.9008E-10  0.7987E-10  0.7529E-10  0.7736E-10
    -19.400  0.1184E-09  0.1101E-09  0.1088E-09  0.1031E-09  0.8249E-10  0.9047E-10
    -19.310  0.9579E-10  0.1101E-09  0.8797E-10  0.1034E-09  0.6643E-10  0.8329E-10
    -19.220  0.4370E-10  0.7883E-10  0.4002E-10  0.7396E-10  0.3167E-10  0.5589E-10
    -19.130  0.5367E-11  0.3419E-10  0.4858E-11  0.3200E-10  0.4613E-11  0.2307E-10
    -19.040 -0.5090E-11  0.3998E-11 -0.4679E-11  0.3715E-11 -0.3471E-11  0.2294E-11
    -18.950 -0.3113E-11 -0.4234E-11 -0.2850E-11 -0.3970E-11 -0.2283E-11 -0.3082E-11
    -18.859 -0.8490E-12 -0.2608E-11 -0.7761E-12 -0.2441E-11 -0.6425E-12 -0.1836E-11
    -18.769 -0.1348E-12 -0.7199E-12 -0.1232E-12 -0.6734E-12 -0.1041E-12 -0.5029E-12
    -18.679 -0.1335E-13 -0.1151E-12 -0.1219E-13 -0.1076E-12 -0.1045E-13 -0.8021E-13
    -18.589 -0.8472E-15 -0.1139E-13 -0.7737E-15 -0.1065E-13 -0.6696E-15 -0.7939E-14
    -18.499 -0.3490E-16 -0.7181E-15 -0.3188E-16 -0.6719E-15 -0.2779E-16 -0.5008E-15
    -18.409 -0.9402E-18 -0.2926E-16 -0.8592E-18 -0.2739E-16 -0.7532E-18 -0.2043E-16
    -18.318 -0.1664E-19 -0.7771E-18 -0.1521E-19 -0.7276E-18 -0.1340E-19 -0.5431E-18
    -18.228 -0.1941E-21 -0.1352E-19 -0.1776E-21 -0.1267E-19 -0.1569E-21 -0.9465E-20
    -18.138 -0.1494E-23 -0.1548E-21 -0.1367E-23 -0.1451E-21 -0.1214E-23 -0.1085E-21
    -18.048  0.0000E+00 -0.1182E-23  0.0000E+00 -0.1108E-23  0.0000E+00 -0.8303E-24
    -17.958  0.0000E+00  0.0000E+00  0.0000E+00  0.0000E+00  0.0000E+00  0.0000E+00
    -17.867  0.0000E+00  0.0000E+00  0.0000E+00  0.0000E+00  0.0000E+00  0.0000E+00
    -17.777  0.0000E+00  0.0000E+00  0.0000E+00  0.0000E+00  0.0000E+00  0.0000E+00
    -17.687  0.0000E+00  0.0000E+00  0.0000E+00  0.0000E+00  0.0000E+00  0.0000E+00
    -17.597  0.0000E+00  0.0000E+00  0.0000E+00  0.0000E+00  0.0000E+00  0.0000E+00
    -17.507  0.0000E+00  0.0000E+00  0.0000E+00  0.0000E+00  0.0000E+00  0.0000E+00
    -17.417  0.0000E+00  0.0000E+00  0.0000E+00  0.0000E+00  0.0000E+00  0.0000E+00
    -17.326  0.0000E+00  0.0000E+00  0.0000E+00  0.0000E+00  0.0000E+00  0.0000E+00
    -17.236  0.0000E+00  0.0000E+00  0.0000E+00  0.0000E+00  0.0000E+00  0.0000E+00
    -17.146  0.0000E+00  0.0000E+00  0.0000E+00  0.0000E+00  0.0000E+00  0.0000E+00
    -17.056  0.0000E+00  0.0000E+00  0.0000E+00  0.0000E+00  0.0000E+00  0.0000E+00
    -16.966  0.0000E+00  0.0000E+00  0.0000E+00  0.0000E+00  0.0000E+00  0.0000E+00
    -16.876  0.0000E+00  0.0000E+00  0.0000E+00  0.0000E+00  0.0000E+00  0.0000E+00
    -16.785  0.0000E+00  0.0000E+00  0.0000E+00  0.0000E+00  0.0000E+00  0.0000E+00
    -16.695  0.0000E+00  0.0000E+00  0.0000E+00  0.0000E+00  0.0000E+00  0.0000E+00
    -16.605  0.0000E+00  0.0000E+00  0.0000E+00  0.0000E+00  0.0000E+00  0.0000E+00
    -16.515  0.0000E+00  0.0000E+00  0.0000E+00  0.0000E+00  0.0000E+00  0.0000E+00
    -16.425  0.0000E+00  0.0000E+00  0.0000E+00  0.0000E+00  0.0000E+00  0.0000E+00
    -16.335  0.0000E+00  0.0000E+00  0.0000E+00  0.0000E+00  0.0000E+00  0.0000E+00
    -16.244  0.0000E+00  0.0000E+00  0.0000E+00  0.0000E+00  0.0000E+00  0.0000E+00
    -16.154  0.0000E+00  0.0000E+00  0.0000E+00  0.0000E+00  0.0000E+00  0.0000E+00
    -16.064  0.0000E+00  0.0000E+00  0.0000E+00  0.0000E+00  0.0000E+00  0.0000E+00
    -15.974  0.0000E+00  0.0000E+00  0.0000E+00  0.0000E+00  0.0000E+00  0.0000E+00
    -15.884  0.0000E+00  0.0000E+00  0.0000E+00  0.0000E+00  0.0000E+00  0.0000E+00
    -15.794  0.0000E+00  0.0000E+00  0.0000E+00  0.0000E+00  0.0000E+00  0.0000E+00
    -15.703  0.0000E+00  0.0000E+00  0.0000E+00  0.0000E+00  0.0000E+00  0.0000E+00
    -15.613  0.0000E+00  0.0000E+00  0.0000E+00  0.0000E+00  0.0000E+00  0.0000E+00
    -15.523  0.0000E+00  0.0000E+00  0.0000E+00  0.0000E+00  0.0000E+00  0.0000E+00
    -15.433  0.0000E+00  0.0000E+00  0.0000E+00  0.0000E+00  0.0000E+00  0.0000E+00
    -15.343  0.0000E+00  0.0000E+00  0.0000E+00  0.0000E+00  0.0000E+00  0.0000E+00
    -15.253  0.0000E+00  0.0000E+00  0.0000E+00  0.0000E+00  0.0000E+00  0.0000E+00
    -15.162  0.0000E+00  0.0000E+00  0.0000E+00  0.0000E+00  0.0000E+00  0.0000E+00
    -15.072  0.0000E+00  0.0000E+00  0.0000E+00  0.0000E+00  0.0000E+00  0.0000E+00
    -14.982  0.0000E+00  0.0000E+00  0.0000E+00  0.0000E+00  0.0000E+00  0.0000E+00
    -14.892  0.0000E+00  0.0000E+00  0.0000E+00  0.0000E+00  0.0000E+00  0.0000E+00
    -14.802  0.0000E+00  0.0000E+00  0.0000E+00  0.0000E+00  0.0000E+00  0.0000E+00
    -14.712  0.0000E+00  0.0000E+00  0.0000E+00  0.0000E+00  0.0000E+00  0.0000E+00
    -14.621  0.0000E+00  0.0000E+00  0.0000E+00  0.0000E+00  0.0000E+00  0.0000E+00
    -14.531  0.0000E+00  0.0000E+00  0.0000E+00  0.0000E+00  0.0000E+00  0.0000E+00
    -14.441  0.0000E+00  0.0000E+00  0.0000E+00  0.0000E+00  0.0000E+00  0.0000E+00
    -14.351  0.0000E+00  0.0000E+00  0.0000E+00  0.0000E+00  0.0000E+00  0.0000E+00
    -14.261  0.0000E+00  0.0000E+00  0.0000E+00  0.0000E+00  0.0000E+00  0.0000E+00
    -14.171  0.0000E+00  0.0000E+00  0.0000E+00  0.0000E+00  0.0000E+00  0.0000E+00
    -14.080  0.0000E+00  0.0000E+00  0.0000E+00  0.0000E+00  0.0000E+00  0.0000E+00
    -13.990  0.0000E+00  0.0000E+00  0.0000E+00  0.0000E+00  0.0000E+00  0.0000E+00
    -13.900  0.0000E+00  0.0000E+00  0.0000E+00  0.0000E+00  0.0000E+00  0.0000E+00
    -13.810  0.0000E+00  0.0000E+00  0.0000E+00  0.0000E+00  0.0000E+00  0.0000E+00
    -13.720  0.0000E+00  0.0000E+00  0.0000E+00  0.0000E+00  0.0000E+00  0.0000E+00
    -13.629  0.0000E+00  0.0000E+00  0.0000E+00  0.0000E+00  0.0000E+00  0.0000E+00
    -13.539  0.0000E+00  0.0000E+00  0.0000E+00  0.0000E+00  0.0000E+00  0.0000E+00
    -13.449  0.0000E+00  0.0000E+00  0.0000E+00  0.0000E+00  0.0000E+00  0.0000E+00
    -13.359  0.0000E+00  0.0000E+00  0.0000E+00  0.0000E+00  0.0000E+00  0.0000E+00
    -13.269  0.0000E+00  0.0000E+00  0.0000E+00  0.0000E+00  0.0000E+00  0.0000E+00
    -13.179  0.0000E+00  0.0000E+00  0.0000E+00  0.0000E+00  0.0000E+00  0.0000E+00
    -13.088  0.0000E+00  0.0000E+00  0.0000E+00  0.0000E+00  0.0000E+00  0.0000E+00
    -12.998  0.0000E+00  0.0000E+00  0.0000E+00  0.0000E+00  0.0000E+00  0.0000E+00
    -12.908  0.0000E+00  0.0000E+00  0.0000E+00  0.0000E+00  0.0000E+00  0.0000E+00
    -12.818  0.0000E+00  0.0000E+00  0.0000E+00  0.0000E+00  0.0000E+00  0.0000E+00
    -12.728  0.0000E+00  0.0000E+00  0.0000E+00  0.0000E+00  0.0000E+00  0.0000E+00
    -12.638  0.0000E+00  0.0000E+00  0.0000E+00  0.0000E+00  0.0000E+00  0.0000E+00
    -12.547  0.0000E+00  0.0000E+00  0.0000E+00  0.0000E+00  0.0000E+00  0.0000E+00
    -12.457  0.0000E+00  0.0000E+00  0.0000E+00  0.0000E+00  0.0000E+00  0.0000E+00
    -12.367  0.0000E+00  0.0000E+00  0.0000E+00  0.0000E+00  0.0000E+00  0.0000E+00
    -12.277  0.0000E+00  0.0000E+00  0.0000E+00  0.0000E+00  0.0000E+00  0.0000E+00
    -12.187  0.0000E+00  0.0000E+00  0.0000E+00  0.0000E+00  0.0000E+00  0.0000E+00
    -12.097  0.0000E+00  0.0000E+00  0.0000E+00  0.0000E+00  0.0000E+00  0.0000E+00
    -12.006  0.0000E+00  0.0000E+00  0.0000E+00  0.0000E+00  0.0000E+00  0.0000E+00
    -11.916  0.0000E+00  0.0000E+00  0.0000E+00  0.0000E+00  0.0000E+00  0.0000E+00
    -11.826  0.0000E+00  0.0000E+00  0.0000E+00  0.0000E+00  0.0000E+00  0.0000E+00
    -11.736  0.0000E+00  0.0000E+00  0.0000E+00  0.0000E+00  0.0000E+00  0.0000E+00
    -11.646  0.0000E+00  0.0000E+00  0.0000E+00  0.0000E+00  0.0000E+00  0.0000E+00
    -11.556  0.0000E+00  0.0000E+00  0.0000E+00  0.0000E+00  0.0000E+00  0.0000E+00
    -11.465  0.0000E+00  0.0000E+00  0.0000E+00  0.0000E+00  0.0000E+00  0.0000E+00
    -11.375  0.0000E+00  0.0000E+00  0.0000E+00  0.0000E+00  0.0000E+00  0.0000E+00
    -11.285  0.0000E+00  0.0000E+00  0.0000E+00  0.0000E+00  0.0000E+00  0.0000E+00
    -11.195  0.0000E+00  0.0000E+00  0.0000E+00  0.0000E+00  0.0000E+00  0.0000E+00
    -11.105  0.0000E+00  0.0000E+00  0.0000E+00  0.0000E+00  0.0000E+00  0.0000E+00
    -11.015  0.0000E+00  0.0000E+00  0.0000E+00  0.0000E+00  0.0000E+00  0.0000E+00
    -10.924  0.0000E+00  0.0000E+00  0.0000E+00  0.0000E+00  0.0000E+00  0.0000E+00
    -10.834  0.0000E+00  0.0000E+00  0.0000E+00  0.0000E+00  0.0000E+00  0.0000E+00
    -10.744  0.0000E+00  0.0000E+00  0.0000E+00  0.0000E+00  0.0000E+00  0.0000E+00
    -10.654  0.0000E+00  0.0000E+00  0.0000E+00  0.0000E+00  0.0000E+00  0.0000E+00
    -10.564  0.0000E+00  0.0000E+00  0.0000E+00  0.0000E+00  0.0000E+00  0.0000E+00
    -10.474  0.0000E+00  0.0000E+00  0.0000E+00  0.0000E+00  0.0000E+00  0.0000E+00
    -10.383  0.0000E+00  0.0000E+00  0.0000E+00  0.0000E+00  0.0000E+00  0.0000E+00
    -10.293  0.0000E+00  0.0000E+00  0.0000E+00  0.0000E+00  0.0000E+00  0.0000E+00
    -10.203 -0.1239E-31  0.0000E+00 -0.1499E-32  0.0000E+00 -0.7481E-35  0.0000E+00
    -10.113 -0.1731E-28 -0.1034E-31 -0.2093E-29 -0.1395E-32 -0.1045E-31 -0.5357E-35
    -10.023 -0.1605E-25 -0.1447E-28 -0.1941E-26 -0.1951E-29 -0.9685E-29 -0.7492E-32
     -9.932 -0.9870E-23 -0.1344E-25 -0.1194E-23 -0.1811E-26 -0.5957E-26 -0.6957E-29
     -9.842 -0.4025E-20 -0.8277E-23 -0.4868E-21 -0.1116E-23 -0.2429E-23 -0.4286E-26
     -9.752 -0.1087E-17 -0.3381E-20 -0.1315E-18 -0.4558E-21 -0.6562E-21 -0.1751E-23
     -9.662 -0.1884E-15 -0.9147E-18 -0.2279E-16 -0.1233E-18 -0.1137E-18 -0.4737E-21
     -9.572 -0.2213E-13 -0.1586E-15 -0.2676E-14 -0.2139E-16 -0.1336E-16 -0.8216E-19
     -9.482 -0.1713E-11 -0.1868E-13 -0.2071E-12 -0.2518E-14 -0.1035E-14 -0.9674E-17