       N       E                     dE             d eps       ncg     rms          rms(c)
DAV:   1    -0.477657450281E+03   -0.47766E+03   -0.15701E+03  8058   0.487E+01    0.829E+00
RMM:   2    -0.490835607798E+03   -0.13178E+02   -0.12271E+02  7733   0.252E+01    0.201E+01
RMM:   3    -0.496261739104E+03   -0.54261E+01   -0.20393E+01  8187   0.825E+00    0.301E+01
RMM:   4    -0.493762412906E+03    0.24993E+01   -0.33470E+00  8000   0.394E+00    0.231E+01
RMM:   5    -0.491226400112E+03    0.25360E+01   -0.12467E+00  7950   0.228E+00    0.672E+00
RMM:   6    -0.491366353583E+03   -0.13995E+00   -0.76258E-01  7857   0.186E+00    0.831E+00
RMM:   7    -0.491216033780E+03    0.15032E+00   -0.26935E-01  7785   0.123E+00    0.629E+00
RMM:   8    -0.491142023822E+03    0.74010E-01   -0.10407E-01  7835   0.687E-01    0.425E+00
RMM:   9    -0.491128537302E+03    0.13487E-01   -0.47269E-02  7811   0.476E-01    0.325E+00
RMM:  10    -0.491109899590E+03    0.18638E-01   -0.18895E-02  7721   0.339E-01    0.212E+00
RMM:  11    -0.491108727988E+03    0.11716E-02   -0.74287E-03  7820   0.198E-01    0.192E+00
RMM:  12    -0.491110649211E+03   -0.19212E-02   -0.43453E-03  7811   0.146E-01    0.192E+00
RMM:  13    -0.491109791699E+03    0.85751E-03   -0.11099E-03  8167   0.642E-02    0.189E+00
RMM:  14    -0.491110584710E+03   -0.79301E-03   -0.84356E-04  7664   0.705E-02    0.187E+00
RMM:  15    -0.491111070518E+03   -0.48581E-03   -0.20170E-03  7663   0.114E-01    0.181E+00
RMM:  16    -0.491112966375E+03   -0.18959E-02   -0.50657E-03  7684   0.177E-01    0.171E+00
RMM:  17    -0.491108956622E+03    0.40098E-02   -0.46319E-03  7701   0.176E-01    0.123E+00
RMM:  18    -0.491109199329E+03   -0.24271E-03   -0.28164E-03  7666   0.127E-01    0.114E+00
RMM:  19    -0.491108830286E+03    0.36904E-03   -0.16315E-03  7661   0.979E-02    0.964E-01
RMM:  20    -0.491108862126E+03   -0.31840E-04   -0.69126E-04  7712   0.593E-02    0.923E-01
RMM:  21    -0.491109326335E+03   -0.46421E-03   -0.30481E-04  7803   0.362E-02    0.925E-01
RMM:  22    -0.491109281558E+03    0.44777E-04   -0.58316E-05  6235   0.113E-02    0.927E-01
RMM:  23    -0.491108292718E+03    0.98884E-03   -0.12328E-04  7480   0.276E-02    0.902E-01
RMM:  24    -0.491107155005E+03    0.11377E-02   -0.22750E-04  7569   0.388E-02    0.868E-01
RMM:  25    -0.491102792765E+03    0.43622E-02   -0.13783E-03  7643   0.897E-02    0.772E-01
RMM:  26    -0.491096221075E+03    0.65717E-02   -0.17726E-03  7689   0.106E-01    0.494E-01
RMM:  27    -0.491095448066E+03    0.77301E-03   -0.12597E-03  7728   0.852E-02    0.470E-01
RMM:  28    -0.491095824255E+03   -0.37619E-03   -0.91643E-04  7713   0.785E-02    0.306E-01
RMM:  29    -0.491097826937E+03   -0.20027E-02   -0.47159E-04  7583   0.517E-02    0.286E-01
RMM:  30    -0.491101940502E+03   -0.41136E-02   -0.41307E-04  7591   0.451E-02    0.210E-01
RMM:  31    -0.491103918048E+03   -0.19775E-02   -0.26592E-04  7569   0.397E-02    0.163E-01
RMM:  32    -0.491109003031E+03   -0.50850E-02   -0.28963E-04  7628   0.315E-02    0.136E-01
RMM:  33    -0.491110659665E+03   -0.16566E-02   -0.13933E-04  7550   0.266E-02    0.844E-02
RMM:  34    -0.491114618609E+03   -0.39589E-02   -0.20412E-04  7526   0.244E-02    0.102E-01
RMM:  35    -0.491116593191E+03   -0.19746E-02   -0.10787E-04  7233   0.192E-02    0.530E-02
RMM:  36    -0.491118527883E+03   -0.19347E-02   -0.93074E-05  6758   0.163E-02    0.764E-02
RMM:  37    -0.491121391232E+03   -0.28633E-02   -0.15915E-04  7153   0.163E-02    0.609E-02
RMM:  38    -0.491122532362E+03   -0.11411E-02   -0.65916E-05  6045   0.130E-02    0.641E-02
RMM:  39    -0.491124757421E+03   -0.22251E-02   -0.15737E-04  7038   0.152E-02    0.478E-02
RMM:  40    -0.491125324273E+03   -0.56685E-03   -0.39131E-05  5372   0.944E-03    0.392E-02
RMM:  41    -0.491126288908E+03   -0.96464E-03   -0.67055E-05  6016   0.104E-02    0.345E-02
RMM:  42    -0.491126583955E+03   -0.29505E-03   -0.22267E-05  5000   0.801E-03    0.236E-02
RMM:  43    -0.491126911616E+03   -0.32766E-03   -0.24759E-05  5088   0.667E-03    0.216E-02
RMM:  44    -0.491127037857E+03   -0.12624E-03   -0.11943E-05  4658   0.691E-03    0.137E-02
RMM:  45    -0.491127155317E+03   -0.11746E-03   -0.14206E-05  4831   0.495E-03    0.101E-02
RMM:  46    -0.491127180464E+03   -0.25147E-04   -0.49350E-06  4240   0.483E-03    0.739E-03
RMM:  47    -0.491127213726E+03   -0.33262E-04   -0.53733E-06  4326   0.341E-03    0.571E-03
RMM:  48    -0.491127222582E+03   -0.88558E-05   -0.19271E-06  3934   0.323E-03
   1 F= -.50586367E+03 E0= -.50587613E+03  d E =-.505864E+03  mag=    91.2512
