 vasp.5.4.4.18Apr17-6-g9f103f2a35 (build Dec 15 2018 21:27:11) complex          
  
 executed on             LinuxIFC date 2022.03.06  04:00:02
 running on   72 total cores
 distrk:  each k-point on   72 cores,    1 groups
 distr:  one band on NCORES_PER_BAND=  24 cores,    3 groups


--------------------------------------------------------------------------------------------------------


 INCAR:
 POTCAR:    PAW_PBE Fe 06Sep2000                  
 POTCAR:    PAW_PBE Ni 02Aug2007                  
 POTCAR:    PAW_PBE O 08Apr2002                   

 ----------------------------------------------------------------------------- 
|                                                                             |
|           W    W    AA    RRRRR   N    N  II  N    N   GGGG   !!!           |
|           W    W   A  A   R    R  NN   N  II  NN   N  G    G  !!!           |
|           W    W  A    A  R    R  N N  N  II  N N  N  G       !!!           |
|           W WW W  AAAAAA  RRRRR   N  N N  II  N  N N  G  GGG   !            |
|           WW  WW  A    A  R   R   N   NN  II  N   NN  G    G                |
|           W    W  A    A  R    R  N    N  II  N    N   GGGG   !!!           |
|                                                                             |
|      For optimal performance we recommend to set                            |
|        NCORE= 4 - approx SQRT( number of cores)                             |
|      NCORE specifies how many cores store one orbital (NPAR=cpu/NCORE).     |
|      This setting can  greatly improve the performance of VASP for DFT.     |
|      The default,   NCORE=1            might be grossly inefficient         |
|      on modern multi-core architectures or massively parallel machines.     |
|      Do your own testing !!!!                                               |
|      Unfortunately you need to use the default for GW and RPA calculations. |
|      (for HF NCORE is supported but not extensively tested yet)             |
|                                                                             |
 ----------------------------------------------------------------------------- 

 POTCAR:    PAW_PBE Fe 06Sep2000                  
   VRHFIN =Fe:  d7 s1                                                           
   LEXCH  = PE                                                                  
   EATOM  =   594.3153 eV,   43.6809 Ry                                         
                                                                                
   TITEL  = PAW_PBE Fe 06Sep2000                                                
   LULTRA =        F    use ultrasoft PP ?                                      
   IUNSCR =        1    unscreen: 0-lin 1-nonlin 2-no                           
   RPACOR =    2.000    partial core radius                                     
   POMASS =   55.847; ZVAL   =    8.000    mass and valenz                      
   RCORE  =    2.300    outmost cutoff radius                                   
   RWIGS  =    2.460; RWIGS  =    1.302    wigner-seitz radius (au A)           
   ENMAX  =  267.882; ENMIN  =  200.911 eV                                      
   RCLOC  =    1.701    cutoff for local pot                                    
   LCOR   =        T    correct aug charges                                     
   LPAW   =        T    paw PP                                                  
   EAUG   =  511.368                                                            
   DEXC   =    0.000                                                            
   RMAX   =    2.356    core radius for proj-oper                               
   RAUG   =    1.300    factor for augmentation sphere                          
   RDEP   =    2.442    radius for radial grids                                 
   RDEPT  =    1.890    core radius for aug-charge                              
                                                                                
   Atomic configuration                                                         
    9 entries                                                                   
     n  l   j            E        occ.                                          
     1  0  0.50     -6993.8440   2.0000                                         
     2  0  0.50      -814.6047   2.0000                                         
     2  1  1.50      -693.3689   6.0000                                         
     3  0  0.50       -89.4732   2.0000                                         
     3  1  1.50       -55.6373   6.0000                                         
     3  2  2.50        -3.8151   7.0000                                         
     4  0  0.50        -4.2551   1.0000                                         
     4  1  1.50        -3.4015   0.0000                                         
     4  3  2.50        -1.3606   0.0000                                         
   Description                                                                  
     l       E           TYP  RCUT    TYP  RCUT                                 
     2     -3.8151135     23  2.300                                             
     2     -5.1756961     23  2.300                                             
     0     -4.2550963     23  2.300                                             
     0      7.2035603     23  2.300                                             
     1     -2.7211652     23  2.300                                             
     1     18.4316424     23  2.300                                             
  local pseudopotential read in
  partial core-charges read in
  partial kinetic energy density read in
  atomic valenz-charges read in
  non local Contribution for L=           2  read in
    real space projection operators read in
  non local Contribution for L=           2  read in
    real space projection operators read in
  non local Contribution for L=           0  read in
    real space projection operators read in
  non local Contribution for L=           0  read in
    real space projection operators read in
  non local Contribution for L=           1  read in
    real space projection operators read in
  non local Contribution for L=           1  read in
    real space projection operators read in
    PAW grid and wavefunctions read in
 
   number of l-projection  operators is LMAX  =           6
   number of lm-projection operators is LMMAX =          18
 
 POTCAR:    PAW_PBE Ni 02Aug2007                  
   VRHFIN =Ni:                                                                  
   LEXCH  = PE                                                                  
   EATOM  =  1077.6739 eV,   79.2068 Ry                                         
                                                                                
   TITEL  = PAW_PBE Ni 02Aug2007                                                
   LULTRA =        F    use ultrasoft PP ?                                      
   IUNSCR =        1    unscreen: 0-lin 1-nonlin 2-no                           
   RPACOR =    2.000    partial core radius                                     
   POMASS =   58.690; ZVAL   =   10.000    mass and valenz                      
   RCORE  =    2.300    outmost cutoff radius                                   
   RWIGS  =    2.430; RWIGS  =    1.286    wigner-seitz radius (au A)           
   ENMAX  =  269.532; ENMIN  =  202.149 eV                                      
   RCLOC  =    1.201    cutoff for local pot                                    
   LCOR   =        T    correct aug charges                                     
   LPAW   =        T    paw PP                                                  
   EAUG   =  544.565                                                            
   DEXC   =    0.000                                                            
   RMAX   =    2.357    core radius for proj-oper                               
   RAUG   =    1.300    factor for augmentation sphere                          
   RDEP   =    2.390    radius for radial grids                                 
   RDEPT  =    1.838    core radius for aug-charge                              
                                                                                
   Atomic configuration                                                         
    9 entries                                                                   
     n  l   j            E        occ.                                          
     1  0  0.50     -8206.4253   2.0000                                         
     2  0  0.50      -976.1748   2.0000                                         
     2  1  1.50      -839.0571   6.0000                                         
     3  0  0.50      -105.9991   2.0000                                         
     3  1  1.50       -66.4603   6.0000                                         
     3  2  2.50        -4.6458   9.0000                                         
     4  0  0.50        -4.4926   1.0000                                         
     4  1  1.50        -4.0817   0.0000                                         
     4  3  2.50        -1.3606   0.0000                                         
   Description                                                                  
     l       E           TYP  RCUT    TYP  RCUT                                 
     2     -4.6457903     23  2.300                                             
     2     -6.0063729     23  2.300                                             
     0     -4.4925590     23  2.300                                             
     0      5.0102601     23  2.300                                             
     1     -2.7211652     23  2.300                                             
     1     16.5183231     23  2.300                                             
  local pseudopotential read in
  partial core-charges read in
  partial kinetic energy density read in
  atomic valenz-charges read in
  non local Contribution for L=           2  read in
    real space projection operators read in
  non local Contribution for L=           2  read in
    real space projection operators read in
  non local Contribution for L=           0  read in
    real space projection operators read in
  non local Contribution for L=           0  read in
    real space projection operators read in
  non local Contribution for L=           1  read in
    real space projection operators read in
  non local Contribution for L=           1  read in
    real space projection operators read in
    PAW grid and wavefunctions read in
 
   number of l-projection  operators is LMAX  =           6
   number of lm-projection operators is LMMAX =          18
 
 POTCAR:    PAW_PBE O 08Apr2002                   
   VRHFIN =O: s2p4                                                              
   LEXCH  = PE                                                                  
   EATOM  =   432.3788 eV,   31.7789 Ry                                         
                                                                                
   TITEL  = PAW_PBE O 08Apr2002                                                 
   LULTRA =        F    use ultrasoft PP ?                                      
   IUNSCR =        1    unscreen: 0-lin 1-nonlin 2-no                           
   RPACOR =    1.200    partial core radius                                     
   POMASS =   16.000; ZVAL   =    6.000    mass and valenz                      
   RCORE  =    1.520    outmost cutoff radius                                   
   RWIGS  =    1.550; RWIGS  =    0.820    wigner-seitz radius (au A)           
   ENMAX  =  400.000; ENMIN  =  300.000 eV                                      
   ICORE  =        2    local potential                                         
   LCOR   =        T    correct aug charges                                     
   LPAW   =        T    paw PP                                                  
   EAUG   =  605.392                                                            
   DEXC   =    0.000                                                            
   RMAX   =    1.553    core radius for proj-oper                               
   RAUG   =    1.300    factor for augmentation sphere                          
   RDEP   =    1.550    radius for radial grids                                 
   RDEPT  =    1.329    core radius for aug-charge                              
                                                                                
   Atomic configuration                                                         
    4 entries                                                                   
     n  l   j            E        occ.                                          
     1  0  0.50      -514.6923   2.0000                                         
     2  0  0.50       -23.9615   2.0000                                         
     2  1  0.50        -9.0305   4.0000                                         
     3  2  1.50        -9.5241   0.0000                                         
   Description                                                                  
     l       E           TYP  RCUT    TYP  RCUT                                 
     0    -23.9615318     23  1.200                                             
     0     -9.5240782     23  1.200                                             
     1     -9.0304911     23  1.520                                             
     1      8.1634956     23  1.520                                             
     2     -9.5240782      7  1.500                                             
  local pseudopotential read in
  partial core-charges read in
  partial kinetic energy density read in
  kinetic energy density of atom read in
  atomic valenz-charges read in
  non local Contribution for L=           0  read in
    real space projection operators read in
  non local Contribution for L=           0  read in
    real space projection operators read in
  non local Contribution for L=           1  read in
    real space projection operators read in
  non local Contribution for L=           1  read in
    real space projection operators read in
    PAW grid and wavefunctions read in
 
   number of l-projection  operators is LMAX  =           4
   number of lm-projection operators is LMMAX =           8
 
 Optimization of the real space projectors (new method)

 maximal supplied QI-value         = 16.25
 optimisation between [QCUT,QGAM] = [ 11.54, 23.24] = [ 37.28,151.24] Ry 
 Optimized for a Real-space Cutoff    1.53 Angstroem

   l    n(q)    QCUT    max X(q) W(low)/X(q) W(high)/X(q)  e(spline) 
   2     10    11.539    80.901    0.11E-03    0.14E-03    0.21E-06
   2     10    11.539    75.754    0.11E-03    0.14E-03    0.22E-06
   0     11    11.539    58.752    0.52E-04    0.18E-04    0.33E-06
   0     11    11.539    30.679    0.44E-04    0.16E-04    0.30E-06
   1     10    11.539    17.977    0.53E-04    0.29E-04    0.13E-06
   1     10    11.539    13.559    0.44E-04    0.25E-04    0.11E-06
 Optimization of the real space projectors (new method)

 maximal supplied QI-value         = 16.25
 optimisation between [QCUT,QGAM] = [ 11.54, 23.24] = [ 37.28,151.24] Ry 
 Optimized for a Real-space Cutoff    1.45 Angstroem

   l    n(q)    QCUT    max X(q) W(low)/X(q) W(high)/X(q)  e(spline) 
   2      9    11.539    60.317    0.19E-03    0.47E-04    0.16E-06
   2      9    11.539    55.921    0.19E-03    0.48E-04    0.16E-06
   0     10    11.539    51.690    0.80E-04    0.50E-04    0.24E-06
   0     10    11.539    30.015    0.73E-04    0.45E-04    0.22E-06
   1     10    11.539    18.849    0.87E-04    0.16E-03    0.71E-07
   1     10    11.539    14.624    0.73E-04    0.13E-03    0.64E-07
 Optimization of the real space projectors (new method)

 maximal supplied QI-value         = 24.76
 optimisation between [QCUT,QGAM] = [ 11.64, 23.27] = [ 37.91,151.63] Ry 
 Optimized for a Real-space Cutoff    1.14 Angstroem

   l    n(q)    QCUT    max X(q) W(low)/X(q) W(high)/X(q)  e(spline) 
   0      8    11.635    20.381    0.10E-03    0.33E-03    0.24E-06
   0      8    11.635    15.268    0.11E-03    0.35E-03    0.26E-06
   1      7    11.635     5.964    0.24E-03    0.31E-03    0.30E-06
   1      7    11.635     5.382    0.22E-03    0.25E-03    0.26E-06
  PAW_PBE Fe 06Sep2000                  :
 energy of atom  1       EATOM= -594.3153
 kinetic energy error for atom=    0.0026 (will be added to EATOM!!)
  PAW_PBE Ni 02Aug2007                  :
 energy of atom  2       EATOM=-1077.6739
 kinetic energy error for atom=    0.0030 (will be added to EATOM!!)
  PAW_PBE O 08Apr2002                   :
 energy of atom  3       EATOM= -432.3788
 kinetic energy error for atom=    0.0208 (will be added to EATOM!!)
 
 
 POSCAR: POSCAR                                  
  positions in direct lattice
  velocities in cartesian coordinates
 exchange correlation table for  LEXCH =        8
   RHO(1)=    0.500       N(1)  =     2000
   RHO(2)=  100.500       N(2)  =     4000

 VTST: version 3.2, (02/03/18)

 CHAIN: initializing optimizer
 
 OPT: Using VASP Conjugate-Gradient optimizer
 CHAIN: Read ICHAIN            0
 
 POSCAR: POSCAR                                  
  positions in direct lattice
  velocities in cartesian coordinates
 


--------------------------------------------------------------------------------------------------------


 ion  position               nearest neighbor table
   1  0.002  0.999  0.097-   9 2.45  29 2.50  49 2.51  64 2.51  44 2.53   7 2.53  51 2.54  38 2.55
                             5 2.60
   2  0.003  0.002  0.381-  11 2.43  48 2.45   8 2.49  30 2.50  52 2.51  57 2.51   6 2.51  50 2.55
                            39 2.56
   3  0.499  0.996  0.096-   5 2.47  62 2.50  34 2.52  31 2.52  49 2.53  45 2.55  55 2.55  12 2.56
                            53 2.58
   4  0.495  0.987  0.379-  63 2.40  15 2.43  32 2.45  35 2.46  13 2.47  50 2.52   6 2.55  56 2.58
                            54 2.61
   5  0.743  0.996  0.094-   3 2.47  34 2.47  62 2.52  38 2.53  55 2.54  64 2.58  14 2.58  51 2.59
                             1 2.60
   6  0.752  0.996  0.382-  68 1.79  39 2.44  47 2.49  56 2.49  57 2.50   2 2.51  35 2.53  15 2.54
                             4 2.55  52 2.59
   7  0.249  0.253  0.097-  22 2.43   9 2.44  51 2.49  18 2.52  20 2.53   1 2.53  53 2.54  10 2.55
                            49 2.58
   8  0.250  0.249  0.382-  66 1.77  11 2.44  19 2.46  52 2.46   2 2.49  59 2.50  26 2.52  21 2.52
                            54 2.54  50 2.57
   9  0.089  0.161  0.191-  10 2.41   7 2.44   1 2.45  44 2.47  59 2.52  51 2.52  57 2.53  11 2.53
                            64 2.54  22 2.55  58 2.62  14 2.68
  10  0.330  0.166  0.195-  26 2.41   9 2.41  11 2.45  13 2.47  22 2.48  45 2.48  44 2.49   7 2.55
                            12 2.57  49 2.58  53 2.59  25 2.59
  11  0.170  0.083  0.290-   2 2.43   8 2.44  10 2.45  26 2.50  44 2.52  59 2.52  13 2.52  46 2.52
                             9 2.53  48 2.54  50 2.56  57 2.57
  12  0.583  0.166  0.194-  15 2.43  13 2.44  14 2.45  27 2.50  62 2.52  45 2.54  55 2.55   3 2.56
                            10 2.57  53 2.58  25 2.58  28 2.60
  13  0.421  0.088  0.288-  12 2.44  26 2.45  15 2.46  10 2.47   4 2.47  45 2.50  11 2.52  54 2.56
                            46 2.56  28 2.56  63 2.58  50 2.59
  14  0.827  0.167  0.193-  60 2.45  12 2.45  15 2.47  57 2.48  62 2.51  55 2.51  27 2.53  58 2.56
                            51 2.56   5 2.58  64 2.59   9 2.68
  15  0.663  0.085  0.288-   4 2.43  12 2.43  13 2.46  14 2.47  60 2.51  62 2.51   6 2.54  56 2.55
                            63 2.55  47 2.56  57 2.56  28 2.56
  16  0.003  0.511  0.095-  31 2.44  29 2.45  23 2.48  33 2.51  58 2.57  18 2.58  27 2.59  55 2.60
                            51 2.63
  17  0.002  0.503  0.376-  43 2.37  37 2.40  60 2.43  32 2.51  19 2.55  30 2.55  24 2.56  52 2.57
                            56 2.62
  18  0.256  0.506  0.097-  36 2.40  31 2.45  34 2.47  22 2.47  20 2.48   7 2.52  58 2.53  51 2.58
                            16 2.58
  19  0.247  0.491  0.384-  67 1.84  52 2.42   8 2.46  59 2.51  21 2.52  17 2.55  37 2.55  61 2.56
                            35 2.58  32 2.60
  20  0.500  0.503  0.098-  22 2.41  40 2.43  34 2.48  18 2.48  38 2.50  25 2.53   7 2.53  53 2.54
                            23 2.58
  21  0.500  0.498  0.377-  42 2.37  26 2.43  61 2.43  35 2.51  19 2.52   8 2.52  39 2.55  24 2.56
                            54 2.56
  22  0.339  0.416  0.189-  20 2.41   7 2.43  40 2.46  18 2.47  25 2.48  10 2.48  61 2.51  36 2.53
                            26 2.53  59 2.54   9 2.55  58 2.60
  23  0.757  0.508  0.096-  29 2.40  41 2.46  16 2.48  27 2.48  38 2.48  25 2.56  55 2.57  20 2.58
                            53 2.60
  24  0.749  0.496  0.396-  69 1.78  65 1.85  54 2.54  21 2.56  17 2.56  28 2.58  56 2.59  39 2.61
                            30 2.63  43 2.70  42 2.73
  25  0.586  0.422  0.194-  40 2.45  26 2.45  41 2.46  27 2.46  42 2.46  22 2.48  20 2.53  28 2.54
                            23 2.56  53 2.58  12 2.58  10 2.59
  26  0.419  0.329  0.287-  10 2.41  21 2.43  25 2.45  13 2.45  11 2.50  28 2.50   8 2.52  22 2.53
                            42 2.54  59 2.55  61 2.57  54 2.61
  27  0.827  0.417  0.192-  41 2.45  25 2.46  23 2.48  12 2.50  55 2.51  60 2.52  28 2.52  14 2.53
                            43 2.55  58 2.59  16 2.59  33 2.60
  28  0.673  0.343  0.292-  43 2.46  42 2.49  60 2.50  26 2.50  27 2.52  25 2.54  15 2.56  13 2.56
                            54 2.57  24 2.58  56 2.58  12 2.60
  29  0.992  0.747  0.096-  23 2.40  16 2.45  38 2.48  41 2.50   1 2.50  33 2.54  44 2.56  49 2.57
                            31 2.63
  30  0.007  0.757  0.388-  65 1.86  50 2.45  46 2.46  32 2.50   2 2.50  17 2.55  43 2.58  39 2.61
                            48 2.61  24 2.63
  31  0.251  0.746  0.097-  16 2.44  36 2.44  18 2.45  33 2.49  34 2.52   3 2.52  45 2.55  49 2.56
                            29 2.63
  32  0.251  0.749  0.388-  67 1.86   4 2.45  46 2.49  50 2.50  30 2.50  17 2.51  35 2.55  19 2.60
                            63 2.60  37 2.63
  33  0.086  0.671  0.192-  45 2.48  44 2.48  31 2.49  16 2.51  37 2.52  36 2.52  41 2.52  29 2.54
                            43 2.54  58 2.55  46 2.59  27 2.60
  34  0.502  0.749  0.098-  18 2.47   5 2.47  40 2.48  36 2.48  20 2.48  62 2.49  38 2.49  31 2.52
                             3 2.52
  35  0.501  0.746  0.384-  67 1.88  39 2.46   4 2.46  47 2.49  21 2.51   6 2.53  61 2.54  32 2.55
                            63 2.56  19 2.58
  36  0.330  0.661  0.190-  18 2.40  31 2.44  34 2.48  37 2.49  58 2.49  61 2.50  63 2.52  33 2.52
                            22 2.53  40 2.53  62 2.56  45 2.62
  37  0.169  0.580  0.286-  17 2.40  58 2.46  61 2.49  36 2.49  63 2.50  59 2.51  33 2.52  19 2.55
                            60 2.56  46 2.57  43 2.59  32 2.63
  38  0.748  0.749  0.094-  29 2.48  23 2.48  34 2.49  20 2.50   5 2.53  40 2.54  64 2.55   1 2.55
                            41 2.58
  39  0.747  0.752  0.386-  65 1.85   6 2.44  35 2.46  42 2.53  48 2.54  47 2.54  21 2.55   2 2.56
                            24 2.61  30 2.61
  40  0.580  0.661  0.192-  20 2.43  25 2.45  22 2.46  61 2.47  34 2.48  42 2.51  47 2.52  36 2.53
                            38 2.54  41 2.54  62 2.56  64 2.57
  41  0.832  0.662  0.193-  27 2.45  25 2.46  23 2.46  43 2.47  29 2.50  42 2.51  33 2.52  48 2.54
                            40 2.54  64 2.54  44 2.57  38 2.58
  42  0.665  0.584  0.289-  21 2.37  25 2.46  28 2.49  40 2.51  41 2.51  47 2.51  61 2.51  43 2.52
                            39 2.53  48 2.53  26 2.54  24 2.73
  43  0.916  0.587  0.289-  17 2.37  28 2.46  41 2.47  42 2.52  46 2.53  48 2.54  33 2.54  27 2.55
                            60 2.58  30 2.58  37 2.59  24 2.70
  44  0.086  0.916  0.194-  45 2.43   9 2.47  33 2.48  10 2.49  48 2.51  11 2.52   1 2.53  49 2.53
                            64 2.54  29 2.56  41 2.57  46 2.58
  45  0.327  0.919  0.193-  44 2.43  33 2.48  10 2.48  49 2.49  13 2.50  63 2.52  12 2.54  31 2.55
                             3 2.55  46 2.55  62 2.59  36 2.62
  46  0.169  0.834  0.294-  50 2.46  30 2.46  32 2.49  63 2.50  11 2.52  43 2.53  45 2.55  13 2.56
                            37 2.57  44 2.58  33 2.59  48 2.60
  47  0.661  0.831  0.287-  62 2.47   6 2.49  35 2.49  63 2.49  61 2.51  42 2.51  64 2.52  40 2.52
                            48 2.53  39 2.54  15 2.56  57 2.56
  48  0.914  0.837  0.288-   2 2.45  64 2.46  57 2.49  44 2.51  47 2.53  42 2.53  39 2.54  43 2.54
                            41 2.54  11 2.54  46 2.60  30 2.61
  49  0.249  0.998  0.096-  45 2.49   1 2.51  44 2.53   3 2.53  53 2.55  31 2.56  29 2.57  10 2.58
                             7 2.58
  50  0.252  0.997  0.388-  66 1.87  30 2.45  46 2.46  54 2.50  32 2.50   4 2.52   2 2.55  11 2.56
                             8 2.57  13 2.59
  51  0.001  0.250  0.097-   7 2.49  58 2.51   9 2.52   1 2.54  55 2.55  14 2.56  18 2.58   5 2.59
                            16 2.63
  52  0.008  0.252  0.381-  68 1.87  19 2.42  59 2.46   8 2.46   2 2.51  57 2.51  60 2.51  56 2.55
                            17 2.57   6 2.59
  53  0.499  0.252  0.095-  55 2.53   7 2.54  20 2.54  49 2.55   3 2.58  25 2.58  12 2.58  10 2.59
                            23 2.60
  54  0.498  0.245  0.389-  69 1.88  66 1.93  50 2.50   8 2.54  24 2.54  13 2.56  21 2.56  56 2.57
                            28 2.57   4 2.61  26 2.61
  55  0.749  0.251  0.096-  14 2.51  27 2.51  53 2.53   5 2.54  51 2.55   3 2.55  12 2.55  23 2.57
                            16 2.60
  56  0.750  0.241  0.389-  69 1.88  68 1.93   6 2.49  15 2.55  52 2.55  54 2.57   4 2.58  28 2.58
                            24 2.59  60 2.60  17 2.62
  57  0.915  0.083  0.286-  64 2.47  14 2.48  48 2.49   6 2.50  60 2.51   2 2.51  52 2.51   9 2.53
                            59 2.53  47 2.56  15 2.56  11 2.57
  58  0.083  0.417  0.192-  37 2.46  36 2.49  60 2.49  59 2.50  51 2.51  18 2.53  33 2.55  14 2.56
                            16 2.57  27 2.59  22 2.60   9 2.62
  59  0.168  0.331  0.286-  52 2.46  58 2.50   8 2.50  19 2.51  37 2.51  61 2.52   9 2.52  11 2.52
                            57 2.53  22 2.54  26 2.55  60 2.57
  60  0.913  0.330  0.287-  17 2.43  14 2.45  58 2.49  28 2.50  15 2.51  57 2.51  52 2.51  27 2.52
                            37 2.56  59 2.57  43 2.58  56 2.60
  61  0.415  0.581  0.286-  21 2.43  40 2.47  37 2.49  36 2.50  47 2.51  42 2.51  22 2.51  59 2.52
                            63 2.52  35 2.54  19 2.56  26 2.57
  62  0.582  0.915  0.192-  47 2.47  63 2.48  34 2.49   3 2.50  14 2.51  15 2.51   5 2.52  12 2.52
                            64 2.55  36 2.56  40 2.56  45 2.59
  63  0.414  0.829  0.286-   4 2.40  62 2.48  47 2.49  37 2.50  46 2.50  45 2.52  61 2.52  36 2.52
                            15 2.55  35 2.56  13 2.58  32 2.60
  64  0.834  0.915  0.192-  48 2.46  57 2.47   1 2.51  47 2.52   9 2.54  44 2.54  41 2.54  38 2.55
                            62 2.55  40 2.57   5 2.58  14 2.59
  65  0.837  0.678  0.440-  39 1.85  24 1.85  30 1.86
  66  0.315  0.167  0.439-   8 1.77  50 1.87  54 1.93
  67  0.332  0.655  0.438-  19 1.84  32 1.86  35 1.88
  68  0.845  0.149  0.437-   6 1.79  52 1.87  56 1.93
  69  0.669  0.328  0.443-  24 1.78  56 1.88  54 1.88
 

IMPORTANT INFORMATION: All symmetrisations will be switched off!
NOSYMM: (Re-)initialisation of all symmetry stuff for point group C_1.

 
 

Automatic generation of k-mesh.
 generate k-points for:    3    3    1
Space group operators:
 irot       det(A)        alpha          n_x          n_y          n_z        tau_x        tau_y        tau_z
    1     1.000000     0.000000     1.000000     0.000000     0.000000     0.000000     0.000000     0.000000
 
 Subroutine IBZKPT returns following result:
 ===========================================
 
 Found      5 irreducible k-points:
 
 Following reciprocal coordinates:
            Coordinates               Weight
  0.000000  0.000000  0.000000      1.000000
  0.333333  0.000000  0.000000      2.000000
  0.000000  0.333333  0.000000      2.000000
  0.333333  0.333333  0.000000      2.000000
 -0.333333  0.333333  0.000000      2.000000
 
 Following cartesian coordinates:
            Coordinates               Weight
  0.000000  0.000000  0.000000      1.000000
  0.032965  0.019033  0.000000      2.000000
  0.000000  0.038065  0.000000      2.000000
  0.032965  0.057098  0.000000      2.000000
 -0.032965  0.019033  0.000000      2.000000
 


--------------------------------------------------------------------------------------------------------




 Dimension of arrays:
   k-points           NKPTS =      5   k-points in BZ     NKDIM =      5   number of bands    NBANDS=    381
   number of dos      NEDOS =    301   number of ions     NIONS =     69
   non local maximal  LDIM  =      6   non local SUM 2l+1 LMDIM =     18
   total plane-waves  NPLWV = ******
   max r-space proj   IRMAX =   8269   max aug-charges    IRDMAX=  19568
   dimension x,y,z NGX =    80 NGY =   80 NGZ =  160
   dimension x,y,z NGXF=   160 NGYF=  160 NGZF=  320
   support grid    NGXF=   160 NGYF=  160 NGZF=  320
   ions per type =              48  16   5
   NGX,Y,Z   is equivalent  to a cutoff of  13.15, 13.15, 12.51 a.u.
   NGXF,Y,Z  is equivalent  to a cutoff of  26.31, 26.31, 25.02 a.u.

 SYSTEM =  SQS-NiFe                                
 POSCAR =  POSCAR                                  

 Startparameter for this run:
   NWRITE =      2    write-flag & timer
   PREC   = accura    normal or accurate (medium, high low for compatibility)
   ISTART =      1    job   : 0-new  1-cont  2-samecut
   ICHARG =      1    charge: 1-file 2-atom 10-const
   ISPIN  =      2    spin polarized calculation?
   LNONCOLLINEAR =      F non collinear calculations
   LSORBIT =      F    spin-orbit coupling
   INIWAV =      1    electr: 0-lowe 1-rand  2-diag
   LASPH  =      F    aspherical Exc in radial PAW
   METAGGA=      F    non-selfconsistent MetaGGA calc.

 Electronic Relaxation 1
   ENCUT  =  520.0 eV  38.22 Ry    6.18 a.u.  18.80 18.80 39.54*2*pi/ulx,y,z
   ENINI  =  520.0     initial cutoff
   ENAUG  =  605.4 eV  augmentation charge cutoff
   NELM   =    200;   NELMIN=  2; NELMDL=  0     # of ELM steps 
   EDIFF  = 0.1E-04   stopping-criterion for ELM
   LREAL  =      T    real-space projection
   NLSPLINE    = F    spline interpolate recip. space projectors
   LCOMPAT=      F    compatible to vasp.4.4
   GGA_COMPAT  = T    GGA compatible to vasp.4.4-vasp.4.6
   LMAXPAW     = -100 max onsite density
   LMAXMIX     =    2 max onsite mixed and CHGCAR
   VOSKOWN=      0    Vosko Wilk Nusair interpolation
   ROPT   =   -0.00025  -0.00025  -0.00025
 Ionic relaxation
   EDIFFG = -.5E-01   stopping-criterion for IOM
   NSW    =     99    number of steps for IOM
   NBLOCK =      1;   KBLOCK =     99    inner block; outer block 
   IBRION =      2    ionic relax: 0-MD 1-quasi-New 2-CG
   NFREE  =      1    steps in history (QN), initial steepest desc. (CG)
   ISIF   =      2    stress and relaxation
   IWAVPR =     11    prediction:  0-non 1-charg 2-wave 3-comb
   ISYM   =      0    0-nonsym 1-usesym 2-fastsym
   LCORR  =      T    Harris-Foulkes like correction to forces

   POTIM  = 0.5000    time-step for ionic-motion
   TEIN   =    0.0    initial temperature
   TEBEG  =    0.0;   TEEND  =   0.0 temperature during run
   SMASS  =  -3.00    Nose mass-parameter (am)
   estimated Nose-frequenzy (Omega)   =  0.10E-29 period in steps =****** mass=  -0.234E-26a.u.
   SCALEE = 1.0000    scale energy and forces
   NPACO  =    256;   APACO  = 16.0  distance and # of slots for P.C.
   PSTRESS=    0.0 pullay stress

  Mass of Ions in am
   POMASS =  55.85 58.69 16.00
  Ionic Valenz
   ZVAL   =   8.00 10.00  6.00
  Atomic Wigner-Seitz radii
   RWIGS  =  -1.00 -1.00 -1.00
  virtual crystal weights 
   VCA    =   1.00  1.00  1.00
   NELECT =     574.0000    total number of electrons
   NUPDOWN=      -1.0000    fix difference up-down

 DOS related values:
   EMIN   =  10.00;   EMAX   =-10.00  energy-range for DOS
   EFERMI =   0.00
   ISMEAR =     1;   SIGMA  =   0.20  broadening in eV -4-tet -1-fermi 0-gaus

 Electronic relaxation 2 (details)
   IALGO  =     68    algorithm
   LDIAG  =      T    sub-space diagonalisation (order eigenvalues)
   LSUBROT=      F    optimize rotation matrix (better conditioning)
   TURBO    =      0    0=normal 1=particle mesh
   IRESTART =      0    0=no restart 2=restart with 2 vectors
   NREBOOT  =      0    no. of reboots
   NMIN     =      0    reboot dimension
   EREF     =   0.00    reference energy to select bands
   IMIX   =      4    mixing-type and parameters
     AMIX     =   0.40;   BMIX     =  1.00
     AMIX_MAG =   1.60;   BMIX_MAG =  1.00
     AMIN     =   0.10
     WC   =   100.;   INIMIX=   1;  MIXPRE=   1;  MAXMIX= -45

 Intra band minimization:
   WEIMIN = 0.0010     energy-eigenvalue tresh-hold
   EBREAK =  0.66E-08  absolut break condition
   DEPER  =   0.30     relativ break condition  

   TIME   =   0.40     timestep for ELM

  volume/ion in A,a.u.               =      27.29       184.17
  Fermi-wavevector in a.u.,A,eV,Ry     =   1.101767  2.082037 16.515972  1.213890
  Thomas-Fermi vector in A             =   2.238199
 
 Write flags
   LWAVE        =      T    write WAVECAR
   LDOWNSAMPLE  =      F    k-point downsampling of WAVECAR
   LCHARG       =      T    write CHGCAR
   LVTOT        =      F    write LOCPOT, total local potential
   LVHAR        =      F    write LOCPOT, Hartree potential only
   LELF         =      F    write electronic localiz. function (ELF)
   LORBIT       =     10    0 simple, 1 ext, 2 COOP (PROOUT), +10 PAW based schemes


 Dipole corrections
   LMONO  =      F    monopole corrections only (constant potential shift)
   LDIPOL =      T    correct potential (dipole corrections)
   IDIPOL =      3    1-x, 2-y, 3-z, 4-all directions 
   EPSILON=  1.0000000 bulk dielectric constant

 Exchange correlation treatment:
   GGA     =    --    GGA type
   LEXCH   =     8    internal setting for exchange type
   VOSKOWN=      0    Vosko Wilk Nusair interpolation
   LHFCALC =     F    Hartree Fock is set to
   LHFONE  =     F    Hartree Fock one center treatment
   AEXX    =    0.0000 exact exchange contribution

 Linear response parameters
   LEPSILON=     F    determine dielectric tensor
   LRPA    =     F    only Hartree local field effects (RPA)
   LNABLA  =     F    use nabla operator in PAW spheres
   LVEL    =     F    velocity operator in full k-point grid
   LINTERFAST=   F  fast interpolation
   KINTER  =     0    interpolate to denser k-point grid
   CSHIFT  =0.1000    complex shift for real part using Kramers Kronig
   OMEGAMAX=  -1.0    maximum frequency
   DEG_THRESHOLD= 0.2000000E-02 threshold for treating states as degnerate
   RTIME   =   -0.100 relaxation time in fs
  (WPLASMAI=    0.000 imaginary part of plasma frequency in eV, 0.658/RTIME)
   DFIELD  = 0.0000000 0.0000000 0.0000000 field for delta impulse in time
 
 Orbital magnetization related:
   ORBITALMAG=     F  switch on orbital magnetization
   LCHIMAG   =     F  perturbation theory with respect to B field
   DQ        =  0.001000  dq finite difference perturbation B field
   LLRAUG    =     F  two centre corrections for induced B field



--------------------------------------------------------------------------------------------------------


 conjugate gradient relaxation of ions
   using selective dynamics as specified on POSCAR
 charge density and potential will be updated during run
 spin polarized calculation
 RMM-DIIS sequential band-by-band and
  variant of blocked Davidson during initial phase
 perform sub-space diagonalisation
    before iterative eigenvector-optimisation
 modified Broyden-mixing scheme, WC =      100.0
 initial mixing is a Kerker type mixing with AMIX =  0.4000 and BMIX =      1.0000
 Hartree-type preconditioning will be used
 using additional bands           94
 real space projection scheme for non local part
 use partial core corrections
 calculate Harris-corrections to forces 
   (improved forces if not selfconsistent)
 use gradient corrections 
 use of overlap-Matrix (Vanderbilt PP)
 Methfessel and Paxton  Order N= 1 SIGMA  =   0.20


--------------------------------------------------------------------------------------------------------


  energy-cutoff  :      520.00
  volume of cell :     1883.07
      direct lattice vectors                 reciprocal lattice vectors
    10.111630000  0.000000000  0.000000000     0.098896024  0.057097646  0.000000000
    -5.055815000  8.756928450  0.000000000     0.000000000  0.114195292  0.000000000
     0.000000000  0.000000000 21.266430000     0.000000000  0.000000000  0.047022467

  length of vectors
    10.111630000 10.111629997 21.266430000     0.114195292  0.114195292  0.047022467


 
 old parameters found on file WAVECAR:
  energy-cutoff  :      520.00
  volume of cell :     1883.07
      direct lattice vectors                 reciprocal lattice vectors
    10.111630000  0.000000000  0.000000000     0.098896024  0.057097646  0.000000000
    -5.055815000  8.756928450  0.000000000     0.000000000  0.114195292  0.000000000
     0.000000000  0.000000000 21.266430000     0.000000000  0.000000000  0.047022467

  length of vectors

 
 k-points in units of 2pi/SCALE and weight: read from INCAR                         
   0.00000000  0.00000000  0.00000000       0.111
   0.03296534  0.01903255  0.00000000       0.222
   0.00000000  0.03806510  0.00000000       0.222
   0.03296534  0.05709765  0.00000000       0.222
  -0.03296534  0.01903255  0.00000000       0.222
 
 k-points in reciprocal lattice and weights: read from INCAR                         
   0.00000000  0.00000000  0.00000000       0.111
   0.33333333  0.00000000  0.00000000       0.222
   0.00000000  0.33333333  0.00000000       0.222
   0.33333333  0.33333333  0.00000000       0.222
  -0.33333333  0.33333333  0.00000000       0.222
 
 position of ions in fractional coordinates (direct lattice) 
   0.00194700  0.99920000  0.09682900
   0.00325685  0.00196278  0.38111237
   0.49880600  0.99647600  0.09614500
   0.49544669  0.98659692  0.37867872
   0.74316000  0.99645900  0.09443100
   0.75215354  0.99636361  0.38209615
   0.24913600  0.25322600  0.09681000
   0.24952126  0.24878899  0.38208532
   0.08873200  0.16149400  0.19059200
   0.32962600  0.16609800  0.19506300
   0.17011620  0.08347322  0.28995676
   0.58333000  0.16550300  0.19443700
   0.42130765  0.08781490  0.28774204
   0.82651500  0.16651000  0.19326300
   0.66289568  0.08462857  0.28783244
   0.00320800  0.51090900  0.09451300
   0.00224762  0.50316380  0.37608683
   0.25586900  0.50577700  0.09734600
   0.24721596  0.49056690  0.38429804
   0.49960200  0.50304900  0.09754100
   0.49957213  0.49769920  0.37711292
   0.33859900  0.41583700  0.18939300
   0.75679100  0.50804300  0.09630900
   0.74864708  0.49596264  0.39585971
   0.58633600  0.42229400  0.19423600
   0.41904271  0.32922116  0.28651377
   0.82677100  0.41676200  0.19199500
   0.67286331  0.34266216  0.29234111
   0.99180600  0.74702800  0.09571300
   0.00747975  0.75698441  0.38826830
   0.25104600  0.74563900  0.09703600
   0.25089401  0.74888802  0.38849241
   0.08604600  0.67086900  0.19220200
   0.50153700  0.74905700  0.09752900
   0.50118106  0.74625480  0.38400241
   0.33005900  0.66135600  0.19018600
   0.16887737  0.58017286  0.28642151
   0.74777500  0.74863100  0.09404500
   0.74715549  0.75247742  0.38579310
   0.58008200  0.66096300  0.19152700
   0.83213700  0.66199500  0.19303500
   0.66514391  0.58440654  0.28892815
   0.91582509  0.58668413  0.28912456
   0.08603600  0.91635500  0.19371200
   0.32743000  0.91932200  0.19293700
   0.16938261  0.83392140  0.29375235
   0.66132054  0.83085387  0.28723403
   0.91401628  0.83658855  0.28832000
   0.24916500  0.99813100  0.09559800
   0.25240513  0.99653834  0.38785908
   0.00129700  0.24974200  0.09658600
   0.00774746  0.25238049  0.38100316
   0.49933100  0.25162700  0.09537300
   0.49788485  0.24466050  0.38932550
   0.74944200  0.25071300  0.09573100
   0.75024152  0.24083997  0.38870433
   0.91540369  0.08300810  0.28571436
   0.08260800  0.41708000  0.19225300
   0.16779780  0.33104823  0.28606009
   0.91341666  0.33021495  0.28657697
   0.41517022  0.58112164  0.28594114
   0.58190700  0.91526900  0.19241300
   0.41401152  0.82932616  0.28623567
   0.83399900  0.91457100  0.19240400
   0.83708968  0.67785606  0.44004418
   0.31495449  0.16749454  0.43932577
   0.33219634  0.65516581  0.43828108
   0.84493127  0.14941645  0.43711071
   0.66865766  0.32797043  0.44303714
 
 position of ions in cartesian coordinates  (Angst):
  -5.03208300  8.74992291  2.05920715
   0.02300863  0.01718791  8.10489946
   0.00574341  8.72606903  2.04466091
   0.02172215  8.63955863  8.05314443
   2.47664659  8.72592017  2.00821025
   2.56806817  8.72508483  8.12582106
   1.23890724  2.21748196  2.05880309
   1.26523555  2.17862735  8.12559071
   0.08074137  1.41419140  4.05321143
   2.49329539  1.45450830  4.14829364
   1.29812691  0.73096903  6.16634520
   5.06166458  1.44929793  4.13498085
   3.81613112  0.76898882  6.11924595
   7.51557011  1.45811616  4.11001406
   6.27508944  0.74108637  6.12116843
  -2.55062328  4.47399356  2.00995410
  -2.52117599  4.40616937  7.99802424
   0.03013771  4.42905300  2.07020189
   0.01954081  4.29585923  8.17264746
   2.50846789  4.40516410  2.07434885
   2.53521342  4.35831632  8.01984560
   1.32139286  3.64145486  4.02771298
   5.08381916  4.44889620  2.04814861
   5.06254697  4.34310933  8.41852286
   3.79377235  3.69799834  4.13070630
   2.57272353  2.88296615  6.09312497
   6.25293088  3.64955501  4.08304823
   5.07130838  3.00066803  6.21705176
   6.25193994  6.54167075  2.03547381
  -3.75154070  6.62885830  8.25708057
  -1.23132858  6.52950737  2.06360930
  -1.24929193  6.55795882  8.26184660
  -2.52172424  5.87475183  4.08745038
   1.28426296  6.55943855  2.07409365
   1.29483126  6.53489985  8.16636041
  -0.00625910  5.79144717  4.04457726
  -1.22562113  5.08053222  6.09116299
   3.77628428  6.55570810  2.00000141
   3.75057323  6.58939089  8.20444205
   2.52386790  5.78800570  4.07309554
   5.06733720  5.79704285  4.10516532
   3.77103773  5.11760624  6.14447019
   6.29431805  5.13755094  6.14864722
  -3.76295716  8.02445517  4.11956269
  -1.33707095  8.05043698  4.10308120
  -2.50341802  7.30259002  6.24706380
   2.48638512  7.27572789  6.10844249
   5.01255752  7.32594609  6.13153707
  -2.52690139  8.74056175  2.03302818
  -2.48608624  8.72661493  8.24837804
  -1.24953457  2.18697282  2.05403941
  -1.19764966  2.21007791  8.10257706
   3.77687076  2.20347964  2.02824323
   3.79746913  2.14247449  8.27956359
   6.31052166  2.19547580  2.03585661
   6.36852239  2.10901834  8.26635338
   8.83654978  0.72689600  6.07612440
  -1.27337779  3.65233972  4.08853497
   0.02299070  2.89896564  6.08347697
   7.56662559  2.89166873  6.09446909
   1.26000410  5.08884062  6.08094723
   1.25659754  8.01494515  4.09193760
  -0.00658832  7.26234985  6.08721088
   3.80918753  8.00883281  4.09174620
   5.03722634  5.93593701  9.35816870
   2.33788187  1.46673773  9.34289074
   0.04664937  5.73724012  9.32067387
   7.78821045  1.30842915  9.29578435
   5.10306107  2.87201361  9.42181832
 


--------------------------------------------------------------------------------------------------------


 k-point  1 :   0.0000 0.0000 0.0000  plane waves:   50761
 k-point  2 :   0.3333 0.0000 0.0000  plane waves:   50732
 k-point  3 :   0.0000 0.3333 0.0000  plane waves:   50732
 k-point  4 :   0.3333 0.3333 0.0000  plane waves:   50727
 k-point  5 :  -0.3333 0.3333 0.0000  plane waves:   50732

 maximum and minimum number of plane-waves per node :      2133     2094

 maximum number of plane-waves:     50761
 maximum index in each direction: 
   IXMAX=   19   IYMAX=   18   IZMAX=   39
   IXMIN=  -19   IYMIN=  -19   IZMIN=  -39


 real space projection operators:
  total allocation   :      69906.92 KBytes
  max/ min on nodes  :       3485.83       2629.14


 parallel 3D FFT for wavefunctions:
    minimum data exchange during FFTs selected (reduces bandwidth)
 parallel 3D FFT for charge:
    minimum data exchange during FFTs selected (reduces bandwidth)


 total amount of memory used by VASP MPI-rank0   112483. kBytes
=======================================================================

   base      :      30000. kBytes
   nonlr-proj:      13978. kBytes
   fftplans  :       6403. kBytes
   grid      :      17692. kBytes
   one-center:         93. kBytes
   wavefun   :      44317. kBytes
 
     INWAV:  cpu time   10.5077: real time   10.7844
 Broyden mixing: mesh for mixing (old mesh)
   NGX = 37   NGY = 37   NGZ = 79
  (NGX  =160   NGY  =160   NGZ  =320)
  gives a total of 108151 points

 initial charge density was supplied:
 number of electron     574.0000091 magnetization      91.3320690
 keeping initial charge density in first step


--------------------------------------------------------------------------------------------------------


 Maximum index for non-local projection operator          758
 Maximum index for augmentation-charges         1103 (set IRDMAX)


--------------------------------------------------------------------------------------------------------


 First call to EWALD:  gamma=   0.144
 Maximum number of real-space cells 4x 4x 2
 Maximum number of reciprocal cells 2x 2x 4

    FEWALD:  cpu time    0.0034: real time    0.0034


--------------------------------------- Iteration      1(   1)  ---------------------------------------


    POTLOK:  cpu time    0.4156: real time    0.4234
    SETDIJ:  cpu time    0.0249: real time    0.0250
     EDDAV:  cpu time   37.2403: real time   37.2598
       DOS:  cpu time    0.0084: real time    0.0084
    CHARGE:  cpu time    1.2774: real time    1.2775
    MIXING:  cpu time    0.0063: real time    0.0064
    --------------------------------------------
      LOOP:  cpu time   38.9730: real time   39.0007

 eigenvalue-minimisations  :  8058
 total energy-change (2. order) :-0.4776575E+03  (-0.1570060E+03)
 number of electron     574.0000092 magnetization      91.2573026
 augmentation part      303.2530039 magnetization      73.6362021

 DIPCOR: dipole corrections for dipol
 direction  3 min pos   234,
 dipolmoment           0.000000      0.000000      0.293689 electrons x Angstroem
 Tr[quadrupol]    -10012.621438

 energy correction for charged system         0.000000 eV
 dipol+quadrupol energy correction           -0.004144 eV
 added-field ion interaction         -7.881781 eV  (added to PSCEN)


 Broyden mixing:
  rms(total) = 0.82938E+00    rms(broyden)= 0.82932E+00
  rms(prec ) = 0.83726E+00
  weight for this iteration     100.00

 Free energy of the ion-electron system (eV)
  ---------------------------------------------------
  alpha Z        PSCENC =      1540.17980043
  Ewald energy   TEWEN  =    175195.75680742
  -Hartree energ DENC   =   -222709.24402246
  -exchange      EXHF   =         0.00000000
  -V(xc)+E(xc)   XCENC  =       829.41753812
  PAW double counting   =     54550.37950327   -56092.31271371
  entropy T*S    EENTRO =         0.03604868
  eigenvalues    EBANDS =     -1723.40372884
  atomic energy  EATOM  =     47931.53331682
  Solvation  Ediel_sol  =         0.00000000
  ---------------------------------------------------
  free energy    TOTEN  =      -477.65745028 eV

  energy without entropy =     -477.69349896  energy(sigma->0) =     -477.66946651


--------------------------------------------------------------------------------------------------------




--------------------------------------- Iteration      1(   2)  ---------------------------------------


    POTLOK:  cpu time    0.4181: real time    0.4295
    SETDIJ:  cpu time    0.0246: real time    0.0246
    EDDIAG:  cpu time    5.1821: real time    5.1888
  RMM-DIIS:  cpu time   18.8885: real time   18.8966
    ORTHCH:  cpu time    1.4344: real time    1.4347
       DOS:  cpu time    0.0086: real time    0.0085
    CHARGE:  cpu time    1.2787: real time    1.2792
    MIXING:  cpu time    0.0065: real time    0.0066
    --------------------------------------------
      LOOP:  cpu time   27.2416: real time   27.2685

 eigenvalue-minimisations  :  7733
 total energy-change (2. order) :-0.1317816E+02  (-0.1227054E+02)
 number of electron     574.0000091 magnetization      91.1832602
 augmentation part      299.1008829 magnetization      74.1842758

 DIPCOR: dipole corrections for dipol
 direction  3 min pos   240,
 dipolmoment           0.000000      0.000000      0.285182 electrons x Angstroem
 Tr[quadrupol]    -10012.915655

 energy correction for charged system         0.000000 eV
 dipol+quadrupol energy correction           -0.003908 eV
 added-field ion interaction         -1.380899 eV  (added to PSCEN)


 Broyden mixing:
  rms(total) = 0.20123E+01    rms(broyden)= 0.20123E+01
  rms(prec ) = 0.22736E+01
  weight for this iteration     100.00

 eigenvalues of (default mixing * dielectric matrix)
  average eigenvalue GAMMA=   0.2839
  0.2839

 Free energy of the ion-electron system (eV)
  ---------------------------------------------------
  alpha Z        PSCENC =      1546.68091870
  Ewald energy   TEWEN  =    175195.75680742
  -Hartree energ DENC   =   -222743.75892029
  -exchange      EXHF   =         0.00000000
  -V(xc)+E(xc)   XCENC  =       830.24858518
  PAW double counting   =     54919.35684501   -56481.59332114
  entropy T*S    EENTRO =         0.00816256
  eigenvalues    EBANDS =     -1689.06800204
  atomic energy  EATOM  =     47931.53331682
  Solvation  Ediel_sol  =         0.00000000
  ---------------------------------------------------
  free energy    TOTEN  =      -490.83560780 eV

  energy without entropy =     -490.84377036  energy(sigma->0) =     -490.83832865


--------------------------------------------------------------------------------------------------------




--------------------------------------- Iteration      1(   3)  ---------------------------------------


    POTLOK:  cpu time    0.4200: real time    0.4300
    SETDIJ:  cpu time    0.0247: real time    0.0247
    EDDIAG:  cpu time    5.1869: real time    5.1880
  RMM-DIIS:  cpu time   19.9950: real time   20.0060
    ORTHCH:  cpu time    1.4297: real time    1.4307
       DOS:  cpu time    0.0086: real time    0.0086
    CHARGE:  cpu time    1.2721: real time    1.2723
    MIXING:  cpu time    0.0065: real time    0.0065
    --------------------------------------------
      LOOP:  cpu time   28.3436: real time   28.3669

 eigenvalue-minimisations  :  8187
 total energy-change (2. order) :-0.5426131E+01  (-0.2039318E+01)
 number of electron     574.0000091 magnetization      91.1607465
 augmentation part      300.2698826 magnetization      72.6079528

 DIPCOR: dipole corrections for dipol
 direction  3 min pos   236,
 dipolmoment           0.000000      0.000000      0.479287 electrons x Angstroem
 Tr[quadrupol]    -10012.936331

 energy correction for charged system         0.000000 eV
 dipol+quadrupol energy correction           -0.011038 eV
 added-field ion interaction         -9.348731 eV  (added to PSCEN)


 Broyden mixing:
  rms(total) = 0.30102E+01    rms(broyden)= 0.30101E+01
  rms(prec ) = 0.36594E+01
  weight for this iteration     100.00

 eigenvalues of (default mixing * dielectric matrix)
  average eigenvalue GAMMA=   0.2088
  0.3316  0.0859

 Free energy of the ion-electron system (eV)
  ---------------------------------------------------
  alpha Z        PSCENC =      1538.70595714
  Ewald energy   TEWEN  =    175195.75680742
  -Hartree energ DENC   =   -222739.01362530
  -exchange      EXHF   =         0.00000000
  -V(xc)+E(xc)   XCENC  =       829.03764644
  PAW double counting   =     54888.71087566   -56445.74557245
  entropy T*S    EENTRO =         0.05078887
  eigenvalues    EBANDS =     -1695.29793369
  atomic energy  EATOM  =     47931.53331682
  Solvation  Ediel_sol  =         0.00000000
  ---------------------------------------------------
  free energy    TOTEN  =      -496.26173910 eV

  energy without entropy =     -496.31252797  energy(sigma->0) =     -496.27866873


--------------------------------------------------------------------------------------------------------




--------------------------------------- Iteration      1(   4)  ---------------------------------------


    POTLOK:  cpu time    0.4259: real time    0.4377
    SETDIJ:  cpu time    0.0246: real time    0.0246
    EDDIAG:  cpu time    5.1792: real time    5.1803
  RMM-DIIS:  cpu time   19.5196: real time   19.5341
    ORTHCH:  cpu time    1.4333: real time    1.4336
       DOS:  cpu time    0.0087: real time    0.0087
    CHARGE:  cpu time    1.2719: real time    1.2721
    MIXING:  cpu time    0.0068: real time    0.0067
    --------------------------------------------
      LOOP:  cpu time   27.8699: real time   27.8978

 eigenvalue-minimisations  :  8000
 total energy-change (2. order) : 0.2499326E+01  (-0.3346966E+00)
 number of electron     574.0000090 magnetization      91.1682266
 augmentation part      300.7155126 magnetization      72.0997956

 DIPCOR: dipole corrections for dipol
 direction  3 min pos   237,
 dipolmoment           0.000000      0.000000      0.035387 electrons x Angstroem
 Tr[quadrupol]    -10012.699369

 energy correction for charged system         0.000000 eV
 dipol+quadrupol energy correction           -0.000060 eV
 added-field ion interaction         -0.560524 eV  (added to PSCEN)


 Broyden mixing:
  rms(total) = 0.23056E+01    rms(broyden)= 0.23054E+01
  rms(prec ) = 0.31700E+01
  weight for this iteration     100.00

 eigenvalues of (default mixing * dielectric matrix)
  average eigenvalue GAMMA=   0.1627
  0.3183  0.1115  0.0583

 Free energy of the ion-electron system (eV)
  ---------------------------------------------------
  alpha Z        PSCENC =      1547.50514154
  Ewald energy   TEWEN  =    175195.75680742
  -Hartree energ DENC   =   -222710.99673073
  -exchange      EXHF   =         0.00000000
  -V(xc)+E(xc)   XCENC  =       828.57696371
  PAW double counting   =     54853.56338919   -56406.25806564
  entropy T*S    EENTRO =        -0.00296008
  eigenvalues    EBANDS =     -1733.44027514
  atomic energy  EATOM  =     47931.53331682
  Solvation  Ediel_sol  =         0.00000000
  ---------------------------------------------------
  free energy    TOTEN  =      -493.76241291 eV

  energy without entropy =     -493.75945283  energy(sigma->0) =     -493.76142621


--------------------------------------------------------------------------------------------------------




--------------------------------------- Iteration      1(   5)  ---------------------------------------


    POTLOK:  cpu time    0.4168: real time    0.4280
    SETDIJ:  cpu time    0.0246: real time    0.0246
    EDDIAG:  cpu time    5.1860: real time    5.1883
  RMM-DIIS:  cpu time   19.3693: real time   19.3803
    ORTHCH:  cpu time    1.4300: real time    1.4302
       DOS:  cpu time    0.0085: real time    0.0085
    CHARGE:  cpu time    1.2719: real time    1.2722
    MIXING:  cpu time    0.0068: real time    0.0068
    --------------------------------------------
      LOOP:  cpu time   27.7140: real time   27.7389

 eigenvalue-minimisations  :  7950
 total energy-change (2. order) : 0.2536013E+01  (-0.1246661E+00)
 number of electron     574.0000091 magnetization      91.1763239
 augmentation part      300.5029232 magnetization      72.9712140

 DIPCOR: dipole corrections for dipol
 direction  3 min pos   239,
 dipolmoment           0.000000      0.000000      0.360377 electrons x Angstroem
 Tr[quadrupol]    -10012.693701

 energy correction for charged system         0.000000 eV
 dipol+quadrupol energy correction           -0.006240 eV
 added-field ion interaction         -3.066088 eV  (added to PSCEN)


 Broyden mixing:
  rms(total) = 0.67181E+00    rms(broyden)= 0.67160E+00
  rms(prec ) = 0.82943E+00
  weight for this iteration     100.00

 eigenvalues of (default mixing * dielectric matrix)
  average eigenvalue GAMMA=   0.2407
  0.4079  0.4079  0.0982  0.0487

 Free energy of the ion-electron system (eV)
  ---------------------------------------------------
  alpha Z        PSCENC =      1544.99339722
  Ewald energy   TEWEN  =    175195.75680742
  -Hartree energ DENC   =   -222712.48129349
  -exchange      EXHF   =         0.00000000
  -V(xc)+E(xc)   XCENC  =       828.55713730
  PAW double counting   =     54845.40022120   -56397.17255705
  entropy T*S    EENTRO =         0.04069322
  eigenvalues    EBANDS =     -1727.85412275
  atomic energy  EATOM  =     47931.53331682
  Solvation  Ediel_sol  =         0.00000000
  ---------------------------------------------------
  free energy    TOTEN  =      -491.22640011 eV

  energy without entropy =     -491.26709333  energy(sigma->0) =     -491.23996452


--------------------------------------------------------------------------------------------------------




--------------------------------------- Iteration      1(   6)  ---------------------------------------


    POTLOK:  cpu time    0.4216: real time    0.4332
    SETDIJ:  cpu time    0.0246: real time    0.0246
    EDDIAG:  cpu time    5.1789: real time    5.1814
  RMM-DIIS:  cpu time   19.1335: real time   19.1491
    ORTHCH:  cpu time    1.4316: real time    1.4319
       DOS:  cpu time    0.0086: real time    0.0086
    CHARGE:  cpu time    1.2713: real time    1.2715
    MIXING:  cpu time    0.0069: real time    0.0069
    --------------------------------------------
      LOOP:  cpu time   27.4771: real time   27.5073

 eigenvalue-minimisations  :  7857
 total energy-change (2. order) :-0.1399535E+00  (-0.7625779E-01)
 number of electron     574.0000091 magnetization      91.1612207
 augmentation part      300.5560510 magnetization      73.5242425

 DIPCOR: dipole corrections for dipol
 direction  3 min pos   237,
 dipolmoment           0.000000      0.000000      0.304711 electrons x Angstroem
 Tr[quadrupol]    -10012.610906

 energy correction for charged system         0.000000 eV
 dipol+quadrupol energy correction           -0.004461 eV
 added-field ion interaction         -4.826524 eV  (added to PSCEN)


 Broyden mixing:
  rms(total) = 0.83146E+00    rms(broyden)= 0.83142E+00
  rms(prec ) = 0.93879E+00
  weight for this iteration     100.00

 eigenvalues of (default mixing * dielectric matrix)
  average eigenvalue GAMMA=   0.2459
  0.4850  0.4850  0.1056  0.1056  0.0481

 Free energy of the ion-electron system (eV)
  ---------------------------------------------------
  alpha Z        PSCENC =      1543.23474007
  Ewald energy   TEWEN  =    175195.75680742
  -Hartree energ DENC   =   -222708.97551563
  -exchange      EXHF   =         0.00000000
  -V(xc)+E(xc)   XCENC  =       828.68404576
  PAW double counting   =     54804.92355707   -56354.75609480
  entropy T*S    EENTRO =         0.03147376
  eigenvalues    EBANDS =     -1731.79868406
  atomic energy  EATOM  =     47931.53331682
  Solvation  Ediel_sol  =         0.00000000
  ---------------------------------------------------
  free energy    TOTEN  =      -491.36635358 eV

  energy without entropy =     -491.39782735  energy(sigma->0) =     -491.37684484


--------------------------------------------------------------------------------------------------------




--------------------------------------- Iteration      1(   7)  ---------------------------------------


    POTLOK:  cpu time    0.4183: real time    0.4296
    SETDIJ:  cpu time    0.0245: real time    0.0245
    EDDIAG:  cpu time    5.1756: real time    5.1774
  RMM-DIIS:  cpu time   19.3979: real time   19.7215
    ORTHCH:  cpu time    1.4221: real time    1.4231
       DOS:  cpu time    0.0088: real time    0.0088
    CHARGE:  cpu time    1.2786: real time    1.2788
    MIXING:  cpu time    0.0071: real time    0.0071
    --------------------------------------------
      LOOP:  cpu time   27.7330: real time   28.0708

 eigenvalue-minimisations  :  7785
 total energy-change (2. order) : 0.1503198E+00  (-0.2693465E-01)
 number of electron     574.0000091 magnetization      91.1602372
 augmentation part      300.8054597 magnetization      73.1801371

 DIPCOR: dipole corrections for dipol
 direction  3 min pos   236,
 dipolmoment           0.000000      0.000000      0.263463 electrons x Angstroem
 Tr[quadrupol]    -10012.530841

 energy correction for charged system         0.000000 eV
 dipol+quadrupol energy correction           -0.003335 eV
 added-field ion interaction         -5.138970 eV  (added to PSCEN)


 Broyden mixing:
  rms(total) = 0.62922E+00    rms(broyden)= 0.62919E+00
  rms(prec ) = 0.74380E+00
  weight for this iteration     100.00

 eigenvalues of (default mixing * dielectric matrix)
  average eigenvalue GAMMA=   0.2299
  0.4996  0.4996  0.1271  0.1271  0.0485  0.0772

 Free energy of the ion-electron system (eV)
  ---------------------------------------------------
  alpha Z        PSCENC =      1542.92342089
  Ewald energy   TEWEN  =    175195.75680742
  -Hartree energ DENC   =   -222704.23941310
  -exchange      EXHF   =         0.00000000
  -V(xc)+E(xc)   XCENC  =       828.64101688
  PAW double counting   =     54773.61612509   -56321.97051667
  entropy T*S    EENTRO =         0.02465942
  eigenvalues    EBANDS =     -1737.50145052
  atomic energy  EATOM  =     47931.53331682
  Solvation  Ediel_sol  =         0.00000000
  ---------------------------------------------------
  free energy    TOTEN  =      -491.21603378 eV

  energy without entropy =     -491.24069320  energy(sigma->0) =     -491.22425359


--------------------------------------------------------------------------------------------------------




--------------------------------------- Iteration      1(   8)  ---------------------------------------


    POTLOK:  cpu time    0.4205: real time    0.4322
    SETDIJ:  cpu time    0.0248: real time    0.0248
    EDDIAG:  cpu time    5.1731: real time    5.1747
  RMM-DIIS:  cpu time   19.1160: real time   19.1275
    ORTHCH:  cpu time    1.4236: real time    1.4239
       DOS:  cpu time    0.0089: real time    0.0089
    CHARGE:  cpu time    1.2801: real time    1.2810
    MIXING:  cpu time    0.0073: real time    0.0073
    --------------------------------------------
      LOOP:  cpu time   27.4544: real time   27.4802

 eigenvalue-minimisations  :  7835
 total energy-change (2. order) : 0.7400996E-01  (-0.1040723E-01)
 number of electron     574.0000091 magnetization      91.1581955
 augmentation part      300.8204397 magnetization      73.2518196

 DIPCOR: dipole corrections for dipol
 direction  3 min pos   232,
 dipolmoment           0.000000      0.000000      0.298604 electrons x Angstroem
 Tr[quadrupol]    -10012.367966

 energy correction for charged system         0.000000 eV
 dipol+quadrupol energy correction           -0.004284 eV
 added-field ion interaction        -10.202936 eV  (added to PSCEN)


 Broyden mixing:
  rms(total) = 0.42516E+00    rms(broyden)= 0.42514E+00
  rms(prec ) = 0.47517E+00
  weight for this iteration     100.00

 eigenvalues of (default mixing * dielectric matrix)
  average eigenvalue GAMMA=   0.2297
  0.5261  0.5261  0.2213  0.1367  0.0909  0.0483  0.0587

 Free energy of the ion-electron system (eV)
  ---------------------------------------------------
  alpha Z        PSCENC =      1537.85850602
  Ewald energy   TEWEN  =    175195.75680742
  -Hartree energ DENC   =   -222704.17527286
  -exchange      EXHF   =         0.00000000
  -V(xc)+E(xc)   XCENC  =       828.67901072
  PAW double counting   =     54762.72588764   -56310.63775325
  entropy T*S    EENTRO =         0.02745680
  eigenvalues    EBANDS =     -1732.90998313
  atomic energy  EATOM  =     47931.53331682
  Solvation  Ediel_sol  =         0.00000000
  ---------------------------------------------------
  free energy    TOTEN  =      -491.14202382 eV

  energy without entropy =     -491.16948063  energy(sigma->0) =     -491.15117609


--------------------------------------------------------------------------------------------------------




--------------------------------------- Iteration      1(   9)  ---------------------------------------


    POTLOK:  cpu time    0.4193: real time    0.4330
    SETDIJ:  cpu time    0.0246: real time    0.0247
    EDDIAG:  cpu time    5.1719: real time    5.1783
  RMM-DIIS:  cpu time   19.1031: real time   19.1228
    ORTHCH:  cpu time    1.4196: real time    1.4202
       DOS:  cpu time    0.0091: real time    0.0091
    CHARGE:  cpu time    1.2824: real time    1.2828
    MIXING:  cpu time    0.0075: real time    0.0075
    --------------------------------------------
      LOOP:  cpu time   27.4374: real time   27.4783

 eigenvalue-minimisations  :  7811
 total energy-change (2. order) : 0.1348652E-01  (-0.4726856E-02)
 number of electron     574.0000091 magnetization      91.1579460
 augmentation part      300.9020466 magnetization      73.1909092

 DIPCOR: dipole corrections for dipol
 direction  3 min pos   231,
 dipolmoment           0.000000      0.000000      0.290929 electrons x Angstroem
 Tr[quadrupol]    -10012.388933

 energy correction for charged system         0.000000 eV
 dipol+quadrupol energy correction           -0.004067 eV
 added-field ion interaction        -11.007190 eV  (added to PSCEN)


 Broyden mixing:
  rms(total) = 0.32465E+00    rms(broyden)= 0.32464E+00
  rms(prec ) = 0.36073E+00
  weight for this iteration     100.00

 eigenvalues of (default mixing * dielectric matrix)
  average eigenvalue GAMMA=   0.2412
  0.5907  0.5907  0.2930  0.1496  0.0985  0.0985  0.0485  0.0605

 Free energy of the ion-electron system (eV)
  ---------------------------------------------------
  alpha Z        PSCENC =      1537.05446884
  Ewald energy   TEWEN  =    175195.75680742
  -Hartree energ DENC   =   -222705.19615439
  -exchange      EXHF   =         0.00000000
  -V(xc)+E(xc)   XCENC  =       828.72429590
  PAW double counting   =     54745.80762256   -56293.14101837
  entropy T*S    EENTRO =         0.03275617
  eigenvalues    EBANDS =     -1731.70063224
  atomic energy  EATOM  =     47931.53331682
  Solvation  Ediel_sol  =         0.00000000
  ---------------------------------------------------
  free energy    TOTEN  =      -491.12853730 eV

  energy without entropy =     -491.16129347  energy(sigma->0) =     -491.13945603


--------------------------------------------------------------------------------------------------------




--------------------------------------- Iteration      1(  10)  ---------------------------------------


    POTLOK:  cpu time    0.4214: real time    0.4334
    SETDIJ:  cpu time    0.0246: real time    0.0246
    EDDIAG:  cpu time    5.1760: real time    5.1790
  RMM-DIIS:  cpu time   18.9249: real time   18.9386
    ORTHCH:  cpu time    1.4191: real time    1.4196
       DOS:  cpu time    0.0089: real time    0.0089
    CHARGE:  cpu time    1.2808: real time    1.2811
    MIXING:  cpu time    0.0076: real time    0.0076
    --------------------------------------------
      LOOP:  cpu time   27.2633: real time   27.2929

 eigenvalue-minimisations  :  7721
 total energy-change (2. order) : 0.1863771E-01  (-0.1889491E-02)
 number of electron     574.0000091 magnetization      91.1575334
 augmentation part      300.9467635 magnetization      73.1943181

 DIPCOR: dipole corrections for dipol
 direction  3 min pos   233,
 dipolmoment           0.000000      0.000000      0.298269 electrons x Angstroem
 Tr[quadrupol]    -10012.494295

 energy correction for charged system         0.000000 eV
 dipol+quadrupol energy correction           -0.004275 eV
 added-field ion interaction         -9.098104 eV  (added to PSCEN)


 Broyden mixing:
  rms(total) = 0.21173E+00    rms(broyden)= 0.21172E+00
  rms(prec ) = 0.22051E+00
  weight for this iteration     100.00

 eigenvalues of (default mixing * dielectric matrix)
  average eigenvalue GAMMA=   0.2454
  0.6273  0.6273  0.2597  0.2597  0.1294  0.1123  0.0864  0.0484  0.0577

 Free energy of the ion-electron system (eV)
  ---------------------------------------------------
  alpha Z        PSCENC =      1538.96334696
  Ewald energy   TEWEN  =    175195.75680742
  -Hartree energ DENC   =   -222706.34077359
  -exchange      EXHF   =         0.00000000
  -V(xc)+E(xc)   XCENC  =       828.83011776
  PAW double counting   =     54722.74430831   -56269.45857554
  entropy T*S    EENTRO =         0.03329387
  eigenvalues    EBANDS =     -1733.17174160
  atomic energy  EATOM  =     47931.53331682
  Solvation  Ediel_sol  =         0.00000000
  ---------------------------------------------------
  free energy    TOTEN  =      -491.10989959 eV

  energy without entropy =     -491.14319346  energy(sigma->0) =     -491.12099755


--------------------------------------------------------------------------------------------------------




--------------------------------------- Iteration      1(  11)  ---------------------------------------


    POTLOK:  cpu time    0.4209: real time    0.4317
    SETDIJ:  cpu time    0.0245: real time    0.0245
    EDDIAG:  cpu time    5.1809: real time    5.1834
  RMM-DIIS:  cpu time   19.1883: real time   19.1977
    ORTHCH:  cpu time    1.4157: real time    1.4217
       DOS:  cpu time    0.0092: real time    0.0093
    CHARGE:  cpu time    1.2820: real time    1.2822
    MIXING:  cpu time    0.0080: real time    0.0080
    --------------------------------------------
      LOOP:  cpu time   27.5295: real time   27.5585

 eigenvalue-minimisations  :  7820
 total energy-change (2. order) : 0.1171602E-02  (-0.7428723E-03)
 number of electron     574.0000091 magnetization      91.1603227
 augmentation part      300.9628903 magnetization      73.1771735

 DIPCOR: dipole corrections for dipol
 direction  3 min pos   234,
 dipolmoment           0.000000      0.000000      0.297793 electrons x Angstroem
 Tr[quadrupol]    -10012.531498

 energy correction for charged system         0.000000 eV
 dipol+quadrupol energy correction           -0.004261 eV
 added-field ion interaction         -7.991917 eV  (added to PSCEN)


 Broyden mixing:
  rms(total) = 0.19181E+00    rms(broyden)= 0.19180E+00
  rms(prec ) = 0.19871E+00
  weight for this iteration     100.00

 eigenvalues of (default mixing * dielectric matrix)
  average eigenvalue GAMMA=   0.2857
  0.7668  0.7668  0.3775  0.3775  0.1364  0.1364  0.0944  0.0944  0.0484  0.0588

 Free energy of the ion-electron system (eV)
  ---------------------------------------------------
  alpha Z        PSCENC =      1540.06954741
  Ewald energy   TEWEN  =    175195.75680742
  -Hartree energ DENC   =   -222706.62405663
  -exchange      EXHF   =         0.00000000
  -V(xc)+E(xc)   XCENC  =       828.90099550
  PAW double counting   =     54711.29097904   -56257.76295941
  entropy T*S    EENTRO =         0.03520045
  eigenvalues    EBANDS =     -1734.30855858
  atomic energy  EATOM  =     47931.53331682
  Solvation  Ediel_sol  =         0.00000000
  ---------------------------------------------------
  free energy    TOTEN  =      -491.10872799 eV

  energy without entropy =     -491.14392844  energy(sigma->0) =     -491.12046147


--------------------------------------------------------------------------------------------------------




--------------------------------------- Iteration      1(  12)  ---------------------------------------


    POTLOK:  cpu time    0.4277: real time    0.4282
    SETDIJ:  cpu time    0.0247: real time    0.0247
    EDDIAG:  cpu time    5.1663: real time    5.1673
  RMM-DIIS:  cpu time   19.1412: real time   19.1489
    ORTHCH:  cpu time    1.4193: real time    1.4195
       DOS:  cpu time    0.0091: real time    0.0092
    CHARGE:  cpu time    1.2652: real time    1.2654
    MIXING:  cpu time    0.0080: real time    0.0080
    --------------------------------------------
      LOOP:  cpu time   27.4615: real time   27.4712

 eigenvalue-minimisations  :  7811
 total energy-change (2. order) :-0.1921223E-02  (-0.4345315E-03)
 number of electron     574.0000091 magnetization      91.1599803
 augmentation part      300.9705057 magnetization      73.2457812

 DIPCOR: dipole corrections for dipol
 direction  3 min pos   237,
 dipolmoment           0.000000      0.000000      0.298140 electrons x Angstroem
 Tr[quadrupol]    -10012.688385

 energy correction for charged system         0.000000 eV
 dipol+quadrupol energy correction           -0.004271 eV
 added-field ion interaction         -4.722432 eV  (added to PSCEN)


 Broyden mixing:
  rms(total) = 0.19186E+00    rms(broyden)= 0.19186E+00
  rms(prec ) = 0.20451E+00
  weight for this iteration     100.00

 eigenvalues of (default mixing * dielectric matrix)
  average eigenvalue GAMMA=   0.2610
  0.7637  0.7637  0.3769  0.3769  0.1361  0.1361  0.0964  0.0928  0.0484  0.0587
  0.0208

 Free energy of the ion-electron system (eV)
  ---------------------------------------------------
  alpha Z        PSCENC =      1543.33902290
  Ewald energy   TEWEN  =    175195.75680742
  -Hartree energ DENC   =   -222708.09962929
  -exchange      EXHF   =         0.00000000
  -V(xc)+E(xc)   XCENC  =       829.02228171
  PAW double counting   =     54685.38676647   -56231.21530863
  entropy T*S    EENTRO =         0.03381535
  eigenvalues    EBANDS =     -1736.86772196
  atomic energy  EATOM  =     47931.53331682
  Solvation  Ediel_sol  =         0.00000000
  ---------------------------------------------------
  free energy    TOTEN  =      -491.11064921 eV

  energy without entropy =     -491.14446456  energy(sigma->0) =     -491.12192099


--------------------------------------------------------------------------------------------------------




--------------------------------------- Iteration      1(  13)  ---------------------------------------


    POTLOK:  cpu time    0.4189: real time    0.4324
    SETDIJ:  cpu time    0.0246: real time    0.0246
    EDDIAG:  cpu time    5.1649: real time    5.1712
  RMM-DIIS:  cpu time   19.8611: real time   19.8709
    ORTHCH:  cpu time    1.4189: real time    1.4192
       DOS:  cpu time    0.0089: real time    0.0090
    CHARGE:  cpu time    1.2650: real time    1.2651
    MIXING:  cpu time    0.0083: real time    0.0083
    --------------------------------------------
      LOOP:  cpu time   28.1706: real time   28.2006

 eigenvalue-minimisations  :  8167
 total energy-change (2. order) : 0.8575123E-03  (-0.1109854E-03)
 number of electron     574.0000091 magnetization      91.1616942
 augmentation part      300.9880459 magnetization      73.2455152

 DIPCOR: dipole corrections for dipol
 direction  3 min pos   238,
 dipolmoment           0.000000      0.000000      0.297517 electrons x Angstroem
 Tr[quadrupol]    -10012.728949

 energy correction for charged system         0.000000 eV
 dipol+quadrupol energy correction           -0.004253 eV
 added-field ion interaction         -3.621920 eV  (added to PSCEN)


 Broyden mixing:
  rms(total) = 0.18883E+00    rms(broyden)= 0.18883E+00
  rms(prec ) = 0.20252E+00
  weight for this iteration     100.00

 eigenvalues of (default mixing * dielectric matrix)
  average eigenvalue GAMMA=   0.3393
  0.8993  0.8228  0.8228  0.4125  0.4125  0.1518  0.1402  0.0484  0.0585  0.0889
  0.1055  0.1086

 Free energy of the ion-electron system (eV)
  ---------------------------------------------------
  alpha Z        PSCENC =      1544.43955252
  Ewald energy   TEWEN  =    175195.75680742
  -Hartree energ DENC   =   -222708.02770435
  -exchange      EXHF   =         0.00000000
  -V(xc)+E(xc)   XCENC  =       829.03804076
  PAW double counting   =     54679.34684988   -56224.98929677
  entropy T*S    EENTRO =         0.03366509
  eigenvalues    EBANDS =     -1738.24102306
  atomic energy  EATOM  =     47931.53331682
  Solvation  Ediel_sol  =         0.00000000
  ---------------------------------------------------
  free energy    TOTEN  =      -491.10979170 eV

  energy without entropy =     -491.14345679  energy(sigma->0) =     -491.12101340


--------------------------------------------------------------------------------------------------------




--------------------------------------- Iteration      1(  14)  ---------------------------------------


    POTLOK:  cpu time    0.4174: real time    0.4294
    SETDIJ:  cpu time    0.0246: real time    0.0246
    EDDIAG:  cpu time    5.1659: real time    5.1726
  RMM-DIIS:  cpu time   18.7320: real time   18.7395
    ORTHCH:  cpu time    1.4218: real time    1.4220
       DOS:  cpu time    0.0090: real time    0.0090
    CHARGE:  cpu time    1.2644: real time    1.2646
    MIXING:  cpu time    0.0085: real time    0.0085
    --------------------------------------------
      LOOP:  cpu time   27.0434: real time   27.0702

 eigenvalue-minimisations  :  7664
 total energy-change (2. order) :-0.7930116E-03  (-0.8435640E-04)
 number of electron     574.0000091 magnetization      91.1654358
 augmentation part      300.9719187 magnetization      73.2399851

 DIPCOR: dipole corrections for dipol
 direction  3 min pos   238,
 dipolmoment           0.000000      0.000000      0.297418 electrons x Angstroem
 Tr[quadrupol]    -10012.727772

 energy correction for charged system         0.000000 eV
 dipol+quadrupol energy correction           -0.004250 eV
 added-field ion interaction         -3.620718 eV  (added to PSCEN)


 Broyden mixing:
  rms(total) = 0.18740E+00    rms(broyden)= 0.18740E+00
  rms(prec ) = 0.19945E+00
  weight for this iteration     100.00

 eigenvalues of (default mixing * dielectric matrix)
  average eigenvalue GAMMA=   0.3636
  1.2549  0.8748  0.8748  0.4198  0.4198  0.1749  0.1749  0.0484  0.0585  0.0894
  0.1184  0.1184  0.1001

 Free energy of the ion-electron system (eV)
  ---------------------------------------------------
  alpha Z        PSCENC =      1544.44075760
  Ewald energy   TEWEN  =    175195.75680742
  -Hartree energ DENC   =   -222708.04109145
  -exchange      EXHF   =         0.00000000
  -V(xc)+E(xc)   XCENC  =       829.01955706
  PAW double counting   =     54687.82902437   -56233.73896656
  entropy T*S    EENTRO =         0.03395964
  eigenvalues    EBANDS =     -1737.94394959
  atomic energy  EATOM  =     47931.53331682
  Solvation  Ediel_sol  =         0.00000000
  ---------------------------------------------------
  free energy    TOTEN  =      -491.11058471 eV

  energy without entropy =     -491.14454435  energy(sigma->0) =     -491.12190459


--------------------------------------------------------------------------------------------------------




--------------------------------------- Iteration      1(  15)  ---------------------------------------


    POTLOK:  cpu time    0.4324: real time    0.4333
    SETDIJ:  cpu time    0.0246: real time    0.0246
    EDDIAG:  cpu time    5.1586: real time    5.1653
  RMM-DIIS:  cpu time   18.8050: real time   18.8113
    ORTHCH:  cpu time    1.4220: real time    1.4230
       DOS:  cpu time    0.0092: real time    0.0092
    CHARGE:  cpu time    1.2753: real time    1.2755
    MIXING:  cpu time    0.0088: real time    0.0088
    --------------------------------------------
      LOOP:  cpu time   27.1360: real time   27.1511

 eigenvalue-minimisations  :  7663
 total energy-change (2. order) :-0.4858080E-03  (-0.2016983E-03)
 number of electron     574.0000091 magnetization      91.1777403
 augmentation part      300.9714268 magnetization      73.2351297

 DIPCOR: dipole corrections for dipol
 direction  3 min pos   238,
[...]
   0.962E+02 -.151E+02 -.191E+04   -.982E+02 0.159E+02 0.191E+04   0.206E+01 -.812E+00 0.227E+01   -.115E-02 -.345E-02 -.546E-02
   0.407E+02 -.246E+02 0.799E+03   -.410E+02 0.247E+02 -.799E+03   0.815E+00 -.505E+00 -.571E-01   0.114E-02 -.230E-02 -.132E-01
   0.453E+00 0.107E+02 0.213E+04   -.583E+00 -.105E+02 -.213E+04   -.655E-02 0.396E+00 -.962E+00   -.124E-02 -.112E-02 -.418E-02
   -.988E+02 -.467E+02 -.189E+04   0.101E+03 0.481E+02 0.189E+04   -.206E+01 -.142E+01 0.165E+01   0.153E-03 -.283E-02 -.561E-02
   0.247E+02 -.255E+02 0.872E+03   -.238E+02 0.253E+02 -.872E+03   -.264E+00 0.270E+00 -.462E+00   -.960E-03 -.396E-02 -.152E-01
   0.622E+02 -.716E+02 -.511E+03   -.630E+02 0.717E+02 0.511E+03   0.768E+00 -.172E+00 0.392E-01   -.762E-03 -.409E-02 -.153E-01
   -.100E+02 0.958E+01 0.214E+04   0.102E+02 -.937E+01 -.213E+04   -.272E+00 0.264E+00 -.171E+01   -.200E-02 0.173E-03 -.279E-02
   0.743E+02 -.370E+02 -.185E+04   -.764E+02 0.379E+02 0.184E+04   0.215E+01 -.969E+00 0.248E+01   0.136E-02 -.220E-02 -.593E-02
   -.464E+02 0.791E+01 0.842E+03   0.456E+02 -.809E+01 -.841E+03   0.294E+00 0.342E+00 -.355E+00   -.260E-03 -.334E-02 -.136E-01
   -.194E+02 -.548E+01 0.789E+03   0.196E+02 0.589E+01 -.788E+03   -.939E+00 0.215E+00 -.226E+00   0.448E-04 -.189E-02 -.119E-01
   -.565E+02 -.204E+02 -.531E+03   0.573E+02 0.207E+02 0.531E+03   -.828E+00 -.231E+00 0.299E+00   0.547E-03 -.195E-02 -.156E-01
   0.251E+02 -.596E+02 -.521E+03   -.253E+02 0.598E+02 0.521E+03   0.229E+00 -.188E+00 0.522E+00   0.515E-03 -.304E-02 -.154E-01
   -.120E+02 0.493E+02 0.772E+03   0.119E+02 -.494E+02 -.772E+03   -.275E+00 -.150E+00 -.512E+00   0.126E-02 -.419E-04 -.132E-01
   0.233E+02 0.138E+02 0.802E+03   -.233E+02 -.139E+02 -.802E+03   0.903E+00 -.149E+00 0.984E-01   -.440E-03 0.610E-03 -.146E-01
   0.430E+02 0.357E+02 -.559E+03   -.434E+02 -.362E+02 0.559E+03   0.320E+00 0.455E+00 -.102E+00   -.103E-03 -.131E-02 -.164E-01
   -.435E+02 0.322E+02 -.544E+03   0.439E+02 -.323E+02 0.545E+03   -.468E+00 0.163E+00 -.985E+00   0.145E-02 -.224E-02 -.161E-01
   -.484E+02 0.686E+02 -.535E+03   0.487E+02 -.690E+02 0.534E+03   -.330E+00 0.390E+00 0.343E+00   0.206E-03 -.193E-02 -.155E-01
   0.112E+02 0.341E+02 0.263E+04   -.112E+02 -.342E+02 -.263E+04   0.249E+00 0.271E+00 -.962E+00   0.140E-02 -.298E-02 -.188E-02
   0.815E+01 0.192E+03 -.234E+04   -.779E+01 -.195E+03 0.234E+04   -.328E+00 0.331E+01 0.101E+01   -.991E-03 0.188E-02 -.671E-02
   -.109E+02 0.188E+01 0.266E+04   0.110E+02 -.211E+01 -.266E+04   -.449E+00 0.780E-01 -.105E+01   -.125E-02 0.187E-02 -.240E-02
   -.120E+03 -.835E+02 -.234E+04   0.123E+03 0.852E+02 0.234E+04   -.224E+01 -.166E+01 0.750E+00   0.267E-03 0.401E-02 -.877E-02
   0.126E+02 -.310E+02 0.262E+04   -.127E+02 0.311E+02 -.261E+04   0.259E+00 -.235E+00 -.144E+01   0.777E-03 0.139E-03 -.830E-03
   0.261E+02 -.118E+02 -.223E+04   -.260E+02 0.118E+02 0.223E+04   -.606E-01 -.885E-02 0.694E+00   -.137E-03 0.198E-02 -.784E-02
   0.101E+02 -.222E+02 0.264E+04   -.101E+02 0.217E+02 -.264E+04   -.309E-01 0.294E+00 -.156E+01   0.295E-02 -.188E-02 -.155E-02
   0.282E+01 0.252E+01 -.227E+04   -.281E+01 -.233E+01 0.227E+04   -.416E-01 -.183E+00 0.475E+00   0.191E-02 0.386E-02 -.813E-02
   -.260E+02 0.859E+02 -.591E+03   0.262E+02 -.861E+02 0.591E+03   -.267E+00 0.245E+00 0.636E+00   -.369E-03 0.481E-02 -.186E-01
   0.266E+02 -.457E+02 0.107E+04   -.268E+02 0.455E+02 -.107E+04   0.880E-01 0.423E-01 -.215E+00   0.117E-04 0.130E-02 -.153E-01
   -.686E+02 -.132E+02 -.589E+03   0.686E+02 0.131E+02 0.589E+03   0.280E-01 0.621E-01 -.640E+00   -.207E-02 0.320E-02 -.185E-01
   0.791E+02 -.758E+02 -.585E+03   -.794E+02 0.761E+02 0.584E+03   0.286E+00 -.271E+00 0.620E+00   0.127E-02 0.267E-02 -.190E-01
   -.431E+02 -.102E+02 -.622E+03   0.430E+02 0.102E+02 0.621E+03   0.820E-01 0.250E-01 0.618E+00   -.533E-03 -.448E-02 -.205E-01
   0.240E+02 0.105E+02 0.105E+04   -.239E+02 -.105E+02 -.105E+04   -.122E+00 -.362E-01 0.196E+00   -.454E-03 0.181E-02 -.208E-01
   0.562E+02 -.132E+01 -.626E+03   -.564E+02 0.111E+01 0.626E+03   0.154E+00 0.219E+00 0.654E+00   -.202E-02 -.237E-02 -.207E-01
   -.419E+02 0.576E+02 0.106E+04   0.420E+02 -.575E+02 -.106E+04   -.431E+00 -.127E+00 -.877E-01   -.341E-03 0.183E-03 -.186E-01
   0.489E+01 -.538E+02 -.185E+04   -.526E+01 0.559E+02 0.188E+04   0.358E+00 -.203E+01 -.266E+02   0.462E-04 -.117E-02 0.105E-02
   0.679E+02 -.318E+01 -.193E+04   -.671E+02 0.307E+01 0.196E+04   -.795E+00 0.136E+00 -.284E+02   -.926E-03 0.118E-02 0.107E-02
   -.806E+01 0.116E+01 -.188E+04   0.901E+01 -.169E+01 0.191E+04   -.950E+00 0.557E+00 -.266E+02   -.774E-03 -.322E-02 0.164E-02
   -.451E+02 0.552E+02 -.193E+04   0.465E+02 -.531E+02 0.196E+04   -.135E+01 -.205E+01 -.281E+02   0.145E-02 0.266E-02 0.799E-03
   -.524E+01 -.226E+02 -.193E+04   0.571E+01 0.185E+02 0.196E+04   -.447E+00 0.411E+01 -.288E+02   0.454E-03 0.928E-03 0.720E-03
 -----------------------------------------------------------------------------------------------
   0.370E+01 -.989E+00 0.136E+03   0.391E-12 -.302E-12 0.387E-11   -.370E+01 0.995E+00 -.135E+03   0.189E-03 0.419E-02 -.630E+00
 
 
 POSITION                                       TOTAL-FORCE (eV/Angst)
 -----------------------------------------------------------------------------------
     -5.03208      8.74992      2.05921        -0.445447      0.024529     -0.217799
      0.02301      0.01719      8.10490         0.000748      0.038383     -0.026497
      0.00574      8.72607      2.04466         0.264119      0.092730      0.792716
      0.02172      8.63956      8.05314        -0.017592      0.023849     -0.011950
      2.47665      8.72592      2.00821        -0.384952      0.176869      0.847505
      2.56807      8.72508      8.12582        -0.010560      0.007143      0.006555
      1.23891      2.21748      2.05880         0.457780     -0.323094     -0.298540
      1.26524      2.17863      8.12559         0.029533      0.005832      0.034650
      0.08074      1.41419      4.05321        -0.722179      0.394188      0.327059
      2.49330      1.45451      4.14829         0.528401      0.244802     -0.845048
      1.29813      0.73097      6.16635        -0.013864     -0.017834     -0.000833
      5.06166      1.44930      4.13498        -0.364131      0.037836     -0.869121
      3.81613      0.76899      6.11925        -0.011357      0.014532      0.006241
      7.51557      1.45812      4.11001         0.464129     -0.186726     -0.827923
      6.27509      0.74109      6.12117         0.043925     -0.003364      0.018475
     -2.55062      4.47399      2.00995         0.305843     -0.698185      0.110631
     -2.52118      4.40617      7.99802        -0.010964      0.001801     -0.012307
      0.03014      4.42905      2.07020        -0.209767     -0.360352     -0.056891
      0.01954      4.29586      8.17265         0.006366      0.002787      0.001991
      2.50847      4.40516      2.07435         0.210104     -0.259111     -0.172312
      2.53521      4.35832      8.01985         0.004537      0.012384     -0.026148
      1.32139      3.64145      4.02771        -0.151855      0.508502      0.591377
      5.08382      4.44890      2.04815        -0.485824     -0.854967     -0.418609
      5.06255      4.34311      8.41852        -0.015526     -0.016305     -0.019434
      3.79377      3.69800      4.13071        -0.347011     -0.409645     -0.199346
      2.57272      2.88297      6.09312        -0.000601      0.009992      0.017730
      6.25293      3.64956      4.08305         0.886207     -0.333901      0.086357
      5.07131      3.00067      6.21705        -0.016955     -0.018643     -0.014951
      6.25194      6.54167      2.03547         0.463732      0.599667     -0.222491
     -3.75154      6.62886      8.25708         0.008282      0.012582      0.004091
     -1.23133      6.52951      2.06361        -0.120633      0.663617     -0.272845
     -1.24929      6.55796      8.26185        -0.006222      0.017517      0.012131
     -2.52172      5.87475      4.08745         0.532557     -0.433871      0.254396
      1.28426      6.55944      2.07409        -0.140919      0.552711      0.039956
      1.29483      6.53490      8.16636         0.005012      0.014499      0.014576
     -0.00626      5.79145      4.04458         0.676150      0.043926      0.339919
     -1.22562      5.08053      6.09116         0.008864     -0.008329     -0.029346
      3.77628      6.55571      2.00000        -0.112148      0.473381      0.258247
      3.75057      6.58939      8.20444        -0.020388     -0.018042      0.009137
      2.52387      5.78801      4.07310        -0.496728      0.147407      0.175387
      5.06734      5.79704      4.10517        -0.764424      0.624416      0.325335
      3.77104      5.11761      6.14447        -0.013285      0.016067     -0.002544
      6.29432      5.13755      6.14865         0.011531     -0.006248     -0.000474
     -3.76296      8.02446      4.11956        -0.390558     -0.266960     -0.142261
     -1.33707      8.05044      4.10308         0.901953     -0.212152     -0.079057
     -2.50342      7.30259      6.24706        -0.018672      0.043418     -0.003699
      2.48639      7.27573      6.10844        -0.001893      0.003539     -0.005996
      5.01256      7.32595      6.13154        -0.003076     -0.007918     -0.007417
     -2.52690      8.74056      2.03303         0.229936      0.150150      0.212794
     -2.48609      8.72661      8.24838         0.029115      0.034947     -0.008416
     -1.24953      2.18697      2.05404        -0.345224     -0.152320      0.314286
     -1.19765      2.21008      8.10258        -0.025201     -0.003913      0.007640
      3.77687      2.20348      2.02824         0.122758     -0.161396      0.613252
      3.79747      2.14247      8.27956         0.013645      0.008391     -0.011374
      6.31052      2.19548      2.03586        -0.006233     -0.241273      0.178505
      6.36852      2.10902      8.26635        -0.029556      0.009691     -0.013581
      8.83655      0.72690      6.07612        -0.018921      0.004793      0.003094
     -1.27338      3.65234      4.08853        -0.093080     -0.136312     -0.302593
      0.02299      2.89897      6.08348         0.005655      0.017513     -0.016341
      7.56663      2.89167      6.09447        -0.004890      0.014530     -0.015997
      1.26000      5.08884      6.08095         0.008719     -0.005240     -0.006447
      1.25660      8.01495      4.09194        -0.041113     -0.012433     -0.213112
     -0.00659      7.26235      6.08721        -0.024977      0.005907     -0.004816
      3.80919      8.00883      4.09175        -0.356295     -0.032669     -0.333123
      5.03723      5.93594      9.35817        -0.005537      0.011111      0.028085
      2.33788      1.46674      9.34289        -0.007901      0.023085      0.001391
      0.04665      5.73724      9.32067        -0.001292      0.024475      0.043539
      7.78821      1.30843      9.29578         0.019387      0.033629      0.009938
      5.10306      2.87201      9.42182         0.018763      0.034073      0.022653
 -----------------------------------------------------------------------------------
    total drift:                               -0.002757      0.009986     -0.003603


--------------------------------------------------------------------------------------------------------



  FREE ENERGIE OF THE ION-ELECTRON SYSTEM (eV)
  ---------------------------------------------------
  free  energy   TOTEN  =      -505.86366985 eV

  energy  without entropy=     -505.90105762  energy(sigma->0) =     -505.87613244
 


--------------------------------------------------------------------------------------------------------


    POTLOK:  cpu time    0.4426: real time    0.4428


--------------------------------------------------------------------------------------------------------


 stress matrix after NEB project (eV)
    -35.17765      1.01037      0.26382
      1.01037    -34.04941      1.98056
      0.26382      1.98056     -3.88127
  FORCES: max atom, RMS     0.049964    0.021686
  FORCE total and by dimension    0.180141    0.043925
  Stress total and by dimension   49.213006   35.177650


--------------------------------------------------------------------------------------------------------


  
 reached required accuracy - stopping structural energy minimisation
 writing wavefunctions
     LOOP+:  cpu time 1341.4397: real time 1365.3541
    4ORBIT:  cpu time    0.0000: real time    0.0000
 


 total charge     
 
# of ion       s       p       d       tot
------------------------------------------
    1        0.480   0.400   6.160   7.041
    2        0.465   0.402   6.202   7.069
    3        0.456   0.371   6.242   7.068
    4        0.480   0.416   6.176   7.072
    5        0.449   0.367   6.244   7.059
    6        0.502   0.568   6.267   7.337
    7        0.481   0.406   6.182   7.068
    8        0.508   0.566   6.310   7.384
    9        0.483   0.518   6.222   7.223
   10        0.499   0.540   6.253   7.293
   11        0.491   0.536   6.251   7.278
   12        0.484   0.516   6.223   7.223
   13        0.494   0.540   6.237   7.271
   14        0.474   0.494   6.177   7.145
   15        0.491   0.538   6.203   7.233
   16        0.475   0.394   6.164   7.033
   17        0.476   0.410   6.199   7.085
   18        0.489   0.428   6.205   7.122
   19        0.479   0.522   6.229   7.231
   20        0.494   0.432   6.214   7.140
   21        0.478   0.425   6.209   7.112
   22        0.500   0.552   6.252   7.304
   23        0.490   0.419   6.192   7.101
   24        0.472   0.601   6.281   7.354
   25        0.497   0.543   6.271   7.311
   26        0.501   0.556   6.215   7.271
   27        0.482   0.523   6.224   7.230
   28        0.476   0.516   6.200   7.192
   29        0.486   0.433   6.193   7.111
   30        0.475   0.516   6.236   7.227
   31        0.491   0.422   6.199   7.112
   32        0.472   0.515   6.234   7.221
   33        0.489   0.532   6.233   7.255
   34        0.497   0.445   6.195   7.137
   35        0.474   0.525   6.229   7.229
   36        0.497   0.545   6.207   7.250
   37        0.480   0.514   6.219   7.213
   38        0.484   0.416   6.178   7.077
   39        0.483   0.534   6.244   7.262
   40        0.499   0.553   6.214   7.266
   41        0.498   0.544   6.245   7.287
   42        0.498   0.536   6.278   7.312
   43        0.485   0.525   6.240   7.250
   44        0.489   0.540   6.240   7.269
   45        0.485   0.520   6.224   7.229
   46        0.485   0.527   6.211   7.223
   47        0.488   0.531   6.199   7.217
   48        0.483   0.524   6.227   7.233
   49        0.500   0.387   8.304   9.191
   50        0.514   0.523   8.338   9.375
   51        0.497   0.375   8.301   9.173
   52        0.504   0.514   8.339   9.358
   53        0.489   0.364   8.290   9.143
   54        0.464   0.557   8.348   9.368
   55        0.503   0.371   8.299   9.173
   56        0.460   0.552   8.345   9.357
   57        0.507   0.515   8.327   9.350
   58        0.505   0.501   8.321   9.327
   59        0.509   0.515   8.324   9.348
   60        0.511   0.505   8.334   9.350
   61        0.524   0.537   8.332   9.394
   62        0.515   0.526   8.321   9.362
   63        0.520   0.533   8.326   9.380
   64        0.508   0.514   8.314   9.336
   65        1.581   3.384   0.000   4.965
   66        1.585   3.342   0.000   4.927
   67        1.580   3.378   0.000   4.959
   68        1.584   3.340   0.000   4.925
   69        1.584   3.347   0.000   4.932
--------------------------------------------------
tot         39.230  48.279 431.812 519.320
 


 magnetization (x)
 
# of ion       s       p       d       tot
------------------------------------------
    1        0.007  -0.007   2.700   2.700
    2        0.003  -0.003   2.811   2.811
    3       -0.023  -0.015  -0.113  -0.151
    4        0.018   0.012   2.765   2.795
    5       -0.026  -0.018  -0.192  -0.236
    6        0.003  -0.013   2.087   2.077
    7        0.008  -0.009   2.597   2.597
    8       -0.000   0.001   1.853   1.853
    9       -0.005  -0.022   2.461   2.434
   10        0.001  -0.012   2.123   2.112
   11       -0.004  -0.023   2.322   2.295
   12        0.004  -0.004   2.134   2.133
   13       -0.027  -0.039  -1.794  -1.860
   14        0.010   0.002   2.528   2.540
   15       -0.032  -0.049  -2.067  -2.148
   16        0.000  -0.010   2.757   2.747
   17       -0.000  -0.002   2.851   2.848
   18        0.009  -0.012   2.429   2.426
   19        0.006   0.000   2.389   2.395
   20        0.003  -0.011   2.344   2.336
   21        0.007  -0.003   2.718   2.722
   22       -0.023  -0.036  -1.572  -1.631
   23       -0.002  -0.018   2.676   2.656
   24        0.001   0.002   2.065   2.068
   25       -0.003  -0.019   1.937   1.916
   26       -0.030  -0.045  -2.023  -2.097
   27       -0.011  -0.034   2.509   2.464
   28        0.010   0.003   2.306   2.319
   29       -0.009  -0.027   2.635   2.599
   30        0.002  -0.011   2.388   2.379
   31        0.005  -0.015   2.432   2.422
   32        0.004  -0.009   2.391   2.386
   33       -0.012  -0.040   2.418   2.366
   34        0.014  -0.002   2.284   2.296
   35        0.002  -0.014   2.423   2.411
   36       -0.032  -0.043  -2.050  -2.125
   37       -0.001  -0.023   2.474   2.451
   38        0.007  -0.015   2.548   2.540
   39       -0.004  -0.021   2.259   2.234
   40       -0.033  -0.048  -1.961  -2.042
   41       -0.009  -0.037   2.424   2.377
   42       -0.007  -0.034   2.051   2.010
   43       -0.014  -0.047   2.487   2.426
   44       -0.014  -0.041   2.400   2.346
   45        0.002  -0.012   2.271   2.261
   46       -0.000  -0.026   2.371   2.345
   47        0.008  -0.001   2.365   2.372
   48       -0.013  -0.045   2.566   2.508
   49       -0.023  -0.030   0.627   0.574
   50       -0.023  -0.027   0.291   0.242
   51       -0.024  -0.023   0.650   0.603
   52       -0.016  -0.013   0.465   0.435
   53       -0.017  -0.017   0.673   0.639
   54       -0.004  -0.000  -0.078  -0.083
   55       -0.014  -0.009   0.622   0.599
   56       -0.007  -0.005  -0.033  -0.045
   57       -0.022  -0.041   0.654   0.591
   58       -0.016  -0.034   0.527   0.477
   59       -0.008  -0.017   0.292   0.267
   60       -0.012  -0.033   0.524   0.479
   61       -0.008  -0.027   0.353   0.318
   62       -0.008  -0.016   0.240   0.217
   63       -0.014  -0.037   0.541   0.491
   64       -0.021  -0.042   0.605   0.542
   65        0.003   0.071   0.000   0.073
   66        0.001   0.015   0.000   0.016
   67        0.003   0.075   0.000   0.079
   68        0.002   0.041   0.000   0.043
   69        0.002   0.022   0.000   0.024
--------------------------------------------------
tot         -0.428  -1.037  91.729  90.263
 

 total amount of memory used by VASP MPI-rank0   112483. kBytes
=======================================================================

   base      :      30000. kBytes
   nonlr-proj:      13978. kBytes
   fftplans  :       6403. kBytes
   grid      :      17692. kBytes
   one-center:         93. kBytes
   wavefun   :      44317. kBytes
 
  
  
 General timing and accounting informations for this job:
 ========================================================
  
                  Total CPU time used (sec):     1428.072
                            User time (sec):     1296.420
                          System time (sec):      131.651
                         Elapsed time (sec):     1454.869
  
                   Maximum memory used (kb):      344856.
                   Average memory used (kb):           0.
  
                          Minor page faults:     24030950
                          Major page faults:            0
                 Voluntary context switches:         3792
