  71  71   1   0
  0.2598415E+02  0.1002677E-08  0.1002677E-08  0.2118918E-08  0.5000000E-15
  1.000000000000000E-004
  CAR 
 SQS-NiFe                                
      9.36746240    -25.46377637  301      0.27318257      1.00000000
    -25.464  0.0000E+00  0.0000E+00  0.0000E+00  0.0000E+00
    -25.348  0.0000E+00  0.0000E+00  0.0000E+00  0.0000E+00
    -25.232  0.0000E+00  0.0000E+00  0.0000E+00  0.0000E+00
    -25.115 -0.4860E-30  0.0000E+00 -0.5643E-31  0.0000E+00
    -24.999 -0.4708E-26  0.0000E+00 -0.5467E-27  0.0000E+00
    -24.883 -0.2311E-22  0.0000E+00 -0.2684E-23  0.0000E+00
    -24.767 -0.5742E-19  0.0000E+00 -0.6669E-20  0.0000E+00
    -24.651 -0.7212E-16 -0.5422E-29 -0.8381E-17 -0.6295E-30
    -24.535 -0.4414E-13 -0.4414E-25 -0.5134E-14 -0.5126E-26
    -24.419 -0.1395E-10 -0.1821E-21 -0.1625E-11 -0.2114E-22
    -24.303 -0.2203E-08 -0.3800E-18 -0.2574E-09 -0.4414E-19
    -24.187 -0.1721E-06 -0.3912E-15 -0.2023E-07 -0.4546E-16
    -24.071 -0.6543E-05 -0.2055E-12 -0.7799E-06 -0.2390E-13
    -23.954 -0.1171E-03 -0.5441E-10 -0.1437E-04 -0.6341E-11
    -23.838 -0.9024E-03 -0.7182E-08 -0.1191E-03 -0.8402E-09
    -23.722 -0.2003E-02 -0.4676E-06 -0.3517E-03 -0.5513E-07
    -23.606  0.6170E-02 -0.1473E-04  0.3646E-03 -0.1765E-05
    -23.490  0.3079E-01 -0.2152E-03  0.3939E-02 -0.2675E-04
    -23.374  0.3924E-01 -0.1292E-02  0.8495E-02 -0.1768E-03
    -23.258  0.1626E-01 -0.1464E-02  0.1038E-01 -0.3468E-03
    -23.142 -0.4667E-03  0.1144E-01  0.1033E-01  0.9813E-03
    -23.026 -0.1607E-02  0.3632E-01  0.1014E-01  0.5198E-02
    -22.909 -0.3304E-03  0.3518E-01  0.1010E-01  0.9283E-02
    -22.793 -0.2655E-04  0.1010E-01  0.1010E-01  0.1046E-01
    -22.677 -0.9756E-06 -0.1656E-02  0.1010E-01  0.1026E-01
    -22.561 -0.1725E-07 -0.1197E-02  0.1010E-01  0.1012E-01
    -22.445 -0.1500E-09 -0.1877E-03  0.1010E-01  0.1010E-01
    -22.329 -0.6488E-12 -0.1225E-04  0.1010E-01  0.1010E-01
    -22.213 -0.1410E-14 -0.3723E-06  0.1010E-01  0.1010E-01
    -22.097  0.0000E+00 -0.5480E-08  0.1010E-01  0.1010E-01
    -21.981  0.0000E+00 -0.3983E-10  0.1010E-01  0.1010E-01
    -21.865  0.0000E+00 -0.1443E-12  0.1010E-01  0.1010E-01
    -21.748  0.0000E+00 -0.2597E-15  0.1010E-01  0.1010E-01
    -21.632  0.0000E+00  0.0000E+00  0.1010E-01  0.1010E-01
    -21.516  0.0000E+00  0.0000E+00  0.1010E-01  0.1010E-01
    -21.400  0.0000E+00  0.0000E+00  0.1010E-01  0.1010E-01
    -21.284  0.0000E+00  0.0000E+00  0.1010E-01  0.1010E-01
    -21.168  0.0000E+00  0.0000E+00  0.1010E-01  0.1010E-01
    -21.052  0.0000E+00  0.0000E+00  0.1010E-01  0.1010E-01
    -20.936  0.0000E+00  0.0000E+00  0.1010E-01  0.1010E-01
    -20.820  0.0000E+00  0.0000E+00  0.1010E-01  0.1010E-01
    -20.704  0.0000E+00  0.0000E+00  0.1010E-01  0.1010E-01
    -20.587 -0.4926E-32  0.0000E+00  0.1010E-01  0.1010E-01
    -20.471 -0.6585E-28  0.0000E+00  0.1010E-01  0.1010E-01
    -20.355 -0.4463E-24 -0.2035E-30  0.1010E-01  0.1010E-01
    -20.239 -0.1532E-20 -0.2098E-26  0.1010E-01  0.1010E-01
    -20.123 -0.2661E-17 -0.1096E-22  0.1010E-01  0.1010E-01
    -20.007 -0.2262E-14 -0.2898E-19  0.1010E-01  0.1010E-01
    -19.891 -0.9932E-12 -0.3876E-16  0.1010E-01  0.1010E-01
    -19.775 -0.2186E-09 -0.2531E-13  0.1010E-01  0.1010E-01
    -19.659 -0.2399E-07 -0.8540E-11  0.1010E-01  0.1010E-01
    -19.542 -0.1301E-05 -0.1444E-08  0.1010E-01  0.1010E-01
    -19.426 -0.3439E-04 -0.1215E-06  0.1010E-01  0.1010E-01
    -19.310 -0.4299E-03 -0.5042E-05  0.1005E-01  0.1010E-01
    -19.194 -0.2343E-02 -0.1014E-03  0.9775E-02  0.1009E-01
    -19.078 -0.3510E-02 -0.9506E-03  0.9367E-02  0.9978E-02
    -18.962  0.1432E-01 -0.3628E-02  0.1103E-01  0.9557E-02
    -18.846  0.7116E-01 -0.6876E-03  0.1929E-01  0.9477E-02
    -18.730  0.1305E+00  0.3390E-01  0.3444E-01  0.1341E-01
    -18.614  0.1111E+00  0.1045E+00  0.4734E-01  0.2555E-01
    -18.498  0.3543E-01  0.1369E+00  0.5145E-01  0.4145E-01
    -18.381 -0.3230E-02  0.7704E-01  0.5108E-01  0.5039E-01
    -18.265 -0.4047E-02  0.9388E-02  0.5061E-01  0.5148E-01
    -18.149 -0.7983E-03 -0.6030E-02  0.5051E-01  0.5078E-01
    -18.033 -0.6582E-04 -0.2112E-02  0.5051E-01  0.5054E-01
    -17.917 -0.2570E-05 -0.2512E-03  0.5051E-01  0.5051E-01
    -17.801 -0.4944E-07 -0.1336E-04  0.5051E-01  0.5051E-01
    -17.685 -0.4758E-09 -0.3404E-06  0.5051E-01  0.5051E-01
    -17.569 -0.2306E-11 -0.4273E-08  0.5051E-01  0.5051E-01
    -17.453 -0.5675E-14 -0.2675E-10  0.5051E-01  0.5051E-01
    -17.336 -0.1087E-13 -0.8414E-13  0.5051E-01  0.5051E-01
    -17.220 -0.4018E-11 -0.1352E-15  0.5051E-01  0.5051E-01
    -17.104 -0.7430E-09 -0.8023E-23  0.5051E-01  0.5051E-01
    -16.988 -0.6815E-07 -0.2177E-19  0.5051E-01  0.5051E-01
    -16.872 -0.3057E-05 -0.2986E-16  0.5050E-01  0.5051E-01
    -16.756 -0.6522E-04 -0.1998E-13  0.5050E-01  0.5051E-01
    -16.640 -0.6172E-03 -0.6905E-11  0.5043E-01  0.5051E-01
    -16.524 -0.2000E-02 -0.1193E-08  0.5019E-01  0.5051E-01
    -16.408  0.2656E-02 -0.1021E-06  0.5050E-01  0.5051E-01
    -16.292  0.2490E-01 -0.4265E-05  0.5339E-01  0.5050E-01
    -16.175  0.4076E-01 -0.8438E-04  0.5812E-01  0.5049E-01
    -16.059  0.2233E-01 -0.7319E-03  0.6072E-01  0.5041E-01
    -15.943  0.1524E-02 -0.2042E-02  0.6089E-01  0.5017E-01
    -15.827 -0.1916E-02  0.4033E-02  0.6067E-01  0.5064E-01
    -15.711 -0.5190E-03  0.2751E-01  0.6061E-01  0.5383E-01
    -15.595 -0.5051E-04  0.4036E-01  0.6061E-01  0.5852E-01
    -15.479 -0.2203E-05  0.1968E-01  0.6061E-01  0.6081E-01
    -15.363 -0.4587E-07  0.5435E-03  0.6061E-01  0.6087E-01
    -15.247 -0.4679E-09 -0.1796E-02  0.6061E-01  0.6066E-01
    -15.131 -0.2370E-11 -0.4296E-03  0.6061E-01  0.6061E-01
    -15.014 -0.6019E-14 -0.3846E-04  0.6061E-01  0.6061E-01
    -14.898  0.0000E+00 -0.1558E-05  0.6061E-01  0.6061E-01
    -14.782  0.0000E+00 -0.3021E-07  0.6061E-01  0.6061E-01
    -14.666  0.0000E+00 -0.2877E-09  0.6061E-01  0.6061E-01
    -14.550  0.0000E+00 -0.1361E-11  0.6061E-01  0.6061E-01
    -14.434  0.0000E+00 -0.3226E-14  0.6061E-01  0.6061E-01
    -14.318  0.0000E+00  0.0000E+00  0.6061E-01  0.6061E-01
    -14.202  0.0000E+00  0.0000E+00  0.6061E-01  0.6061E-01
    -14.086  0.0000E+00  0.0000E+00  0.6061E-01  0.6061E-01
    -13.969  0.0000E+00  0.0000E+00  0.6061E-01  0.6061E-01
    -13.853  0.0000E+00  0.0000E+00  0.6061E-01  0.6061E-01
    -13.737  0.0000E+00  0.0000E+00  0.6061E-01  0.6061E-01
    -13.621  0.0000E+00  0.0000E+00  0.6061E-01  0.6061E-01
    -13.505  0.0000E+00  0.0000E+00  0.6061E-01  0.6061E-01
    -13.389  0.0000E+00  0.0000E+00  0.6061E-01  0.6061E-01
    -13.273  0.0000E+00  0.0000E+00  0.6061E-01  0.6061E-01
    -13.157  0.0000E+00  0.0000E+00  0.6061E-01  0.6061E-01
    -13.041  0.0000E+00  0.0000E+00  0.6061E-01  0.6061E-01
    -12.925  0.0000E+00  0.0000E+00  0.6061E-01  0.6061E-01
    -12.808  0.0000E+00  0.0000E+00  0.6061E-01  0.6061E-01
    -12.692  0.0000E+00  0.0000E+00  0.6061E-01  0.6061E-01
    -12.576  0.0000E+00  0.0000E+00  0.6061E-01  0.6061E-01
    -12.460  0.0000E+00  0.0000E+00  0.6061E-01  0.6061E-01
    -12.344  0.0000E+00  0.0000E+00  0.6061E-01  0.6061E-01
    -12.228  0.0000E+00  0.0000E+00  0.6061E-01  0.6061E-01
    -12.112  0.0000E+00  0.0000E+00  0.6061E-01  0.6061E-01
    -11.996  0.0000E+00  0.0000E+00  0.6061E-01  0.6061E-01
    -11.880  0.0000E+00  0.0000E+00  0.6061E-01  0.6061E-01
    -11.763  0.0000E+00  0.0000E+00  0.6061E-01  0.6061E-01
    -11.647  0.0000E+00  0.0000E+00  0.6061E-01  0.6061E-01
    -11.531  0.0000E+00  0.0000E+00  0.6061E-01  0.6061E-01
    -11.415  0.0000E+00  0.0000E+00  0.6061E-01  0.6061E-01
    -11.299  0.0000E+00  0.0000E+00  0.6061E-01  0.6061E-01
    -11.183  0.0000E+00  0.0000E+00  0.6061E-01  0.6061E-01
    -11.067  0.0000E+00  0.0000E+00  0.6061E-01  0.6061E-01
    -10.951  0.0000E+00  0.0000E+00  0.6061E-01  0.6061E-01
    -10.835  0.0000E+00  0.0000E+00  0.6061E-01  0.6061E-01
    -10.719  0.0000E+00  0.0000E+00  0.6061E-01  0.6061E-01
    -10.602  0.0000E+00  0.0000E+00  0.6061E-01  0.6061E-01
    -10.486  0.0000E+00  0.0000E+00  0.6061E-01  0.6061E-01
    -10.370 -0.9754E-30  0.0000E+00  0.6061E-01  0.6061E-01
    -10.254 -0.8989E-26  0.0000E+00  0.6061E-01  0.6061E-01
    -10.138 -0.4197E-22 -0.2056E-29  0.6061E-01  0.6061E-01
    -10.022 -0.9920E-19 -0.1796E-25  0.6061E-01  0.6061E-01
     -9.906 -0.1137E-15 -0.7947E-22  0.6061E-01  0.6061E-01
     -9.790 -0.6894E-13 -0.1780E-18  0.6061E-01  0.6061E-01
     -9.674 -0.2071E-10 -0.1966E-15  0.6061E-01  0.6061E-01
     -9.558 -0.3106E-08 -0.1109E-12  0.6061E-01  0.6061E-01
     -9.441 -0.2303E-06 -0.3156E-10  0.6061E-01  0.6061E-01
     -9.325 -0.8299E-05 -0.4479E-08  0.6061E-01  0.6061E-01
     -9.209 -0.1402E-03 -0.3139E-06  0.6059E-01  0.6061E-01
     -9.093 -0.1008E-02 -0.1067E-04  0.6047E-01  0.6060E-01
     -8.977 -0.1920E-02 -0.1694E-03  0.6025E-01  0.6059E-01
     -8.861  0.7545E-02 -0.1128E-02  0.6112E-01  0.6045E-01
     -8.745  0.3253E-01 -0.1771E-02  0.6490E-01  0.6025E-01
     -8.629  0.3826E-01  0.9136E-02  0.6934E-01  0.6131E-01
     -8.513  0.1419E-01  0.3416E-01  0.7099E-01  0.6528E-01
     -8.396 -0.1178E-02  0.3677E-01  0.7085E-01  0.6954E-01
     -8.280 -0.6719E-03  0.1261E-01  0.7078E-01  0.7101E-01
     -8.164  0.4253E-02  0.1098E-02  0.7127E-01  0.7114E-01
     -8.048  0.1554E-01  0.8373E-02  0.7307E-01  0.7211E-01
     -7.932  0.2689E-01  0.2339E-01  0.7620E-01  0.7482E-01
     -7.816  0.1756E-01  0.2418E-01  0.7824E-01  0.7763E-01
     -7.700  0.4101E-02  0.8312E-02  0.7871E-01  0.7860E-01
     -7.584  0.1272E-01  0.6607E-02  0.8019E-01  0.7936E-01
     -7.468  0.2887E-01  0.2092E-01  0.8354E-01  0.8179E-01
     -7.352  0.3444E-01  0.3145E-01  0.8754E-01  0.8545E-01
     -7.235  0.2853E-01  0.3349E-01  0.9085E-01  0.8933E-01
     -7.119  0.1059E-01  0.2098E-01  0.9208E-01  0.9177E-01
     -7.003 -0.3095E-02  0.2410E-02  0.9172E-01  0.9205E-01
     -6.887  0.2897E-02 -0.3734E-02  0.9206E-01  0.9162E-01
     -6.771  0.4025E-01  0.1298E-01  0.9673E-01  0.9312E-01
     -6.655  0.7699E-01  0.5682E-01  0.1057E+00  0.9972E-01
     -6.539  0.5842E-01  0.7631E-01  0.1125E+00  0.1086E+00
     -6.423  0.3578E-01  0.4338E-01  0.1166E+00  0.1136E+00
     -6.307  0.6132E-01  0.2759E-01  0.1237E+00  0.1168E+00
     -6.190  0.8449E-01  0.4838E-01  0.1335E+00  0.1224E+00
     -6.074  0.6903E-01  0.6669E-01  0.1416E+00  0.1302E+00
     -5.958  0.5497E-01  0.6526E-01  0.1479E+00  0.1378E+00
     -5.842  0.7099E-01  0.4734E-01  0.1562E+00  0.1433E+00
     -5.726  0.1003E+00  0.5217E-01  0.1678E+00  0.1493E+00
     -5.610  0.1290E+00  0.8116E-01  0.1828E+00  0.1587E+00
     -5.494  0.1520E+00  0.8933E-01  0.2004E+00  0.1691E+00
     -5.378  0.1854E+00  0.7494E-01  0.2220E+00  0.1778E+00
     -5.262  0.2204E+00  0.7046E-01  0.2476E+00  0.1860E+00
     -5.146  0.2197E+00  0.1160E+00  0.2731E+00  0.1995E+00
     -5.029  0.1811E+00  0.1932E+00  0.2941E+00  0.2219E+00
     -4.913  0.1394E+00  0.2380E+00  0.3103E+00  0.2495E+00
     -4.797  0.1399E+00  0.2081E+00  0.3265E+00  0.2737E+00
     -4.681  0.1906E+00  0.1471E+00  0.3486E+00  0.2908E+00
     -4.565  0.2584E+00  0.1184E+00  0.3786E+00  0.3045E+00
     -4.449  0.3014E+00  0.1308E+00  0.4136E+00  0.3197E+00
     -4.333  0.2910E+00  0.1589E+00  0.4474E+00  0.3382E+00
     -4.217  0.2677E+00  0.1623E+00  0.4785E+00  0.3570E+00
     -4.101  0.2991E+00  0.1574E+00  0.5132E+00  0.3753E+00
     -3.985  0.3591E+00  0.1383E+00  0.5549E+00  0.3913E+00
     -3.868  0.4390E+00  0.1042E+00  0.6059E+00  0.4034E+00
     -3.752  0.5235E+00  0.1565E+00  0.6667E+00  0.4216E+00
     -3.636  0.5571E+00  0.2850E+00  0.7314E+00  0.4547E+00
     -3.520  0.5575E+00  0.3286E+00  0.7961E+00  0.4928E+00
     -3.404  0.5549E+00  0.2582E+00  0.8605E+00  0.5228E+00
     -3.288  0.5597E+00  0.2084E+00  0.9255E+00  0.5470E+00
     -3.172  0.5780E+00  0.2561E+00  0.9926E+00  0.5767E+00
     -3.056  0.5829E+00  0.3853E+00  0.1060E+01  0.6215E+00
     -2.940  0.5905E+00  0.5007E+00  0.1129E+01  0.6796E+00
     -2.823  0.6083E+00  0.5030E+00  0.1199E+01  0.7380E+00
     -2.707  0.6036E+00  0.4671E+00  0.1270E+01  0.7922E+00
     -2.591  0.6085E+00  0.4835E+00  0.1340E+01  0.8484E+00
     -2.475  0.6687E+00  0.5193E+00  0.1418E+01  0.9087E+00
     -2.359  0.7780E+00  0.5185E+00  0.1508E+01  0.9689E+00
     -2.243  0.8930E+00  0.5068E+00  0.1612E+01  0.1028E+01
     -2.127  0.9795E+00  0.5362E+00  0.1726E+01  0.1090E+01
     -2.011  0.1033E+01  0.5759E+00  0.1846E+01  0.1157E+01
     -1.895  0.1032E+01  0.5717E+00  0.1965E+01  0.1223E+01
     -1.779  0.9332E+00  0.5589E+00  0.2074E+01  0.1288E+01
     -1.662  0.7899E+00  0.5924E+00  0.2165E+01  0.1357E+01
     -1.546  0.7467E+00  0.6665E+00  0.2252E+01  0.1434E+01
     -1.430  0.8068E+00  0.7571E+00  0.2346E+01  0.1522E+01
     -1.314  0.8642E+00  0.8534E+00  0.2446E+01  0.1621E+01
     -1.198  0.8842E+00  0.9369E+00  0.2549E+01  0.1730E+01
     -1.082  0.8919E+00  0.9750E+00  0.2652E+01  0.1843E+01
     -0.966  0.9402E+00  0.9397E+00  0.2761E+01  0.1952E+01
     -0.850  0.9952E+00  0.8518E+00  0.2877E+01  0.2051E+01
     -0.734  0.1009E+01  0.7828E+00  0.2994E+01  0.2142E+01
     -0.617  0.1095E+01  0.7674E+00  0.3121E+01  0.2231E+01
     -0.501  0.1231E+01  0.7645E+00  0.3264E+01  0.2320E+01
     -0.385  0.1159E+01  0.7519E+00  0.3399E+01  0.2407E+01
     -0.269  0.7990E+00  0.7510E+00  0.3491E+01  0.2495E+01
     -0.153  0.4260E+00  0.7618E+00  0.3541E+01  0.2583E+01
     -0.037  0.2666E+00  0.7544E+00  0.3572E+01  0.2671E+01
      0.079  0.2597E+00  0.7363E+00  0.3602E+01  0.2756E+01
      0.195  0.2418E+00  0.7140E+00  0.3630E+01  0.2839E+01
      0.311  0.1549E+00  0.6740E+00  0.3648E+01  0.2917E+01
      0.427  0.1148E+00  0.6323E+00  0.3661E+01  0.2991E+01
      0.544  0.1280E+00  0.6097E+00  0.3676E+01  0.3061E+01
      0.660  0.8460E-01  0.5868E+00  0.3686E+01  0.3130E+01
      0.776  0.5552E-01  0.5441E+00  0.3693E+01  0.3193E+01
      0.892  0.1000E+00  0.5053E+00  0.3704E+01  0.3251E+01
      1.008  0.1075E+00  0.4972E+00  0.3717E+01  0.3309E+01
      1.124  0.8378E-01  0.5069E+00  0.3726E+01  0.3368E+01
      1.240  0.1206E+00  0.5081E+00  0.3740E+01  0.3427E+01
      1.356  0.1714E+00  0.5025E+00  0.3760E+01  0.3485E+01
      1.472  0.1608E+00  0.4849E+00  0.3779E+01  0.3542E+01
      1.588  0.9486E-01  0.4407E+00  0.3790E+01  0.3593E+01
      1.705  0.4336E-01  0.3743E+00  0.3795E+01  0.3636E+01
      1.821  0.3938E-01  0.2955E+00  0.3800E+01  0.3670E+01
      1.937  0.7472E-01  0.2333E+00  0.3808E+01  0.3698E+01
      2.053  0.1322E+00  0.2025E+00  0.3824E+01  0.3721E+01
      2.169  0.1437E+00  0.1703E+00  0.3840E+01  0.3741E+01
      2.285  0.1005E+00  0.1353E+00  0.3852E+01  0.3757E+01
      2.401  0.8260E-01  0.1248E+00  0.3862E+01  0.3771E+01
      2.517  0.1132E+00  0.1270E+00  0.3875E+01  0.3786E+01
      2.633  0.1247E+00  0.1242E+00  0.3889E+01  0.3800E+01
      2.750  0.8534E-01  0.1321E+00  0.3899E+01  0.3816E+01
      2.866  0.6039E-01  0.1413E+00  0.3906E+01  0.3832E+01
      2.982  0.9205E-01  0.1388E+00  0.3917E+01  0.3848E+01
      3.098  0.1250E+00  0.1372E+00  0.3931E+01  0.3864E+01
      3.214  0.8715E-01  0.1304E+00  0.3941E+01  0.3879E+01
      3.330  0.4819E-01  0.1192E+00  0.3947E+01  0.3893E+01
      3.446  0.8146E-01  0.1115E+00  0.3956E+01  0.3906E+01
      3.562  0.1204E+00  0.9892E-01  0.3970E+01  0.3917E+01
      3.678  0.1071E+00  0.7243E-01  0.3983E+01  0.3926E+01
      3.794  0.8297E-01  0.6363E-01  0.3993E+01  0.3933E+01
      3.911  0.9122E-01  0.8021E-01  0.4003E+01  0.3943E+01
      4.027  0.1092E+00  0.1046E+00  0.4016E+01  0.3955E+01
      4.143  0.1088E+00  0.1305E+00  0.4028E+01  0.3970E+01
      4.259  0.9137E-01  0.1267E+00  0.4039E+01  0.3985E+01
      4.375  0.7212E-01  0.1106E+00  0.4047E+01  0.3997E+01
      4.491  0.6729E-01  0.1130E+00  0.4055E+01  0.4011E+01
      4.607  0.7552E-01  0.1151E+00  0.4064E+01  0.4024E+01
      4.723  0.7584E-01  0.1064E+00  0.4073E+01  0.4036E+01
      4.839  0.5070E-01  0.9451E-01  0.4079E+01  0.4047E+01
      4.956  0.3983E-01  0.7913E-01  0.4083E+01  0.4056E+01
      5.072  0.7419E-01  0.7931E-01  0.4092E+01  0.4066E+01
      5.188  0.1115E+00  0.9024E-01  0.4105E+01  0.4076E+01
      5.304  0.1140E+00  0.8038E-01  0.4118E+01  0.4085E+01
      5.420  0.9512E-01  0.6110E-01  0.4129E+01  0.4093E+01
      5.536  0.9270E-01  0.7311E-01  0.4140E+01  0.4101E+01
      5.652  0.1017E+00  0.1034E+00  0.4152E+01  0.4113E+01
      5.768  0.9333E-01  0.1197E+00  0.4163E+01  0.4127E+01
      5.884  0.7693E-01  0.1260E+00  0.4171E+01  0.4142E+01
      6.000  0.6585E-01  0.1140E+00  0.4179E+01  0.4155E+01
      6.117  0.6135E-01  0.8442E-01  0.4186E+01  0.4165E+01
      6.233  0.7087E-01  0.7295E-01  0.4194E+01  0.4173E+01
      6.349  0.9008E-01  0.6603E-01  0.4205E+01  0.4181E+01
      6.465  0.1261E+00  0.7520E-01  0.4220E+01  0.4189E+01
      6.581  0.1683E+00  0.1183E+00  0.4239E+01  0.4203E+01
      6.697  0.1608E+00  0.1352E+00  0.4258E+01  0.4219E+01
      6.813  0.1225E+00  0.1078E+00  0.4272E+01  0.4231E+01
      6.929  0.1077E+00  0.8265E-01  0.4284E+01  0.4241E+01
      7.045  0.9430E-01  0.9198E-01  0.4295E+01  0.4252E+01
      7.161  0.5392E-01  0.1276E+00  0.4302E+01  0.4266E+01
      7.278  0.1459E-01  0.1563E+00  0.4303E+01  0.4285E+01
      7.394 -0.8134E-03  0.1234E+00  0.4303E+01  0.4299E+01
      7.510 -0.1804E-02  0.4287E-01  0.4303E+01  0.4304E+01
      7.626 -0.5148E-03 -0.1818E-02  0.4303E+01  0.4304E+01
      7.742 -0.6456E-04 -0.4737E-02  0.4303E+01  0.4303E+01
      7.858 -0.3911E-05 -0.1091E-02  0.4303E+01  0.4303E+01
      7.974 -0.1170E-06 -0.1035E-03  0.4303E+01  0.4303E+01
      8.090 -0.1743E-08 -0.4653E-05  0.4303E+01  0.4303E+01
      8.206 -0.1301E-10 -0.1034E-06  0.4303E+01  0.4303E+01
      8.323 -0.4881E-13 -0.1156E-08  0.4303E+01  0.4303E+01
      8.439 -0.9015E-16 -0.6538E-11  0.4303E+01  0.4303E+01
      8.555  0.0000E+00 -0.1880E-13  0.4303E+01  0.4303E+01
      8.671  0.0000E+00 -0.2576E-16  0.4303E+01  0.4303E+01
      8.787  0.0000E+00  0.0000E+00  0.4303E+01  0.4303E+01
      8.903  0.0000E+00  0.0000E+00  0.4303E+01  0.4303E+01
      9.019  0.0000E+00  0.0000E+00  0.4303E+01  0.4303E+01
      9.135  0.0000E+00  0.0000E+00  0.4303E+01  0.4303E+01
      9.251  0.0000E+00  0.0000E+00  0.4303E+01  0.4303E+01
      9.367  0.0000E+00  0.0000E+00  0.4303E+01  0.4303E+01
      9.36746240    -25.46377637  301      0.27318257      1.00000000
    -25.464  0.0000E+00  0.0000E+00  0.0000E+00  0.0000E+00  0.0000E+00  0.0000E+00
    -25.348  0.0000E+00  0.0000E+00  0.0000E+00  0.0000E+00  0.0000E+00  0.0000E+00
    -25.232  0.0000E+00  0.0000E+00  0.0000E+00  0.0000E+00  0.0000E+00  0.0000E+00
    -25.115 -0.5248E-36  0.0000E+00 -0.5778E-36  0.0000E+00 -0.2080E-36  0.0000E+00
    -24.999 -0.5084E-32  0.0000E+00 -0.5597E-32  0.0000E+00 -0.2015E-32  0.0000E+00
    -24.883 -0.2495E-28  0.0000E+00 -0.2747E-28  0.0000E+00 -0.9891E-29  0.0000E+00
    -24.767 -0.6200E-25  0.0000E+00 -0.6826E-25  0.0000E+00 -0.2458E-25  0.0000E+00
    -24.651 -0.7788E-22 -0.7393E-35 -0.8574E-22 -0.7994E-35 -0.3087E-22 -0.2959E-35
    -24.535 -0.4766E-19 -0.6019E-31 -0.5247E-19 -0.6508E-31 -0.1889E-19 -0.2409E-31
    -24.419 -0.1507E-16 -0.2482E-27 -0.1659E-16 -0.2684E-27 -0.5973E-17 -0.9936E-28
    -24.303 -0.2378E-14 -0.5181E-24 -0.2618E-14 -0.5603E-24 -0.9428E-15 -0.2074E-24
    -24.187 -0.1858E-12 -0.5333E-21 -0.2045E-12 -0.5767E-21 -0.7364E-13 -0.2135E-21
    -24.071 -0.7065E-11 -0.2801E-18 -0.7778E-11 -0.3029E-18 -0.2800E-11 -0.1121E-18
    -23.954 -0.1264E-09 -0.7419E-16 -0.1392E-09 -0.8022E-16 -0.5011E-10 -0.2969E-16
    -23.838 -0.9743E-09 -0.9793E-14 -0.1073E-08 -0.1059E-13 -0.3862E-09 -0.3919E-14
    -23.722 -0.2163E-08 -0.6376E-12 -0.2381E-08 -0.6894E-12 -0.8573E-09 -0.2552E-12
    -23.606  0.6662E-08 -0.2008E-10  0.7334E-08 -0.2171E-10  0.2641E-08 -0.8038E-11
    -23.490  0.3325E-07 -0.2934E-09  0.3660E-07 -0.3172E-09  0.1318E-07 -0.1174E-09
    -23.374  0.4237E-07 -0.1762E-08  0.4664E-07 -0.1905E-08  0.1679E-07 -0.7052E-09
    -23.258  0.1756E-07 -0.1997E-08  0.1933E-07 -0.2159E-08  0.6962E-08 -0.7992E-09
    -23.142 -0.5039E-09  0.1560E-07 -0.5547E-09  0.1686E-07 -0.1997E-09  0.6242E-08
    -23.026 -0.1735E-08  0.4952E-07 -0.1911E-08  0.5354E-07 -0.6879E-09  0.1982E-07
    -22.909 -0.3567E-09  0.4797E-07 -0.3927E-09  0.5187E-07 -0.1414E-09  0.1920E-07
    -22.793 -0.2867E-10  0.1377E-07 -0.3156E-10  0.1489E-07 -0.1136E-10  0.5512E-08
    -22.677 -0.1053E-11 -0.2259E-08 -0.1160E-11 -0.2442E-08 -0.4176E-12 -0.9040E-09
    -22.561 -0.1862E-13 -0.1632E-08 -0.2050E-13 -0.1765E-08 -0.7382E-14 -0.6533E-09
    -22.445 -0.1619E-15 -0.2560E-09 -0.1783E-15 -0.2768E-09 -0.6419E-16 -0.1024E-09
    -22.329 -0.7006E-18 -0.1671E-10 -0.7713E-18 -0.1806E-10 -0.2777E-18 -0.6686E-11
    -22.213 -0.1523E-20 -0.5076E-12 -0.1676E-20 -0.5488E-12 -0.6036E-21 -0.2031E-12
    -22.097  0.0000E+00 -0.7472E-14  0.0000E+00 -0.8080E-14  0.0000E+00 -0.2991E-14
    -21.981  0.0000E+00 -0.5430E-16  0.0000E+00 -0.5872E-16  0.0000E+00 -0.2173E-16
    -21.865  0.0000E+00 -0.1968E-18  0.0000E+00 -0.2128E-18  0.0000E+00 -0.7876E-19
    -21.748  0.0000E+00 -0.3541E-21  0.0000E+00 -0.3831E-21  0.0000E+00 -0.1417E-21
    -21.632  0.0000E+00  0.0000E+00  0.0000E+00  0.0000E+00  0.0000E+00  0.0000E+00
    -21.516  0.0000E+00  0.0000E+00  0.0000E+00  0.0000E+00  0.0000E+00  0.0000E+00
    -21.400  0.0000E+00  0.0000E+00  0.0000E+00  0.0000E+00  0.0000E+00  0.0000E+00
    -21.284  0.0000E+00  0.0000E+00  0.0000E+00  0.0000E+00  0.0000E+00  0.0000E+00
    -21.168  0.0000E+00  0.0000E+00  0.0000E+00  0.0000E+00  0.0000E+00  0.0000E+00
    -21.052  0.0000E+00  0.0000E+00  0.0000E+00  0.0000E+00  0.0000E+00  0.0000E+00
    -20.936  0.0000E+00  0.0000E+00  0.0000E+00  0.0000E+00  0.0000E+00  0.0000E+00
    -20.820  0.0000E+00  0.0000E+00  0.0000E+00  0.0000E+00  0.0000E+00  0.0000E+00
    -20.704  0.0000E+00  0.0000E+00  0.0000E+00  0.0000E+00  0.0000E+00  0.0000E+00
    -20.587 -0.2406E-35  0.0000E+00 -0.2707E-35  0.0000E+00 -0.1875E-35  0.0000E+00
    -20.471 -0.3216E-31  0.0000E+00 -0.3620E-31  0.0000E+00 -0.2506E-31  0.0000E+00
    -20.355 -0.2180E-27 -0.1058E-33 -0.2453E-27 -0.1164E-33 -0.1699E-27 -0.7794E-34
    -20.239 -0.7484E-24 -0.1090E-29 -0.8422E-24 -0.1200E-29 -0.5832E-24 -0.8033E-30
    -20.123 -0.1300E-20 -0.5695E-26 -0.1463E-20 -0.6267E-26 -0.1013E-20 -0.4196E-26
    -20.007 -0.1105E-17 -0.1506E-22 -0.1243E-17 -0.1658E-22 -0.8610E-18 -0.1110E-22
    -19.891 -0.4851E-15 -0.2015E-19 -0.5459E-15 -0.2217E-19 -0.3779E-15 -0.1484E-19
    -19.775 -0.1068E-12 -0.1315E-16 -0.1201E-12 -0.1447E-16 -0.8316E-13 -0.9688E-17
    -19.659 -0.1172E-10 -0.4438E-14 -0.1318E-10 -0.4883E-14 -0.9121E-11 -0.3268E-14
    -19.542 -0.6357E-09 -0.7499E-12 -0.7146E-09 -0.8250E-12 -0.4942E-09 -0.5521E-12
    -19.426 -0.1678E-07 -0.6306E-10 -0.1884E-07 -0.6934E-10 -0.1301E-07 -0.4638E-10
    -19.310 -0.2088E-06 -0.2611E-08 -0.2338E-06 -0.2869E-08 -0.1609E-06 -0.1918E-08
    -19.194 -0.1114E-05 -0.5218E-07 -0.1239E-05 -0.5726E-07 -0.8467E-06 -0.3821E-07
    -19.078 -0.1400E-05 -0.4797E-06 -0.1510E-05 -0.5250E-06 -0.9933E-06 -0.3491E-06
    -18.962  0.8054E-05 -0.1708E-05  0.9063E-05 -0.1857E-05  0.6272E-05 -0.1224E-05
    -18.846  0.3342E-04  0.5132E-06  0.3692E-04  0.6206E-06  0.2501E-04  0.4586E-06
    -18.730  0.5091E-04  0.1793E-04  0.5578E-04  0.1959E-04  0.3743E-04  0.1299E-04
    -18.614  0.3361E-04  0.4558E-04  0.3676E-04  0.4935E-04  0.2463E-04  0.3239E-04
    -18.498  0.6291E-05  0.4952E-04  0.6924E-05  0.5338E-04  0.4680E-05  0.3490E-04
    -18.381 -0.2214E-05  0.2254E-04 -0.2411E-05  0.2429E-04 -0.1605E-05  0.1590E-04
    -18.265 -0.1018E-05  0.1132E-05 -0.1117E-05  0.1237E-05 -0.7524E-06  0.8347E-06
    -18.149 -0.1388E-06 -0.2043E-05 -0.1532E-06 -0.2201E-05 -0.1039E-06 -0.1438E-05
    -18.033 -0.8236E-08 -0.5711E-06 -0.9135E-08 -0.6172E-06 -0.6230E-08 -0.4058E-06
    -17.917 -0.2314E-09 -0.5985E-07 -0.2578E-09 -0.6484E-07 -0.1769E-09 -0.4280E-07
    -17.801 -0.3182E-11 -0.2871E-08 -0.3563E-11 -0.3116E-08 -0.2458E-11 -0.2063E-08
    -17.685 -0.2179E-13 -0.6668E-10 -0.2453E-13 -0.7250E-10 -0.1701E-13 -0.4812E-10
    -17.569 -0.7511E-16 -0.7671E-12 -0.8496E-16 -0.8351E-12 -0.5925E-16 -0.5553E-12
    -17.453 -0.1329E-18 -0.4419E-14 -0.1513E-18 -0.4816E-14 -0.1063E-18 -0.3208E-14
    -17.336 -0.4088E-18 -0.1282E-16 -0.3048E-18 -0.1399E-16 -0.1403E-18 -0.9326E-17
    -17.220 -0.1511E-15 -0.1994E-19 -0.1127E-15 -0.2179E-19 -0.5186E-16 -0.1458E-19
    -17.104 -0.2795E-13 -0.3709E-27 -0.2084E-13 -0.2566E-27 -0.9588E-14 -0.1068E-27
    -16.988 -0.2563E-11 -0.1006E-23 -0.1911E-11 -0.6960E-24 -0.8794E-12 -0.2897E-24
    -16.872 -0.1150E-09 -0.1380E-20 -0.8575E-10 -0.9547E-21 -0.3946E-10 -0.3974E-21
    -16.756 -0.2453E-08 -0.9238E-18 -0.1829E-08 -0.6389E-18 -0.8417E-09 -0.2660E-18
    -16.640 -0.2322E-07 -0.3193E-15 -0.1731E-07 -0.2208E-15 -0.7966E-08 -0.9192E-16
    -16.524 -0.7521E-07 -0.5514E-13 -0.5609E-07 -0.3813E-13 -0.2581E-07 -0.1587E-13
    -16.408  0.9991E-07 -0.4719E-11  0.7450E-07 -0.3264E-11  0.3428E-07 -0.1359E-11
    -16.292  0.9364E-06 -0.1972E-09  0.6983E-06 -0.1364E-09  0.3213E-06 -0.5677E-10
    -16.175  0.1533E-05 -0.3901E-08  0.1143E-05 -0.2698E-08  0.5260E-06 -0.1123E-08
    -16.059  0.8401E-06 -0.3384E-07  0.6264E-06 -0.2341E-07  0.2882E-06 -0.9743E-08
    -15.943  0.5732E-07 -0.9441E-07  0.4274E-07 -0.6530E-07  0.1966E-07 -0.2718E-07
    -15.827 -0.7206E-07  0.1865E-06 -0.5373E-07  0.1290E-06 -0.2472E-07  0.5369E-07
    -15.711 -0.1952E-07  0.1272E-05 -0.1456E-07  0.8796E-06 -0.6698E-08  0.3662E-06
    -15.595 -0.1900E-08  0.1866E-05 -0.1417E-08  0.1291E-05 -0.6519E-09  0.5373E-06
    -15.479 -0.8288E-10  0.9099E-06 -0.6180E-10  0.6293E-06 -0.2843E-10  0.2620E-06
    -15.363 -0.1725E-11  0.2513E-07 -0.1286E-11  0.1738E-07 -0.5919E-12  0.7235E-08
    -15.247 -0.1760E-13 -0.8305E-07 -0.1312E-13 -0.5744E-07 -0.6038E-14 -0.2391E-07
    -15.131 -0.8913E-16 -0.1987E-07 -0.6647E-16 -0.1374E-07 -0.3058E-16 -0.5719E-08
    -15.014 -0.2264E-18 -0.1778E-08 -0.1688E-18 -0.1230E-08 -0.7767E-19 -0.5120E-09
    -14.898  0.0000E+00 -0.7202E-10  0.0000E+00 -0.4981E-10  0.0000E+00 -0.2074E-10
    -14.782  0.0000E+00 -0.1397E-11  0.0000E+00 -0.9662E-12  0.0000E+00 -0.4022E-12
    -14.666  0.0000E+00 -0.1330E-13  0.0000E+00 -0.9199E-14  0.0000E+00 -0.3829E-14
    -14.550  0.0000E+00 -0.6294E-16  0.0000E+00 -0.4353E-16  0.0000E+00 -0.1812E-16
    -14.434  0.0000E+00 -0.1492E-18  0.0000E+00 -0.1032E-18  0.0000E+00 -0.4294E-19
    -14.318  0.0000E+00  0.0000E+00  0.0000E+00  0.0000E+00  0.0000E+00  0.0000E+00
    -14.202  0.0000E+00  0.0000E+00  0.0000E+00  0.0000E+00  0.0000E+00  0.0000E+00
    -14.086  0.0000E+00  0.0000E+00  0.0000E+00  0.0000E+00  0.0000E+00  0.0000E+00
    -13.969  0.0000E+00  0.0000E+00  0.0000E+00  0.0000E+00  0.0000E+00  0.0000E+00
    -13.853  0.0000E+00  0.0000E+00  0.0000E+00  0.0000E+00  0.0000E+00  0.0000E+00
    -13.737  0.0000E+00  0.0000E+00  0.0000E+00  0.0000E+00  0.0000E+00  0.0000E+00
    -13.621  0.0000E+00  0.0000E+00  0.0000E+00  0.0000E+00  0.0000E+00  0.0000E+00
    -13.505  0.0000E+00  0.0000E+00  0.0000E+00  0.0000E+00  0.0000E+00  0.0000E+00
    -13.389  0.0000E+00  0.0000E+00  0.0000E+00  0.0000E+00  0.0000E+00  0.0000E+00
    -13.273  0.0000E+00  0.0000E+00  0.0000E+00  0.0000E+00  0.0000E+00  0.0000E+00
    -13.157  0.0000E+00  0.0000E+00  0.0000E+00  0.0000E+00  0.0000E+00  0.0000E+00
    -13.041  0.0000E+00  0.0000E+00  0.0000E+00  0.0000E+00  0.0000E+00  0.0000E+00
    -12.925  0.0000E+00  0.0000E+00  0.0000E+00  0.0000E+00  0.0000E+00  0.0000E+00
    -12.808  0.0000E+00  0.0000E+00  0.0000E+00  0.0000E+00  0.0000E+00  0.0000E+00
    -12.692  0.0000E+00  0.0000E+00  0.0000E+00  0.0000E+00  0.0000E+00  0.0000E+00
    -12.576  0.0000E+00  0.0000E+00  0.0000E+00  0.0000E+00  0.0000E+00  0.0000E+00
    -12.460  0.0000E+00  0.0000E+00  0.0000E+00  0.0000E+00  0.0000E+00  0.0000E+00
    -12.344  0.0000E+00  0.0000E+00  0.0000E+00  0.0000E+00  0.0000E+00  0.0000E+00
    -12.228  0.0000E+00  0.0000E+00  0.0000E+00  0.0000E+00  0.0000E+00  0.0000E+00
    -12.112  0.0000E+00  0.0000E+00  0.0000E+00  0.0000E+00  0.0000E+00  0.0000E+00
    -11.996  0.0000E+00  0.0000E+00  0.0000E+00  0.0000E+00  0.0000E+00  0.0000E+00
    -11.880  0.0000E+00  0.0000E+00  0.0000E+00  0.0000E+00  0.0000E+00  0.0000E+00
    -11.763  0.0000E+00  0.0000E+00  0.0000E+00  0.0000E+00  0.0000E+00  0.0000E+00
    -11.647  0.0000E+00  0.0000E+00  0.0000E+00  0.0000E+00  0.0000E+00  0.0000E+00
    -11.531  0.0000E+00  0.0000E+00  0.0000E+00  0.0000E+00  0.0000E+00  0.0000E+00
    -11.415  0.0000E+00  0.0000E+00  0.0000E+00  0.0000E+00  0.0000E+00  0.0000E+00
    -11.299  0.0000E+00  0.0000E+00  0.0000E+00  0.0000E+00  0.0000E+00  0.0000E+00
    -11.183  0.0000E+00  0.0000E+00  0.0000E+00  0.0000E+00  0.0000E+00  0.0000E+00
    -11.067  0.0000E+00  0.0000E+00  0.0000E+00  0.0000E+00  0.0000E+00  0.0000E+00
    -10.951  0.0000E+00  0.0000E+00  0.0000E+00  0.0000E+00  0.0000E+00  0.0000E+00
    -10.835  0.0000E+00  0.0000E+00  0.0000E+00  0.0000E+00  0.0000E+00  0.0000E+00
    -10.719  0.0000E+00  0.0000E+00  0.0000E+00  0.0000E+00  0.0000E+00  0.0000E+00
    -10.602  0.0000E+00  0.0000E+00  0.0000E+00  0.0000E+00  0.0000E+00  0.0000E+00
    -10.486  0.0000E+00  0.0000E+00  0.0000E+00  0.0000E+00  0.0000E+00  0.0000E+00
    -10.370 -0.6397E-32  0.0000E+00 -0.1212E-32  0.0000E+00 -0.4829E-33  0.0000E+00
    -10.254 -0.5893E-28  0.0000E+00 -0.1117E-28  0.0000E+00 -0.4449E-29  0.0000E+00
    -10.138 -0.2751E-24 -0.2501E-31 -0.5215E-25 -0.3694E-32 -0.2077E-25 -0.1188E-32
    -10.022 -0.6499E-21 -0.2183E-27 -0.1233E-21 -0.3227E-28 -0.4910E-22 -0.1038E-28
     -9.906 -0.7447E-18 -0.9653E-24 -0.1413E-18 -0.1428E-24 -0.5626E-19 -0.4591E-25
     -9.790 -0.4514E-15 -0.2161E-20 -0.8571E-16 -0.3199E-21 -0.3411E-16 -0.1028E-21
     -9.674 -0.1356E-12 -0.2386E-17 -0.2576E-13 -0.3535E-18 -0.1025E-13 -0.1136E-18
     -9.558 -0.2033E-10 -0.1345E-14 -0.3863E-11 -0.1995E-15 -0.1537E-11 -0.6408E-16