       N       E                     dE             d eps       ncg     rms          rms(c)
DAV:   1    -0.403554240348E+03   -0.40355E+03   -0.15803E+03  9168   0.469E+01    0.744E+00
RMM:   2    -0.417447749207E+03   -0.13894E+02   -0.13678E+02  8603   0.228E+01    0.130E+01
RMM:   3    -0.419503050414E+03   -0.20553E+01   -0.82574E+00  8576   0.580E+00    0.219E+01
RMM:   4    -0.418936553120E+03    0.56650E+00   -0.14282E+00  8701   0.265E+00    0.208E+01
RMM:   5    -0.417248611535E+03    0.16879E+01   -0.56256E-01  8637   0.182E+00    0.533E+00
RMM:   6    -0.417258586718E+03   -0.99752E-02   -0.24311E-01  8609   0.119E+00    0.510E+00
RMM:   7    -0.417197930025E+03    0.60657E-01   -0.75519E-02  8623   0.681E-01    0.306E+00
RMM:   8    -0.417176466928E+03    0.21463E-01   -0.22824E-02  8628   0.375E-01    0.190E+00
RMM:   9    -0.417175987910E+03    0.47902E-03   -0.76731E-03  8638   0.202E-01    0.211E+00
RMM:  10    -0.417168634191E+03    0.73537E-02   -0.41606E-03  8627   0.158E-01    0.182E+00
RMM:  11    -0.417162027558E+03    0.66066E-02   -0.32641E-03  8617   0.135E-01    0.170E+00
RMM:  12    -0.417141661003E+03    0.20367E-01   -0.40120E-03  8611   0.151E-01    0.116E+00
RMM:  13    -0.417132637952E+03    0.90231E-02   -0.21786E-03  8618   0.114E-01    0.883E-01
RMM:  14    -0.417123033125E+03    0.96048E-02   -0.19050E-03  8634   0.106E-01    0.742E-01
RMM:  15    -0.417118851891E+03    0.41812E-02   -0.11392E-03  8595   0.850E-02    0.495E-01
RMM:  16    -0.417119505551E+03   -0.65366E-03   -0.63832E-04  8566   0.609E-02    0.474E-01
RMM:  17    -0.417121963489E+03   -0.24579E-02   -0.57079E-04  8598   0.588E-02    0.278E-01
RMM:  18    -0.417125507375E+03   -0.35439E-02   -0.36266E-04  8555   0.455E-02    0.234E-01
RMM:  19    -0.417135540294E+03   -0.10033E-01   -0.49324E-04  8601   0.462E-02    0.190E-01
RMM:  20    -0.417141446869E+03   -0.59066E-02   -0.23176E-04  8498   0.334E-02    0.131E-01
RMM:  21    -0.417156096976E+03   -0.14650E-01   -0.45747E-04  8510   0.331E-02    0.167E-01
RMM:  22    -0.417165803382E+03   -0.97064E-02   -0.35289E-04  8513   0.293E-02    0.926E-02
RMM:  23    -0.417171220203E+03   -0.54168E-02   -0.19518E-04  8435   0.235E-02    0.112E-01
RMM:  24    -0.417178852705E+03   -0.76325E-02   -0.38599E-04  8450   0.246E-02    0.790E-02
RMM:  25    -0.417180945764E+03   -0.20931E-02   -0.90097E-05  7730   0.158E-02    0.620E-02
RMM:  26    -0.417183978303E+03   -0.30325E-02   -0.14355E-04  8081   0.167E-02    0.729E-02
RMM:  27    -0.417185584109E+03   -0.16058E-02   -0.87733E-05  7524   0.139E-02    0.587E-02
RMM:  28    -0.417186070439E+03   -0.48633E-03   -0.22879E-05  5621   0.800E-03    0.548E-02
RMM:  29    -0.417186524736E+03   -0.45430E-03   -0.34524E-05  6018   0.857E-03    0.249E-02
RMM:  30    -0.417186618686E+03   -0.93950E-04   -0.10610E-05  5185   0.612E-03    0.311E-02
RMM:  31    -0.417186711980E+03   -0.93294E-04   -0.91700E-06  5230   0.542E-03    0.436E-02
RMM:  32    -0.417186740041E+03   -0.28060E-04   -0.25954E-06  4776   0.366E-03    0.405E-02
RMM:  33    -0.417186777395E+03   -0.37354E-04   -0.14730E-06  4686   0.247E-03    0.233E-02
RMM:  34    -0.417186798808E+03   -0.21414E-04   -0.89056E-07  4496   0.231E-03    0.166E-02
RMM:  35    -0.417186840061E+03   -0.41253E-04   -0.10254E-06  4502   0.180E-03    0.105E-02
RMM:  36    -0.417186859032E+03   -0.18971E-04   -0.50439E-07  4235   0.171E-03    0.767E-03
RMM:  37    -0.417186892343E+03   -0.33310E-04   -0.65355E-07  3661   0.136E-03    0.833E-03
RMM:  38    -0.417186922031E+03   -0.29688E-04   -0.60589E-07  3464   0.137E-03    0.666E-03
RMM:  39    -0.417186949404E+03   -0.27373E-04   -0.65144E-07  3360   0.130E-03    0.559E-03
RMM:  40    -0.417186978158E+03   -0.28755E-04   -0.70294E-07  3052   0.123E-03    0.257E-03
RMM:  41    -0.417186990153E+03   -0.11995E-04   -0.24625E-07  2253   0.110E-03    0.239E-03
RMM:  42    -0.417187004529E+03   -0.14376E-04   -0.40314E-07  2400   0.109E-03    0.284E-03
RMM:  43    -0.417187008994E+03   -0.44657E-05   -0.13166E-07  1795   0.968E-04
   1 F= -.43419713E+03 E0= -.43421369E+03  d E =-.434197E+03  mag=    74.3688
