 vasp.5.4.4.18Apr17-6-g9f103f2a35 (build Dec 15 2018 21:27:11) complex          
  
 executed on             LinuxIFC date 2022.03.01  18:59:58
 running on   72 total cores
 distrk:  each k-point on   72 cores,    1 groups
 distr:  one band on NCORES_PER_BAND=  24 cores,    3 groups


--------------------------------------------------------------------------------------------------------


 INCAR:
 POTCAR:    PAW_PBE Ni 02Aug2007                  
 POTCAR:    PAW_PBE Fe 06Sep2000                  
 POTCAR:    PAW_PBE O 08Apr2002                   
 POTCAR:    PAW_PBE H 15Jun2001                   

 ----------------------------------------------------------------------------- 
|                                                                             |
|           W    W    AA    RRRRR   N    N  II  N    N   GGGG   !!!           |
|           W    W   A  A   R    R  NN   N  II  NN   N  G    G  !!!           |
|           W    W  A    A  R    R  N N  N  II  N N  N  G       !!!           |
|           W WW W  AAAAAA  RRRRR   N  N N  II  N  N N  G  GGG   !            |
|           WW  WW  A    A  R   R   N   NN  II  N   NN  G    G                |
|           W    W  A    A  R    R  N    N  II  N    N   GGGG   !!!           |
|                                                                             |
|      For optimal performance we recommend to set                            |
|        NCORE= 4 - approx SQRT( number of cores)                             |
|      NCORE specifies how many cores store one orbital (NPAR=cpu/NCORE).     |
|      This setting can  greatly improve the performance of VASP for DFT.     |
|      The default,   NCORE=1            might be grossly inefficient         |
|      on modern multi-core architectures or massively parallel machines.     |
|      Do your own testing !!!!                                               |
|      Unfortunately you need to use the default for GW and RPA calculations. |
|      (for HF NCORE is supported but not extensively tested yet)             |
|                                                                             |
 ----------------------------------------------------------------------------- 

 POTCAR:    PAW_PBE Ni 02Aug2007                  
   VRHFIN =Ni:                                                                  
   LEXCH  = PE                                                                  
   EATOM  =  1077.6739 eV,   79.2068 Ry                                         
                                                                                
   TITEL  = PAW_PBE Ni 02Aug2007                                                
   LULTRA =        F    use ultrasoft PP ?                                      
   IUNSCR =        1    unscreen: 0-lin 1-nonlin 2-no                           
   RPACOR =    2.000    partial core radius                                     
   POMASS =   58.690; ZVAL   =   10.000    mass and valenz                      
   RCORE  =    2.300    outmost cutoff radius                                   
   RWIGS  =    2.430; RWIGS  =    1.286    wigner-seitz radius (au A)           
   ENMAX  =  269.532; ENMIN  =  202.149 eV                                      
   RCLOC  =    1.201    cutoff for local pot                                    
   LCOR   =        T    correct aug charges                                     
   LPAW   =        T    paw PP                                                  
   EAUG   =  544.565                                                            
   DEXC   =    0.000                                                            
   RMAX   =    2.357    core radius for proj-oper                               
   RAUG   =    1.300    factor for augmentation sphere                          
   RDEP   =    2.390    radius for radial grids                                 
   RDEPT  =    1.838    core radius for aug-charge                              
                                                                                
   Atomic configuration                                                         
    9 entries                                                                   
     n  l   j            E        occ.                                          
     1  0  0.50     -8206.4253   2.0000                                         
     2  0  0.50      -976.1748   2.0000                                         
     2  1  1.50      -839.0571   6.0000                                         
     3  0  0.50      -105.9991   2.0000                                         
     3  1  1.50       -66.4603   6.0000                                         
     3  2  2.50        -4.6458   9.0000                                         
     4  0  0.50        -4.4926   1.0000                                         
     4  1  1.50        -4.0817   0.0000                                         
     4  3  2.50        -1.3606   0.0000                                         
   Description                                                                  
     l       E           TYP  RCUT    TYP  RCUT                                 
     2     -4.6457903     23  2.300                                             
     2     -6.0063729     23  2.300                                             
     0     -4.4925590     23  2.300                                             
     0      5.0102601     23  2.300                                             
     1     -2.7211652     23  2.300                                             
     1     16.5183231     23  2.300                                             
  local pseudopotential read in
  partial core-charges read in
  partial kinetic energy density read in
  atomic valenz-charges read in
  non local Contribution for L=           2  read in
    real space projection operators read in
  non local Contribution for L=           2  read in
    real space projection operators read in
  non local Contribution for L=           0  read in
    real space projection operators read in
  non local Contribution for L=           0  read in
    real space projection operators read in
  non local Contribution for L=           1  read in
    real space projection operators read in
  non local Contribution for L=           1  read in
    real space projection operators read in
    PAW grid and wavefunctions read in
 
   number of l-projection  operators is LMAX  =           6
   number of lm-projection operators is LMMAX =          18
 
 POTCAR:    PAW_PBE Fe 06Sep2000                  
   VRHFIN =Fe:  d7 s1                                                           
   LEXCH  = PE                                                                  
   EATOM  =   594.3153 eV,   43.6809 Ry                                         
                                                                                
   TITEL  = PAW_PBE Fe 06Sep2000                                                
   LULTRA =        F    use ultrasoft PP ?                                      
   IUNSCR =        1    unscreen: 0-lin 1-nonlin 2-no                           
   RPACOR =    2.000    partial core radius                                     
   POMASS =   55.847; ZVAL   =    8.000    mass and valenz                      
   RCORE  =    2.300    outmost cutoff radius                                   
   RWIGS  =    2.460; RWIGS  =    1.302    wigner-seitz radius (au A)           
   ENMAX  =  267.882; ENMIN  =  200.911 eV                                      
   RCLOC  =    1.701    cutoff for local pot                                    
   LCOR   =        T    correct aug charges                                     
   LPAW   =        T    paw PP                                                  
   EAUG   =  511.368                                                            
   DEXC   =    0.000                                                            
   RMAX   =    2.356    core radius for proj-oper                               
   RAUG   =    1.300    factor for augmentation sphere                          
   RDEP   =    2.442    radius for radial grids                                 
   RDEPT  =    1.890    core radius for aug-charge                              
                                                                                
   Atomic configuration                                                         
    9 entries                                                                   
     n  l   j            E        occ.                                          
     1  0  0.50     -6993.8440   2.0000                                         
     2  0  0.50      -814.6047   2.0000                                         
     2  1  1.50      -693.3689   6.0000                                         
     3  0  0.50       -89.4732   2.0000                                         
     3  1  1.50       -55.6373   6.0000                                         
     3  2  2.50        -3.8151   7.0000                                         
     4  0  0.50        -4.2551   1.0000                                         
     4  1  1.50        -3.4015   0.0000                                         
     4  3  2.50        -1.3606   0.0000                                         
   Description                                                                  
     l       E           TYP  RCUT    TYP  RCUT                                 
     2     -3.8151135     23  2.300                                             
     2     -5.1756961     23  2.300                                             
     0     -4.2550963     23  2.300                                             
     0      7.2035603     23  2.300                                             
     1     -2.7211652     23  2.300                                             
     1     18.4316424     23  2.300                                             
  local pseudopotential read in
  partial core-charges read in
  partial kinetic energy density read in
  atomic valenz-charges read in
  non local Contribution for L=           2  read in
    real space projection operators read in
  non local Contribution for L=           2  read in
    real space projection operators read in
  non local Contribution for L=           0  read in
    real space projection operators read in
  non local Contribution for L=           0  read in
    real space projection operators read in
  non local Contribution for L=           1  read in
    real space projection operators read in
  non local Contribution for L=           1  read in
    real space projection operators read in
    PAW grid and wavefunctions read in
 
   number of l-projection  operators is LMAX  =           6
   number of lm-projection operators is LMMAX =          18
 
 POTCAR:    PAW_PBE O 08Apr2002                   
   VRHFIN =O: s2p4                                                              
   LEXCH  = PE                                                                  
   EATOM  =   432.3788 eV,   31.7789 Ry                                         
                                                                                
   TITEL  = PAW_PBE O 08Apr2002                                                 
   LULTRA =        F    use ultrasoft PP ?                                      
   IUNSCR =        1    unscreen: 0-lin 1-nonlin 2-no                           
   RPACOR =    1.200    partial core radius                                     
   POMASS =   16.000; ZVAL   =    6.000    mass and valenz                      
   RCORE  =    1.520    outmost cutoff radius                                   
   RWIGS  =    1.550; RWIGS  =    0.820    wigner-seitz radius (au A)           
   ENMAX  =  400.000; ENMIN  =  300.000 eV                                      
   ICORE  =        2    local potential                                         
   LCOR   =        T    correct aug charges                                     
   LPAW   =        T    paw PP                                                  
   EAUG   =  605.392                                                            
   DEXC   =    0.000                                                            
   RMAX   =    1.553    core radius for proj-oper                               
   RAUG   =    1.300    factor for augmentation sphere                          
   RDEP   =    1.550    radius for radial grids                                 
   RDEPT  =    1.329    core radius for aug-charge                              
                                                                                
   Atomic configuration                                                         
    4 entries                                                                   
     n  l   j            E        occ.                                          
     1  0  0.50      -514.6923   2.0000                                         
     2  0  0.50       -23.9615   2.0000                                         
     2  1  0.50        -9.0305   4.0000                                         
     3  2  1.50        -9.5241   0.0000                                         
   Description                                                                  
     l       E           TYP  RCUT    TYP  RCUT                                 
     0    -23.9615318     23  1.200                                             
     0     -9.5240782     23  1.200                                             
     1     -9.0304911     23  1.520                                             
     1      8.1634956     23  1.520                                             
     2     -9.5240782      7  1.500                                             
  local pseudopotential read in
  partial core-charges read in
  partial kinetic energy density read in
  kinetic energy density of atom read in
  atomic valenz-charges read in
  non local Contribution for L=           0  read in
    real space projection operators read in
  non local Contribution for L=           0  read in
    real space projection operators read in
  non local Contribution for L=           1  read in
    real space projection operators read in
  non local Contribution for L=           1  read in
    real space projection operators read in
    PAW grid and wavefunctions read in
 
   number of l-projection  operators is LMAX  =           4
   number of lm-projection operators is LMMAX =           8
 
 POTCAR:    PAW_PBE H 15Jun2001                   
   VRHFIN =H: ultrasoft test                                                    
   LEXCH  = PE                                                                  
   EATOM  =    12.4884 eV,    0.9179 Ry                                         
                                                                                
   TITEL  = PAW_PBE H 15Jun2001                                                 
   LULTRA =        F    use ultrasoft PP ?                                      
   IUNSCR =        0    unscreen: 0-lin 1-nonlin 2-no                           
   RPACOR =    0.000    partial core radius                                     
   POMASS =    1.000; ZVAL   =    1.000    mass and valenz                      
   RCORE  =    1.100    outmost cutoff radius                                   
   RWIGS  =    0.700; RWIGS  =    0.370    wigner-seitz radius (au A)           
   ENMAX  =  250.000; ENMIN  =  200.000 eV                                      
   RCLOC  =    0.701    cutoff for local pot                                    
   LCOR   =        T    correct aug charges                                     
   LPAW   =        T    paw PP                                                  
   EAUG   =  400.000                                                            
   RMAX   =    1.123    core radius for proj-oper                               
   RAUG   =    1.200    factor for augmentation sphere                          
   RDEP   =    1.112    radius for radial grids                                 
   RDEPT  =    0.926    core radius for aug-charge                              
                                                                                
   Atomic configuration                                                         
    2 entries                                                                   
     n  l   j            E        occ.                                          
     1  0  0.50        -6.4927   1.0000                                         
     2  1  0.50        -3.4015   0.0000                                         
   Description                                                                  
     l       E           TYP  RCUT    TYP  RCUT                                 
     0     -6.4927494     23  1.100                                             
     0      6.8029130     23  1.100                                             
     1     -4.0817478     23  1.100                                             
  local pseudopotential read in
  atomic valenz-charges read in
  non local Contribution for L=           0  read in
    real space projection operators read in
  non local Contribution for L=           0  read in
    real space projection operators read in
  non local Contribution for L=           1  read in
    real space projection operators read in
    PAW grid and wavefunctions read in
 
   number of l-projection  operators is LMAX  =           3
   number of lm-projection operators is LMMAX =           5
 
 Optimization of the real space projectors (new method)

 maximal supplied QI-value         = 16.25
 optimisation between [QCUT,QGAM] = [ 11.54, 23.24] = [ 37.28,151.24] Ry 
 Optimized for a Real-space Cutoff    1.45 Angstroem

   l    n(q)    QCUT    max X(q) W(low)/X(q) W(high)/X(q)  e(spline) 
   2      9    11.539    60.317    0.19E-03    0.47E-04    0.16E-06
   2      9    11.539    55.921    0.19E-03    0.48E-04    0.16E-06
   0     10    11.539    51.690    0.80E-04    0.50E-04    0.24E-06
   0     10    11.539    30.015    0.73E-04    0.45E-04    0.22E-06
   1     10    11.539    18.849    0.87E-04    0.16E-03    0.71E-07
   1     10    11.539    14.624    0.73E-04    0.13E-03    0.64E-07
 Optimization of the real space projectors (new method)

 maximal supplied QI-value         = 16.25
 optimisation between [QCUT,QGAM] = [ 11.54, 23.24] = [ 37.28,151.24] Ry 
 Optimized for a Real-space Cutoff    1.53 Angstroem

   l    n(q)    QCUT    max X(q) W(low)/X(q) W(high)/X(q)  e(spline) 
   2     10    11.539    80.901    0.11E-03    0.14E-03    0.21E-06
   2     10    11.539    75.754    0.11E-03    0.14E-03    0.22E-06
   0     11    11.539    58.752    0.52E-04    0.18E-04    0.33E-06
   0     11    11.539    30.679    0.44E-04    0.16E-04    0.30E-06
   1     10    11.539    17.977    0.53E-04    0.29E-04    0.13E-06
   1     10    11.539    13.559    0.44E-04    0.25E-04    0.11E-06
 Optimization of the real space projectors (new method)

 maximal supplied QI-value         = 24.76
 optimisation between [QCUT,QGAM] = [ 11.64, 23.27] = [ 37.91,151.63] Ry 
 Optimized for a Real-space Cutoff    1.14 Angstroem

   l    n(q)    QCUT    max X(q) W(low)/X(q) W(high)/X(q)  e(spline) 
   0      8    11.635    20.381    0.10E-03    0.33E-03    0.24E-06
   0      8    11.635    15.268    0.11E-03    0.35E-03    0.26E-06
   1      7    11.635     5.964    0.24E-03    0.31E-03    0.30E-06
   1      7    11.635     5.382    0.22E-03    0.25E-03    0.26E-06
 Optimization of the real space projectors (new method)

 maximal supplied QI-value         = 34.20
 optimisation between [QCUT,QGAM] = [ 11.63, 23.26] = [ 37.87,151.49] Ry 
 Optimized for a Real-space Cutoff    1.21 Angstroem

   l    n(q)    QCUT    max X(q) W(low)/X(q) W(high)/X(q)  e(spline) 
   0      8    11.629    19.460    0.17E-03    0.34E-03    0.21E-06
   0      8    11.629    12.209    0.16E-03    0.33E-03    0.21E-06
   1      8    11.629     4.655    0.18E-03    0.16E-03    0.26E-06
  PAW_PBE Ni 02Aug2007                  :
 energy of atom  1       EATOM=-1077.6739
 kinetic energy error for atom=    0.0030 (will be added to EATOM!!)
  PAW_PBE Fe 06Sep2000                  :
 energy of atom  2       EATOM= -594.3153
 kinetic energy error for atom=    0.0026 (will be added to EATOM!!)
  PAW_PBE O 08Apr2002                   :
 energy of atom  3       EATOM= -432.3788
 kinetic energy error for atom=    0.0208 (will be added to EATOM!!)
  PAW_PBE H 15Jun2001                   :
 energy of atom  4       EATOM=  -12.4884
 kinetic energy error for atom=    0.0014 (will be added to EATOM!!)
 
 
 POSCAR: POSCAR                                  
  positions in direct lattice
  velocities in cartesian coordinates
 exchange correlation table for  LEXCH =        8
   RHO(1)=    0.500       N(1)  =     2000
   RHO(2)=  100.500       N(2)  =     4000

 VTST: version 3.2, (02/03/18)

 CHAIN: initializing optimizer
 
 OPT: Using VASP Conjugate-Gradient optimizer
 CHAIN: Read ICHAIN            0
 
 POSCAR: POSCAR                                  
  positions in direct lattice
  velocities in cartesian coordinates
 


--------------------------------------------------------------------------------------------------------


 ion  position               nearest neighbor table
   1  0.999  0.001  0.287-  41 2.45  18 2.47  50 2.47  47 2.48  49 2.48   5 2.49   8 2.49  33 2.50
                             2 2.51   4 2.51  26 2.51   6 2.53
   2  0.249  0.001  0.285-  51 2.45  44 2.45  11 2.45  50 2.47  41 2.50   9 2.50   1 2.51  26 2.51
                             3 2.51   6 2.51  27 2.52  43 2.55
   3  0.498  0.999  0.287-  64 2.46  14 2.46  43 2.46  51 2.46  17 2.48  45 2.49  27 2.50   4 2.51
                             2 2.51   9 2.51  30 2.52  12 2.53
   4  0.748  0.999  0.286-  16 2.44  48 2.45  17 2.46  18 2.48  30 2.49  64 2.50   3 2.51   1 2.51
                             5 2.51  47 2.52  33 2.53  12 2.53
   5  0.999  0.249  0.287-  60 2.43  16 2.43  22 2.48  18 2.48   1 2.49  52 2.51   6 2.51  19 2.51
                             4 2.51  21 2.52  12 2.52   8 2.53
   6  0.252  0.253  0.287-  11 2.41  56 2.47  52 2.48  22 2.48   9 2.50   5 2.51   2 2.51  50 2.52
                             1 2.53  53 2.53   8 2.54  55 2.55
   7  0.083  0.166  0.096-  50 2.47  15 2.50  40 2.50  18 2.50  54 2.50  10 2.50  46 2.51  22 2.51
                            20 2.51
   8  0.080  0.161  0.385-  67 1.85  47 2.42  41 2.43   1 2.49  11 2.50  16 2.51   5 2.53   6 2.54
                            21 2.56  55 2.57
   9  0.499  0.250  0.286-  59 2.44  11 2.44  56 2.45   6 2.50  53 2.50  51 2.50   2 2.50  12 2.50
                             3 2.51  14 2.53  23 2.54  25 2.54
  10  0.333  0.167  0.096-  13 2.50  56 2.50   7 2.50  24 2.51  40 2.51  42 2.51  50 2.51  54 2.52
                            51 2.52
  11  0.332  0.166  0.379-   6 2.41   9 2.44   2 2.45  41 2.48  55 2.49  25 2.49   8 2.50  14 2.51
                            43 2.52
  12  0.750  0.252  0.288-  16 2.43  59 2.44  60 2.46  58 2.47  23 2.50  17 2.50   9 2.50  19 2.51
                            14 2.51   5 2.52   3 2.53   4 2.53
  13  0.582  0.167  0.097-  51 2.48  24 2.49  42 2.50  17 2.50  10 2.50  63 2.52  59 2.52  57 2.52
                            15 2.53
  14  0.578  0.159  0.384-  65 1.84  43 2.42  64 2.42   3 2.46  11 2.51  12 2.51  16 2.52   9 2.53
                            58 2.58  25 2.59
  15  0.834  0.167  0.096-  20 2.49  60 2.49  18 2.49  46 2.49   7 2.50  17 2.51  63 2.51  57 2.53
                            13 2.53
  16  0.832  0.164  0.379-  12 2.43   5 2.43   4 2.44  47 2.48  58 2.49  64 2.50   8 2.51  21 2.52
                            14 2.52
  17  0.666  0.083  0.193-   4 2.46  60 2.47  51 2.48   3 2.48  59 2.49  13 2.50  12 2.50  45 2.50
                            48 2.51  15 2.51  63 2.51  18 2.52
  18  0.916  0.082  0.192-  50 2.46   1 2.47  60 2.47   4 2.48   5 2.48  46 2.48  15 2.49  49 2.50
                            48 2.50   7 2.50  22 2.51  17 2.52
  19  0.002  0.501  0.286-  29 2.46  60 2.47  39 2.49  27 2.49  52 2.49  21 2.50  61 2.51  23 2.51
                            12 2.51   5 2.51  58 2.52  26 2.52
  20  0.081  0.416  0.096-  61 2.48  15 2.49  57 2.49  22 2.50  54 2.51  28 2.51   7 2.51  31 2.52
                            60 2.53
  21  0.080  0.417  0.384-  67 1.85  58 2.43  29 2.45  19 2.50  32 2.51  52 2.51  16 2.52   5 2.52
                             8 2.56  55 2.57
  22  0.166  0.334  0.192-  52 2.48   5 2.48   6 2.48  60 2.49  54 2.49  36 2.50  20 2.50  50 2.50
                             7 2.51  18 2.51  56 2.52  61 2.54
  23  0.753  0.503  0.289-  33 2.46  53 2.47  26 2.48  59 2.49  12 2.50  58 2.51  19 2.51  39 2.52
                             9 2.54  25 2.54  62 2.56  38 2.57
  24  0.584  0.416  0.096-  13 2.49  62 2.49  57 2.50  10 2.51  56 2.51  34 2.51  37 2.52  54 2.53
                            59 2.54
  25  0.578  0.417  0.385-  65 1.88  55 2.42  53 2.45  35 2.46  11 2.49   9 2.54  23 2.54  38 2.55
                            14 2.59  58 2.60
  26  1.000  0.751  0.287-  33 2.46  49 2.46  23 2.48  44 2.49  41 2.49  29 2.49  39 2.50   2 2.51
                            27 2.51   1 2.51  19 2.52  38 2.60
  27  0.249  0.750  0.285-  45 2.45  32 2.46  61 2.46  44 2.46  29 2.49  19 2.49   3 2.50  26 2.51
                            52 2.52   2 2.52  30 2.53  43 2.54
  28  0.084  0.668  0.095-  61 2.47  39 2.50  40 2.50  37 2.50  31 2.50  42 2.50  57 2.51  44 2.51
                            20 2.51
  29  0.084  0.663  0.381-  66 1.87  21 2.45  19 2.46  32 2.47  27 2.49  58 2.49  26 2.49  38 2.52
                            43 2.54  41 2.59
  30  0.501  0.749  0.287-  32 2.44  48 2.46  45 2.47   4 2.49  53 2.50  36 2.50  64 2.50   3 2.52
                            52 2.52  35 2.53  27 2.53  33 2.53
  31  0.333  0.667  0.094-  61 2.47  42 2.50  54 2.50  28 2.50  63 2.50  34 2.51  36 2.52  45 2.52
                            20 2.52
  32  0.332  0.665  0.378-  52 2.41  30 2.44  27 2.46  29 2.47  35 2.49  21 2.51  64 2.51  43 2.51
                            55 2.52
  33  0.753  0.749  0.288-  26 2.46  53 2.46  23 2.46  49 2.48  62 2.50   1 2.50  47 2.51  48 2.51
                            30 2.53   4 2.53  35 2.55  38 2.57
  34  0.583  0.667  0.095-  62 2.47  36 2.50  63 2.50  46 2.51  31 2.51  37 2.51  54 2.51  24 2.51
                            48 2.53
  35  0.578  0.661  0.385-  68 1.88  55 2.44  53 2.45  25 2.46  32 2.49  30 2.53  33 2.55  38 2.55
                            64 2.56  47 2.60
  36  0.417  0.582  0.191-  54 2.47  30 2.50  22 2.50  34 2.50  62 2.50  45 2.51  56 2.51  48 2.51
                            52 2.51  61 2.51  31 2.52  53 2.55
  37  0.834  0.668  0.095-  62 2.47  40 2.50  57 2.50  39 2.50  28 2.50  46 2.51  49 2.51  34 2.51
                            24 2.52
  38  0.836  0.668  0.389-  69 1.84  41 2.52  29 2.52  47 2.52  58 2.54  35 2.55  25 2.55  23 2.57
                            33 2.57  26 2.60
  39  0.917  0.583  0.191-  19 2.49  57 2.49  28 2.50  37 2.50  26 2.50  61 2.50  49 2.51  59 2.51
                            62 2.51  44 2.51  23 2.52  60 2.56
  40  0.083  0.917  0.095-  50 2.49  44 2.49  37 2.50  28 2.50   7 2.50  10 2.51  49 2.51  46 2.51
                            42 2.52
  41  0.083  0.921  0.381-  66 1.87   8 2.43   1 2.45  47 2.46  11 2.48  26 2.49   2 2.50  38 2.52
                            43 2.55  29 2.59
  42  0.334  0.917  0.095-  51 2.48  13 2.50  63 2.50  31 2.50  44 2.50  28 2.50  10 2.51  45 2.51
                            40 2.52
  43  0.336  0.918  0.383-  66 1.86  14 2.42  64 2.44   3 2.46  32 2.51  11 2.52  27 2.54  29 2.54
                             2 2.55  41 2.55
  44  0.167  0.835  0.191-   2 2.45  27 2.46  51 2.47  26 2.49  61 2.49  49 2.49  40 2.49  42 2.50
                            50 2.50  28 2.51  39 2.51  45 2.53
  45  0.417  0.832  0.192-  27 2.45  61 2.47  51 2.47  30 2.47   3 2.49  48 2.49  63 2.50  17 2.50
                            36 2.51  42 2.51  31 2.52  44 2.53
  46  0.832  0.917  0.096-  18 2.48  48 2.49  15 2.49  63 2.50  49 2.50   7 2.51  34 2.51  37 2.51
                            40 2.51
  47  0.838  0.920  0.383-  68 1.86   8 2.42  41 2.46   1 2.48  16 2.48  33 2.51   4 2.52  38 2.52
                            64 2.57  35 2.60
  48  0.666  0.833  0.192-   4 2.45  30 2.46  62 2.47  45 2.49  46 2.49  18 2.50  63 2.50  17 2.51
                            36 2.51  33 2.51  49 2.52  34 2.53
  49  0.917  0.833  0.192-  26 2.46  62 2.46  50 2.47  33 2.48   1 2.48  44 2.49  18 2.50  46 2.50
                            39 2.51  40 2.51  37 2.51  48 2.52
  50  0.162  0.082  0.191-  18 2.46   2 2.47   1 2.47   7 2.47  49 2.47  40 2.49  44 2.50  22 2.50
                            10 2.51   6 2.52  56 2.53  51 2.57
  51  0.416  0.078  0.192-   2 2.45   3 2.46  44 2.47  45 2.47  42 2.48  17 2.48  13 2.48   9 2.50
                            10 2.52  59 2.54  56 2.54  50 2.57
  52  0.249  0.499  0.288-  32 2.41   6 2.48  22 2.48  19 2.49   5 2.51  21 2.51  36 2.51  27 2.52
                            30 2.52  61 2.55  53 2.56  55 2.57
  53  0.507  0.503  0.289-  35 2.45  25 2.45  33 2.46  23 2.47  30 2.50   9 2.50   6 2.53  56 2.54
                            62 2.54  55 2.54  36 2.55  52 2.56
  54  0.331  0.417  0.096-  36 2.47  22 2.49  31 2.50   7 2.50  20 2.51  34 2.51  10 2.52  56 2.53
                            24 2.53
  55  0.337  0.417  0.387-  67 1.84  25 2.42  35 2.44  11 2.49  32 2.52  53 2.54   6 2.55   8 2.57
                            52 2.57  21 2.57
  56  0.416  0.331  0.193-   9 2.45   6 2.47  10 2.50  24 2.51  36 2.51  59 2.51  22 2.52  50 2.53
                            54 2.53  53 2.54  51 2.54  62 2.56
  57  0.834  0.418  0.094-  20 2.49  39 2.49  24 2.50  37 2.50  28 2.51  13 2.52  15 2.53  59 2.56
                            60 2.59
  58  0.837  0.415  0.384-  65 1.83  21 2.43  12 2.47  29 2.49  16 2.49  23 2.51  19 2.52  38 2.54
                            14 2.58  25 2.60
  59  0.667  0.332  0.194-   9 2.44  12 2.44  23 2.49  17 2.49  60 2.51  39 2.51  56 2.51  13 2.52
                            51 2.54  24 2.54  57 2.56  62 2.57
  60  0.914  0.327  0.194-   5 2.43  12 2.46  19 2.47  18 2.47  17 2.47  22 2.49  15 2.49  59 2.51
                            20 2.53  39 2.56  57 2.59  61 2.59
  61  0.169  0.588  0.189-  27 2.46  45 2.47  28 2.47  31 2.47  20 2.48  44 2.49  39 2.50  19 2.51
                            36 2.51  22 2.54  52 2.55  60 2.59
  62  0.670  0.589  0.190-  49 2.46  48 2.47  37 2.47  34 2.47  24 2.49  33 2.50  36 2.50  39 2.51
                            53 2.54  23 2.56  56 2.56  59 2.57
  63  0.583  0.917  0.096-  46 2.50  45 2.50  42 2.50  48 2.50  31 2.50  34 2.50  17 2.51  15 2.51
                            13 2.52
  64  0.580  0.918  0.382-  68 1.82  14 2.42  43 2.44   3 2.46  16 2.50  30 2.50   4 2.50  32 2.51
                            35 2.56  47 2.57
  65  0.668  0.328  0.436-  58 1.83  14 1.84  25 1.88
  66  0.164  0.832  0.435-  43 1.86  29 1.87  41 1.87
  67  0.163  0.332  0.437-  55 1.84   8 1.85  21 1.85
  68  0.666  0.839  0.435-  64 1.82  47 1.86  35 1.88
  69  0.823  0.656  0.476-  70 1.39  38 1.84
  70  0.943  0.729  0.519-  71 1.02  69 1.39
  71  0.040  0.777  0.492-  70 1.02
 

IMPORTANT INFORMATION: All symmetrisations will be switched off!
NOSYMM: (Re-)initialisation of all symmetry stuff for point group C_1.

 
 

Automatic generation of k-mesh.
 generate k-points for:    3    3    1
Space group operators:
 irot       det(A)        alpha          n_x          n_y          n_z        tau_x        tau_y        tau_z
    1     1.000000     0.000000     1.000000     0.000000     0.000000     0.000000     0.000000     0.000000
 
 Subroutine IBZKPT returns following result:
 ===========================================
 
 Found      5 irreducible k-points:
 
 Following reciprocal coordinates:
            Coordinates               Weight
  0.000000  0.000000  0.000000      1.000000
  0.333333  0.000000  0.000000      2.000000
  0.000000  0.333333  0.000000      2.000000
  0.333333  0.333333  0.000000      2.000000
 -0.333333  0.333333  0.000000      2.000000
 
 Following cartesian coordinates:
            Coordinates               Weight
  0.000000  0.000000  0.000000      1.000000
  0.033244  0.019194  0.000000      2.000000
  0.000000  0.038387  0.000000      2.000000
  0.033244  0.057581  0.000000      2.000000
 -0.033244  0.019194  0.000000      2.000000
 


--------------------------------------------------------------------------------------------------------




 Dimension of arrays:
   k-points           NKPTS =      5   k-points in BZ     NKDIM =      5   number of bands    NBANDS=    426
   number of dos      NEDOS =    301   number of ions     NIONS =     71
   non local maximal  LDIM  =      6   non local SUM 2l+1 LMDIM =     18
   total plane-waves  NPLWV = ******
   max r-space proj   IRMAX =   8439   max aug-charges    IRDMAX=  19969
   dimension x,y,z NGX =    80 NGY =   80 NGZ =  160
   dimension x,y,z NGXF=   160 NGYF=  160 NGZF=  320
   support grid    NGXF=   160 NGYF=  160 NGZF=  320
   ions per type =              49  15   6   1
   NGX,Y,Z   is equivalent  to a cutoff of  13.26, 13.26, 12.55 a.u.
   NGXF,Y,Z  is equivalent  to a cutoff of  26.53, 26.53, 25.11 a.u.

 SYSTEM =  SQS-NiFe                                
 POSCAR =  POSCAR                                  

 Startparameter for this run:
   NWRITE =      2    write-flag & timer
   PREC   = accura    normal or accurate (medium, high low for compatibility)
   ISTART =      1    job   : 0-new  1-cont  2-samecut
   ICHARG =      1    charge: 1-file 2-atom 10-const
   ISPIN  =      2    spin polarized calculation?
   LNONCOLLINEAR =      F non collinear calculations
   LSORBIT =      F    spin-orbit coupling
   INIWAV =      1    electr: 0-lowe 1-rand  2-diag
   LASPH  =      F    aspherical Exc in radial PAW
   METAGGA=      F    non-selfconsistent MetaGGA calc.

 Electronic Relaxation 1
   ENCUT  =  520.0 eV  38.22 Ry    6.18 a.u.  18.64 18.64 39.40*2*pi/ulx,y,z
   ENINI  =  520.0     initial cutoff
   ENAUG  =  605.4 eV  augmentation charge cutoff
   NELM   =    200;   NELMIN=  2; NELMDL=  0     # of ELM steps 
   EDIFF  = 0.1E-04   stopping-criterion for ELM
   LREAL  =      T    real-space projection
   NLSPLINE    = F    spline interpolate recip. space projectors
   LCOMPAT=      F    compatible to vasp.4.4
   GGA_COMPAT  = T    GGA compatible to vasp.4.4-vasp.4.6
   LMAXPAW     = -100 max onsite density
   LMAXMIX     =    2 max onsite mixed and CHGCAR
   VOSKOWN=      0    Vosko Wilk Nusair interpolation
   ROPT   =   -0.00025  -0.00025  -0.00025  -0.00025
 Ionic relaxation
   EDIFFG = -.5E-01   stopping-criterion for IOM
   NSW    =     99    number of steps for IOM
   NBLOCK =      1;   KBLOCK =     99    inner block; outer block 
   IBRION =      2    ionic relax: 0-MD 1-quasi-New 2-CG
   NFREE  =      1    steps in history (QN), initial steepest desc. (CG)
   ISIF   =      2    stress and relaxation
   IWAVPR =     11    prediction:  0-non 1-charg 2-wave 3-comb
   ISYM   =      0    0-nonsym 1-usesym 2-fastsym
   LCORR  =      T    Harris-Foulkes like correction to forces

   POTIM  = 0.5000    time-step for ionic-motion
   TEIN   =    0.0    initial temperature
   TEBEG  =    0.0;   TEEND  =   0.0 temperature during run
   SMASS  =  -3.00    Nose mass-parameter (am)
   estimated Nose-frequenzy (Omega)   =  0.10E-29 period in steps =****** mass=  -0.230E-26a.u.
   SCALEE = 1.0000    scale energy and forces
   NPACO  =    256;   APACO  = 16.0  distance and # of slots for P.C.
   PSTRESS=    0.0 pullay stress

  Mass of Ions in am
   POMASS =  58.69 55.85 16.00  1.00
  Ionic Valenz
   ZVAL   =  10.00  8.00  6.00  1.00
  Atomic Wigner-Seitz radii
   RWIGS  =  -1.00 -1.00 -1.00 -1.00
  virtual crystal weights 
   VCA    =   1.00  1.00  1.00  1.00
   NELECT =     647.0000    total number of electrons
   NUPDOWN=      -1.0000    fix difference up-down

 DOS related values:
   EMIN   =  10.00;   EMAX   =-10.00  energy-range for DOS
   EFERMI =   0.00
   ISMEAR =     1;   SIGMA  =   0.20  broadening in eV -4-tet -1-fermi 0-gaus

 Electronic relaxation 2 (details)
   IALGO  =     68    algorithm
   LDIAG  =      T    sub-space diagonalisation (order eigenvalues)
   LSUBROT=      F    optimize rotation matrix (better conditioning)
   TURBO    =      0    0=normal 1=particle mesh
   IRESTART =      0    0=no restart 2=restart with 2 vectors
   NREBOOT  =      0    no. of reboots
   NMIN     =      0    reboot dimension
   EREF     =   0.00    reference energy to select bands
   IMIX   =      4    mixing-type and parameters
     AMIX     =   0.40;   BMIX     =  1.00
     AMIX_MAG =   1.60;   BMIX_MAG =  1.00
     AMIN     =   0.10
     WC   =   100.;   INIMIX=   1;  MIXPRE=   1;  MAXMIX= -45

 Intra band minimization:
   WEIMIN = 0.0010     energy-eigenvalue tresh-hold
   EBREAK =  0.59E-08  absolut break condition
   DEPER  =   0.30     relativ break condition  

   TIME   =   0.40     timestep for ELM

  volume/ion in A,a.u.               =      25.98       175.35
  Fermi-wavevector in a.u.,A,eV,Ry     =   1.154482  2.181655 18.134246  1.332829
  Thomas-Fermi vector in A             =   2.291118
 
 Write flags
   LWAVE        =      T    write WAVECAR
   LDOWNSAMPLE  =      F    k-point downsampling of WAVECAR
   LCHARG       =      T    write CHGCAR
   LVTOT        =      F    write LOCPOT, total local potential
   LVHAR        =      F    write LOCPOT, Hartree potential only
   LELF         =      F    write electronic localiz. function (ELF)
   LORBIT       =     10    0 simple, 1 ext, 2 COOP (PROOUT), +10 PAW based schemes


 Dipole corrections
   LMONO  =      F    monopole corrections only (constant potential shift)
   LDIPOL =      T    correct potential (dipole corrections)
   IDIPOL =      3    1-x, 2-y, 3-z, 4-all directions 
   EPSILON=  1.0000000 bulk dielectric constant

 Exchange correlation treatment:
   GGA     =    --    GGA type
   LEXCH   =     8    internal setting for exchange type
   VOSKOWN=      0    Vosko Wilk Nusair interpolation
   LHFCALC =     F    Hartree Fock is set to
   LHFONE  =     F    Hartree Fock one center treatment
   AEXX    =    0.0000 exact exchange contribution

 Linear response parameters
   LEPSILON=     F    determine dielectric tensor
   LRPA    =     F    only Hartree local field effects (RPA)
   LNABLA  =     F    use nabla operator in PAW spheres
   LVEL    =     F    velocity operator in full k-point grid
   LINTERFAST=   F  fast interpolation
   KINTER  =     0    interpolate to denser k-point grid
   CSHIFT  =0.1000    complex shift for real part using Kramers Kronig
   OMEGAMAX=  -1.0    maximum frequency
   DEG_THRESHOLD= 0.2000000E-02 threshold for treating states as degnerate
   RTIME   =   -0.100 relaxation time in fs
  (WPLASMAI=    0.000 imaginary part of plasma frequency in eV, 0.658/RTIME)
   DFIELD  = 0.0000000 0.0000000 0.0000000 field for delta impulse in time
 
 Orbital magnetization related:
   ORBITALMAG=     F  switch on orbital magnetization
   LCHIMAG   =     F  perturbation theory with respect to B field
   DQ        =  0.001000  dq finite difference perturbation B field
   LLRAUG    =     F  two centre corrections for induced B field



--------------------------------------------------------------------------------------------------------


 conjugate gradient relaxation of ions
   using selective dynamics as specified on POSCAR
 charge density and potential will be updated during run
 spin polarized calculation
 RMM-DIIS sequential band-by-band and
  variant of blocked Davidson during initial phase
 perform sub-space diagonalisation
    before iterative eigenvector-optimisation
 modified Broyden-mixing scheme, WC =      100.0
 initial mixing is a Kerker type mixing with AMIX =  0.4000 and BMIX =      1.0000
 Hartree-type preconditioning will be used
 using additional bands          102
 real space projection scheme for non local part
 use partial core corrections
 calculate Harris-corrections to forces 
   (improved forces if not selfconsistent)
 use gradient corrections 
 use of overlap-Matrix (Vanderbilt PP)
 Methfessel and Paxton  Order N= 1 SIGMA  =   0.20


--------------------------------------------------------------------------------------------------------


  energy-cutoff  :      520.00
  volume of cell :     1844.87
      direct lattice vectors                 reciprocal lattice vectors
    10.026770000  0.000000000  0.000000000     0.099733015  0.057580883  0.000000000
    -5.013385000  8.683437540  0.000000000     0.000000000  0.115161766  0.000000000
     0.000000000  0.000000000 21.189180000     0.000000000  0.000000000  0.047193898

  length of vectors
    10.026770000 10.026770002 21.189180000     0.115161766  0.115161766  0.047193898


 
 old parameters found on file WAVECAR:
  energy-cutoff  :      520.00
  volume of cell :     1844.87
      direct lattice vectors                 reciprocal lattice vectors
    10.026770000  0.000000000  0.000000000     0.099733015  0.057580883  0.000000000
    -5.013385000  8.683437540  0.000000000     0.000000000  0.115161766  0.000000000
     0.000000000  0.000000000 21.189180000     0.000000000  0.000000000  0.047193898

  length of vectors

 
 k-points in units of 2pi/SCALE and weight: read from INCAR                         
   0.00000000  0.00000000  0.00000000       0.111
   0.03324434  0.01919363  0.00000000       0.222
   0.00000000  0.03838726  0.00000000       0.222
   0.03324434  0.05758088  0.00000000       0.222
  -0.03324434  0.01919363  0.00000000       0.222
 
 k-points in reciprocal lattice and weights: read from INCAR                         
   0.00000000  0.00000000  0.00000000       0.111
   0.33333333  0.00000000  0.00000000       0.222
   0.00000000  0.33333333  0.00000000       0.222
   0.33333333  0.33333333  0.00000000       0.222
  -0.33333333  0.33333333  0.00000000       0.222
 
 position of ions in fractional coordinates (direct lattice) 
   0.99933243  0.00092129  0.28703888
   0.24921865  0.00105239  0.28489020
   0.49833683  0.99925155  0.28745305
   0.74800881  0.99853103  0.28634840
   0.99935971  0.24882335  0.28699956
   0.25174264  0.25289562  0.28736660
   0.08288200  0.16633200  0.09567600
   0.07995570  0.16116711  0.38461620
   0.49938930  0.25027320  0.28646283
   0.33293900  0.16685800  0.09574200
   0.33158986  0.16645047  0.37866850
   0.74997785  0.25201048  0.28815376
   0.58230700  0.16720100  0.09670300
   0.57795097  0.15853867  0.38353365
   0.83403200  0.16672400  0.09645100
   0.83190934  0.16426436  0.37909899
   0.66558100  0.08305500  0.19258300
   0.91639700  0.08203100  0.19204900
   0.00189746  0.50073172  0.28597696
   0.08092200  0.41609700  0.09594800
   0.08033596  0.41710515  0.38365840
   0.16611800  0.33395200  0.19207500
   0.75271186  0.50276002  0.28859096
   0.58357300  0.41617200  0.09593300
   0.57828751  0.41654606  0.38498616
   0.99966241  0.75085315  0.28676701
   0.24931718  0.74980407  0.28492439
   0.08375800  0.66810400  0.09479700
   0.08442364  0.66326148  0.38082864
   0.50118622  0.74941730  0.28669529
   0.33297400  0.66727700  0.09438800
   0.33198778  0.66534174  0.37838623
   0.75289106  0.74863937  0.28799070
   0.58298100  0.66668200  0.09450900
   0.57831234  0.66149592  0.38481887
   0.41661000  0.58200200  0.19081700
   0.83395900  0.66770600  0.09497900
   0.83586580  0.66792731  0.38926325
   0.91708300  0.58323900  0.19079400
   0.08291700  0.91685800  0.09518600
   0.08340581  0.92102949  0.38126085
   0.33420600  0.91705400  0.09538200
   0.33629625  0.91796348  0.38284542
   0.16670900  0.83524200  0.19136500
   0.41703500  0.83214900  0.19205900
   0.83233100  0.91715000  0.09633700
   0.83806298  0.92048112  0.38339274
   0.66623900  0.83337000  0.19234100
   0.91705900  0.83319500  0.19216200
   0.16168500  0.08211500  0.19130600
   0.41607500  0.07807100  0.19177300
   0.24935542  0.49861898  0.28756932
   0.50671988  0.50331912  0.28939115
   0.33134100  0.41714300  0.09577600
   0.33677523  0.41677577  0.38710555
   0.41638400  0.33144300  0.19252200
   0.83354800  0.41839000  0.09448800
   0.83662126  0.41516599  0.38367793
   0.66732400  0.33240600  0.19435500
   0.91446400  0.32695500  0.19396500
   0.16914200  0.58833400  0.18947800
   0.66961600  0.58928900  0.18986000
   0.58310400  0.91651500  0.09583500
   0.58001327  0.91777124  0.38240707
   0.66797121  0.32836849  0.43554373
   0.16448783  0.83224413  0.43531327
   0.16347123  0.33159387  0.43728142
   0.66609138  0.83913607  0.43535677
   0.82267571  0.65571868  0.47592804
   0.94258494  0.72923095  0.51879686
   0.03980258  0.77721353  0.49182970
 
 position of ions in cartesian coordinates  (Angst):
  10.01545765  0.00800000  6.08211858
   2.49358203  0.00913840  6.03658963
  -0.01292398  8.67693843  6.09089445
   2.49409182  8.67068184  6.06748785
   8.77290278  2.16064198  6.08128544
   1.25630246  2.19600328  6.08906270
  -0.00284760  1.44433353  2.02729599
  -0.00629535  1.39948457  8.14970186
   3.75254579  2.17323168  6.06991249
   2.50177938  1.44890102  2.02869447
   2.49029497  1.44536222  8.02367504
   6.25642988  2.18831725  6.10574180
   5.00041537  1.45187944  2.04905727
   5.00016607  1.37666063  8.12676360
   7.52679544  1.44773744  2.04371760
   7.51784310  1.42637933  8.03279676
   6.25724091  0.72120290  4.08067585
   8.77724896  0.71231106  4.06936083
  -2.49133554  4.34807265  6.05961732
  -1.27466818  3.61315231  2.03305944
  -1.28559848  3.62190654  8.12940698
  -0.00860297  2.89985133  4.06991175
   5.02673914  4.36568523  6.11500577
   3.76492179  3.61380357  2.03274160
   3.71005011  3.61705169  8.15754101
   6.25906914  6.51998645  6.07635780
  -1.25921048  6.51087677  6.03731416
  -2.50964037  5.80143935  2.00867070
  -2.47868872  5.75938966  8.06944660
   1.26816155  6.50751828  6.07483810
  -0.00666279  5.79425815  2.00000432
  -0.00684924  5.77745346  8.01769402
   3.79584810  6.50076322  6.10228687
   2.50308286  5.78909151  2.00256821
   2.48227107  5.74405853  8.15399626
   1.25945255  5.05377802  4.04325576
   5.01444784  5.79798335  2.01252713
   5.03245737  5.79990507  8.24816904
   6.27137866  5.06451943  4.04276841
  -3.76517246  7.96147918  2.01691329
  -3.78118459  7.99770208  8.07860472
  -1.24653807  7.96318113  2.02106637
  -1.23013913  7.97107850  8.11218049
  -2.51583691  7.25277174  4.05486743
   0.00963071  7.22591387  4.06957272
   3.74756545  7.96401474  2.04130203
   3.78833857  7.99294028  8.12377782
   2.50222056  7.23651634  4.07554807
   5.01801235  7.23499674  4.07175521
   1.20950420  0.71304047  4.05361727
   3.78048835  0.67792465  4.06351262
   0.00046058  4.32972674  6.09335811
   2.55743120  4.37054016  6.13196120
   1.23098154  3.62223519  2.02941490
   1.28731034  3.61904639  8.20244913
   2.51333524  2.87806459  4.07938331
   6.26024393  3.63306343  2.00212324
   6.30722200  3.60506794  8.12982065
   5.02462501  2.88642674  4.11822308
   7.52996891  2.83909332  4.10995930
  -1.25359692  5.10876154  4.01488345
   3.75975299  5.11705422  4.02297771
   1.25180714  7.95850076  2.03066507
   1.21451911  7.96940925  8.10289217
   5.05135597  2.85136730  9.22881447
  -2.52307862  7.22673994  9.22393116
  -0.02331927  2.87937467  9.26563470
   2.47183292  7.28658562  9.22485298
   4.96140991  5.69389222 10.08452490
   5.79516692  6.33223141 10.99288013
  -3.49737928  6.74888510 10.42146815
 


--------------------------------------------------------------------------------------------------------


 k-point  1 :   0.0000 0.0000 0.0000  plane waves:   49741
 k-point  2 :   0.3333 0.0000 0.0000  plane waves:   49680
 k-point  3 :   0.0000 0.3333 0.0000  plane waves:   49680
 k-point  4 :   0.3333 0.3333 0.0000  plane waves:   49662
 k-point  5 :  -0.3333 0.3333 0.0000  plane waves:   49680

 maximum and minimum number of plane-waves per node :      2099     2053

 maximum number of plane-waves:     49741
 maximum index in each direction: 
   IXMAX=   18   IYMAX=   18   IZMAX=   39
   IXMIN=  -18   IYMIN=  -18   IZMIN=  -39


 real space projection operators:
  total allocation   :      65527.51 KBytes
  max/ min on nodes  :       3314.80       2407.34


 parallel 3D FFT for wavefunctions:
    minimum data exchange during FFTs selected (reduces bandwidth)
 parallel 3D FFT for charge:
    minimum data exchange during FFTs selected (reduces bandwidth)


 total amount of memory used by VASP MPI-rank0   118019. kBytes
=======================================================================

   base      :      30000. kBytes
   nonlr-proj:      14203. kBytes
   fftplans  :       6402. kBytes
   grid      :      18928. kBytes
   one-center:         93. kBytes
   wavefun   :      48393. kBytes
 
     INWAV:  cpu time   11.3477: real time   11.7420
 Broyden mixing: mesh for mixing (old mesh)
   NGX = 37   NGY = 37   NGZ = 79
  (NGX  =160   NGY  =160   NGZ  =320)
  gives a total of 108151 points

 initial charge density was supplied:
 number of electron     647.0000031 magnetization      74.3788395
 keeping initial charge density in first step


--------------------------------------------------------------------------------------------------------


 Maximum index for non-local projection operator          764
 Maximum index for augmentation-charges         1117 (set IRDMAX)


--------------------------------------------------------------------------------------------------------


 First call to EWALD:  gamma=   0.145
 Maximum number of real-space cells 4x 4x 2
 Maximum number of reciprocal cells 2x 2x 4

    FEWALD:  cpu time    0.0037: real time    0.0037


--------------------------------------- Iteration      1(   1)  ---------------------------------------


    POTLOK:  cpu time    0.4251: real time    0.4361
    SETDIJ:  cpu time    0.0258: real time    0.0258
     EDDAV:  cpu time   45.7912: real time   45.8014
       DOS:  cpu time    0.0082: real time    0.0082
    CHARGE:  cpu time    1.3728: real time    1.3728
    MIXING:  cpu time    0.0065: real time    0.0066
    --------------------------------------------
      LOOP:  cpu time   47.6296: real time   47.6511

 eigenvalue-minimisations  :  9168
 total energy-change (2. order) :-0.4035542E+03  (-0.1580282E+03)
 number of electron     647.0000031 magnetization      74.2581173
 augmentation part      370.1361848 magnetization      63.8961563

 DIPCOR: dipole corrections for dipol
 direction  3 min pos   242,
 dipolmoment           0.000000      0.000000      0.459654 electrons x Angstroem
 Tr[quadrupol]    -10449.087328

 energy correction for charged system         0.000000 eV
 dipol+quadrupol energy correction           -0.010362 eV
 added-field ion interaction          0.364683 eV  (added to PSCEN)


 Broyden mixing:
  rms(total) = 0.74372E+00    rms(broyden)= 0.74368E+00
  rms(prec ) = 0.75079E+00
  weight for this iteration     100.00

 Free energy of the ion-electron system (eV)
  ---------------------------------------------------
  alpha Z        PSCENC =      1380.80046372
  Ewald energy   TEWEN  =    220073.00583205
  -Hartree energ DENC   =   -282850.81660581
  -exchange      EXHF   =         0.00000000
  -V(xc)+E(xc)   XCENC  =      1739.93790488
  PAW double counting   =     68944.73712434   -72452.39580566
  entropy T*S    EENTRO =         0.05389013
  eigenvalues    EBANDS =     -1566.07719529
  atomic energy  EATOM  =     64327.20015129
  Solvation  Ediel_sol  =         0.00000000
  ---------------------------------------------------
  free energy    TOTEN  =      -403.55424035 eV

  energy without entropy =     -403.60813048  energy(sigma->0) =     -403.57220372


--------------------------------------------------------------------------------------------------------




--------------------------------------- Iteration      1(   2)  ---------------------------------------


    POTLOK:  cpu time    0.4273: real time    0.4425
    SETDIJ:  cpu time    0.0260: real time    0.0260
    EDDIAG:  cpu time    6.1286: real time    6.1305
  RMM-DIIS:  cpu time   21.9573: real time   21.9650
    ORTHCH:  cpu time    1.7037: real time    1.7038
       DOS:  cpu time    0.0087: real time    0.0087
    CHARGE:  cpu time    1.3795: real time    1.3797
    MIXING:  cpu time    0.0069: real time    0.0069
    --------------------------------------------
      LOOP:  cpu time   31.6380: real time   31.6631

 eigenvalue-minimisations  :  8603
 total energy-change (2. order) :-0.1389351E+02  (-0.1367805E+02)
 number of electron     647.0000031 magnetization      74.2948257
 augmentation part      365.5360422 magnetization      63.7125416

 DIPCOR: dipole corrections for dipol
 direction  3 min pos   251,
 dipolmoment           0.000000      0.000000      0.503421 electrons x Angstroem
 Tr[quadrupol]    -10449.855688

 energy correction for charged system         0.000000 eV
 dipol+quadrupol energy correction           -0.012429 eV
 added-field ion interaction         19.439084 eV  (added to PSCEN)


 Broyden mixing:
  rms(total) = 0.13002E+01    rms(broyden)= 0.13001E+01
  rms(prec ) = 0.14424E+01
  weight for this iteration     100.00

 eigenvalues of (default mixing * dielectric matrix)
  average eigenvalue GAMMA=   0.3021
  0.3021

 Free energy of the ion-electron system (eV)
  ---------------------------------------------------
  alpha Z        PSCENC =      1399.87279668
  Ewald energy   TEWEN  =    220073.00583205
  -Hartree energ DENC   =   -282890.77730578
  -exchange      EXHF   =         0.00000000
  -V(xc)+E(xc)   XCENC  =      1741.66626000
  PAW double counting   =     69403.16775024   -72939.92035899
  entropy T*S    EENTRO =         0.03019153
  eigenvalues    EBANDS =     -1531.69306625
  atomic energy  EATOM  =     64327.20015129
  Solvation  Ediel_sol  =         0.00000000
  ---------------------------------------------------
  free energy    TOTEN  =      -417.44774921 eV

  energy without entropy =     -417.47794074  energy(sigma->0) =     -417.45781305


--------------------------------------------------------------------------------------------------------




--------------------------------------- Iteration      1(   3)  ---------------------------------------


    POTLOK:  cpu time    0.4269: real time    0.4403
    SETDIJ:  cpu time    0.0258: real time    0.0258
    EDDIAG:  cpu time    6.1229: real time    6.1247
  RMM-DIIS:  cpu time   21.8851: real time   21.8946
    ORTHCH:  cpu time    1.7073: real time    1.7075
       DOS:  cpu time    0.0091: real time    0.0091
    CHARGE:  cpu time    1.3648: real time    1.3649
    MIXING:  cpu time    0.0064: real time    0.0076
    --------------------------------------------
      LOOP:  cpu time   31.5483: real time   31.5745

 eigenvalue-minimisations  :  8576
 total energy-change (2. order) :-0.2055301E+01  (-0.8257394E+00)
 number of electron     647.0000031 magnetization      74.3020445
 augmentation part      368.6503718 magnetization      62.9505800

 DIPCOR: dipole corrections for dipol
 direction  3 min pos   244,
 dipolmoment           0.000000      0.000000      0.235749 electrons x Angstroem
 Tr[quadrupol]    -10448.634817

 energy correction for charged system         0.000000 eV
 dipol+quadrupol energy correction           -0.002726 eV
 added-field ion interaction          2.168414 eV  (added to PSCEN)


 Broyden mixing:
  rms(total) = 0.21925E+01    rms(broyden)= 0.21924E+01
  rms(prec ) = 0.28487E+01
  weight for this iteration     100.00

 eigenvalues of (default mixing * dielectric matrix)
  average eigenvalue GAMMA=   0.2447
  0.3839  0.1054

 Free energy of the ion-electron system (eV)
  ---------------------------------------------------
  alpha Z        PSCENC =      1382.61183095
  Ewald energy   TEWEN  =    220073.00583205
  -Hartree energ DENC   =   -282826.39889349
  -exchange      EXHF   =         0.00000000
  -V(xc)+E(xc)   XCENC  =      1739.44941154
  PAW double counting   =     69341.95855707   -72864.59125976
  entropy T*S    EENTRO =         0.00779106
  eigenvalues    EBANDS =     -1592.74647113
  atomic energy  EATOM  =     64327.20015129
  Solvation  Ediel_sol  =         0.00000000
  ---------------------------------------------------
  free energy    TOTEN  =      -419.50305041 eV

  energy without entropy =     -419.51084147  energy(sigma->0) =     -419.50564743


--------------------------------------------------------------------------------------------------------




--------------------------------------- Iteration      1(   4)  ---------------------------------------


    POTLOK:  cpu time    0.4250: real time    0.4408
    SETDIJ:  cpu time    0.0269: real time    0.0269
    EDDIAG:  cpu time    6.1152: real time    6.1161
  RMM-DIIS:  cpu time   22.2369: real time   22.2463
    ORTHCH:  cpu time    1.6960: real time    1.6970
       DOS:  cpu time    0.0092: real time    0.0092
    CHARGE:  cpu time    1.3744: real time    1.3745
    MIXING:  cpu time    0.0069: real time    0.0069
    --------------------------------------------
      LOOP:  cpu time   31.8905: real time   31.9178

 eigenvalue-minimisations  :  8701
 total energy-change (2. order) : 0.5664973E+00  (-0.1428243E+00)
 number of electron     647.0000034 magnetization      74.2755741
 augmentation part      368.2054639 magnetization      63.8183705

 DIPCOR: dipole corrections for dipol
 direction  3 min pos   243,
 dipolmoment           0.000000      0.000000      0.696024 electrons x Angstroem
 Tr[quadrupol]    -10448.881691

 energy correction for charged system         0.000000 eV
 dipol+quadrupol energy correction           -0.023759 eV
 added-field ion interaction          3.477108 eV  (added to PSCEN)


 Broyden mixing:
  rms(total) = 0.20842E+01    rms(broyden)= 0.20839E+01
  rms(prec ) = 0.27202E+01
  weight for this iteration     100.00

 eigenvalues of (default mixing * dielectric matrix)
  average eigenvalue GAMMA=   0.1940
  0.3901  0.1458  0.0461

 Free energy of the ion-electron system (eV)
  ---------------------------------------------------
  alpha Z        PSCENC =      1383.89949104
  Ewald energy   TEWEN  =    220073.00583205
  -Hartree energ DENC   =   -282829.64108432
  -exchange      EXHF   =         0.00000000
  -V(xc)+E(xc)   XCENC  =      1739.45343310
  PAW double counting   =     69331.68754704   -72851.30965961
  entropy T*S    EENTRO =         0.04065035
  eigenvalues    EBANDS =     -1593.27291405
  atomic energy  EATOM  =     64327.20015129
  Solvation  Ediel_sol  =         0.00000000
  ---------------------------------------------------
  free energy    TOTEN  =      -418.93655312 eV

  energy without entropy =     -418.97720347  energy(sigma->0) =     -418.95010324


--------------------------------------------------------------------------------------------------------




--------------------------------------- Iteration      1(   5)  ---------------------------------------


    POTLOK:  cpu time    0.4271: real time    0.4418
    SETDIJ:  cpu time    0.0257: real time    0.0257
    EDDIAG:  cpu time    6.1214: real time    6.1223
  RMM-DIIS:  cpu time   22.0522: real time   22.0612
    ORTHCH:  cpu time    1.7042: real time    1.7044
       DOS:  cpu time    0.0091: real time    0.0091
    CHARGE:  cpu time    1.3718: real time    1.3720
    MIXING:  cpu time    0.0071: real time    0.0071
    --------------------------------------------
      LOOP:  cpu time   31.7195: real time   31.7435

 eigenvalue-minimisations  :  8637
 total energy-change (2. order) : 0.1687942E+01  (-0.5625551E-01)
 number of electron     647.0000031 magnetization      74.2758147
 augmentation part      368.2668245 magnetization      63.4976567

 DIPCOR: dipole corrections for dipol
 direction  3 min pos   239,
 dipolmoment           0.000000      0.000000      0.493729 electrons x Angstroem
 Tr[quadrupol]    -10448.597035

 energy correction for charged system         0.000000 eV
 dipol+quadrupol energy correction           -0.011955 eV
 added-field ion interaction         -5.832657 eV  (added to PSCEN)


 Broyden mixing:
  rms(total) = 0.53314E+00    rms(broyden)= 0.53296E+00
  rms(prec ) = 0.58565E+00
  weight for this iteration     100.00

 eigenvalues of (default mixing * dielectric matrix)
  average eigenvalue GAMMA=   0.2066
  0.3217  0.3217  0.1300  0.0530

 Free energy of the ion-electron system (eV)
  ---------------------------------------------------
  alpha Z        PSCENC =      1374.60152982
  Ewald energy   TEWEN  =    220073.00583205
  -Hartree energ DENC   =   -282832.00764114
  -exchange      EXHF   =         0.00000000
  -V(xc)+E(xc)   XCENC  =      1739.63121512
  PAW double counting   =     69321.86409234   -72841.10087787
  entropy T*S    EENTRO =         0.04276595
  eigenvalues    EBANDS =     -1580.48567909
  atomic energy  EATOM  =     64327.20015129
  Solvation  Ediel_sol  =         0.00000000
  ---------------------------------------------------
  free energy    TOTEN  =      -417.24861153 eV

  energy without entropy =     -417.29137748  energy(sigma->0) =     -417.26286685


--------------------------------------------------------------------------------------------------------




--------------------------------------- Iteration      1(   6)  ---------------------------------------


    POTLOK:  cpu time    0.4286: real time    0.4446
    SETDIJ:  cpu time    0.0257: real time    0.0257
    EDDIAG:  cpu time    6.1232: real time    6.1252
  RMM-DIIS:  cpu time   22.3375: real time   22.6556
    ORTHCH:  cpu time    1.7023: real time    1.7024
       DOS:  cpu time    0.0090: real time    0.0090
    CHARGE:  cpu time    1.3703: real time    1.3704
    MIXING:  cpu time    0.0078: real time    0.0077
    --------------------------------------------
      LOOP:  cpu time   32.0035: real time   32.3405

 eigenvalue-minimisations  :  8609
 total energy-change (2. order) :-0.9975183E-02  (-0.2431100E-01)
 number of electron     647.0000031 magnetization      74.2732851
 augmentation part      368.1110236 magnetization      63.6409560

 DIPCOR: dipole corrections for dipol
 direction  3 min pos   247,
 dipolmoment           0.000000      0.000000      0.517158 electrons x Angstroem
 Tr[quadrupol]    -10448.973754

 energy correction for charged system         0.000000 eV
 dipol+quadrupol energy correction           -0.013117 eV
 added-field ion interaction         11.276542 eV  (added to PSCEN)


 Broyden mixing:
  rms(total) = 0.50997E+00    rms(broyden)= 0.50994E+00
  rms(prec ) = 0.58874E+00
  weight for this iteration     100.00

 eigenvalues of (default mixing * dielectric matrix)
  average eigenvalue GAMMA=   0.2668
  0.5120  0.5120  0.1548  0.1051  0.0502

 Free energy of the ion-electron system (eV)
  ---------------------------------------------------
  alpha Z        PSCENC =      1391.70956710
  Ewald energy   TEWEN  =    220073.00583205
  -Hartree energ DENC   =   -282830.18145548
  -exchange      EXHF   =         0.00000000
  -V(xc)+E(xc)   XCENC  =      1739.89653817
  PAW double counting   =     69300.73378212   -72819.68319207
  entropy T*S    EENTRO =         0.04111790
  eigenvalues    EBANDS =     -1599.98092780
  atomic energy  EATOM  =     64327.20015129
  Solvation  Ediel_sol  =         0.00000000
  ---------------------------------------------------
  free energy    TOTEN  =      -417.25858672 eV

  energy without entropy =     -417.29970462  energy(sigma->0) =     -417.27229269


--------------------------------------------------------------------------------------------------------




--------------------------------------- Iteration      1(   7)  ---------------------------------------


    POTLOK:  cpu time    0.4283: real time    0.4429
    SETDIJ:  cpu time    0.0259: real time    0.0259
    EDDIAG:  cpu time    6.1779: real time    6.1799
  RMM-DIIS:  cpu time   21.9316: real time   21.9860
    ORTHCH:  cpu time    1.7071: real time    1.7096
       DOS:  cpu time    0.0090: real time    0.0090
    CHARGE:  cpu time    1.3678: real time    1.3680
    MIXING:  cpu time    0.0074: real time    0.0074
    --------------------------------------------
      LOOP:  cpu time   31.6549: real time   31.7286

 eigenvalue-minimisations  :  8623
 total energy-change (2. order) : 0.6065669E-01  (-0.7551941E-02)
 number of electron     647.0000031 magnetization      74.2737082
 augmentation part      368.1592818 magnetization      63.6021643

 DIPCOR: dipole corrections for dipol
 direction  3 min pos   247,
 dipolmoment           0.000000      0.000000      0.486885 electrons x Angstroem
 Tr[quadrupol]    -10449.205120

 energy correction for charged system         0.000000 eV
 dipol+quadrupol energy correction           -0.011626 eV
 added-field ion interaction         10.616436 eV  (added to PSCEN)


 Broyden mixing:
  rms(total) = 0.30630E+00    rms(broyden)= 0.30628E+00
  rms(prec ) = 0.33173E+00
  weight for this iteration     100.00

 eigenvalues of (default mixing * dielectric matrix)
  average eigenvalue GAMMA=   0.2487
  0.5194  0.5194  0.1746  0.0506  0.1319  0.0963

 Free energy of the ion-electron system (eV)
  ---------------------------------------------------
  alpha Z        PSCENC =      1391.05095182
  Ewald energy   TEWEN  =    220073.00583205
  -Hartree energ DENC   =   -282840.32253533
  -exchange      EXHF   =         0.00000000
  -V(xc)+E(xc)   XCENC  =      1739.89746672
  PAW double counting   =     69250.99066857   -72768.38180477
  entropy T*S    EENTRO =         0.04799271
  eigenvalues    EBANDS =     -1590.68665307
  atomic energy  EATOM  =     64327.20015129
  Solvation  Ediel_sol  =         0.00000000
  ---------------------------------------------------
  free energy    TOTEN  =      -417.19793003 eV

  energy without entropy =     -417.24592273  energy(sigma->0) =     -417.21392759


--------------------------------------------------------------------------------------------------------




--------------------------------------- Iteration      1(   8)  ---------------------------------------


    POTLOK:  cpu time    0.4295: real time    0.4456
    SETDIJ:  cpu time    0.0258: real time    0.0258
    EDDIAG:  cpu time    6.1548: real time    6.1661
  RMM-DIIS:  cpu time   21.9850: real time   21.9940
    ORTHCH:  cpu time    1.7062: real time    1.7064
       DOS:  cpu time    0.0091: real time    0.0091
    CHARGE:  cpu time    1.3670: real time    1.3672
    MIXING:  cpu time    0.0075: real time    0.0075
    --------------------------------------------
      LOOP:  cpu time   31.6850: real time   31.7217

 eigenvalue-minimisations  :  8628
 total energy-change (2. order) : 0.2146310E-01  (-0.2282400E-02)
 number of electron     647.0000031 magnetization      74.2782067
 augmentation part      368.2069830 magnetization      63.5760955

 DIPCOR: dipole corrections for dipol
 direction  3 min pos   245,
 dipolmoment           0.000000      0.000000      0.485166 electrons x Angstroem
 Tr[quadrupol]    -10449.093048

 energy correction for charged system         0.000000 eV
 dipol+quadrupol energy correction           -0.011544 eV
 added-field ion interaction          6.501347 eV  (added to PSCEN)


 Broyden mixing:
  rms(total) = 0.18986E+00    rms(broyden)= 0.18985E+00
  rms(prec ) = 0.20146E+00
  weight for this iteration     100.00

 eigenvalues of (default mixing * dielectric matrix)
  average eigenvalue GAMMA=   0.2948
  0.6397  0.6397  0.3502  0.0505  0.1617  0.1021  0.1198

 Free energy of the ion-electron system (eV)
  ---------------------------------------------------
  alpha Z        PSCENC =      1386.93594530
  Ewald energy   TEWEN  =    220073.00583205
  -Hartree energ DENC   =   -282840.87531965
  -exchange      EXHF   =         0.00000000
  -V(xc)+E(xc)   XCENC  =      1739.87868704
  PAW double counting   =     69235.97331952   -72752.78141308
  entropy T*S    EENTRO =         0.04714324
  eigenvalues    EBANDS =     -1586.56081264
  atomic energy  EATOM  =     64327.20015129
  Solvation  Ediel_sol  =         0.00000000
  ---------------------------------------------------
  free energy    TOTEN  =      -417.17646693 eV

  energy without entropy =     -417.22361017  energy(sigma->0) =     -417.19218134


--------------------------------------------------------------------------------------------------------




--------------------------------------- Iteration      1(   9)  ---------------------------------------


    POTLOK:  cpu time    0.4296: real time    0.4451
    SETDIJ:  cpu time    0.0259: real time    0.0259
    EDDIAG:  cpu time    6.1551: real time    6.1575
  RMM-DIIS:  cpu time   21.9745: real time   21.9855
    ORTHCH:  cpu time    1.7059: real time    1.7061
       DOS:  cpu time    0.0092: real time    0.0092
    CHARGE:  cpu time    1.3617: real time    1.3626
    MIXING:  cpu time    0.0079: real time    0.0079
    --------------------------------------------
      LOOP:  cpu time   31.6697: real time   31.6998

 eigenvalue-minimisations  :  8638
 total energy-change (2. order) : 0.4790181E-03  (-0.7673150E-03)
 number of electron     647.0000031 magnetization      74.2825968
 augmentation part      368.2031722 magnetization      63.6051776

 DIPCOR: dipole corrections for dipol
 direction  3 min pos   246,
 dipolmoment           0.000000      0.000000      0.490795 electrons x Angstroem
 Tr[quadrupol]    -10449.185451

 energy correction for charged system         0.000000 eV
 dipol+quadrupol energy correction           -0.011814 eV
 added-field ion interaction          8.639240 eV  (added to PSCEN)


 Broyden mixing:
  rms(total) = 0.21053E+00    rms(broyden)= 0.21053E+00
  rms(prec ) = 0.23527E+00
  weight for this iteration     100.00

 eigenvalues of (default mixing * dielectric matrix)
  average eigenvalue GAMMA=   0.2982
  0.7260  0.7260  0.3608  0.1805  0.0505  0.1336  0.1142  0.0944

 Free energy of the ion-electron system (eV)
  ---------------------------------------------------
  alpha Z        PSCENC =      1389.07356871
  Ewald energy   TEWEN  =    220073.00583205
  -Hartree energ DENC   =   -282842.97650298
  -exchange      EXHF   =         0.00000000
  -V(xc)+E(xc)   XCENC  =      1739.96993793
  PAW double counting   =     69200.40968368   -72716.21872394
  entropy T*S    EENTRO =         0.04872707
  eigenvalues    EBANDS =     -1587.68866171
  atomic energy  EATOM  =     64327.20015129
  Solvation  Ediel_sol  =         0.00000000
  ---------------------------------------------------
  free energy    TOTEN  =      -417.17598791 eV

  energy without entropy =     -417.22471498  energy(sigma->0) =     -417.19223027


--------------------------------------------------------------------------------------------------------




--------------------------------------- Iteration      1(  10)  ---------------------------------------


    POTLOK:  cpu time    0.4429: real time    0.4437
    SETDIJ:  cpu time    0.0259: real time    0.0259
    EDDIAG:  cpu time    6.1514: real time    6.1520
  RMM-DIIS:  cpu time   22.0628: real time   22.0681
    ORTHCH:  cpu time    1.7025: real time    1.7034
       DOS:  cpu time    0.0090: real time    0.0090
    CHARGE:  cpu time    1.3721: real time    1.3722
    MIXING:  cpu time    0.0080: real time    0.0080
    --------------------------------------------
      LOOP:  cpu time   31.7745: real time   31.7821

 eigenvalue-minimisations  :  8627
 total energy-change (2. order) : 0.7353719E-02  (-0.4160646E-03)
 number of electron     647.0000031 magnetization      74.2883841
 augmentation part      368.2035743 magnetization      63.6371921

 DIPCOR: dipole corrections for dipol
 direction  3 min pos   246,
 dipolmoment           0.000000      0.000000      0.492863 electrons x Angstroem
 Tr[quadrupol]    -10449.225292

 energy correction for charged system         0.000000 eV
 dipol+quadrupol energy correction           -0.011914 eV
 added-field ion interaction          8.675643 eV  (added to PSCEN)


 Broyden mixing:
  rms(total) = 0.18168E+00    rms(broyden)= 0.18168E+00
  rms(prec ) = 0.21124E+00
  weight for this iteration     100.00

 eigenvalues of (default mixing * dielectric matrix)
  average eigenvalue GAMMA=   0.3403
  0.8683  0.8683  0.3916  0.3916  0.0505  0.1565  0.1307  0.1049  0.1002

 Free energy of the ion-electron system (eV)
  ---------------------------------------------------
  alpha Z        PSCENC =      1389.10987167
  Ewald energy   TEWEN  =    220073.00583205
  -Hartree energ DENC   =   -282845.29627901
  -exchange      EXHF   =         0.00000000
  -V(xc)+E(xc)   XCENC  =      1740.04248710
  PAW double counting   =     69172.96680417   -72688.02944099
  entropy T*S    EENTRO =         0.04792485
  eigenvalues    EBANDS =     -1586.21598532
  atomic energy  EATOM  =     64327.20015129
  Solvation  Ediel_sol  =         0.00000000
  ---------------------------------------------------
  free energy    TOTEN  =      -417.16863419 eV

  energy without entropy =     -417.21655905  energy(sigma->0) =     -417.18460914


--------------------------------------------------------------------------------------------------------




--------------------------------------- Iteration      1(  11)  ---------------------------------------


    POTLOK:  cpu time    0.4283: real time    0.4430
    SETDIJ:  cpu time    0.0258: real time    0.0258
    EDDIAG:  cpu time    6.1390: real time    6.1398
  RMM-DIIS:  cpu time   22.0113: real time   22.0199
    ORTHCH:  cpu time    1.7091: real time    1.7094
       DOS:  cpu time    0.0087: real time    0.0087
    CHARGE:  cpu time    1.3636: real time    1.3638
    MIXING:  cpu time    0.0081: real time    0.0081
    --------------------------------------------
      LOOP:  cpu time   31.6939: real time   31.7187

 eigenvalue-minimisations  :  8617
 total energy-change (2. order) : 0.6606632E-02  (-0.3264127E-03)
 number of electron     647.0000031 magnetization      74.3011607
 augmentation part      368.2233943 magnetization      63.6587566

 DIPCOR: dipole corrections for dipol
 direction  3 min pos   246,
 dipolmoment           0.000000      0.000000      0.490529 electrons x Angstroem
 Tr[quadrupol]    -10449.252385

 energy correction for charged system         0.000000 eV
 dipol+quadrupol energy correction           -0.011801 eV
 added-field ion interaction          8.634552 eV  (added to PSCEN)


 Broyden mixing:
  rms(total) = 0.16967E+00    rms(broyden)= 0.16966E+00
  rms(prec ) = 0.19554E+00
  weight for this iteration     100.00

 eigenvalues of (default mixing * dielectric matrix)
  average eigenvalue GAMMA=   0.3864
  1.1132  1.1132  0.4821  0.4821  0.0505  0.1525  0.1525  0.1180  0.1045  0.0958

 Free energy of the ion-electron system (eV)
  ---------------------------------------------------
  alpha Z        PSCENC =      1389.06889374
  Ewald energy   TEWEN  =    220073.00583205
  -Hartree energ DENC   =   -282847.02788049
  -exchange      EXHF   =         0.00000000
  -V(xc)+E(xc)   XCENC  =      1740.07854278
  PAW double counting   =     69142.68451633   -72656.84154680
  entropy T*S    EENTRO =         0.04873295
  eigenvalues    EBANDS =     -1585.37926942
  atomic energy  EATOM  =     64327.20015129
  Solvation  Ediel_sol  =         0.00000000
  ---------------------------------------------------
  free energy    TOTEN  =      -417.16202756 eV

  energy without entropy =     -417.21076051  energy(sigma->0) =     -417.17827188


--------------------------------------------------------------------------------------------------------




--------------------------------------- Iteration      1(  12)  ---------------------------------------


    POTLOK:  cpu time    0.4271: real time    0.4417
    SETDIJ:  cpu time    0.0256: real time    0.0256
    EDDIAG:  cpu time    6.1911: real time    6.1932
  RMM-DIIS:  cpu time   21.9846: real time   21.9917
    ORTHCH:  cpu time    1.7229: real time    1.7231
       DOS:  cpu time    0.0098: real time    0.0098
    CHARGE:  cpu time    1.3664: real time    1.3665
    MIXING:  cpu time    0.0083: real time    0.0082
    --------------------------------------------
      LOOP:  cpu time   31.7357: real time   31.7598

 eigenvalue-minimisations  :  8611
 total energy-change (2. order) : 0.2036656E-01  (-0.4011956E-03)
 number of electron     647.0000031 magnetization      74.3074476
 augmentation part      368.2868267 magnetization      63.6706023

 DIPCOR: dipole corrections for dipol
 direction  3 min pos   245,
 dipolmoment           0.000000      0.000000      0.484673 electrons x Angstroem
 Tr[quadrupol]    -10449.234334

 energy correction for charged system         0.000000 eV
 dipol+quadrupol energy correction           -0.011521 eV
 added-field ion interaction          6.494735 eV  (added to PSCEN)


 Broyden mixing:
  rms(total) = 0.11572E+00    rms(broyden)= 0.11572E+00
  rms(prec ) = 0.13047E+00
  weight for this iteration     100.00

 eigenvalues of (default mixing * dielectric matrix)
  average eigenvalue GAMMA=   0.3924
  1.2131  1.2131  0.4978  0.4978  0.2291  0.1733  0.0505  0.1280  0.1180  0.0976
  0.0976

 Free energy of the ion-electron system (eV)
  ---------------------------------------------------
  alpha Z        PSCENC =      1386.92935646
  Ewald energy   TEWEN  =    220073.00583205
  -Hartree energ DENC   =   -282849.98480642
  -exchange      EXHF   =         0.00000000
  -V(xc)+E(xc)   XCENC  =      1740.12716917
  PAW double counting   =     69081.67632265   -72593.92573924
  entropy T*S    EENTRO =         0.04916156
  eigenvalues    EBANDS =     -1582.21910853
  atomic energy  EATOM  =     64327.20015129
  Solvation  Ediel_sol  =         0.00000000
  ---------------------------------------------------
  free energy    TOTEN  =      -417.14166100 eV

  energy without entropy =     -417.19082257  energy(sigma->0) =     -417.15804819


--------------------------------------------------------------------------------------------------------




--------------------------------------- Iteration      1(  13)  ---------------------------------------


    POTLOK:  cpu time    0.4418: real time    0.4426
    SETDIJ:  cpu time    0.0257: real time    0.0257
    EDDIAG:  cpu time    6.1891: real time    6.1910
  RMM-DIIS:  cpu time   22.0278: real time   22.0316
    ORTHCH:  cpu time    1.7335: real time    1.7336
       DOS:  cpu time    0.0098: real time    0.0098
    CHARGE:  cpu time    1.3668: real time    1.3669
    MIXING:  cpu time    0.0086: real time    0.0086
    --------------------------------------------
      LOOP:  cpu time   31.8030: real time   31.8096

 eigenvalue-minimisations  :  8618
 total energy-change (2. order) : 0.9023051E-02  (-0.2178641E-03)
 number of electron     647.0000031 magnetization      74.3179021
 augmentation part      368.3089880 magnetization      63.6904109

 DIPCOR: dipole corrections for dipol
 direction  3 min pos   245,
 dipolmoment           0.000000      0.000000      0.482753 electrons x Angstroem
 Tr[quadrupol]    -10449.274170

 energy correction for charged system         0.000000 eV
 dipol+quadrupol energy correction           -0.011430 eV
 added-field ion interaction          6.469015 eV  (added to PSCEN)


 Broyden mixing:
  rms(total) = 0.88344E-01    rms(broyden)= 0.88342E-01
  rms(prec ) = 0.98639E-01
  weight for this iteration     100.00

 eigenvalues of (default mixing * dielectric matrix)
  average eigenvalue GAMMA=   0.4421
  1.4278  1.4278  0.6076  0.6076  0.4358  0.0505  0.1692  0.1478  0.1272  0.1101
  0.0996  0.0947

 Free energy of the ion-electron system (eV)
  ---------------------------------------------------
  alpha Z        PSCENC =      1386.90372755
  Ewald energy   TEWEN  =    220073.00583205
  -Hartree energ DENC   =   -282851.86534691
[...]
   -.281E+02 0.102E+03 0.115E+04   0.282E+02 -.102E+03 -.115E+04   -.173E+00 0.155E+00 -.603E+00   0.669E-03 -.457E-03 -.114E-01
   0.117E+02 0.790E+02 0.302E+04   -.118E+02 -.790E+02 -.302E+04   -.996E-01 0.532E-01 -.116E+01   -.397E-03 0.849E-03 -.350E-02
   0.326E+02 0.695E+02 -.249E+04   -.323E+02 -.691E+02 0.249E+04   -.292E+00 -.424E+00 0.438E+00   -.276E-03 0.203E-03 -.297E-02
   0.109E+02 0.123E+03 0.122E+04   -.109E+02 -.123E+03 -.122E+04   -.565E-01 0.260E+00 -.372E+00   -.160E-03 0.815E-03 -.118E-01
   -.150E+02 -.314E+02 0.303E+04   0.151E+02 0.315E+02 -.303E+04   -.941E-02 -.117E-01 -.162E+01   0.350E-03 0.736E-03 -.331E-02
   0.529E+02 -.131E+03 -.255E+04   -.545E+02 0.133E+03 0.255E+04   0.162E+01 -.141E+01 0.940E+00   -.220E-03 0.512E-03 -.402E-02
   -.325E+02 -.352E+02 0.302E+04   0.326E+02 0.353E+02 -.302E+04   -.224E+00 -.379E-01 -.130E+01   -.146E-02 0.242E-03 -.339E-02
   -.170E+03 -.681E+02 -.265E+04   0.172E+03 0.693E+02 0.265E+04   -.197E+01 -.121E+01 0.616E+00   0.150E-03 0.599E-04 -.356E-02
   -.264E+02 -.148E+02 0.120E+04   0.264E+02 0.148E+02 -.120E+04   -.397E-01 -.568E-01 -.381E+00   -.326E-03 0.101E-02 -.127E-01
   0.200E+01 0.134E+02 0.120E+04   -.179E+01 -.133E+02 -.120E+04   -.976E-01 -.932E-01 -.408E+00   -.324E-03 -.762E-04 -.119E-01
   0.349E+02 0.368E+01 0.304E+04   -.350E+02 -.366E+01 -.304E+04   0.193E+00 -.350E-01 -.126E+01   0.110E-02 0.299E-03 -.325E-02
   -.562E+01 -.950E+02 -.261E+04   0.699E+01 0.962E+02 0.261E+04   -.140E+01 -.122E+01 0.102E+01   -.465E-03 0.193E-03 -.360E-02
   0.186E+02 0.579E+02 0.119E+04   -.186E+02 -.578E+02 -.119E+04   0.857E-01 -.137E+00 -.448E+00   0.577E-03 -.433E-03 -.117E-01
   0.478E+01 0.288E+02 0.119E+04   -.483E+01 -.288E+02 -.119E+04   0.172E-01 -.126E-01 -.194E+00   0.108E-03 0.810E-03 -.124E-01
   -.631E+02 -.781E+02 0.957E+03   0.633E+02 0.783E+02 -.957E+03   -.146E+00 -.103E+00 -.351E+00   -.155E-03 0.237E-03 -.971E-02
   0.239E+02 -.913E+02 0.958E+03   -.241E+02 0.916E+02 -.958E+03   0.160E+00 -.248E+00 -.411E+00   -.915E-03 -.116E-03 -.961E-02
   -.525E+02 0.158E+02 -.556E+03   0.527E+02 -.157E+02 0.556E+03   -.279E+00 -.383E-01 0.342E+00   0.770E-03 -.785E-03 -.892E-02
   0.465E+02 0.444E+02 -.544E+03   -.465E+02 -.444E+02 0.545E+03   -.767E-02 -.554E-02 -.746E+00   -.733E-03 -.449E-03 -.934E-02
   -.295E+02 0.122E+02 0.238E+04   0.295E+02 -.121E+02 -.238E+04   0.900E-02 -.284E-01 -.273E+01   0.188E-03 -.420E-03 -.234E-02
   -.660E+02 -.651E+02 -.212E+04   0.667E+02 0.656E+02 0.212E+04   -.752E+00 -.551E+00 0.151E+01   -.198E-03 0.851E-05 -.306E-02
   -.253E+02 -.265E+02 0.928E+03   0.255E+02 0.265E+02 -.928E+03   -.269E+00 0.473E-01 -.345E+00   -.512E-03 -.106E-03 -.899E-02
   0.118E+02 0.322E+02 0.238E+04   -.118E+02 -.323E+02 -.238E+04   -.572E-01 0.736E-01 -.298E+01   -.236E-03 0.251E-03 -.280E-02
   -.101E+03 0.563E+01 -.207E+04   0.102E+03 -.575E+01 0.207E+04   -.670E+00 0.116E+00 0.122E+01   0.723E-03 0.384E-04 -.273E-02
   0.370E+02 -.279E+02 0.942E+03   -.369E+02 0.278E+02 -.942E+03   -.148E-01 0.197E+00 -.387E+00   -.850E-03 -.740E-04 -.935E-02
   0.324E+02 -.619E+02 0.946E+03   -.328E+02 0.619E+02 -.946E+03   0.360E+00 -.429E-01 -.296E+00   0.786E-03 -.477E-03 -.910E-02
   -.144E+02 0.719E+02 0.957E+03   0.144E+02 -.718E+02 -.957E+03   0.186E-01 -.593E-01 -.395E+00   0.341E-03 0.631E-04 -.930E-02
   0.258E+02 0.115E+03 0.946E+03   -.260E+02 -.115E+03 -.946E+03   0.214E+00 0.281E+00 -.425E+00   -.777E-03 0.119E-04 -.946E-02
   0.992E+01 -.117E+02 0.244E+04   -.996E+01 0.117E+02 -.243E+04   0.163E-01 0.694E-01 -.274E+01   0.168E-04 -.375E-03 -.272E-02
   0.975E+02 -.368E+02 -.212E+04   -.983E+02 0.373E+02 0.212E+04   0.850E+00 -.483E+00 0.895E+00   0.469E-03 -.178E-03 -.283E-02
   -.218E+02 0.515E+02 -.211E+04   0.202E+02 -.514E+02 0.214E+04   0.159E+01 -.181E+00 -.275E+02   0.212E-03 0.324E-03 0.167E-02
   -.104E+03 -.443E+02 -.210E+04   0.106E+03 0.455E+02 0.212E+04   -.264E+01 -.123E+01 -.222E+02   -.194E-03 0.114E-03 0.167E-02
   -.262E+02 -.324E+02 -.214E+04   0.245E+02 0.315E+02 0.217E+04   0.169E+01 0.852E+00 -.276E+02   0.644E-04 0.570E-03 0.107E-02
   0.978E+02 -.365E+02 -.212E+04   -.957E+02 0.354E+02 0.215E+04   -.209E+01 0.114E+01 -.276E+02   -.319E-03 0.286E-03 0.108E-02
   0.152E+03 0.128E+03 -.195E+04   -.180E+03 -.149E+03 0.195E+04   0.281E+02 0.214E+02 0.489E+01   -.113E-03 0.241E-04 0.203E-02
   -.860E+02 -.703E+02 -.198E+04   0.827E+02 0.726E+02 0.203E+04   0.340E+01 -.220E+01 -.457E+02   0.155E-03 0.167E-03 0.229E-02
   -.579E+02 -.344E+02 -.307E+03   0.629E+02 0.372E+02 0.304E+03   -.506E+01 -.288E+01 0.364E+01   -.178E-05 0.109E-04 0.370E-03
 -----------------------------------------------------------------------------------------------
   -.253E+02 -.176E+02 0.153E+03   -.341E-12 -.604E-12 0.909E-12   0.253E+02 0.176E+02 -.153E+03   0.150E-03 0.193E-02 -.453E+00
 
 
 POSITION                                       TOTAL-FORCE (eV/Angst)
 -----------------------------------------------------------------------------------
     10.01546      0.00800      6.08212        -0.012521     -0.005944      0.007947
      2.49358      0.00914      6.03659         0.005461      0.006166     -0.024054
     -0.01292      8.67694      6.09089        -0.007667      0.009420     -0.014260
      2.49409      8.67068      6.06749         0.005226      0.014327     -0.013554
      8.77290      2.16064      6.08129        -0.015067     -0.010368     -0.023412
      1.25630      2.19600      6.08906         0.002767     -0.016116     -0.032860
     -0.00285      1.44433      2.02730        -0.081154     -0.007720      0.197472
     -0.00630      1.39948      8.14970        -0.020396      0.003873     -0.008675
      3.75255      2.17323      6.06991         0.015795      0.004931     -0.032588
      2.50178      1.44890      2.02869         0.106957     -0.062770      0.196493
      2.49029      1.44536      8.02368         0.015526      0.014796     -0.007816
      6.25643      2.18832      6.10574         0.013577     -0.010296     -0.033937
      5.00042      1.45188      2.04906        -0.041816      0.047939      0.231785
      5.00017      1.37666      8.12676         0.004632     -0.010271     -0.006838
      7.52680      1.44774      2.04372        -0.005363      0.022071      0.314802
      7.51784      1.42638      8.03280        -0.002914     -0.007236     -0.000331
      6.25724      0.72120      4.08068         0.025997     -0.050091     -0.221085
      8.77725      0.71231      4.06936        -0.038603     -0.022455     -0.180389
     -2.49134      4.34807      6.05962         0.008336      0.004743      0.006083
     -1.27467      3.61315      2.03306        -0.040363      0.138355      0.207072
     -1.28560      3.62191      8.12941        -0.028365     -0.005532     -0.011714
     -0.00860      2.89985      4.06991         0.088061      0.018791     -0.195794
      5.02674      4.36569      6.11501        -0.003348     -0.008605     -0.034844
      3.76492      3.61380      2.03274        -0.057231      0.107189      0.137733
      3.71005      3.61705      8.15754         0.000448     -0.005019      0.004129
      6.25907      6.51999      6.07636         0.001635      0.006299     -0.029407
     -1.25921      6.51088      6.03731         0.005995     -0.012537     -0.003346
     -2.50964      5.80144      2.00867         0.157430     -0.088138      0.341764
     -2.47869      5.75939      8.06945         0.008121     -0.017770      0.006484
      1.26816      6.50752      6.07484         0.002291     -0.024556     -0.015921
     -0.00666      5.79426      2.00000        -0.138779     -0.091174      0.253541
     -0.00685      5.77745      8.01769        -0.008991      0.020013     -0.007325
      3.79585      6.50076      6.10229        -0.020073     -0.001010     -0.016539
      2.50308      5.78909      2.00257         0.200940     -0.091678      0.275759
      2.48227      5.74406      8.15400         0.006470     -0.011774      0.012243
      1.25945      5.05378      4.04326        -0.003716     -0.031367     -0.124055
      5.01445      5.79798      2.01253        -0.215484     -0.049589      0.281497
      5.03246      5.79991      8.24817        -0.010772     -0.015119     -0.004296
      6.27138      5.06452      4.04277        -0.065543     -0.065146     -0.061785
     -3.76517      7.96148      2.01691         0.035028      0.062331      0.278710
     -3.78118      7.99770      8.07860         0.018971     -0.014805     -0.004191
     -1.24654      7.96318      2.02107        -0.054645      0.007412      0.206732
     -1.23014      7.97108      8.11218        -0.003088     -0.003442      0.013593
     -2.51584      7.25277      4.05487        -0.078719     -0.042496     -0.184743
      0.00963      7.22591      4.06957         0.117255     -0.000980     -0.213966
      3.74757      7.96401      2.04130         0.094074     -0.005504      0.222280
      3.78834      7.99294      8.12378        -0.016477      0.004875     -0.007515
      2.50222      7.23652      4.07555         0.003972     -0.034580     -0.198807
      5.01801      7.23500      4.07176        -0.025342     -0.028405     -0.032922
      1.20950      0.71304      4.05362         0.011652      0.064071     -0.286082
      3.78049      0.67792      4.06351        -0.019934      0.017304     -0.300343
      0.00046      4.32973      6.09336        -0.027759      0.004710     -0.036631
      2.55743      4.37054      6.13196         0.021984      0.003971     -0.019530
      1.23098      3.62224      2.02941        -0.001276      0.063395      0.150531
      1.28731      3.61905      8.20245         0.015117      0.005913     -0.006097
      2.51334      2.87806      4.07938        -0.007612      0.013962     -0.173212
      6.26024      3.63306      2.00212         0.000389     -0.027085      0.200296
      6.30722      3.60507      8.12982         0.016587      0.001093     -0.024998
      5.02463      2.88643      4.11822         0.055084      0.130675     -0.390917
      7.52997      2.83909      4.10996        -0.014677     -0.038956     -0.315395
     -1.25360      5.10876      4.01488         0.053490     -0.011016     -0.343705
      3.75975      5.11705      4.02298        -0.003778      0.071155     -0.220028
      1.25181      7.95850      2.03067        -0.028790      0.071885      0.350337
      1.21452      7.96941      8.10289        -0.011945      0.012142     -0.026027
      5.05136      2.85137      9.22881        -0.015710     -0.015693      0.007142
     -2.52308      7.22674      9.22393        -0.001271      0.006090     -0.014199
     -0.02332      2.87937      9.26563        -0.009482     -0.000657      0.017464
      2.47183      7.28659      9.22485         0.009070     -0.015863     -0.000753
      4.96141      5.69389     10.08452        -0.013688     -0.010125     -0.023192
      5.79517      6.33223     10.99288         0.039162      0.020946     -0.004887
     -3.49738      6.74889     10.42147        -0.015139     -0.008959      0.011077
 -----------------------------------------------------------------------------------
    total drift:                                0.005066      0.001315      0.007330


--------------------------------------------------------------------------------------------------------



  FREE ENERGIE OF THE ION-ELECTRON SYSTEM (eV)
  ---------------------------------------------------
  free  energy   TOTEN  =      -434.19712811 eV

  energy  without entropy=     -434.24680747  energy(sigma->0) =     -434.21368790
 


--------------------------------------------------------------------------------------------------------


    POTLOK:  cpu time    0.4532: real time    0.4533


--------------------------------------------------------------------------------------------------------


 stress matrix after NEB project (eV)
    -30.61780      0.50278      0.04754
      0.50278    -29.61837     -0.48381
      0.04754     -0.48381     -9.41566
  FORCES: max atom, RMS     0.046202    0.019060
  FORCE total and by dimension    0.160605    0.039162
  Stress total and by dimension   43.638638   30.617802


--------------------------------------------------------------------------------------------------------


  
 reached required accuracy - stopping structural energy minimisation
 writing wavefunctions
     LOOP+:  cpu time 1319.0944: real time 1352.7513
    4ORBIT:  cpu time    0.0000: real time    0.0000
 


 total charge     
 
# of ion       s       p       d       tot
------------------------------------------
    1        0.503   0.503   8.330   9.336
    2        0.499   0.501   8.330   9.330
    3        0.507   0.510   8.330   9.347
    4        0.494   0.497   8.319   9.310
    5        0.498   0.502   8.326   9.327
    6        0.507   0.514   8.322   9.344
    7        0.489   0.382   8.319   9.190
    8        0.490   0.493   8.331   9.314
    9        0.506   0.512   8.327   9.346
   10        0.501   0.389   8.306   9.195
   11        0.479   0.382   8.350   9.211
   12        0.504   0.513   8.333   9.350
   13        0.498   0.395   8.315   9.207
   14        0.500   0.509   8.338   9.347
   15        0.498   0.388   8.311   9.197
   16        0.479   0.383   8.361   9.223
   17        0.508   0.512   8.335   9.356
   18        0.504   0.505   8.330   9.339
   19        0.510   0.518   8.328   9.356
   20        0.502   0.393   8.312   9.207
   21        0.499   0.506   8.334   9.339
   22        0.512   0.524   8.327   9.363
   23        0.498   0.499   8.323   9.320
   24        0.503   0.393   8.311   9.208
   25        0.493   0.489   8.333   9.315
   26        0.487   0.484   8.310   9.281
   27        0.499   0.502   8.326   9.328
   28        0.492   0.384   8.314   9.190
   29        0.493   0.498   8.332   9.323
   30        0.500   0.505   8.323   9.328
   31        0.499   0.386   8.317   9.201
   32        0.487   0.392   8.356   9.235
   33        0.494   0.492   8.318   9.304
   34        0.493   0.385   8.319   9.197
   35        0.491   0.491   8.330   9.312
   36        0.509   0.516   8.325   9.349
   37        0.495   0.382   8.312   9.188
   38        0.471   0.480   8.307   9.258
   39        0.505   0.510   8.318   9.333
   40        0.484   0.372   8.312   9.169
   41        0.492   0.493   8.331   9.316
   42        0.491   0.380   8.314   9.186
   43        0.493   0.493   8.334   9.319
   44        0.506   0.510   8.327   9.343
   45        0.505   0.512   8.329   9.346
   46        0.486   0.378   8.308   9.172
   47        0.487   0.486   8.339   9.311
   48        0.500   0.502   8.320   9.322
   49        0.501   0.502   8.324   9.327
   50        0.478   0.513   6.163   7.153
   51        0.480   0.517   6.184   7.181
   52        0.471   0.508   6.177   7.155
   53        0.483   0.519   6.183   7.185
   54        0.464   0.393   6.114   6.971
   55        0.474   0.513   6.170   7.157
   56        0.478   0.516   6.210   7.204
   57        0.464   0.389   6.110   6.963
   58        0.470   0.512   6.154   7.137
   59        0.479   0.514   6.205   7.198
   60        0.478   0.515   6.178   7.171
   61        0.476   0.509   6.155   7.140
   62        0.476   0.507   6.164   7.147
   63        0.462   0.394   6.096   6.951
   64        0.482   0.535   6.166   7.183
   65        1.582   3.355   0.000   4.937
   66        1.573   3.375   0.000   4.948
   67        1.581   3.354   0.000   4.935
   68        1.583   3.354   0.000   4.936
   69        1.595   3.267   0.000   4.862
   70        1.588   3.387   0.000   4.976
   71        0.562   0.112   0.000   0.673
--------------------------------------------------
tot         41.520  50.306 500.355 592.181
 


 magnetization (x)
 
# of ion       s       p       d       tot
------------------------------------------
    1       -0.008  -0.025   0.600   0.567
    2       -0.012  -0.030   0.698   0.657
    3       -0.009  -0.027   0.619   0.583
    4       -0.011  -0.031   0.729   0.688
    5       -0.011  -0.030   0.724   0.683
    6       -0.021  -0.043   0.768   0.704
    7       -0.015  -0.031   0.681   0.635
    8       -0.004  -0.015   0.508   0.489
    9       -0.016  -0.035   0.733   0.683
   10       -0.015  -0.036   0.772   0.722
   11       -0.015  -0.020   0.783   0.748
   12       -0.016  -0.037   0.720   0.667
   13       -0.019  -0.038   0.726   0.669
   14       -0.008  -0.020   0.467   0.438
   15       -0.011  -0.036   0.732   0.685
   16       -0.017  -0.021   0.766   0.728
   17       -0.017  -0.035   0.689   0.637
   18       -0.012  -0.029   0.681   0.641
   19       -0.014  -0.033   0.658   0.610
   20       -0.021  -0.034   0.740   0.686
   21       -0.011  -0.021   0.575   0.543
   22       -0.020  -0.048   0.777   0.708
   23       -0.017  -0.036   0.742   0.689
   24       -0.023  -0.034   0.752   0.694
   25       -0.013  -0.025   0.551   0.513
   26       -0.005  -0.025   0.729   0.699
   27       -0.011  -0.030   0.711   0.669
   28       -0.012  -0.030   0.709   0.667
   29       -0.008  -0.019   0.608   0.581
   30       -0.015  -0.037   0.742   0.691
   31       -0.012  -0.035   0.725   0.678
   32       -0.019  -0.026   0.792   0.746
   33       -0.013  -0.030   0.726   0.682
   34       -0.018  -0.035   0.696   0.643
   35       -0.011  -0.023   0.602   0.568
   36       -0.022  -0.045   0.734   0.667
   37       -0.009  -0.031   0.728   0.689
   38       -0.014  -0.015   0.877   0.848
   39       -0.019  -0.042   0.756   0.695
   40       -0.011  -0.025   0.699   0.664
   41       -0.005  -0.013   0.575   0.556
   42       -0.015  -0.028   0.700   0.657
   43       -0.012  -0.017   0.547   0.517
   44       -0.014  -0.033   0.751   0.705
   45       -0.013  -0.037   0.707   0.658
   46       -0.011  -0.026   0.708   0.670
   47       -0.004  -0.011   0.500   0.485
   48       -0.011  -0.034   0.753   0.707
   49       -0.011  -0.028   0.713   0.674
   50        0.006  -0.008   2.796   2.793
   51        0.004  -0.014   2.733   2.724
   52        0.003  -0.018   2.783   2.767
   53        0.004  -0.018   2.683   2.670
   54        0.015  -0.007   2.905   2.913
   55        0.014  -0.001   2.700   2.713
   56       -0.004  -0.029   2.654   2.622
   57        0.012  -0.009   2.915   2.918
   58        0.020   0.007   2.775   2.802
   59       -0.001  -0.024   2.711   2.686
   60        0.004  -0.018   2.754   2.740
   61        0.006  -0.007   2.819   2.818
   62        0.004  -0.012   2.790   2.782
   63        0.019  -0.007   2.947   2.959
   64        0.021   0.007   2.708   2.736
   65        0.002   0.077   0.000   0.079
   66        0.002   0.100   0.000   0.102
   67        0.002   0.082   0.000   0.084
   68        0.002   0.101   0.000   0.103
   69        0.007   0.393   0.000   0.401
   70        0.003   0.183   0.000   0.186
   71       -0.000   0.002   0.000   0.002
--------------------------------------------------
tot         -0.505  -0.664  75.652  74.483
 

 total amount of memory used by VASP MPI-rank0   118019. kBytes
=======================================================================

   base      :      30000. kBytes
   nonlr-proj:      14203. kBytes
   fftplans  :       6402. kBytes
   grid      :      18928. kBytes
   one-center:         93. kBytes
   wavefun   :      48393. kBytes
 
  
  
 General timing and accounting informations for this job:
 ========================================================
  
                  Total CPU time used (sec):     1406.850
                            User time (sec):     1276.333
                          System time (sec):      130.517
                         Elapsed time (sec):     1443.795
  
                   Maximum memory used (kb):      353804.
                   Average memory used (kb):           0.
  
                          Minor page faults:     22410246
                          Major page faults:            0
                 Voluntary context switches:         4031
