SQS-NiFe                                
           1
    10.026770    0.000000    0.000000
    -5.013385    8.683438    0.000000
     0.000000    0.000000   21.189180
   Ni   Fe   O    H 
  49  15   6   1
Direct configuration=     1
   0.99933243  0.00092129  0.28703888
   0.24921865  0.00105239  0.28489020
   0.49833683  0.99925155  0.28745305
   0.74800881  0.99853103  0.28634840
   0.99935971  0.24882335  0.28699956
   0.25174264  0.25289562  0.28736660
   0.08288200  0.16633200  0.09567600
   0.07995570  0.16116711  0.38461620
   0.49938930  0.25027320  0.28646283
   0.33293900  0.16685800  0.09574200
   0.33158986  0.16645047  0.37866850
   0.74997785  0.25201048  0.28815376
   0.58230700  0.16720100  0.09670300
   0.57795097  0.15853867  0.38353365
   0.83403200  0.16672400  0.09645100
   0.83190934  0.16426436  0.37909899
   0.66558100  0.08305500  0.19258300
   0.91639700  0.08203100  0.19204900
   0.00189746  0.50073172  0.28597696
   0.08092200  0.41609700  0.09594800
   0.08033596  0.41710515  0.38365840
   0.16611800  0.33395200  0.19207500
   0.75271186  0.50276002  0.28859096
   0.58357300  0.41617200  0.09593300
   0.57828751  0.41654606  0.38498616
   0.99966241  0.75085315  0.28676701
   0.24931718  0.74980407  0.28492439
   0.08375800  0.66810400  0.09479700
   0.08442364  0.66326148  0.38082864
   0.50118622  0.74941730  0.28669529
   0.33297400  0.66727700  0.09438800
   0.33198778  0.66534174  0.37838623
   0.75289106  0.74863937  0.28799070
   0.58298100  0.66668200  0.09450900
   0.57831234  0.66149592  0.38481887
   0.41661000  0.58200200  0.19081700
   0.83395900  0.66770600  0.09497900
   0.83586580  0.66792731  0.38926325
   0.91708300  0.58323900  0.19079400
   0.08291700  0.91685800  0.09518600
   0.08340581  0.92102949  0.38126085
   0.33420600  0.91705400  0.09538200
   0.33629625  0.91796348  0.38284542
   0.16670900  0.83524200  0.19136500
   0.41703500  0.83214900  0.19205900
   0.83233100  0.91715000  0.09633700
   0.83806298  0.92048112  0.38339274
   0.66623900  0.83337000  0.19234100
   0.91705900  0.83319500  0.19216200
   0.16168500  0.08211500  0.19130600
   0.41607500  0.07807100  0.19177300
   0.24935542  0.49861898  0.28756932
   0.50671988  0.50331912  0.28939115
   0.33134100  0.41714300  0.09577600
   0.33677523  0.41677577  0.38710555
   0.41638400  0.33144300  0.19252200
   0.83354800  0.41839000  0.09448800
   0.83662126  0.41516599  0.38367793
   0.66732400  0.33240600  0.19435500
   0.91446400  0.32695500  0.19396500
   0.16914200  0.58833400  0.18947800
   0.66961600  0.58928900  0.18986000
   0.58310400  0.91651500  0.09583500
   0.58001327  0.91777124  0.38240707
   0.66797121  0.32836849  0.43554373
   0.16448783  0.83224413  0.43531327
   0.16347123  0.33159387  0.43728142
   0.66609138  0.83913607  0.43535677
   0.82267571  0.65571868  0.47592804
   0.94258494  0.72923095  0.51879686
   0.03980258  0.77721353  0.49182970
