       N       E                     dE             d eps       ncg     rms          rms(c)
DAV:   1     0.483166461282E+04    0.48317E+04   -0.24520E+05  8220   0.150E+03
DAV:   2     0.348287386409E+02   -0.47968E+04   -0.44852E+04  8220   0.349E+02
DAV:   3    -0.447753390119E+03   -0.48258E+03   -0.41526E+03  8511   0.160E+02
DAV:   4    -0.470284372784E+03   -0.22531E+02   -0.21875E+02  8754   0.371E+01
DAV:   5    -0.470735010365E+03   -0.45064E+00   -0.44957E+00  9348   0.479E+00    0.853E+01
RMM:   6    -0.653691927738E+03   -0.18296E+03   -0.89470E+02  8227   0.827E+01    0.184E+02
RMM:   7    -0.496076517673E+03    0.15762E+03   -0.31363E+02  8254   0.484E+01    0.130E+02
RMM:   8    -0.578075401023E+03   -0.81999E+02   -0.14074E+02  8251   0.311E+01    0.190E+02
RMM:   9    -0.484620866710E+03    0.93455E+02   -0.61800E+01  8287   0.194E+01    0.151E+02
RMM:  10    -0.444718371748E+03    0.39902E+02   -0.92423E+01  8269   0.226E+01    0.990E+01
RMM:  11    -0.477661167813E+03   -0.32943E+02   -0.11146E+02  8281   0.257E+01    0.133E+02
RMM:  12    -0.380926665330E+03    0.96735E+02   -0.54867E+01  8285   0.200E+01    0.810E+01
RMM:  13    -0.367505165214E+03    0.13422E+02   -0.26447E+01  8292   0.129E+01    0.568E+01
RMM:  14    -0.377501315342E+03   -0.99962E+01   -0.13894E+01  8299   0.918E+00    0.629E+01
RMM:  15    -0.367530213057E+03    0.99711E+01   -0.95304E+00  8292   0.812E+00    0.362E+01
RMM:  16    -0.372894424501E+03   -0.53642E+01   -0.77452E+00  8303   0.672E+00    0.397E+01
RMM:  17    -0.376014129408E+03   -0.31197E+01   -0.54158E+00  8301   0.562E+00    0.302E+01
RMM:  18    -0.379254016585E+03   -0.32399E+01   -0.41923E+00  8298   0.496E+00    0.250E+01
RMM:  19    -0.386412051236E+03   -0.71580E+01   -0.44355E+00  8284   0.438E+00    0.230E+01
RMM:  20    -0.390138136721E+03   -0.37261E+01   -0.33696E+00  8295   0.409E+00    0.177E+01
RMM:  21    -0.397145816003E+03   -0.70077E+01   -0.59159E+00  8275   0.449E+00    0.202E+01
RMM:  22    -0.400245786255E+03   -0.31000E+01   -0.42995E+00  8281   0.432E+00    0.156E+01
RMM:  23    -0.402866078747E+03   -0.26203E+01   -0.31675E+00  8275   0.349E+00    0.167E+01
RMM:  24    -0.403125141468E+03   -0.25906E+00   -0.15530E+00  8267   0.265E+00    0.104E+01
RMM:  25    -0.404482667799E+03   -0.13575E+01   -0.90861E-01  8278   0.197E+00    0.111E+01
RMM:  26    -0.405778165819E+03   -0.12955E+01   -0.12020E+00  8257   0.207E+00    0.895E+00
RMM:  27    -0.406421664863E+03   -0.64350E+00   -0.37757E-01  8288   0.130E+00    0.932E+00
RMM:  28    -0.406672456621E+03   -0.25079E+00   -0.14819E-01  8268   0.779E-01    0.713E+00
RMM:  29    -0.407039322500E+03   -0.36687E+00   -0.21204E-01  8260   0.929E-01    0.653E+00
RMM:  30    -0.408604769141E+03   -0.15654E+01   -0.15810E+00  8246   0.184E+00    0.817E+00
RMM:  31    -0.409007096314E+03   -0.40233E+00   -0.34527E-01  8270   0.122E+00    0.655E+00
RMM:  32    -0.409197295442E+03   -0.19020E+00   -0.23262E-01  8259   0.948E-01    0.263E+00
RMM:  33    -0.409315443595E+03   -0.11815E+00   -0.77019E-02  8274   0.584E-01    0.261E+00
RMM:  34    -0.409442250348E+03   -0.12681E+00   -0.46822E-02  8245   0.371E-01    0.218E+00
RMM:  35    -0.409484701683E+03   -0.42451E-01   -0.18887E-02  8271   0.297E-01    0.198E+00
RMM:  36    -0.409566853416E+03   -0.82152E-01   -0.30927E-02  8249   0.273E-01    0.180E+00
RMM:  37    -0.409585446677E+03   -0.18593E-01   -0.17688E-02  8262   0.257E-01    0.136E+00
RMM:  38    -0.409597453684E+03   -0.12007E-01   -0.24652E-02  8246   0.244E-01    0.106E+00
RMM:  39    -0.409609628149E+03   -0.12174E-01   -0.71890E-03  8278   0.179E-01    0.687E-01
RMM:  40    -0.409646684802E+03   -0.37057E-01   -0.47103E-03  8257   0.128E-01    0.618E-01
RMM:  41    -0.409668369826E+03   -0.21685E-01   -0.20795E-03  8262   0.987E-02    0.356E-01
RMM:  42    -0.409708332434E+03   -0.39963E-01   -0.22849E-03  8264   0.774E-02    0.370E-01
RMM:  43    -0.409736143905E+03   -0.27811E-01   -0.13800E-03  8257   0.699E-02    0.266E-01
RMM:  44    -0.409811785210E+03   -0.75641E-01   -0.29056E-03  8258   0.797E-02    0.708E-01
RMM:  45    -0.409856162529E+03   -0.44377E-01   -0.11164E-03  8260   0.597E-02    0.688E-01
RMM:  46    -0.409878615255E+03   -0.22453E-01   -0.38249E-04  8224   0.318E-02    0.448E-01
RMM:  47    -0.409895239894E+03   -0.16625E-01   -0.24802E-04  8201   0.316E-02    0.326E-01
RMM:  48    -0.409960920160E+03   -0.65680E-01   -0.12836E-03  8231   0.466E-02    0.208E-01
RMM:  49    -0.409981997246E+03   -0.21077E-01   -0.31249E-04  8224   0.317E-02    0.192E-01
RMM:  50    -0.410020956100E+03   -0.38959E-01   -0.63039E-04  8225   0.322E-02    0.163E-01
RMM:  51    -0.410029896327E+03   -0.89402E-02   -0.15725E-04  8157   0.257E-02    0.229E-01
RMM:  52    -0.410050367859E+03   -0.20472E-01   -0.25386E-04  7899   0.217E-02    0.217E-01
RMM:  53    -0.410059266348E+03   -0.88985E-02   -0.11914E-04  7570   0.185E-02    0.184E-01
RMM:  54    -0.410071066095E+03   -0.11800E-01   -0.20315E-04  7459   0.169E-02    0.144E-01
RMM:  55    -0.410074775628E+03   -0.37095E-02   -0.64439E-05  6671   0.137E-02    0.132E-01
RMM:  56    -0.410077257380E+03   -0.24818E-02   -0.55594E-05  6933   0.144E-02    0.164E-01
RMM:  57    -0.410080620827E+03   -0.33634E-02   -0.73953E-05  6632   0.138E-02    0.895E-02
RMM:  58    -0.410082574569E+03   -0.19537E-02   -0.40178E-05  5957   0.105E-02    0.455E-02
RMM:  59    -0.410085118109E+03   -0.25435E-02   -0.69934E-05  6173   0.105E-02    0.384E-02
RMM:  60    -0.410086223531E+03   -0.11054E-02   -0.29870E-05  5679   0.873E-03    0.248E-02
RMM:  61    -0.410087285025E+03   -0.10615E-02   -0.48924E-05  5976   0.817E-03    0.294E-02
RMM:  62    -0.410087270945E+03    0.14080E-04   -0.98903E-06  5124   0.701E-03    0.257E-02
RMM:  63    -0.410087220627E+03    0.50319E-04   -0.58783E-06  4790   0.509E-03    0.319E-02
RMM:  64    -0.410087186000E+03    0.34626E-04   -0.83767E-06  5254   0.409E-03    0.293E-02
RMM:  65    -0.410087160499E+03    0.25501E-04   -0.42944E-06  4974   0.346E-03    0.150E-02
RMM:  66    -0.410087158626E+03    0.18734E-05   -0.36765E-06  4940   0.284E-03
   1 F= -.41008716E+03 E0= -.41009397E+03  d E =-.410087E+03  mag=   102.5328
       N       E                     dE             d eps       ncg     rms          rms(c)
DAV:   1    -0.409214846875E+03    0.87231E+00   -0.28229E+02  8274   0.250E+01    0.126E+01
RMM:   2    -0.416539952259E+03   -0.73251E+01   -0.15306E+01  8258   0.111E+01    0.375E+01
RMM:   3    -0.415062037853E+03    0.14779E+01   -0.74888E+00  8273   0.692E+00    0.261E+01
RMM:   4    -0.417162323920E+03   -0.21003E+01   -0.26669E+00  8283   0.371E+00    0.316E+01
RMM:   5    -0.411523554929E+03    0.56388E+01   -0.16203E+00  8270   0.319E+00    0.112E+01
RMM:   6    -0.411172744211E+03    0.35081E+00   -0.48975E-01  8271   0.176E+00    0.412E+00
RMM:   7    -0.411173260489E+03   -0.51628E-03   -0.13364E-01  8278   0.902E-01    0.377E+00
RMM:   8    -0.411126942835E+03    0.46318E-01   -0.61093E-02  8280   0.662E-01    0.217E+00
RMM:   9    -0.411137206953E+03   -0.10264E-01   -0.54474E-02  8270   0.568E-01    0.304E+00
RMM:  10    -0.411092040383E+03    0.45167E-01   -0.44354E-02  8278   0.517E-01    0.150E+00
RMM:  11    -0.411086331227E+03    0.57092E-02   -0.18193E-02  8274   0.335E-01    0.122E+00
RMM:  12    -0.411079713536E+03    0.66177E-02   -0.11830E-02  8280   0.268E-01    0.122E+00
RMM:  13    -0.411074206762E+03    0.55068E-02   -0.66765E-03  8266   0.208E-01    0.457E-01
RMM:  14    -0.411077392730E+03   -0.31860E-02   -0.20931E-03  8261   0.110E-01    0.506E-01
RMM:  15    -0.411079541836E+03   -0.21491E-02   -0.11485E-03  8263   0.879E-02    0.190E-01
RMM:  16    -0.411084912171E+03   -0.53703E-02   -0.54706E-04  8252   0.549E-02    0.289E-01
RMM:  17    -0.411093804721E+03   -0.88926E-02   -0.43238E-04  8225   0.458E-02    0.163E-01
RMM:  18    -0.411099370793E+03   -0.55661E-02   -0.24183E-04  8221   0.336E-02    0.172E-01
RMM:  19    -0.411112705728E+03   -0.13335E-01   -0.43416E-04  8217   0.317E-02    0.137E-01
RMM:  20    -0.411118131151E+03   -0.54254E-02   -0.17618E-04  8187   0.257E-02    0.119E-01
RMM:  21    -0.411134163985E+03   -0.16033E-01   -0.76127E-04  8221   0.317E-02    0.120E-01
RMM:  22    -0.411138756842E+03   -0.45929E-02   -0.21059E-04  8182   0.241E-02    0.723E-02
RMM:  23    -0.411146386578E+03   -0.76297E-02   -0.45575E-04  8219   0.267E-02    0.107E-01
RMM:  24    -0.411149385422E+03   -0.29988E-02   -0.17740E-04  7871   0.198E-02    0.365E-02
RMM:  25    -0.411151064835E+03   -0.16794E-02   -0.83950E-05  7133   0.146E-02    0.610E-02
RMM:  26    -0.411152691464E+03   -0.16266E-02   -0.94064E-05  6949   0.132E-02    0.463E-02
RMM:  27    -0.411152986202E+03   -0.29474E-03   -0.15113E-05  5311   0.683E-03    0.344E-02
RMM:  28    -0.411153240872E+03   -0.25467E-03   -0.11860E-05  5177   0.615E-03    0.116E-02
RMM:  29    -0.411153334476E+03   -0.93604E-04   -0.47682E-06  4756   0.425E-03    0.125E-02
RMM:  30    -0.411153423756E+03   -0.89280E-04   -0.38407E-06  4788   0.355E-03    0.741E-03
RMM:  31    -0.411153458445E+03   -0.34689E-04   -0.15438E-06  4488   0.225E-03    0.880E-03
RMM:  32    -0.411153501931E+03   -0.43486E-04   -0.16172E-06  4494   0.209E-03    0.633E-03
RMM:  33    -0.411153527896E+03   -0.25964E-04   -0.10328E-06  3996   0.159E-03    0.668E-03
RMM:  34    -0.411153548782E+03   -0.20886E-04   -0.98775E-07  3892   0.157E-03    0.271E-03
RMM:  35    -0.411153560775E+03   -0.11993E-04   -0.68171E-07  3273   0.128E-03    0.377E-03
RMM:  36    -0.411153570589E+03   -0.98145E-05   -0.56587E-07  3328   0.126E-03
   2 F= -.41115357E+03 E0= -.41116043E+03  d E =-.106641E+01  mag=   103.1481
       N       E                     dE             d eps       ncg     rms          rms(c)
DAV:   1    -0.409387050488E+03    0.17665E+01   -0.29565E+02  8244   0.256E+01    0.128E+01
RMM:   2    -0.415799769858E+03   -0.64127E+01   -0.14347E+01  8254   0.106E+01    0.352E+01
RMM:   3    -0.414581856933E+03    0.12179E+01   -0.76890E+00  8271   0.700E+00    0.239E+01
RMM:   4    -0.419656599629E+03   -0.50747E+01   -0.26834E+00  8283   0.375E+00    0.374E+01
RMM:   5    -0.411802177595E+03    0.78544E+01   -0.16187E+00  8275   0.319E+00    0.101E+01
RMM:   6    -0.411499085275E+03    0.30309E+00   -0.48952E-01  8271   0.175E+00    0.391E+00
RMM:   7    -0.411498734916E+03    0.35036E-03   -0.11851E-01  8274   0.849E-01    0.353E+00
RMM:   8    -0.411458420917E+03    0.40314E-01   -0.59909E-02  8275   0.650E-01    0.206E+00
RMM:   9    -0.411465305323E+03   -0.68844E-02   -0.50281E-02  8274   0.539E-01    0.295E+00
RMM:  10    -0.411421945739E+03    0.43360E-01   -0.38358E-02  8275   0.493E-01    0.112E+00
RMM:  11    -0.411422457330E+03   -0.51159E-03   -0.17702E-02  8276   0.327E-01    0.138E+00
RMM:  12    -0.411416128887E+03    0.63284E-02   -0.10008E-02  8273   0.252E-01    0.940E-01
RMM:  13    -0.411414257177E+03    0.18717E-02   -0.45252E-03  8263   0.170E-01    0.512E-01
RMM:  14    -0.411418792237E+03   -0.45351E-02   -0.17242E-03  8260   0.101E-01    0.413E-01
RMM:  15    -0.411420783858E+03   -0.19916E-02   -0.81344E-04  8241   0.734E-02    0.176E-01
RMM:  16    -0.411427818667E+03   -0.70348E-02   -0.38115E-04  8239   0.432E-02    0.236E-01
RMM:  17    -0.411433066783E+03   -0.52481E-02   -0.26979E-04  8215   0.391E-02    0.119E-01
RMM:  18    -0.411443602970E+03   -0.10536E-01   -0.34564E-04  8226   0.343E-02    0.188E-01
RMM:  19    -0.411452744685E+03   -0.91417E-02   -0.28472E-04  8217   0.301E-02    0.953E-02
RMM:  20    -0.411459832409E+03   -0.70877E-02   -0.19964E-04  8185   0.245E-02    0.137E-01
RMM:  21    -0.411471417768E+03   -0.11585E-01   -0.43002E-04  8140   0.256E-02    0.918E-02
RMM:  22    -0.411474731693E+03   -0.33139E-02   -0.11020E-04  7490   0.181E-02    0.794E-02
RMM:  23    -0.411482873734E+03   -0.81420E-02   -0.44728E-04  8116   0.229E-02    0.714E-02
RMM:  24    -0.411484788402E+03   -0.19147E-02   -0.89468E-05  7196   0.147E-02    0.437E-02
RMM:  25    -0.411487467352E+03   -0.26790E-02   -0.14859E-04  7362   0.142E-02    0.539E-02
RMM:  26    -0.411488171095E+03   -0.70374E-03   -0.35433E-05  5990   0.997E-03    0.411E-02
RMM:  27    -0.411488697026E+03   -0.52593E-03   -0.25297E-05  5599   0.718E-03    0.256E-02
RMM:  28    -0.411488828018E+03   -0.13099E-03   -0.72719E-06  4858   0.557E-03    0.127E-02
RMM:  29    -0.411488969985E+03   -0.14197E-03   -0.76560E-06  4988   0.372E-03    0.116E-02
RMM:  30    -0.411489001225E+03   -0.31241E-04   -0.24919E-06  4624   0.340E-03    0.565E-03
RMM:  31    -0.411489033931E+03   -0.32705E-04   -0.18518E-06  4404   0.198E-03    0.705E-03
RMM:  32    -0.411489048312E+03   -0.14381E-04   -0.74168E-07  4212   0.179E-03    0.621E-03
RMM:  33    -0.411489076055E+03   -0.27743E-04   -0.11622E-06  3631   0.138E-03    0.531E-03
RMM:  34    -0.411489086480E+03   -0.10425E-04   -0.38167E-07  3334   0.123E-03    0.348E-03
RMM:  35    -0.411489111064E+03   -0.24585E-04   -0.88322E-07  3365   0.126E-03    0.290E-03
RMM:  36    -0.411489120672E+03   -0.96075E-05   -0.26358E-07  2474   0.106E-03
   3 F= -.41148912E+03 E0= -.41149753E+03  d E =-.140196E+01  mag=   103.5863
       N       E                     dE             d eps       ncg     rms          rms(c)
DAV:   1    -0.411287933158E+03    0.20118E+00   -0.12276E+02  8268   0.165E+01    0.632E+00
RMM:   2    -0.412836825947E+03   -0.15489E+01   -0.27468E+00  8275   0.471E+00    0.161E+01
RMM:   3    -0.413834092367E+03   -0.99727E+00   -0.17783E+00  8277   0.332E+00    0.194E+01
RMM:   4    -0.413356841961E+03    0.47725E+00   -0.85737E-01  8277   0.219E+00    0.163E+01
RMM:   5    -0.411866891363E+03    0.14900E+01   -0.46581E-01  8274   0.175E+00    0.354E+00
RMM:   6    -0.411832269621E+03    0.34622E-01   -0.90178E-02  8273   0.754E-01    0.222E+00
RMM:   7    -0.411821978446E+03    0.10291E-01   -0.25233E-02  8268   0.397E-01    0.177E+00
RMM:   8    -0.411811483471E+03    0.10495E-01   -0.16828E-02  8279   0.337E-01    0.107E+00
RMM:   9    -0.411812432489E+03   -0.94902E-03   -0.16654E-02  8273   0.311E-01    0.160E+00
RMM:  10    -0.411798265590E+03    0.14167E-01   -0.12477E-02  8279   0.284E-01    0.524E-01
RMM:  11    -0.411799523776E+03   -0.12582E-02   -0.57590E-03  8268   0.183E-01    0.791E-01
RMM:  12    -0.411798400695E+03    0.11231E-02   -0.24439E-03  8273   0.128E-01    0.338E-01
RMM:  13    -0.411798928991E+03   -0.52830E-03   -0.82327E-04  8235   0.719E-02    0.214E-01
RMM:  14    -0.411801337371E+03   -0.24084E-02   -0.28905E-04  8220   0.414E-02    0.186E-01
RMM:  15    -0.411802417559E+03   -0.10802E-02   -0.15535E-04  8193   0.321E-02    0.854E-02
RMM:  16    -0.411805451413E+03   -0.30339E-02   -0.11830E-04  8168   0.234E-02    0.128E-01
RMM:  17    -0.411808489450E+03   -0.30380E-02   -0.95821E-05  7773   0.210E-02    0.596E-02
RMM:  18    -0.411811623314E+03   -0.31339E-02   -0.85484E-05  7550   0.176E-02    0.925E-02
RMM:  19    -0.411815359955E+03   -0.37366E-02   -0.10043E-04  7282   0.165E-02    0.496E-02
RMM:  20    -0.411816719693E+03   -0.13597E-02   -0.31729E-05  5904   0.110E-02    0.511E-02
RMM:  21    -0.411821429590E+03   -0.47099E-02   -0.18245E-04  7462   0.152E-02    0.529E-02
RMM:  22    -0.411822806531E+03   -0.13769E-02   -0.43169E-05  6209   0.108E-02    0.402E-02
RMM:  23    -0.411825672368E+03   -0.28658E-02   -0.15242E-04  7291   0.131E-02    0.423E-02
RMM:  24    -0.411826287560E+03   -0.61519E-03   -0.26654E-05  5687   0.804E-03    0.306E-02
RMM:  25    -0.411826759639E+03   -0.47208E-03   -0.22603E-05  5524   0.606E-03    0.190E-02
RMM:  26    -0.411826888031E+03   -0.12839E-03   -0.81716E-06  4909   0.520E-03    0.196E-02
RMM:  27    -0.411826941691E+03   -0.53660E-04   -0.59022E-06  4859   0.325E-03    0.127E-02
RMM:  28    -0.411826944504E+03   -0.28129E-05   -0.16223E-06  4519   0.253E-03
   4 F= -.41182694E+03 E0= -.41183660E+03  d E =-.337824E+00  mag=   103.7726
       N       E                     dE             d eps       ncg     rms          rms(c)
DAV:   1    -0.409367606960E+03    0.24593E+01   -0.56149E+02  8220   0.363E+01    0.136E+01
RMM:   2    -0.416227291686E+03   -0.68597E+01   -0.16422E+01  8275   0.113E+01    0.345E+01
RMM:   3    -0.416041028761E+03    0.18626E+00   -0.93750E+00  8280   0.774E+00    0.263E+01
RMM:   4    -0.422293405446E+03   -0.62524E+01   -0.33708E+00  8281   0.436E+00    0.410E+01
RMM:   5    -0.412249510447E+03    0.10044E+02   -0.16415E+00  8275   0.316E+00    0.789E+00
RMM:   6    -0.412084921310E+03    0.16459E+00   -0.42727E-01  8276   0.160E+00    0.465E+00
RMM:   7    -0.412002007493E+03    0.82914E-01   -0.76726E-02  8283   0.729E-01    0.254E+00
RMM:   8    -0.411986727468E+03    0.15280E-01   -0.48477E-02  8272   0.560E-01    0.216E+00
RMM:   9    -0.411983848236E+03    0.28792E-02   -0.63951E-02  8282   0.589E-01    0.307E+00
RMM:  10    -0.411940389246E+03    0.43459E-01   -0.55274E-02  8275   0.588E-01    0.126E+00
RMM:  11    -0.411946090744E+03   -0.57015E-02   -0.24885E-02  8276   0.382E-01    0.186E+00
RMM:  12    -0.411938289033E+03    0.78017E-02   -0.13588E-02  8279   0.304E-01    0.809E-01
RMM:  13    -0.411944253633E+03   -0.59646E-02   -0.54983E-03  8277   0.180E-01    0.878E-01
RMM:  14    -0.411951324556E+03   -0.70709E-02   -0.27356E-03  8272   0.135E-01    0.360E-01
RMM:  15    -0.411955552224E+03   -0.42277E-02   -0.82280E-04  8259   0.711E-02    0.217E-01
RMM:  16    -0.411971251536E+03   -0.15699E-01   -0.63061E-04  8261   0.528E-02    0.282E-01
RMM:  17    -0.411980545102E+03   -0.92936E-02   -0.38707E-04  8224   0.456E-02    0.155E-01
RMM:  18    -0.411999048458E+03   -0.18503E-01   -0.49950E-04  8233   0.379E-02    0.206E-01
RMM:  19    -0.412014277310E+03   -0.15229E-01   -0.40319E-04  8219   0.338E-02    0.940E-02
RMM:  20    -0.412028006391E+03   -0.13729E-01   -0.34910E-04  8220   0.288E-02    0.151E-01
RMM:  21    -0.412045403411E+03   -0.17397E-01   -0.61050E-04  8193   0.295E-02    0.932E-02
RMM:  22    -0.412052095100E+03   -0.66917E-02   -0.21900E-04  8156   0.227E-02    0.100E-01
RMM:  23    -0.412062543102E+03   -0.10448E-01   -0.57475E-04  8173   0.252E-02    0.882E-02
RMM:  24    -0.412064726401E+03   -0.21833E-02   -0.99148E-05  7295   0.156E-02    0.722E-02
RMM:  25    -0.412067829734E+03   -0.31033E-02   -0.15222E-04  7521   0.153E-02    0.644E-02
RMM:  26    -0.412069063426E+03   -0.12337E-02   -0.56633E-05  6468   0.118E-02    0.769E-02
RMM:  27    -0.412069927362E+03   -0.86394E-03   -0.52016E-05  6167   0.986E-03    0.465E-02
RMM:  28    -0.412070054677E+03   -0.12731E-03   -0.90806E-06  4923   0.523E-03    0.378E-02
RMM:  29    -0.412070172538E+03   -0.11786E-03   -0.10912E-05  5087   0.493E-03    0.136E-02
RMM:  30    -0.412070205115E+03   -0.32577E-04   -0.28287E-06  4647   0.339E-03    0.118E-02
RMM:  31    -0.412070272253E+03   -0.67138E-04   -0.45450E-06  4958   0.284E-03    0.919E-03
RMM:  32    -0.412070301923E+03   -0.29670E-04   -0.14777E-06  4498   0.226E-03    0.866E-03
RMM:  33    -0.412070385394E+03   -0.83471E-04   -0.23647E-06  4365   0.193E-03    0.668E-03
RMM:  34    -0.412070430965E+03   -0.45571E-04   -0.10620E-06  4319   0.167E-03    0.672E-03
RMM:  35    -0.412070518955E+03   -0.87990E-04   -0.21640E-06  4233   0.173E-03    0.316E-03
RMM:  36    -0.412070551093E+03   -0.32139E-04   -0.64948E-07  3496   0.133E-03    0.317E-03
RMM:  37    -0.412070610498E+03   -0.59405E-04   -0.10410E-06  2997   0.128E-03    0.242E-03
RMM:  38    -0.412070628887E+03   -0.18389E-04   -0.29860E-07  2284   0.107E-03    0.195E-03
RMM:  39    -0.412070672961E+03   -0.44074E-04   -0.75476E-07  2636   0.115E-03    0.435E-03
RMM:  40    -0.412070681831E+03   -0.88697E-05   -0.18095E-07  1976   0.984E-04
   5 F= -.41207068E+03 E0= -.41208230E+03  d E =-.581561E+00  mag=   104.0791
       N       E                     dE             d eps       ncg     rms          rms(c)
DAV:   1    -0.411701764848E+03    0.36891E+00   -0.11021E+02  8220   0.156E+01    0.610E+00
RMM:   2    -0.412905192783E+03   -0.12034E+01   -0.21134E+00  8283   0.402E+00    0.131E+01
RMM:   3    -0.414811794046E+03   -0.19066E+01   -0.15916E+00  8282   0.307E+00    0.219E+01
RMM:   4    -0.413308362377E+03    0.15034E+01   -0.78878E-01  8272   0.211E+00    0.145E+01
RMM:   5    -0.412254316559E+03    0.10540E+01   -0.49107E-01  8278   0.182E+00    0.362E+00
RMM:   6    -0.412214350930E+03    0.39966E-01   -0.76214E-02  8266   0.686E-01    0.182E+00
RMM:   7    -0.412208720053E+03    0.56309E-02   -0.21899E-02  8264   0.374E-01    0.178E+00
RMM:   8    -0.412199775559E+03    0.89445E-02   -0.12639E-02  8269   0.292E-01    0.114E+00
RMM:   9    -0.412200551794E+03   -0.77624E-03   -0.13561E-02  8281   0.281E-01    0.146E+00
RMM:  10    -0.412191007002E+03    0.95448E-02   -0.10936E-02  8269   0.264E-01    0.600E-01
RMM:  11    -0.412193144893E+03   -0.21379E-02   -0.52367E-03  8269   0.175E-01    0.841E-01
RMM:  12    -0.412191776208E+03    0.13687E-02   -0.25403E-03  8279   0.130E-01    0.314E-01
RMM:  13    -0.412192232078E+03   -0.45587E-03   -0.69052E-04  8244   0.650E-02    0.170E-01
RMM:  14    -0.412194355462E+03   -0.21234E-02   -0.25650E-04  8223   0.388E-02    0.171E-01
RMM:  15    -0.412195213120E+03   -0.85766E-03   -0.13895E-04  8184   0.306E-02    0.751E-02
RMM:  16    -0.412197512122E+03   -0.22990E-02   -0.83576E-05  7897   0.204E-02    0.111E-01
RMM:  17    -0.412199446576E+03   -0.19345E-02   -0.59901E-05  7325   0.183E-02    0.530E-02
RMM:  18    -0.412201716179E+03   -0.22696E-02   -0.50884E-05  6656   0.144E-02    0.728E-02
RMM:  19    -0.412203942896E+03   -0.22267E-02   -0.46412E-05  6231   0.140E-02    0.343E-02
RMM:  20    -0.412205804102E+03   -0.18612E-02   -0.35834E-05  5817   0.106E-02    0.542E-02
RMM:  21    -0.412207853429E+03   -0.20493E-02   -0.43862E-05  6218   0.110E-02    0.364E-02
RMM:  22    -0.412209317783E+03   -0.14644E-02   -0.32401E-05  5799   0.939E-03    0.459E-02
RMM:  23    -0.412211970433E+03   -0.26526E-02   -0.10652E-04  7040   0.123E-02    0.243E-02
RMM:  24    -0.412212555740E+03   -0.58531E-03   -0.17513E-05  5141   0.681E-03    0.231E-02
RMM:  25    -0.412213388222E+03   -0.83248E-03   -0.38632E-05  5917   0.679E-03    0.150E-02
RMM:  26    -0.412213488183E+03   -0.99961E-04   -0.67486E-06  4779   0.445E-03    0.971E-03
RMM:  27    -0.412213523301E+03   -0.35118E-04   -0.10208E-05  5153   0.323E-03    0.109E-02
RMM:  28    -0.412213517794E+03    0.55070E-05   -0.15591E-06  4504   0.256E-03
   6 F= -.41221352E+03 E0= -.41222689E+03  d E =-.142836E+00  mag=   104.1254
       N       E                     dE             d eps       ncg     rms          rms(c)
DAV:   1    -0.411988102063E+03    0.22542E+00   -0.55402E+01  8238   0.110E+01    0.429E+00
RMM:   2    -0.412611249093E+03   -0.62315E+00   -0.96937E-01  8283   0.272E+00    0.941E+00
RMM:   3    -0.413642024393E+03   -0.10308E+01   -0.74735E-01  8283   0.209E+00    0.162E+01
RMM:   4    -0.412762309869E+03    0.87971E+00   -0.41493E-01  8272   0.154E+00    0.102E+01
RMM:   5    -0.412255593508E+03    0.50672E+00   -0.24872E-01  8279   0.130E+00    0.237E+00
RMM:   6    -0.412238531034E+03    0.17062E-01   -0.35342E-02  8263   0.471E-01    0.111E+00
RMM:   7    -0.412237762181E+03    0.76885E-03   -0.10151E-02  8261   0.252E-01    0.130E+00
RMM:   8    -0.412232121474E+03    0.56407E-02   -0.62630E-03  8271   0.205E-01    0.746E-01
RMM:   9    -0.412232864324E+03   -0.74285E-03   -0.65047E-03  8281   0.195E-01    0.101E+00
RMM:  10    -0.412227869926E+03    0.49944E-02   -0.49551E-03  8270   0.178E-01    0.353E-01
RMM:  11    -0.412229002316E+03   -0.11324E-02   -0.21801E-03  8266   0.112E-01    0.500E-01
RMM:  12    -0.412228951738E+03    0.50578E-04   -0.96747E-04  8270   0.803E-02    0.206E-01
RMM:  13    -0.412229180036E+03   -0.22830E-03   -0.24030E-04  8220   0.388E-02    0.831E-02
RMM:  14    -0.412230230495E+03   -0.10505E-02   -0.92277E-05  8048   0.228E-02    0.108E-01
RMM:  15    -0.412230784089E+03   -0.55359E-03   -0.52124E-05  7351   0.189E-02    0.473E-02
RMM:  16    -0.412231998457E+03   -0.12144E-02   -0.38739E-05  6358   0.139E-02    0.779E-02
RMM:  17    -0.412233163767E+03   -0.11653E-02   -0.33590E-05  5798   0.140E-02    0.360E-02
RMM:  18    -0.412234136659E+03   -0.97289E-03   -0.21521E-05  5069   0.978E-03    0.473E-02
RMM:  19    -0.412235334931E+03   -0.11983E-02   -0.23682E-05  5301   0.100E-02    0.227E-02
RMM:  20    -0.412236271976E+03   -0.93704E-03   -0.16700E-05  4938   0.715E-03    0.353E-02
RMM:  21    -0.412237521958E+03   -0.12500E-02   -0.25544E-05  5505   0.809E-03    0.242E-02
RMM:  22    -0.412238543791E+03   -0.10218E-02   -0.22951E-05  5379   0.718E-03    0.327E-02
RMM:  23    -0.412239840337E+03   -0.12965E-02   -0.46002E-05  6056   0.839E-03    0.131E-02
RMM:  24    -0.412240205414E+03   -0.36508E-03   -0.12813E-05  4920   0.504E-03    0.167E-02
RMM:  25    -0.412240401806E+03   -0.19639E-03   -0.10672E-05  4910   0.466E-03    0.653E-03
RMM:  26    -0.412240427526E+03   -0.25720E-04   -0.28018E-06  4605   0.270E-03    0.709E-03
RMM:  27    -0.412240420465E+03    0.70613E-05   -0.40099E-06  4833   0.241E-03
   7 F= -.41224042E+03 E0= -.41225478E+03  d E =-.169739E+00  mag=   104.1458
       N       E                     dE             d eps       ncg     rms          rms(c)
DAV:   1    -0.412169414570E+03    0.71013E-01   -0.30085E+01  8286   0.814E+00    0.275E+00
RMM:   2    -0.412402236396E+03   -0.23282E+00   -0.47626E-01  8276   0.202E+00    0.550E+00
RMM:   3    -0.412812203939E+03   -0.40997E+00   -0.31049E-01  8279   0.136E+00    0.100E+01
RMM:   4    -0.412515732215E+03    0.29647E+00   -0.16015E-01  8281   0.950E-01    0.697E+00
RMM:   5    -0.412285479423E+03    0.23025E+00   -0.94360E-02  8278   0.798E-01    0.154E+00
RMM:   6    -0.412278434325E+03    0.70451E-02   -0.14741E-02  8264   0.301E-01    0.707E-01
RMM:   7    -0.412278709365E+03   -0.27504E-03   -0.46563E-03  8268   0.168E-01    0.906E-01
RMM:   8    -0.412275606836E+03    0.31025E-02   -0.30703E-03  8275   0.144E-01    0.424E-01
RMM:   9    -0.412276434054E+03   -0.82722E-03   -0.31158E-03  8252   0.135E-01    0.692E-01
RMM:  10    -0.412274142492E+03    0.22916E-02   -0.22788E-03  8271   0.121E-01    0.231E-01
RMM:  11    -0.412274361079E+03   -0.21859E-03   -0.71372E-04  8236   0.648E-02    0.280E-01
RMM:  12    -0.412274221101E+03    0.13998E-03   -0.27690E-04  8217   0.439E-02    0.123E-01
RMM:  13    -0.412274236961E+03   -0.15860E-04   -0.77764E-05  8041   0.227E-02    0.453E-02
RMM:  14    -0.412274439224E+03   -0.20226E-03   -0.23264E-05  5342   0.122E-02    0.572E-02
RMM:  15    -0.412274545336E+03   -0.10611E-03   -0.16499E-05  4687   0.123E-02    0.234E-02
RMM:  16    -0.412274812749E+03   -0.26741E-03   -0.11287E-05  4695   0.792E-03    0.413E-02
RMM:  17    -0.412275104565E+03   -0.29182E-03   -0.10141E-05  4671   0.841E-03    0.195E-02
RMM:  18    -0.412275253988E+03   -0.14942E-03   -0.34879E-06  4532   0.437E-03    0.192E-02
RMM:  19    -0.412275522387E+03   -0.26840E-03   -0.32929E-06  4614   0.381E-03    0.121E-02
RMM:  20    -0.412275688805E+03   -0.16642E-03   -0.19970E-06  4544   0.296E-03    0.148E-02
RMM:  21    -0.412276069561E+03   -0.38076E-03   -0.47570E-06  4697   0.321E-03    0.103E-02
RMM:  22    -0.412276345857E+03   -0.27630E-03   -0.39549E-06  4672   0.322E-03    0.135E-02
RMM:  23    -0.412276890341E+03   -0.54448E-03   -0.15581E-05  5000   0.403E-03    0.772E-03
RMM:  24    -0.412277007760E+03   -0.11742E-03   -0.34142E-06  4632   0.269E-03    0.727E-03
RMM:  25    -0.412277127076E+03   -0.11932E-03   -0.45972E-06  4650   0.245E-03    0.393E-03
RMM:  26    -0.412277145858E+03   -0.18782E-04   -0.98850E-07  3918   0.160E-03    0.350E-03
RMM:  27    -0.412277156692E+03   -0.10834E-04   -0.14255E-06  3395   0.132E-03    0.248E-03
RMM:  28    -0.412277154745E+03    0.19474E-05   -0.28800E-07  2822   0.114E-03
   8 F= -.41227715E+03 E0= -.41229198E+03  d E =-.367343E-01  mag=   104.1586
       N       E                     dE             d eps       ncg     rms          rms(c)
DAV:   1    -0.412273701959E+03    0.34547E-02   -0.13007E+00  8448   0.169E+00    0.566E-01
RMM:   2    -0.412284466861E+03   -0.10765E-01   -0.19173E-02  8277   0.403E-01    0.120E+00
RMM:   3    -0.412304302516E+03   -0.19836E-01   -0.12281E-02  8278   0.268E-01    0.222E+00
RMM:   4    -0.412287030162E+03    0.17272E-01   -0.75358E-03  8268   0.207E-01    0.137E+00
RMM:   5    -0.412278531680E+03    0.84985E-02   -0.39979E-03  8274   0.167E-01    0.286E-01
RMM:   6    -0.412278254500E+03    0.27718E-03   -0.51367E-04  8236   0.562E-02    0.109E-01
RMM:   7    -0.412278270674E+03   -0.16174E-04   -0.19566E-04  8220   0.339E-02    0.196E-01
RMM:   8    -0.412278060434E+03    0.21024E-03   -0.13933E-04  8170   0.306E-02    0.642E-02
RMM:   9    -0.412278081555E+03   -0.21121E-04   -0.12515E-04  8205   0.271E-02    0.134E-01
RMM:  10    -0.412277960106E+03    0.12145E-03   -0.77105E-05  7957   0.225E-02    0.494E-02
RMM:  11    -0.412277958719E+03    0.13863E-05   -0.15216E-05  4629   0.102E-02
   9 F= -.41227796E+03 E0= -.41229286E+03  d E =-.375383E-01  mag=   104.1593
       N       E                     dE             d eps       ncg     rms          rms(c)
DAV:   1    -0.412270857003E+03    0.71031E-02   -0.43985E+00  8310   0.311E+00    0.934E-01
RMM:   2    -0.412302904731E+03   -0.32048E-01   -0.63712E-02  8273   0.752E-01    0.201E+00
RMM:   3    -0.412356206966E+03   -0.53302E-01   -0.34532E-02  8273   0.451E-01    0.367E+00
RMM:   4    -0.412303619232E+03    0.52588E-01   -0.20674E-02  8277   0.344E-01    0.211E+00
RMM:   5    -0.412284816579E+03    0.18803E-01   -0.10349E-02  8274   0.270E-01    0.529E-01
RMM:   6    -0.412283820061E+03    0.99652E-03   -0.14321E-03  8269   0.951E-02    0.187E-01
RMM:   7    -0.412284062828E+03   -0.24277E-03   -0.59925E-04  8235   0.585E-02    0.346E-01
RMM:   8    -0.412283637322E+03    0.42551E-03   -0.46717E-04  8248   0.552E-02    0.133E-01
RMM:   9    -0.412283851278E+03   -0.21396E-03   -0.47213E-04  8239   0.526E-02    0.249E-01
RMM:  10    -0.412283642614E+03    0.20866E-03   -0.27532E-04  8222   0.423E-02    0.824E-02
RMM:  11    -0.412283638287E+03    0.43279E-05   -0.60717E-05  7789   0.192E-02
  10 F= -.41228364E+03 E0= -.41229854E+03  d E =-.567957E-02  mag=   104.1508
