 vasp.5.4.4.18Apr17-6-g9f103f2a35 (build Sep 06 2021 19:49:22) complex          
  
 executed on             LinuxIFC date 2022.01.03  14:36:28
 running on   72 total cores
 distrk:  each k-point on   72 cores,    1 groups
 distr:  one band on NCORES_PER_BAND=  24 cores,    3 groups


--------------------------------------------------------------------------------------------------------


 INCAR:
 POTCAR:    PAW_PBE Ni 02Aug2007                  
 POTCAR:    PAW_PBE Fe 06Sep2000                  

 ----------------------------------------------------------------------------- 
|                                                                             |
|           W    W    AA    RRRRR   N    N  II  N    N   GGGG   !!!           |
|           W    W   A  A   R    R  NN   N  II  NN   N  G    G  !!!           |
|           W    W  A    A  R    R  N N  N  II  N N  N  G       !!!           |
|           W WW W  AAAAAA  RRRRR   N  N N  II  N  N N  G  GGG   !            |
|           WW  WW  A    A  R   R   N   NN  II  N   NN  G    G                |
|           W    W  A    A  R    R  N    N  II  N    N   GGGG   !!!           |
|                                                                             |
|      For optimal performance we recommend to set                            |
|        NCORE= 4 - approx SQRT( number of cores)                             |
|      NCORE specifies how many cores store one orbital (NPAR=cpu/NCORE).     |
|      This setting can  greatly improve the performance of VASP for DFT.     |
|      The default,   NCORE=1            might be grossly inefficient         |
|      on modern multi-core architectures or massively parallel machines.     |
|      Do your own testing !!!!                                               |
|      Unfortunately you need to use the default for GW and RPA calculations. |
|      (for HF NCORE is supported but not extensively tested yet)             |
|                                                                             |
 ----------------------------------------------------------------------------- 

 POTCAR:    PAW_PBE Ni 02Aug2007                  
   VRHFIN =Ni:                                                                  
   LEXCH  = PE                                                                  
   EATOM  =  1077.6739 eV,   79.2068 Ry                                         
                                                                                
   TITEL  = PAW_PBE Ni 02Aug2007                                                
   LULTRA =        F    use ultrasoft PP ?                                      
   IUNSCR =        1    unscreen: 0-lin 1-nonlin 2-no                           
   RPACOR =    2.000    partial core radius                                     
   POMASS =   58.690; ZVAL   =   10.000    mass and valenz                      
   RCORE  =    2.300    outmost cutoff radius                                   
   RWIGS  =    2.430; RWIGS  =    1.286    wigner-seitz radius (au A)           
   ENMAX  =  269.532; ENMIN  =  202.149 eV                                      
   RCLOC  =    1.201    cutoff for local pot                                    
   LCOR   =        T    correct aug charges                                     
   LPAW   =        T    paw PP                                                  
   EAUG   =  544.565                                                            
   DEXC   =    0.000                                                            
   RMAX   =    2.357    core radius for proj-oper                               
   RAUG   =    1.300    factor for augmentation sphere                          
   RDEP   =    2.390    radius for radial grids                                 
   RDEPT  =    1.838    core radius for aug-charge                              
                                                                                
   Atomic configuration                                                         
    9 entries                                                                   
     n  l   j            E        occ.                                          
     1  0  0.50     -8206.4253   2.0000                                         
     2  0  0.50      -976.1748   2.0000                                         
     2  1  1.50      -839.0571   6.0000                                         
     3  0  0.50      -105.9991   2.0000                                         
     3  1  1.50       -66.4603   6.0000                                         
     3  2  2.50        -4.6458   9.0000                                         
     4  0  0.50        -4.4926   1.0000                                         
     4  1  1.50        -4.0817   0.0000                                         
     4  3  2.50        -1.3606   0.0000                                         
   Description                                                                  
     l       E           TYP  RCUT    TYP  RCUT                                 
     2     -4.6457903     23  2.300                                             
     2     -6.0063729     23  2.300                                             
     0     -4.4925590     23  2.300                                             
     0      5.0102601     23  2.300                                             
     1     -2.7211652     23  2.300                                             
     1     16.5183231     23  2.300                                             
  local pseudopotential read in
  partial core-charges read in
  partial kinetic energy density read in
  atomic valenz-charges read in
  non local Contribution for L=           2  read in
    real space projection operators read in
  non local Contribution for L=           2  read in
    real space projection operators read in
  non local Contribution for L=           0  read in
    real space projection operators read in
  non local Contribution for L=           0  read in
    real space projection operators read in
  non local Contribution for L=           1  read in
    real space projection operators read in
  non local Contribution for L=           1  read in
    real space projection operators read in
    PAW grid and wavefunctions read in
 
   number of l-projection  operators is LMAX  =           6
   number of lm-projection operators is LMMAX =          18
 
 POTCAR:    PAW_PBE Fe 06Sep2000                  
   VRHFIN =Fe:  d7 s1                                                           
   LEXCH  = PE                                                                  
   EATOM  =   594.3153 eV,   43.6809 Ry                                         
                                                                                
   TITEL  = PAW_PBE Fe 06Sep2000                                                
   LULTRA =        F    use ultrasoft PP ?                                      
   IUNSCR =        1    unscreen: 0-lin 1-nonlin 2-no                           
   RPACOR =    2.000    partial core radius                                     
   POMASS =   55.847; ZVAL   =    8.000    mass and valenz                      
   RCORE  =    2.300    outmost cutoff radius                                   
   RWIGS  =    2.460; RWIGS  =    1.302    wigner-seitz radius (au A)           
   ENMAX  =  267.882; ENMIN  =  200.911 eV                                      
   RCLOC  =    1.701    cutoff for local pot                                    
   LCOR   =        T    correct aug charges                                     
   LPAW   =        T    paw PP                                                  
   EAUG   =  511.368                                                            
   DEXC   =    0.000                                                            
   RMAX   =    2.356    core radius for proj-oper                               
   RAUG   =    1.300    factor for augmentation sphere                          
   RDEP   =    2.442    radius for radial grids                                 
   RDEPT  =    1.890    core radius for aug-charge                              
                                                                                
   Atomic configuration                                                         
    9 entries                                                                   
     n  l   j            E        occ.                                          
     1  0  0.50     -6993.8440   2.0000                                         
     2  0  0.50      -814.6047   2.0000                                         
     2  1  1.50      -693.3689   6.0000                                         
     3  0  0.50       -89.4732   2.0000                                         
     3  1  1.50       -55.6373   6.0000                                         
     3  2  2.50        -3.8151   7.0000                                         
     4  0  0.50        -4.2551   1.0000                                         
     4  1  1.50        -3.4015   0.0000                                         
     4  3  2.50        -1.3606   0.0000                                         
   Description                                                                  
     l       E           TYP  RCUT    TYP  RCUT                                 
     2     -3.8151135     23  2.300                                             
     2     -5.1756961     23  2.300                                             
     0     -4.2550963     23  2.300                                             
     0      7.2035603     23  2.300                                             
     1     -2.7211652     23  2.300                                             
     1     18.4316424     23  2.300                                             
  local pseudopotential read in
  partial core-charges read in
  partial kinetic energy density read in
  atomic valenz-charges read in
  non local Contribution for L=           2  read in
    real space projection operators read in
  non local Contribution for L=           2  read in
    real space projection operators read in
  non local Contribution for L=           0  read in
    real space projection operators read in
  non local Contribution for L=           0  read in
    real space projection operators read in
  non local Contribution for L=           1  read in
    real space projection operators read in
  non local Contribution for L=           1  read in
    real space projection operators read in
    PAW grid and wavefunctions read in
 
   number of l-projection  operators is LMAX  =           6
   number of lm-projection operators is LMMAX =          18
 
 Optimization of the real space projectors (new method)

 maximal supplied QI-value         = 16.25
 optimisation between [QCUT,QGAM] = [ 11.54, 23.24] = [ 37.28,151.24] Ry 
 Optimized for a Real-space Cutoff    1.45 Angstroem

   l    n(q)    QCUT    max X(q) W(low)/X(q) W(high)/X(q)  e(spline) 
   2      9    11.539    60.317    0.19E-03    0.47E-04    0.16E-06
   2      9    11.539    55.921    0.19E-03    0.48E-04    0.16E-06
   0     10    11.539    51.690    0.80E-04    0.50E-04    0.24E-06
   0     10    11.539    30.015    0.73E-04    0.45E-04    0.22E-06
   1     10    11.539    18.849    0.87E-04    0.16E-03    0.71E-07
   1     10    11.539    14.624    0.73E-04    0.13E-03    0.64E-07
 Optimization of the real space projectors (new method)

 maximal supplied QI-value         = 16.25
 optimisation between [QCUT,QGAM] = [ 11.54, 23.24] = [ 37.28,151.24] Ry 
 Optimized for a Real-space Cutoff    1.53 Angstroem

   l    n(q)    QCUT    max X(q) W(low)/X(q) W(high)/X(q)  e(spline) 
   2     10    11.539    80.901    0.11E-03    0.14E-03    0.21E-06
   2     10    11.539    75.754    0.11E-03    0.14E-03    0.22E-06
   0     11    11.539    58.752    0.52E-04    0.18E-04    0.33E-06
   0     11    11.539    30.679    0.44E-04    0.16E-04    0.30E-06
   1     10    11.539    17.977    0.53E-04    0.29E-04    0.13E-06
   1     10    11.539    13.559    0.44E-04    0.25E-04    0.11E-06
  PAW_PBE Ni 02Aug2007                  :
 energy of atom  1       EATOM=-1077.6739
 kinetic energy error for atom=    0.0030 (will be added to EATOM!!)
  PAW_PBE Fe 06Sep2000                  :
 energy of atom  2       EATOM= -594.3153
 kinetic energy error for atom=    0.0026 (will be added to EATOM!!)
 
 
 POSCAR: POSCAR                                  
  positions in direct lattice
  velocities in cartesian coordinates
 exchange correlation table for  LEXCH =        8
   RHO(1)=    0.500       N(1)  =     2000
   RHO(2)=  100.500       N(2)  =     4000
 


--------------------------------------------------------------------------------------------------------


 ion  position               nearest neighbor table
   1  0.999  0.001  0.094-  28 2.50  37 2.51   9 2.52  60 2.53   3 2.53   7 2.53  25 2.54  63 2.54
                            35 2.54
   2  0.998  0.001  0.376-  42 2.40  40 2.47  34 2.48   8 2.49  36 2.51  10 2.53   4 2.54  26 2.56
                            29 2.56
   3  0.248  0.999  0.096-  51 2.47  38 2.48  60 2.49   5 2.51  11 2.52   9 2.52  25 2.53   1 2.53
                            61 2.56
   4  0.252  0.005  0.376-  14 2.44  32 2.45  10 2.50  26 2.52  40 2.53   6 2.54   2 2.54  39 2.58
                            52 2.70
   5  0.499  0.002  0.095-  38 2.49  35 2.51   3 2.51  41 2.52  12 2.53  51 2.54  53 2.54  61 2.55
                            62 2.57
   6  0.499  0.997  0.379-  33 2.45  16 2.47  14 2.49  54 2.52  13 2.52  36 2.52   4 2.54  52 2.55
                            39 2.63
   7  0.998  0.251  0.096-  37 2.48  43 2.49  35 2.50  17 2.50  12 2.53  45 2.53   1 2.53   9 2.55
                            15 2.55
   8  0.003  0.249  0.377-  24 2.43  49 2.48  42 2.49   2 2.49  10 2.49  18 2.54  13 2.59  44 2.59
                            36 2.59
   9  0.249  0.249  0.095-  37 2.48  38 2.48   1 2.52  43 2.52   3 2.52  48 2.54  11 2.54   7 2.55
                            46 2.55
  10  0.250  0.251  0.376-  22 2.40   8 2.49   4 2.50  49 2.53  40 2.53   2 2.53  47 2.54  44 2.54
                            39 2.54
  11  0.334  0.165  0.192-  14 2.43  40 2.43  22 2.44  38 2.48  48 2.50  21 2.51  61 2.52   3 2.52
                            41 2.54  60 2.54  37 2.54   9 2.54
  12  0.749  0.253  0.097-  41 2.47  19 2.49  17 2.51  35 2.51  23 2.51   7 2.53   5 2.53  38 2.55
                            15 2.55
  13  0.746  0.248  0.379-  16 2.45  50 2.46  24 2.47  39 2.49   6 2.52  20 2.53   8 2.59  36 2.59
                            18 2.60
  14  0.419  0.087  0.284-  11 2.43  61 2.43   4 2.44  39 2.45  50 2.45  41 2.46   6 2.49  22 2.49
                            16 2.52  32 2.54  33 2.55  40 2.63
  15  0.832  0.166  0.194-  16 2.42  42 2.45  24 2.45  45 2.48  41 2.49  35 2.51  62 2.51  23 2.52
                            37 2.54  12 2.55   7 2.55  63 2.55
  16  0.668  0.085  0.286-  36 2.38  15 2.42  62 2.42  13 2.45  41 2.46   6 2.47  64 2.47  24 2.50
                            14 2.52  50 2.54  33 2.55  42 2.59
  17  0.999  0.499  0.097-  45 2.48   7 2.50  43 2.51  12 2.51  27 2.52  51 2.52  25 2.53  19 2.53
                            23 2.54
  18  0.007  0.503  0.380-  52 2.44  24 2.47  56 2.47  31 2.48  26 2.52  44 2.52   8 2.54  20 2.59
                            13 2.60
  19  0.748  0.499  0.096-  46 2.48  12 2.49  58 2.49  21 2.52  25 2.52  28 2.53  17 2.53  23 2.56
                            38 2.57
  20  0.749  0.500  0.380-  39 2.43  50 2.44  31 2.46  59 2.48  47 2.50  29 2.53  13 2.53  26 2.58
                            18 2.59
  21  0.583  0.413  0.193-  59 2.44  50 2.44  48 2.47  22 2.48  41 2.49  58 2.49  23 2.50  11 2.51
                            19 2.52  38 2.54  46 2.54  57 2.56
  22  0.411  0.329  0.285-  39 2.39  48 2.40  10 2.40  47 2.41  11 2.44  21 2.48  50 2.49  14 2.49
                            30 2.50  40 2.54  49 2.54  59 2.56
  23  0.831  0.415  0.194-  31 2.44  24 2.45  45 2.45  58 2.47  41 2.47  50 2.49  21 2.50  12 2.51
                            15 2.52  27 2.53  17 2.54  19 2.56
  24  0.916  0.333  0.287-  45 2.42   8 2.43  23 2.45  15 2.45  13 2.47  18 2.47  49 2.48  16 2.50
                            31 2.50  56 2.52  42 2.59  50 2.60
  25  0.998  0.749  0.096-  60 2.47  51 2.48  28 2.48  58 2.51  19 2.52   3 2.53  17 2.53  27 2.53
                             1 2.54
  26  0.007  0.752  0.378-  32 2.44  31 2.47  34 2.52  18 2.52   4 2.52   2 2.56  52 2.56  20 2.58
                            29 2.63
  27  0.082  0.666  0.193-  32 2.44  31 2.46  45 2.49  51 2.50  58 2.50  56 2.51  60 2.51  17 2.52
                            25 2.53  23 2.53  61 2.54  55 2.54
  28  0.753  0.752  0.095-  25 2.48   1 2.50  63 2.51  19 2.53  46 2.54  57 2.54  58 2.55  53 2.57
                            35 2.58
  29  0.744  0.748  0.377-  59 2.46  36 2.46  54 2.47  47 2.47  64 2.48  34 2.49  20 2.53   2 2.56
                            26 2.63
  30  0.421  0.582  0.283-  44 2.37  47 2.38  55 2.39  57 2.40  48 2.41  54 2.42  59 2.47  56 2.50
                            22 2.50  64 2.56  33 2.56  49 2.58
  31  0.915  0.580  0.286-  23 2.44  58 2.45  27 2.46  20 2.46  26 2.47  18 2.48  24 2.50  59 2.53
                            34 2.53  50 2.55  32 2.56  56 2.61
  32  0.169  0.834  0.285-  61 2.42  26 2.44  27 2.44   4 2.45  52 2.47  60 2.48  33 2.51  14 2.54
                            34 2.55  40 2.56  31 2.56  56 2.62
  33  0.416  0.832  0.285-  52 2.38  54 2.40  62 2.41  61 2.42  55 2.42   6 2.45  32 2.51  64 2.51
                            56 2.53  14 2.55  16 2.55  30 2.56
  34  0.914  0.830  0.283-  63 2.41  58 2.44  60 2.46  42 2.48   2 2.48  29 2.49  40 2.49  26 2.52
                            59 2.52  31 2.53  64 2.54  32 2.55
  35  0.749  0.005  0.097-   7 2.50  15 2.51  12 2.51   5 2.51   1 2.54  63 2.55  62 2.55  53 2.55
                            28 2.58
  36  0.746  0.993  0.373-  64 2.32  16 2.38  42 2.44  29 2.46  54 2.48   2 2.51   6 2.52  13 2.59
                             8 2.59
  37  0.085  0.169  0.190-  40 2.38  49 2.39  42 2.45   9 2.48   7 2.48   1 2.51  48 2.53  15 2.54
                            45 2.54  11 2.54  63 2.55  60 2.56
  38  0.493  0.245  0.095-   9 2.48   3 2.48  11 2.48   5 2.49  46 2.52  21 2.54  41 2.54  12 2.55
                            19 2.57
  39  0.507  0.261  0.375-  50 2.28  22 2.39  20 2.43  47 2.45  14 2.45  13 2.49  10 2.54   4 2.58
                             6 2.63
  40  0.156  0.080  0.280-  42 2.37  37 2.38  60 2.40  11 2.43   2 2.47  34 2.49  49 2.52  10 2.53
                             4 2.53  22 2.54  32 2.56  14 2.63
  41  0.588  0.169  0.192-  16 2.46  14 2.46  12 2.47  23 2.47  15 2.49  50 2.49  21 2.49  62 2.51
                             5 2.52  11 2.54  38 2.54  61 2.56
  42  0.921  0.079  0.283-  40 2.37   2 2.40  63 2.41  36 2.44  15 2.45  37 2.45  34 2.48  64 2.48
                             8 2.49  49 2.49  16 2.59  24 2.59
  43  0.246  0.497  0.097-   7 2.49  17 2.51   9 2.52  45 2.53  55 2.54  48 2.54  53 2.55  46 2.58
                            51 2.59
  44  0.257  0.506  0.372-  56 2.29  52 2.37  30 2.37  54 2.45  49 2.48  47 2.50  18 2.52  10 2.54
                             8 2.59
  45  0.074  0.415  0.193-  49 2.37  56 2.42  24 2.42  23 2.45  17 2.48  15 2.48  27 2.49   7 2.53
                            43 2.53  37 2.54  55 2.55  48 2.67
  46  0.503  0.500  0.095-  19 2.48  38 2.52  48 2.53  28 2.54  21 2.54   9 2.55  53 2.55  57 2.55
                            43 2.58
  47  0.502  0.501  0.373-  59 2.37  30 2.38  22 2.41  39 2.45  29 2.47  20 2.50  44 2.50  54 2.51
                            10 2.54
  48  0.339  0.415  0.193-  22 2.40  30 2.41  49 2.43  21 2.47  11 2.50  57 2.52  37 2.53  46 2.53
                            55 2.54  43 2.54   9 2.54  45 2.67
  49  0.160  0.332  0.280-  45 2.37  37 2.39  56 2.42  48 2.43  24 2.48  44 2.48   8 2.48  42 2.49
                            40 2.52  10 2.53  22 2.54  30 2.58
  50  0.659  0.333  0.288-  39 2.28  21 2.44  20 2.44  14 2.45  13 2.46  59 2.47  41 2.49  22 2.49
                            23 2.49  16 2.54  31 2.55  24 2.60
  51  0.245  0.753  0.097-   3 2.47  25 2.48  27 2.50  61 2.51  17 2.52   5 2.54  53 2.57  43 2.59
                            55 2.60
  52  0.253  0.738  0.375-  44 2.37  56 2.37  33 2.38  18 2.44  54 2.44  32 2.47   6 2.55  26 2.56
                             4 2.70
  53  0.498  0.750  0.096-  57 2.53   5 2.54  46 2.55  35 2.55  43 2.55  55 2.56  62 2.57  28 2.57
                            51 2.57
  54  0.500  0.748  0.374-  33 2.40  30 2.42  64 2.44  52 2.44  44 2.45  29 2.47  36 2.48  47 2.51
                             6 2.52
  55  0.332  0.663  0.195-  56 2.38  30 2.39  33 2.42  57 2.54  48 2.54  43 2.54  27 2.54  61 2.55
                            45 2.55  62 2.56  53 2.56  51 2.60
  56  0.172  0.576  0.285-  44 2.29  52 2.37  55 2.38  49 2.42  45 2.42  18 2.47  30 2.50  27 2.51
                            24 2.52  33 2.53  31 2.61  32 2.62
  57  0.586  0.668  0.193-  30 2.40  59 2.44  64 2.44  63 2.50  48 2.52  58 2.52  53 2.53  55 2.54
                            28 2.54  62 2.55  46 2.55  21 2.56
  58  0.831  0.659  0.192-  59 2.43  34 2.44  31 2.45  23 2.47  19 2.49  21 2.49  27 2.50  25 2.51
                            57 2.52  28 2.55  60 2.56  63 2.57
  59  0.665  0.580  0.284-  47 2.37  58 2.43  21 2.44  57 2.44  29 2.46  50 2.47  30 2.47  20 2.48
                            34 2.52  31 2.53  22 2.56  64 2.62
  60  0.082  0.914  0.191-  40 2.40  34 2.46  25 2.47  32 2.48   3 2.49  63 2.51  27 2.51   1 2.53
                            61 2.53  11 2.54  58 2.56  37 2.56
  61  0.334  0.916  0.194-  32 2.42  33 2.42  14 2.43  62 2.49  51 2.51  11 2.52  60 2.53  27 2.54
                             5 2.55  55 2.55   3 2.56  41 2.56
  62  0.582  0.919  0.195-  64 2.36  33 2.41  16 2.42  61 2.49  41 2.51  15 2.51  35 2.55  57 2.55
                            55 2.56  53 2.57  63 2.57   5 2.57
  63  0.834  0.914  0.192-  34 2.41  42 2.41  64 2.42  57 2.50  60 2.51  28 2.51   1 2.54  35 2.55
                            15 2.55  37 2.55  62 2.57  58 2.57
  64  0.668  0.841  0.283-  36 2.32  62 2.36  63 2.42  54 2.44  57 2.44  16 2.47  42 2.48  29 2.48
                            33 2.51  34 2.54  30 2.56  59 2.62
 

IMPORTANT INFORMATION: All symmetrisations will be switched off!
NOSYMM: (Re-)initialisation of all symmetry stuff for point group C_1.

 
 

Automatic generation of k-mesh.
 generate k-points for:    3    3    1
Space group operators:
 irot       det(A)        alpha          n_x          n_y          n_z        tau_x        tau_y        tau_z
    1     1.000000     0.000001     1.000000     0.000000     0.000000     0.000000     0.000000     0.000000
 
 Subroutine IBZKPT returns following result:
 ===========================================
 
 Found      5 irreducible k-points:
 
 Following reciprocal coordinates:
            Coordinates               Weight
  0.000000  0.000000  0.000000      1.000000
  0.333333  0.000000  0.000000      2.000000
  0.000000  0.333333  0.000000      2.000000
  0.333333  0.333333  0.000000      2.000000
 -0.333333  0.333333  0.000000      2.000000
 
 Following cartesian coordinates:
            Coordinates               Weight
  0.000000  0.000000  0.000000      1.000000
  0.033002  0.019054  0.000000      2.000000
  0.000000  0.038108  0.000000      2.000000
  0.033002  0.057162  0.000000      2.000000
 -0.033002  0.019054  0.000000      2.000000
 


--------------------------------------------------------------------------------------------------------




 Dimension of arrays:
   k-points           NKPTS =      5   k-points in BZ     NKDIM =      5   number of bands    NBANDS=    411
   number of dos      NEDOS =    301   number of ions     NIONS =     64
   non local maximal  LDIM  =      6   non local SUM 2l+1 LMDIM =     18
   total plane-waves  NPLWV = ******
   max r-space proj   IRMAX =   8293   max aug-charges    IRDMAX=  19624
   dimension x,y,z NGX =    80 NGY =   80 NGZ =  160
   dimension x,y,z NGXF=   160 NGYF=  160 NGZF=  320
   support grid    NGXF=   160 NGYF=  160 NGZF=  320
   ions per type =              34  30
   NGX,Y,Z   is equivalent  to a cutoff of  13.17, 13.17, 12.52 a.u.
   NGXF,Y,Z  is equivalent  to a cutoff of  26.34, 26.34, 25.03 a.u.

 SYSTEM =  SQS-NiFe                                
 POSCAR =  POSCAR                                  

 Startparameter for this run:
   NWRITE =      2    write-flag & timer
   PREC   = accura    normal or accurate (medium, high low for compatibility)
   ISTART =      0    job   : 0-new  1-cont  2-samecut
   ICHARG =      2    charge: 1-file 2-atom 10-const
   ISPIN  =      2    spin polarized calculation?
   LNONCOLLINEAR =      F non collinear calculations
   LSORBIT =      F    spin-orbit coupling
   INIWAV =      1    electr: 0-lowe 1-rand  2-diag
   LASPH  =      F    aspherical Exc in radial PAW
   METAGGA=      F    non-selfconsistent MetaGGA calc.

 Electronic Relaxation 1
   ENCUT  =  520.0 eV  38.22 Ry    6.18 a.u.  18.78 18.78 39.52*2*pi/ulx,y,z
   ENINI  =  520.0     initial cutoff
   ENAUG  =  544.6 eV  augmentation charge cutoff
   NELM   =    200;   NELMIN=  2; NELMDL= -5     # of ELM steps 
   EDIFF  = 0.1E-04   stopping-criterion for ELM
   LREAL  =      T    real-space projection
   NLSPLINE    = F    spline interpolate recip. space projectors
   LCOMPAT=      F    compatible to vasp.4.4
   GGA_COMPAT  = T    GGA compatible to vasp.4.4-vasp.4.6
   LMAXPAW     = -100 max onsite density
   LMAXMIX     =    2 max onsite mixed and CHGCAR
   VOSKOWN=      0    Vosko Wilk Nusair interpolation
   ROPT   =   -0.00025  -0.00025
 Ionic relaxation
   EDIFFG = -.5E-01   stopping-criterion for IOM
   NSW    =     99    number of steps for IOM
   NBLOCK =      1;   KBLOCK =     99    inner block; outer block 
   IBRION =      2    ionic relax: 0-MD 1-quasi-New 2-CG
   NFREE  =      1    steps in history (QN), initial steepest desc. (CG)
   ISIF   =      2    stress and relaxation
   IWAVPR =     11    prediction:  0-non 1-charg 2-wave 3-comb
   ISYM   =      0    0-nonsym 1-usesym 2-fastsym
   LCORR  =      T    Harris-Foulkes like correction to forces

   POTIM  = 0.5000    time-step for ionic-motion
   TEIN   =    0.0    initial temperature
   TEBEG  =    0.0;   TEEND  =   0.0 temperature during run
   SMASS  =  -3.00    Nose mass-parameter (am)
   estimated Nose-frequenzy (Omega)   =  0.10E-29 period in steps =****** mass=  -0.233E-26a.u.
   SCALEE = 1.0000    scale energy and forces
   NPACO  =    256;   APACO  = 16.0  distance and # of slots for P.C.
   PSTRESS=    0.0 pullay stress

  Mass of Ions in am
   POMASS =  58.69 55.85
  Ionic Valenz
   ZVAL   =  10.00  8.00
  Atomic Wigner-Seitz radii
   RWIGS  =  -1.00 -1.00
  virtual crystal weights 
   VCA    =   1.00  1.00
   NELECT =     580.0000    total number of electrons
   NUPDOWN=      -1.0000    fix difference up-down

 DOS related values:
   EMIN   =  10.00;   EMAX   =-10.00  energy-range for DOS
   EFERMI =   0.00
   ISMEAR =     1;   SIGMA  =   0.20  broadening in eV -4-tet -1-fermi 0-gaus

 Electronic relaxation 2 (details)
   IALGO  =     68    algorithm
   LDIAG  =      T    sub-space diagonalisation (order eigenvalues)
   LSUBROT=      F    optimize rotation matrix (better conditioning)
   TURBO    =      0    0=normal 1=particle mesh
   IRESTART =      0    0=no restart 2=restart with 2 vectors
   NREBOOT  =      0    no. of reboots
   NMIN     =      0    reboot dimension
   EREF     =   0.00    reference energy to select bands
   IMIX   =      4    mixing-type and parameters
     AMIX     =   0.40;   BMIX     =  1.00
     AMIX_MAG =   1.60;   BMIX_MAG =  1.00
     AMIN     =   0.10
     WC   =   100.;   INIMIX=   1;  MIXPRE=   1;  MAXMIX= -45

 Intra band minimization:
   WEIMIN = 0.0010     energy-eigenvalue tresh-hold
   EBREAK =  0.61E-08  absolut break condition
   DEPER  =   0.30     relativ break condition  

   TIME   =   0.40     timestep for ELM

  volume/ion in A,a.u.               =      29.34       197.98
  Fermi-wavevector in a.u.,A,eV,Ry     =   1.106657  2.091279 16.662916  1.224690
  Thomas-Fermi vector in A             =   2.243161
 
 Write flags
   LWAVE        =      F    write WAVECAR
   LDOWNSAMPLE  =      F    k-point downsampling of WAVECAR
   LCHARG       =      F    write CHGCAR
   LVTOT        =      F    write LOCPOT, total local potential
   LVHAR        =      F    write LOCPOT, Hartree potential only
   LELF         =      F    write electronic localiz. function (ELF)
   LORBIT       =     10    0 simple, 1 ext, 2 COOP (PROOUT), +10 PAW based schemes


 Dipole corrections
   LMONO  =      F    monopole corrections only (constant potential shift)
   LDIPOL =      T    correct potential (dipole corrections)
   IDIPOL =      3    1-x, 2-y, 3-z, 4-all directions 
   EPSILON=  1.0000000 bulk dielectric constant

 Exchange correlation treatment:
   GGA     =    --    GGA type
   LEXCH   =     8    internal setting for exchange type
   VOSKOWN=      0    Vosko Wilk Nusair interpolation
   LHFCALC =     F    Hartree Fock is set to
   LHFONE  =     F    Hartree Fock one center treatment
   AEXX    =    0.0000 exact exchange contribution

 Linear response parameters
   LEPSILON=     F    determine dielectric tensor
   LRPA    =     F    only Hartree local field effects (RPA)
   LNABLA  =     F    use nabla operator in PAW spheres
   LVEL    =     F    velocity operator in full k-point grid
   LINTERFAST=   F  fast interpolation
   KINTER  =     0    interpolate to denser k-point grid
   CSHIFT  =0.1000    complex shift for real part using Kramers Kronig
   OMEGAMAX=  -1.0    maximum frequency
   DEG_THRESHOLD= 0.2000000E-02 threshold for treating states as degnerate
   RTIME   =   -0.100 relaxation time in fs
  (WPLASMAI=    0.000 imaginary part of plasma frequency in eV, 0.658/RTIME)
   DFIELD  = 0.0000000 0.0000000 0.0000000 field for delta impulse in time
 
 Orbital magnetization related:
   ORBITALMAG=     F  switch on orbital magnetization
   LCHIMAG   =     F  perturbation theory with respect to B field
   DQ        =  0.001000  dq finite difference perturbation B field
   LLRAUG    =     F  two centre corrections for induced B field



--------------------------------------------------------------------------------------------------------


 conjugate gradient relaxation of ions
   using selective dynamics as specified on POSCAR
 charge density and potential will be updated during run
 spin polarized calculation
 RMM-DIIS sequential band-by-band and
  variant of blocked Davidson during initial phase
 perform sub-space diagonalisation
    before iterative eigenvector-optimisation
 modified Broyden-mixing scheme, WC =      100.0
 initial mixing is a Kerker type mixing with AMIX =  0.4000 and BMIX =      1.0000
 Hartree-type preconditioning will be used
 using additional bands          121
 real space projection scheme for non local part
 use partial core corrections
 calculate Harris-corrections to forces 
   (improved forces if not selfconsistent)
 use gradient corrections 
 use of overlap-Matrix (Vanderbilt PP)
 Methfessel and Paxton  Order N= 1 SIGMA  =   0.20


--------------------------------------------------------------------------------------------------------


  energy-cutoff  :      520.00
  volume of cell :     1877.64
      direct lattice vectors                 reciprocal lattice vectors
    10.100310000  0.000000000  0.000000000     0.099006862  0.057161638  0.000000000
    -5.050155000  8.747125050  0.000000000     0.000000000  0.114323277  0.000000000
     0.000000000  0.000000000 21.252660910     0.000000000  0.000000000  0.047052932

  length of vectors
    10.100310000 10.100310003 21.252660910     0.114323277  0.114323277  0.047052932


 
 k-points in units of 2pi/SCALE and weight: read from INCAR                         
   0.00000000  0.00000000  0.00000000       0.111
   0.03300229  0.01905388  0.00000000       0.222
   0.00000000  0.03810776  0.00000000       0.222
   0.03300229  0.05716164  0.00000000       0.222
  -0.03300229  0.01905388  0.00000000       0.222
 
 k-points in reciprocal lattice and weights: read from INCAR                         
   0.00000000  0.00000000  0.00000000       0.111
   0.33333333  0.00000000  0.00000000       0.222
   0.00000000  0.33333333  0.00000000       0.222
   0.33333333  0.33333333  0.00000000       0.222
  -0.33333333  0.33333333  0.00000000       0.222
 
 position of ions in fractional coordinates (direct lattice) 
   0.99904300  0.00064200  0.09410586
   0.99833286  0.00060702  0.37641010
   0.24849100  0.99862800  0.09563755
   0.25216515  0.00501108  0.37614362
   0.49902500  0.00192700  0.09538843
   0.49903205  0.99671384  0.37867562
   0.99813900  0.25067400  0.09552521
   0.00250234  0.24899321  0.37714718
   0.24921500  0.24886200  0.09476883
   0.24980817  0.25094286  0.37643715
   0.33446800  0.16514600  0.19222469
   0.74893500  0.25278100  0.09675772
   0.74617642  0.24826473  0.37942411
   0.41934380  0.08650160  0.28447657
   0.83203200  0.16588400  0.19407448
   0.66802068  0.08538300  0.28574162
   0.99908600  0.49910800  0.09662298
   0.00655083  0.50267003  0.37978387
   0.74816900  0.49871100  0.09562882
   0.74851823  0.50010615  0.37967869
   0.58310200  0.41320400  0.19269936
   0.41057510  0.32882209  0.28500624
   0.83119700  0.41475900  0.19429042
   0.91599739  0.33284188  0.28682860
   0.99765800  0.74896900  0.09614336
   0.00689284  0.75202344  0.37845358
   0.08195100  0.66570400  0.19334166
   0.75346500  0.75172800  0.09521148
   0.74424528  0.74812028  0.37711430
   0.42148618  0.58177400  0.28313733
   0.91536222  0.58045635  0.28638013
   0.16857428  0.83397599  0.28512384
   0.41560856  0.83200967  0.28514833
   0.91408752  0.82976369  0.28317269
   0.74918200  0.00453800  0.09669603
   0.74620092  0.99254555  0.37264273
   0.08475800  0.16932700  0.18974338
   0.49319000  0.24544000  0.09526096
   0.50654780  0.26109843  0.37466718
   0.15609972  0.08041822  0.28014840
   0.58776100  0.16931300  0.19204658
   0.92119294  0.07877050  0.28343438
   0.24596400  0.49669300  0.09728245
   0.25741676  0.50601638  0.37204132
   0.07438400  0.41509600  0.19330907
   0.50297300  0.49962100  0.09454619
   0.50217308  0.50107103  0.37326950
   0.33917200  0.41514500  0.19285128
   0.16032438  0.33169061  0.28013675
   0.65885691  0.33261143  0.28767895
   0.24490500  0.75270000  0.09701936
   0.25321167  0.73804741  0.37465382
   0.49840300  0.74988300  0.09618992
   0.49969151  0.74805223  0.37437268
   0.33208500  0.66262100  0.19522695
   0.17155689  0.57600073  0.28537751
   0.58579400  0.66826100  0.19270140
   0.83088100  0.65877500  0.19245024
   0.66523540  0.58015852  0.28448753
   0.08235500  0.91427100  0.19050529
   0.33394400  0.91584300  0.19411435
   0.58231600  0.91865200  0.19488936
   0.83419400  0.91449400  0.19236584
   0.66822774  0.84088790  0.28316073
 
 position of ions in cartesian coordinates  (Angst):
  10.08740180  0.00561565  1.99999993
  10.08040584  0.00530971  7.99971612
  -2.53339006  8.73512399  2.03255242
   2.52163943  0.04383256  7.99405274
   5.03057555  0.01685571  2.02725796
   0.00681900  8.71838063  8.04786454
   8.81557077  2.19267682  2.03016490
  -1.23217988  2.17797474  8.01538120
   1.26035708  2.17682703  2.01408981
   1.25583961  2.19502856  8.00029116
   2.54421759  1.44455271  4.08528616
   6.28789244  2.21110702  2.05635901
   6.28283782  2.17160267  8.06377198
   3.79865595  0.75664030  6.04588414
   7.56604122  1.45100809  4.12459911
   6.31601854  0.74685581  6.07276984
   7.57050555  4.36576009  2.05349543
  -2.47239617  4.39691761  8.07141786
   5.03817098  4.36228748  2.03236688
   5.03465261  4.37449108  8.06918246
   3.80276671  3.61434706  4.09537416
   2.48633329  2.87624791  6.05714094
   6.30075013  3.62794884  4.12918841
   7.57095449  2.91140955  6.09587092
   6.29424553  6.55132550  2.04330223
  -3.72821507  6.57804307  8.04314550
  -2.53417788  5.82299613  4.10902474
   3.81388716  6.57545882  2.02349730
   3.73898462  6.54390168  8.01468238
   1.31909217  5.08884993  6.01742158
   6.31404762  5.07732426  6.08633983
  -2.50905549  7.29489227  6.05964023
  -0.00400250  7.27769261  6.06016078
   5.04213205  7.25804674  6.01817309
   7.54405284  0.03969445  2.05504794
   2.52435178  8.68192003  7.91964968
   0.00095448  1.48112444  4.03255172
   3.74186185  2.14689437  2.02454888
   3.79770226  2.28386060  7.96267450
   1.17053114  0.70342820  5.95389886
   5.08151141  1.48100198  4.08150084
   8.90653108  0.68901538  6.02373486
  -0.02406399  4.34463578  2.06751092
   0.04452786  4.42618859  7.90686803
  -1.34499768  3.63089662  4.10833212
   2.55701973  4.37024736  2.00935812
   2.54161741  4.38293094  7.93297003
   1.32919575  3.63132523  4.09860286
  -0.05576306  2.90133922  5.95365146
   4.97491981  2.90939373  6.11394313
  -1.32763525  6.58396103  2.06191956
  -1.16973741  6.45579297  7.96239060
   1.24699942  6.55932037  2.04429175
   1.26925949  6.54330641  7.95641572
   0.00782269  5.79602875  4.14909217
  -1.17611522  5.03835044  6.06503152
   2.54187937  5.84536253  4.09541751
   5.06523981  5.76238730  4.09007969
   3.78919333  5.07471910  6.04611703
  -3.78539923  7.99724277  4.04874433
  -1.25221118  8.01099325  4.12544646
   1.24223713  8.03556392  4.14191748
   3.80728155  7.99919338  4.08828597
   2.50269310  7.35535161  6.01791891
 


--------------------------------------------------------------------------------------------------------


 k-point  1 :   0.0000 0.0000 0.0000  plane waves:   50641
 k-point  2 :   0.3333 0.0000 0.0000  plane waves:   50572
 k-point  3 :   0.0000 0.3333 0.0000  plane waves:   50572
 k-point  4 :   0.3333 0.3333 0.0000  plane waves:   50583
 k-point  5 :  -0.3333 0.3333 0.0000  plane waves:   50572

 maximum and minimum number of plane-waves per node :      2130     2087

 maximum number of plane-waves:     50641
 maximum index in each direction: 
   IXMAX=   19   IYMAX=   18   IZMAX=   39
   IXMIN=  -19   IYMIN=  -19   IZMIN=  -39


 real space projection operators:
  total allocation   :      65751.89 KBytes
  max/ min on nodes  :       3303.70       2427.89


 parallel 3D FFT for wavefunctions:
    minimum data exchange during FFTs selected (reduces bandwidth)
 parallel 3D FFT for charge:
    minimum data exchange during FFTs selected (reduces bandwidth)


 total amount of memory used by VASP MPI-rank0   113850. kBytes
=======================================================================

   base      :      30000. kBytes
   nonlr-proj:      13026. kBytes
   fftplans  :       6403. kBytes
   grid      :      16455. kBytes
   one-center:         93. kBytes
   wavefun   :      47873. kBytes
 
     INWAV:  cpu time    0.0000: real time    0.0002
 Broyden mixing: mesh for mixing (old mesh)
   NGX = 37   NGY = 37   NGZ = 79
  (NGX  =160   NGY  =160   NGZ  =320)
  gives a total of 108151 points

 initial charge density was supplied:
 charge density of overlapping atoms calculated
 number of electron     580.0000000 magnetization     124.0000000
 keeping initial charge density in first step


--------------------------------------------------------------------------------------------------------


 Maximum index for non-local projection operator          766
 Maximum index for augmentation-charges         1147 (set IRDMAX)


--------------------------------------------------------------------------------------------------------


 First call to EWALD:  gamma=   0.144
 Maximum number of real-space cells 4x 4x 2
 Maximum number of reciprocal cells 2x 2x 4

    FEWALD:  cpu time    0.0050: real time    0.0041


--------------------------------------- Iteration      1(   1)  ---------------------------------------


    POTLOK:  cpu time    0.2470: real time    0.2511
    SETDIJ:  cpu time    0.0170: real time    0.0192
     EDDAV:  cpu time   24.7182: real time   24.7668
       DOS:  cpu time    0.0050: real time    0.0050
    --------------------------------------------
      LOOP:  cpu time   24.9872: real time   25.0421

 eigenvalue-minimisations  :  8220
 total energy-change (2. order) : 0.4831665E+04  (-0.2451998E+05)
 number of electron     580.0000000 magnetization     124.0000000
 augmentation part      580.0000000 magnetization     124.0000000

 DIPCOR: dipole corrections for dipol
 direction  3 min pos   236,
 dipolmoment           0.000000      0.000000     -0.000020 electrons x Angstroem
 Tr[quadrupol]    -10081.803854

 energy correction for charged system         0.000000 eV
 dipol+quadrupol energy correction           -0.000000 eV
 added-field ion interaction          0.000086 eV  (added to PSCEN)


 Free energy of the ion-electron system (eV)
  ---------------------------------------------------
  alpha Z        PSCENC =      1336.21304748
  Ewald energy   TEWEN  =    196939.26707098
  -Hartree energ DENC   =   -250740.70707769
  -exchange      EXHF   =         0.00000000
  -V(xc)+E(xc)   XCENC  =      1214.49805409
  PAW double counting   =     49349.10590813   -51853.36283059
  entropy T*S    EENTRO =        -0.00615734
  eigenvalues    EBANDS =      4116.46491697
  atomic energy  EATOM  =     54470.19168079
  Solvation  Ediel_sol  =         0.00000000
  ---------------------------------------------------
  free energy    TOTEN  =      4831.66461282 eV

  energy without entropy =     4831.67077016  energy(sigma->0) =     4831.66666527


--------------------------------------------------------------------------------------------------------




--------------------------------------- Iteration      1(   2)  ---------------------------------------


     EDDAV:  cpu time   24.2973: real time   24.3215
       DOS:  cpu time    0.0070: real time    0.0067
    --------------------------------------------
      LOOP:  cpu time   24.3043: real time   24.3282

 eigenvalue-minimisations  :  8220
 total energy-change (2. order) :-0.4796836E+04  (-0.4485180E+04)
 number of electron     580.0000000 magnetization     124.0000000
 augmentation part      580.0000000 magnetization     124.0000000

 DIPCOR: dipole corrections for dipol
 direction  3 min pos   236,
 dipolmoment           0.000000      0.000000     -0.000020 electrons x Angstroem
 Tr[quadrupol]    -10081.803854

 energy correction for charged system         0.000000 eV
 dipol+quadrupol energy correction           -0.000000 eV
 added-field ion interaction          0.000086 eV  (added to PSCEN)


 Free energy of the ion-electron system (eV)
  ---------------------------------------------------
  alpha Z        PSCENC =      1336.21304748
  Ewald energy   TEWEN  =    196939.26707098
  -Hartree energ DENC   =   -250740.70707769
  -exchange      EXHF   =         0.00000000
  -V(xc)+E(xc)   XCENC  =      1214.49805409
  PAW double counting   =     49349.10590813   -51853.36283059
  entropy T*S    EENTRO =        -0.00501310
  eigenvalues    EBANDS =      -680.37210145
  atomic energy  EATOM  =     54470.19168079
  Solvation  Ediel_sol  =         0.00000000
  ---------------------------------------------------
  free energy    TOTEN  =        34.82873864 eV

  energy without entropy =       34.83375175  energy(sigma->0) =       34.83040968


--------------------------------------------------------------------------------------------------------




--------------------------------------- Iteration      1(   3)  ---------------------------------------


     EDDAV:  cpu time   25.2182: real time   25.2456
       DOS:  cpu time    0.0070: real time    0.0072
    --------------------------------------------
      LOOP:  cpu time   25.2252: real time   25.2528

 eigenvalue-minimisations  :  8511
 total energy-change (2. order) :-0.4825821E+03  (-0.4152564E+03)
 number of electron     580.0000000 magnetization     124.0000000
 augmentation part      580.0000000 magnetization     124.0000000

 DIPCOR: dipole corrections for dipol
 direction  3 min pos   236,
 dipolmoment           0.000000      0.000000     -0.000020 electrons x Angstroem
 Tr[quadrupol]    -10081.803854

 energy correction for charged system         0.000000 eV
 dipol+quadrupol energy correction           -0.000000 eV
 added-field ion interaction          0.000086 eV  (added to PSCEN)


 Free energy of the ion-electron system (eV)
  ---------------------------------------------------
  alpha Z        PSCENC =      1336.21304748
  Ewald energy   TEWEN  =    196939.26707098
  -Hartree energ DENC   =   -250740.70707769
  -exchange      EXHF   =         0.00000000
  -V(xc)+E(xc)   XCENC  =      1214.49805409
  PAW double counting   =     49349.10590813   -51853.36283059
  entropy T*S    EENTRO =         0.07161185
  eigenvalues    EBANDS =     -1163.03085516
  atomic energy  EATOM  =     54470.19168079
  Solvation  Ediel_sol  =         0.00000000
  ---------------------------------------------------
  free energy    TOTEN  =      -447.75339012 eV

  energy without entropy =     -447.82500197  energy(sigma->0) =     -447.77726073


--------------------------------------------------------------------------------------------------------




--------------------------------------- Iteration      1(   4)  ---------------------------------------


     EDDAV:  cpu time   25.4401: real time   25.4568
       DOS:  cpu time    0.0070: real time    0.0074
    --------------------------------------------
      LOOP:  cpu time   25.4471: real time   25.4643

 eigenvalue-minimisations  :  8754
 total energy-change (2. order) :-0.2253098E+02  (-0.2187505E+02)
 number of electron     580.0000000 magnetization     124.0000000
 augmentation part      580.0000000 magnetization     124.0000000

 DIPCOR: dipole corrections for dipol
 direction  3 min pos   236,
 dipolmoment           0.000000      0.000000     -0.000020 electrons x Angstroem
 Tr[quadrupol]    -10081.803854

 energy correction for charged system         0.000000 eV
 dipol+quadrupol energy correction           -0.000000 eV
 added-field ion interaction          0.000086 eV  (added to PSCEN)


 Free energy of the ion-electron system (eV)
  ---------------------------------------------------
  alpha Z        PSCENC =      1336.21304748
  Ewald energy   TEWEN  =    196939.26707098
  -Hartree energ DENC   =   -250740.70707769
  -exchange      EXHF   =         0.00000000
  -V(xc)+E(xc)   XCENC  =      1214.49805409
  PAW double counting   =     49349.10590813   -51853.36283059
  entropy T*S    EENTRO =         0.08137893
  eigenvalues    EBANDS =     -1185.57160491
  atomic energy  EATOM  =     54470.19168079
  Solvation  Ediel_sol  =         0.00000000
  ---------------------------------------------------
  free energy    TOTEN  =      -470.28437278 eV

  energy without entropy =     -470.36575172  energy(sigma->0) =     -470.31149910


--------------------------------------------------------------------------------------------------------




--------------------------------------- Iteration      1(   5)  ---------------------------------------


     EDDAV:  cpu time   26.6649: real time   26.7477
       DOS:  cpu time    0.0080: real time    0.0077
    CHARGE:  cpu time    1.0208: real time    1.0431
    MIXING:  cpu time    0.0050: real time    0.0046
    --------------------------------------------
      LOOP:  cpu time   27.6988: real time   27.8032

 eigenvalue-minimisations  :  9348
 total energy-change (2. order) :-0.4506376E+00  (-0.4495652E+00)
 number of electron     580.0000077 magnetization     120.9839394
 augmentation part      300.8909237 magnetization      95.1813998

 DIPCOR: dipole corrections for dipol
 direction  3 min pos   236,
 dipolmoment           0.000000      0.000000     -0.000020 electrons x Angstroem
 Tr[quadrupol]    -10081.803854

 energy correction for charged system         0.000000 eV
 dipol+quadrupol energy correction           -0.000000 eV
 added-field ion interaction          0.000086 eV  (added to PSCEN)


 Broyden mixing:
  rms(total) = 0.85348E+01    rms(broyden)= 0.85347E+01
  rms(prec ) = 0.90370E+01
  weight for this iteration     100.00

 Free energy of the ion-electron system (eV)
  ---------------------------------------------------
  alpha Z        PSCENC =      1336.21304748
  Ewald energy   TEWEN  =    196939.26707098
  -Hartree energ DENC   =   -250740.70707769
  -exchange      EXHF   =         0.00000000
  -V(xc)+E(xc)   XCENC  =      1214.49805409
  PAW double counting   =     49349.10590813   -51853.36283059
  entropy T*S    EENTRO =         0.08161692
  eigenvalues    EBANDS =     -1186.02248048
  atomic energy  EATOM  =     54470.19168079
  Solvation  Ediel_sol  =         0.00000000
  ---------------------------------------------------
  free energy    TOTEN  =      -470.73501036 eV

  energy without entropy =     -470.81662729  energy(sigma->0) =     -470.76221601


--------------------------------------------------------------------------------------------------------




--------------------------------------- Iteration      1(   6)  ---------------------------------------


    POTLOK:  cpu time    0.2780: real time    0.2785
    SETDIJ:  cpu time    0.0190: real time    0.0184
    EDDIAG:  cpu time    3.6175: real time    3.6621
  RMM-DIIS:  cpu time   14.8137: real time   14.9933
    ORTHCH:  cpu time    0.6329: real time    0.6332
       DOS:  cpu time    0.0080: real time    0.0076
    CHARGE:  cpu time    1.0318: real time    1.0532
    MIXING:  cpu time    0.0040: real time    0.0045
    --------------------------------------------
      LOOP:  cpu time   20.4049: real time   20.6509

 eigenvalue-minimisations  :  8227
 total energy-change (2. order) :-0.1829569E+03  (-0.8946981E+02)
 number of electron     580.0000113 magnetization     119.1436121
 augmentation part      348.0681840 magnetization     103.2452062

 DIPCOR: dipole corrections for dipol
 direction  3 min pos   226,
 dipolmoment           0.000000      0.000000      1.213646 electrons x Angstroem
 Tr[quadrupol]    -10093.180661

 energy correction for charged system         0.000000 eV
 dipol+quadrupol energy correction           -0.070978 eV
 added-field ion interaction        -50.315534 eV  (added to PSCEN)


 Broyden mixing:
  rms(total) = 0.18382E+02    rms(broyden)= 0.18382E+02
  rms(prec ) = 0.20985E+02
  weight for this iteration     100.00

 eigenvalues of (default mixing * dielectric matrix)
  average eigenvalue GAMMA=   0.2044
  0.2044

 Free energy of the ion-electron system (eV)
  ---------------------------------------------------
  alpha Z        PSCENC =      1285.82644942
  Ewald energy   TEWEN  =    196939.26707098
  -Hartree energ DENC   =   -249833.66784328
  -exchange      EXHF   =         0.00000000
  -V(xc)+E(xc)   XCENC  =      1152.01148744
  PAW double counting   =     52745.13011167   -55030.71022918
  entropy T*S    EENTRO =         0.01126669
  eigenvalues    EBANDS =     -2381.75192226
  atomic energy  EATOM  =     54470.19168079
  Solvation  Ediel_sol  =         0.00000000
  ---------------------------------------------------
  free energy    TOTEN  =      -653.69192774 eV

  energy without entropy =     -653.70319442  energy(sigma->0) =     -653.69568330


--------------------------------------------------------------------------------------------------------




--------------------------------------- Iteration      1(   7)  ---------------------------------------


    POTLOK:  cpu time    0.2440: real time    0.2446
    SETDIJ:  cpu time    0.0200: real time    0.0196
    EDDIAG:  cpu time    3.5795: real time    3.6296
  RMM-DIIS:  cpu time   14.7728: real time   14.9542
    ORTHCH:  cpu time    0.6729: real time    0.6743
       DOS:  cpu time    0.0060: real time    0.0067
    CHARGE:  cpu time    1.0348: real time    1.0563
    MIXING:  cpu time    0.0050: real time    0.0045
    --------------------------------------------
      LOOP:  cpu time   20.3349: real time   20.5897

 eigenvalue-minimisations  :  8254
 total energy-change (2. order) : 0.1576154E+03  (-0.3136257E+02)
 number of electron     580.0000084 magnetization     117.0302914
 augmentation part      349.6063381 magnetization      96.8530471

 DIPCOR: dipole corrections for dipol
 direction  3 min pos   234,
 dipolmoment           0.000000      0.000000     -0.790946 electrons x Angstroem
 Tr[quadrupol]    -10084.049463

 energy correction for charged system         0.000000 eV
 dipol+quadrupol energy correction           -0.030146 eV
 added-field ion interaction          9.300286 eV  (added to PSCEN)


 Broyden mixing:
  rms(total) = 0.12985E+02    rms(broyden)= 0.12984E+02
  rms(prec ) = 0.15359E+02
  weight for this iteration     100.00

 eigenvalues of (default mixing * dielectric matrix)
  average eigenvalue GAMMA=   0.2190
  0.2809  0.1571

 Free energy of the ion-electron system (eV)
  ---------------------------------------------------
  alpha Z        PSCENC =      1345.48310083
  Ewald energy   TEWEN  =    196939.26707098
  -Hartree energ DENC   =   -249635.30809046
  -exchange      EXHF   =         0.00000000
  -V(xc)+E(xc)   XCENC  =      1156.31472107
  PAW double counting   =     53663.08688958   -56027.85752514
  entropy T*S    EENTRO =         0.00676250
  eigenvalues    EBANDS =     -2407.26112782
  atomic energy  EATOM  =     54470.19168079
  Solvation  Ediel_sol  =         0.00000000
  ---------------------------------------------------
  free energy    TOTEN  =      -496.07651767 eV

  energy without entropy =     -496.08328017  energy(sigma->0) =     -496.07877184


--------------------------------------------------------------------------------------------------------




--------------------------------------- Iteration      1(   8)  ---------------------------------------


    POTLOK:  cpu time    0.2430: real time    0.2444
    SETDIJ:  cpu time    0.0190: real time    0.0182
    EDDIAG:  cpu time    3.5605: real time    3.6057
  RMM-DIIS:  cpu time   15.2887: real time   15.4733
    ORTHCH:  cpu time    0.6289: real time    0.6522
       DOS:  cpu time    0.0070: real time    0.0074
    CHARGE:  cpu time    1.1958: real time    1.1963
    MIXING:  cpu time    0.0110: real time    0.0103
    --------------------------------------------
      LOOP:  cpu time   20.9538: real time   21.2078

 eigenvalue-minimisations  :  8251
 total energy-change (2. order) :-0.8199888E+02  (-0.1407358E+02)
 number of electron     580.0000061 magnetization     115.7109668
 augmentation part      335.9675158 magnetization      96.5325348

 DIPCOR: dipole corrections for dipol
 direction  3 min pos   232,
 dipolmoment           0.000000      0.000000      2.057077 electrons x Angstroem
 Tr[quadrupol]    -10086.148514

 energy correction for charged system         0.000000 eV
 dipol+quadrupol energy correction           -0.203912 eV
 added-field ion interaction        -39.461673 eV  (added to PSCEN)


 Broyden mixing:
  rms(total) = 0.19001E+02    rms(broyden)= 0.19000E+02
  rms(prec ) = 0.25944E+02
  weight for this iteration     100.00

 eigenvalues of (default mixing * dielectric matrix)
  average eigenvalue GAMMA=   0.1940
  0.2485  0.2485  0.0850

 Free energy of the ion-electron system (eV)
  ---------------------------------------------------
  alpha Z        PSCENC =      1296.54737626
  Ewald energy   TEWEN  =    196939.26707098
  -Hartree energ DENC   =   -249946.72906750
  -exchange      EXHF   =         0.00000000
  -V(xc)+E(xc)   XCENC  =      1166.48850177
  PAW double counting   =     54797.30344718   -57245.28436368
  entropy T*S    EENTRO =        -0.00185963
  eigenvalues    EBANDS =     -2055.85818717
  atomic energy  EATOM  =     54470.19168079
  Solvation  Ediel_sol  =         0.00000000
  ---------------------------------------------------
  free energy    TOTEN  =      -578.07540102 eV

  energy without entropy =     -578.07354139  energy(sigma->0) =     -578.07478114


--------------------------------------------------------------------------------------------------------




--------------------------------------- Iteration      1(   9)  ---------------------------------------


    POTLOK:  cpu time    0.3240: real time    0.3284
    SETDIJ:  cpu time    0.0250: real time    0.0442
    EDDIAG:  cpu time    3.8054: real time    3.8347
  RMM-DIIS:  cpu time   14.7258: real time   14.9766
    ORTHCH:  cpu time    0.6359: real time    0.6358
       DOS:  cpu time    0.0070: real time    0.0074
    CHARGE:  cpu time    1.0378: real time    1.0600
    MIXING:  cpu time    0.0050: real time    0.0047
    --------------------------------------------
      LOOP:  cpu time   20.5659: real time   20.8918

 eigenvalue-minimisations  :  8287
 total energy-change (2. order) : 0.9345453E+02  (-0.6180006E+01)
 number of electron     580.0000104 magnetization     113.9477350
 augmentation part      334.8711019 magnetization      92.7161838

 DIPCOR: dipole corrections for dipol
 direction  3 min pos   242,
 dipolmoment           0.000000      0.000000     -1.362476 electrons x Angstroem
 Tr[quadrupol]    -10090.841082

 energy correction for charged system         0.000000 eV
 dipol+quadrupol energy correction           -0.089454 eV
 added-field ion interaction        -24.444569 eV  (added to PSCEN)


 Broyden mixing:
  rms(total) = 0.15084E+02    rms(broyden)= 0.15084E+02
  rms(prec ) = 0.19012E+02
  weight for this iteration     100.00

 eigenvalues of (default mixing * dielectric matrix)
  average eigenvalue GAMMA=   0.2255
  0.3707  0.3707  0.1006  0.0597

 Free energy of the ion-electron system (eV)
  ---------------------------------------------------
  alpha Z        PSCENC =      1311.67893844
  Ewald energy   TEWEN  =    196939.26707098
  -Hartree energ DENC   =   -250079.95839095
  -exchange      EXHF   =         0.00000000
  -V(xc)+E(xc)   XCENC  =      1167.96989743
  PAW double counting   =     55256.11243592   -57725.29323694
  entropy T*S    EENTRO =         0.04160804
  eigenvalues    EBANDS =     -1824.63087042
  atomic energy  EATOM  =     54470.19168079
  Solvation  Ediel_sol  =         0.00000000
  ---------------------------------------------------
  free energy    TOTEN  =      -484.62086671 eV

  energy without entropy =     -484.66247475  energy(sigma->0) =     -484.63473606


--------------------------------------------------------------------------------------------------------




--------------------------------------- Iteration      1(  10)  ---------------------------------------


    POTLOK:  cpu time    0.2450: real time    0.2454
    SETDIJ:  cpu time    0.0180: real time    0.0184
    EDDIAG:  cpu time    3.5445: real time    3.5717
  RMM-DIIS:  cpu time   14.8397: real time   14.9841
    ORTHCH:  cpu time    0.6359: real time    0.6355
       DOS:  cpu time    0.0070: real time    0.0073
    CHARGE:  cpu time    1.0768: real time    1.0780
    MIXING:  cpu time    0.0060: real time    0.0050
    --------------------------------------------
      LOOP:  cpu time   20.3729: real time   20.5454

 eigenvalue-minimisations  :  8269
 total energy-change (2. order) : 0.3990249E+02  (-0.9242302E+01)
 number of electron     580.0000098 magnetization     111.1569025
 augmentation part      336.1015723 magnetization      84.2301927

 DIPCOR: dipole corrections for dipol
 direction  3 min pos   230,
 dipolmoment           0.000000      0.000000      0.887342 electrons x Angstroem
 Tr[quadrupol]    -10094.125714

 energy correction for charged system         0.000000 eV
 dipol+quadrupol energy correction           -0.037942 eV
 added-field ion interaction        -23.610653 eV  (added to PSCEN)


 Broyden mixing:
  rms(total) = 0.98976E+01    rms(broyden)= 0.98973E+01
  rms(prec ) = 0.12295E+02
  weight for this iteration     100.00

 eigenvalues of (default mixing * dielectric matrix)
  average eigenvalue GAMMA=   0.3129
  0.6427  0.6427  0.1141  0.1141  0.0507

 Free energy of the ion-electron system (eV)
  ---------------------------------------------------
  alpha Z        PSCENC =      1312.56436585
  Ewald energy   TEWEN  =    196939.26707098
  -Hartree energ DENC   =   -250174.36936502
  -exchange      EXHF   =         0.00000000
  -V(xc)+E(xc)   XCENC  =      1169.68937153
  PAW double counting   =     55765.95363238   -58254.22276817
  entropy T*S    EENTRO =         0.00009548
  eigenvalues    EBANDS =     -1673.79245556
  atomic energy  EATOM  =     54470.19168079
  Solvation  Ediel_sol  =         0.00000000
  ---------------------------------------------------
  free energy    TOTEN  =      -444.71837175 eV

  energy without entropy =     -444.71846723  energy(sigma->0) =     -444.71840358


--------------------------------------------------------------------------------------------------------




--------------------------------------- Iteration      1(  11)  ---------------------------------------


    POTLOK:  cpu time    0.2440: real time    0.2445
    SETDIJ:  cpu time    0.0190: real time    0.0185
    EDDIAG:  cpu time    3.6554: real time    3.6591
  RMM-DIIS:  cpu time   15.0347: real time   15.0683
    ORTHCH:  cpu time    0.6739: real time    0.6748
       DOS:  cpu time    0.0080: real time    0.0074
    CHARGE:  cpu time    1.0398: real time    1.0411
    MIXING:  cpu time    0.0050: real time    0.0055
    --------------------------------------------
      LOOP:  cpu time   20.6799: real time   20.7192

 eigenvalue-minimisations  :  8281
 total energy-change (2. order) :-0.3294280E+02  (-0.1114602E+02)
 number of electron     580.0000092 magnetization     107.9905271
 augmentation part      336.1251932 magnetization      83.4707420

 DIPCOR: dipole corrections for dipol
 direction  3 min pos   224,
 dipolmoment           0.000000      0.000000      0.084063 electrons x Angstroem
 Tr[quadrupol]    -10095.649727

 energy correction for charged system         0.000000 eV
 dipol+quadrupol energy correction           -0.000341 eV
 added-field ion interaction         -4.109275 eV  (added to PSCEN)


 Broyden mixing:
  rms(total) = 0.13280E+02    rms(broyden)= 0.13280E+02
  rms(prec ) = 0.15856E+02
  weight for this iteration     100.00

 eigenvalues of (default mixing * dielectric matrix)
  average eigenvalue GAMMA=   0.3137
  0.7407  0.7407  0.1271  0.1122  0.1122  0.0493

 Free energy of the ion-electron system (eV)
  ---------------------------------------------------
  alpha Z        PSCENC =      1332.10334560
  Ewald energy   TEWEN  =    196939.26707098
  -Hartree energ DENC   =   -250239.94221979
  -exchange      EXHF   =         0.00000000
  -V(xc)+E(xc)   XCENC  =      1177.32168313
  PAW double counting   =     56555.84060143   -59085.68081898
  entropy T*S    EENTRO =        -0.01426033
  eigenvalues    EBANDS =     -1626.74825063
  atomic energy  EATOM  =     54470.19168079
  Solvation  Ediel_sol  =         0.00000000
  ---------------------------------------------------
  free energy    TOTEN  =      -477.66116781 eV

  energy without entropy =     -477.64690749  energy(sigma->0) =     -477.65641437


--------------------------------------------------------------------------------------------------------




--------------------------------------- Iteration      1(  12)  ---------------------------------------


    POTLOK:  cpu time    0.2460: real time    0.2469
    SETDIJ:  cpu time    0.0190: real time    0.0186
    EDDIAG:  cpu time    3.6304: real time    3.6395
  RMM-DIIS:  cpu time   15.0397: real time   15.0814
    ORTHCH:  cpu time    0.6409: real time    0.6418
       DOS:  cpu time    0.0080: real time    0.0074
    CHARGE:  cpu time    0.9938: real time    0.9952
    MIXING:  cpu time    0.0060: real time    0.0054
    --------------------------------------------
      LOOP:  cpu time   20.5839: real time   20.6362

 eigenvalue-minimisations  :  8285
 total energy-change (2. order) : 0.9673450E+02  (-0.5486682E+01)
 number of electron     580.0000088 magnetization     107.1108646
 augmentation part      334.3269170 magnetization      78.5284793

 DIPCOR: dipole corrections for dipol
 direction  3 min pos   240,
 dipolmoment           0.000000      0.000000     -0.102437 electrons x Angstroem
 Tr[quadrupol]    -10096.467717

 energy correction for charged system         0.000000 eV
 dipol+quadrupol energy correction           -0.000506 eV
 added-field ion interaction         -1.077261 eV  (added to PSCEN)


 Broyden mixing:
  rms(total) = 0.80960E+01    rms(broyden)= 0.80958E+01
  rms(prec ) = 0.93035E+01
  weight for this iteration     100.00

 eigenvalues of (default mixing * dielectric matrix)
  average eigenvalue GAMMA=   0.2963
  0.7469  0.7469  0.1507  0.1507  0.1148  0.1148  0.0496

 Free energy of the ion-electron system (eV)
  ---------------------------------------------------
  alpha Z        PSCENC =      1335.13519456
  Ewald energy   TEWEN  =    196939.26707098
  -Hartree energ DENC   =   -250317.44767729
  -exchange      EXHF   =         0.00000000
  -V(xc)+E(xc)   XCENC  =      1184.42999922
  PAW double counting   =     57360.56900341   -59927.72038601
  entropy T*S    EENTRO =        -0.01064471
  eigenvalues    EBANDS =     -1425.34090626
  atomic energy  EATOM  =     54470.19168079
  Solvation  Ediel_sol  =         0.00000000
  ---------------------------------------------------
  free energy    TOTEN  =      -380.92666533 eV

  energy without entropy =     -380.91602062  energy(sigma->0) =     -380.92311709


--------------------------------------------------------------------------------------------------------




--------------------------------------- Iteration      1(  13)  ---------------------------------------


    POTLOK:  cpu time    0.2600: real time    0.2613
    SETDIJ:  cpu time    0.0190: real time    0.0184
    EDDIAG:  cpu time    3.5865: real time    3.5916
  RMM-DIIS:  cpu time   14.9897: real time   15.0204
    ORTHCH:  cpu time    0.6329: real time    0.6340
       DOS:  cpu time    0.0080: real time    0.0074
    CHARGE:  cpu time    1.0008: real time    1.0017
    MIXING:  cpu time    0.0070: real time    0.0053
    --------------------------------------------
      LOOP:  cpu time   20.5039: real time   20.5402

 eigenvalue-minimisations  :  8292
 total energy-change (2. order) : 0.1342150E+02  (-0.2644676E+01)
 number of electron     580.0000089 magnetization     105.9607756
 augmentation part      335.9578137 magnetization      76.1767550

 DIPCOR: dipole corrections for dipol
 direction  3 min pos   230,
 dipolmoment           0.000000      0.000000      0.312967 electrons x Angstroem
 Tr[quadrupol]    -10095.924122

 energy correction for charged system         0.000000 eV
 dipol+quadrupol energy correction           -0.004720 eV
 added-field ion interaction         -8.327520 eV  (added to PSCEN)


 Broyden mixing:
  rms(total) = 0.56796E+01    rms(broyden)= 0.56794E+01
  rms(prec ) = 0.65125E+01
  weight for this iteration     100.00

 eigenvalues of (default mixing * dielectric matrix)
  average eigenvalue GAMMA=   0.2920
  0.9291  0.4368  0.4368  0.1705  0.1133  0.1133  0.0495  0.0864

 Free energy of the ion-electron system (eV)
  ---------------------------------------------------
  alpha Z        PSCENC =      1327.88072190
  Ewald energy   TEWEN  =    196939.26707098
  -Hartree energ DENC   =   -250286.53707103
  -exchange      EXHF   =         0.00000000
  -V(xc)+E(xc)   XCENC  =      1183.77264877
  PAW double counting   =     57520.80743277   -60089.63566136
  entropy T*S    EENTRO =         0.02742607
  eigenvalues    EBANDS =     -1433.27941409
  atomic energy  EATOM  =     54470.19168079
  Solvation  Ediel_sol  =         0.00000000
  ---------------------------------------------------
  free energy    TOTEN  =      -367.50516521 eV

  energy without entropy =     -367.53259128  energy(sigma->0) =     -367.51430724


--------------------------------------------------------------------------------------------------------




--------------------------------------- Iteration      1(  14)  ---------------------------------------


    POTLOK:  cpu time    0.2680: real time    0.2689
    SETDIJ:  cpu time    0.0190: real time    0.0184
    EDDIAG:  cpu time    3.5685: real time    3.5717
  RMM-DIIS:  cpu time   14.9627: real time   14.9912
    ORTHCH:  cpu time    0.6399: real time    0.6400
       DOS:  cpu time    0.0070: real time    0.0074
    CHARGE:  cpu time    1.0348: real time    1.0351
    MIXING:  cpu time    0.0070: real time    0.0059
    --------------------------------------------
      LOOP:  cpu time   20.5069: real time   20.5386

 eigenvalue-minimisations  :  8299
 total energy-change (2. order) :-0.9996150E+01  (-0.1389390E+01)
 number of electron     580.0000093 magnetization     105.3218832
 augmentation part      334.3984346 magnetization      76.2059725

 DIPCOR: dipole corrections for dipol
 direction  3 min pos   225,
 dipolmoment           0.000000      0.000000      0.559618 electrons x Angstroem
 Tr[quadrupol]    -10097.180979

 energy correction for charged system         0.000000 eV
 dipol+quadrupol energy correction           -0.015091 eV
 added-field ion interaction        -25.278299 eV  (added to PSCEN)


 Broyden mixing:
  rms(total) = 0.62900E+01    rms(broyden)= 0.62899E+01
  rms(prec ) = 0.72650E+01
  weight for this iteration     100.00

 eigenvalues of (default mixing * dielectric matrix)
  average eigenvalue GAMMA=   0.2816
  0.9794  0.4572  0.4572  0.1702  0.1137  0.1137  0.0495  0.1083  0.0854

 Free energy of the ion-electron system (eV)
  ---------------------------------------------------
  alpha Z        PSCENC =      1310.91957141
  Ewald energy   TEWEN  =    196939.26707098
  -Hartree energ DENC   =   -250370.34951227
  -exchange      EXHF   =         0.00000000
  -V(xc)+E(xc)   XCENC  =      1182.78820710
  PAW double counting   =     57791.91970271   -60372.20813129
  entropy T*S    EENTRO =        -0.00162225
  eigenvalues    EBANDS =     -1330.02828252
  atomic energy  EATOM  =     54470.19168079
  Solvation  Ediel_sol  =         0.00000000
  ---------------------------------------------------
  free energy    TOTEN  =      -377.50131534 eV

  energy without entropy =     -377.49969310  energy(sigma->0) =     -377.50077459


--------------------------------------------------------------------------------------------------------




--------------------------------------- Iteration      1(  15)  ---------------------------------------


    POTLOK:  cpu time    0.2450: real time    0.2454
    SETDIJ:  cpu time    0.0190: real time    0.0196
    EDDIAG:  cpu time    3.6025: real time    3.6069
  RMM-DIIS:  cpu time   14.8767: real time   14.9142
    ORTHCH:  cpu time    0.6359: real time    0.6375
       DOS:  cpu time    0.0070: real time    0.0076
    CHARGE:  cpu time    1.0348: real time    1.0346
    MIXING:  cpu time    0.0070: real time    0.0060
    --------------------------------------------
      LOOP:  cpu time   20.4279: real time   20.4717

 eigenvalue-minimisations  :  8292
 total energy-change (2. order) : 0.9971102E+01  (-0.9530429E+00)
 number of electron     580.0000085 magnetization     104.7565902
 augmentation part      334.9220429 magnetization      76.0258223

 DIPCOR: dipole corrections for dipol
 direction  3 min pos   223,
 dipolmoment           0.000000      0.000000      0.603031 electrons x Angstroem
 Tr[quadrupol]    -10097.308468

 energy correction for charged system         0.000000 eV
 dipol+quadrupol energy correction           -0.017523 eV
 added-field ion interaction        -31.716742 eV  (added to PSCEN)


 Broyden mixing:
  rms(total) = 0.36247E+01    rms(broyden)= 0.36246E+01
  rms(prec ) = 0.43873E+01
  weight for this iteration     100.00

 eigenvalues of (default mixing * dielectric matrix)
  average eigenvalue GAMMA=   0.3005
  1.0401  0.5004  0.5004  0.3497  0.1454  0.1212  0.1212  0.0495  0.1012  0.0756

 Free energy of the ion-electron system (eV)
  ---------------------------------------------------
  alpha Z        PSCENC =      1304.47869622
  Ewald energy   TEWEN  =    196939.26707098
  -Hartree energ DENC   =   -250380.46521579
  -exchange      EXHF   =         0.00000000
  -V(xc)+E(xc)   XCENC  =      1183.60133212
  PAW double counting   =     57937.08691813   -60520.55240145
  entropy T*S    EENTRO =         0.01196302
  eigenvalues    EBANDS =     -1301.15025708
  atomic energy  EATOM  =     54470.19168079
  Solvation  Ediel_sol  =         0.00000000
  ---------------------------------------------------
  free energy    TOTEN  =      -367.53021306 eV

  energy without entropy =     -367.54217608  energy(sigma->0) =     -367.53420073


--------------------------------------------------------------------------------------------------------




--------------------------------------- Iteration      1(  16)  ---------------------------------------


    POTLOK:  cpu time    0.2760: real time    0.2766
    SETDIJ:  cpu time    0.0180: real time    0.0184
    EDDIAG:  cpu time    3.6494: real time    3.6526
  RMM-DIIS:  cpu time   14.8127: real time   14.8526
    ORTHCH:  cpu time    0.6409: real time    0.6405
       DOS:  cpu time    0.0070: real time    0.0075
    CHARGE:  cpu time    1.0108: real time    1.0119
    MIXING:  cpu time    0.0080: real time    0.0067
    --------------------------------------------
      LOOP:  cpu time   20.4229: real time   20.4668

 eigenvalue-minimisations  :  8303
 total energy-change (2. order) :-0.5364211E+01  (-0.7745207E+00)
 number of electron     580.0000090 magnetization     104.0131541
 augmentation part      334.9453689 magnetization      75.7765645

 DIPCOR: dipole corrections for dipol
 direction  3 min pos   222,
 dipolmoment           0.000000      0.000000      0.519743 electrons x Angstroem
 Tr[quadrupol]    -10097.679238

 energy correction for charged system         0.000000 eV
 dipol+quadrupol energy correction           -0.013017 eV
 added-field ion interaction        -29.265674 eV  (added to PSCEN)


 Broyden mixing:
  rms(total) = 0.39748E+01    rms(broyden)= 0.39746E+01
  rms(prec ) = 0.44799E+01
  weight for this iteration     100.00

 eigenvalues of (default mixing * dielectric matrix)
  average eigenvalue GAMMA=   0.3156
  1.1116  0.6315  0.6315  0.3555  0.1535  0.0495  0.1228  0.1228  0.1075  0.1075
  0.0782

 Free energy of the ion-electron system (eV)
  ---------------------------------------------------
  alpha Z        PSCENC =      1306.93426986
  Ewald energy   TEWEN  =    196939.26707098
  -Hartree energ DENC   =   -250394.91775859
  -exchange      EXHF   =         0.00000000
  -V(xc)+E(xc)   XCENC  =      1182.06501632
  PAW double counting   =     58083.50625881   -60668.63470113
  entropy T*S    EENTRO =         0.04215410
  eigenvalues    EBANDS =     -1291.34841565
  atomic energy  EATOM  =     54470.19168079
  Solvation  Ediel_sol  =         0.00000000
  ---------------------------------------------------
  free energy    TOTEN  =      -372.89442450 eV

  energy without entropy =     -372.93657860  energy(sigma->0) =     -372.90847587


--------------------------------------------------------------------------------------------------------




--------------------------------------- Iteration      1(  17)  ---------------------------------------


    POTLOK:  cpu time    0.2440: real time    0.2454
    SETDIJ:  cpu time    0.0190: real time    0.0184
    EDDIAG:  cpu time    3.6254: real time    3.6334
  RMM-DIIS:  cpu time   14.9367: real time   15.0589
    ORTHCH:  cpu time    0.6459: real time    0.6475
       DOS:  cpu time    0.0080: real time    0.0077
    CHARGE:  cpu time    1.0418: real time    1.0639
    MIXING:  cpu time    0.0080: real time    0.0078
    --------------------------------------------
      LOOP:  cpu time   20.5289: real time   20.6830

 eigenvalue-minimisations  :  8301
 total energy-change (2. order) :-0.3119705E+01  (-0.5415776E+00)
 number of electron     580.0000087 magnetization     103.6606243
 augmentation part      334.8260918 magnetization      75.6390265

 DIPCOR: dipole corrections for dipol
 direction  3 min pos   221,
 dipolmoment           0.000000      0.000000      0.444729 electrons x Angstroem
 Tr[quadrupol]    -10098.517949

 energy correction for charged system         0.000000 eV
 dipol+quadrupol energy correction           -0.009531 eV
 added-field ion interaction        -26.692850 eV  (added to PSCEN)


 Broyden mixing:
  rms(total) = 0.30238E+01    rms(broyden)= 0.30236E+01
  rms(prec ) = 0.33489E+01
  weight for this iteration     100.00

 eigenvalues of (default mixing * dielectric matrix)
  average eigenvalue GAMMA=   0.3199
  1.1383  0.7122  0.7122  0.3193  0.2417  0.1348  0.1348  0.1161  0.1161  0.0495
  0.0875  0.0768

 Free energy of the ion-electron system (eV)
  ---------------------------------------------------
  alpha Z        PSCENC =      1309.51058072
  Ewald energy   TEWEN  =    196939.26707098
  -Hartree energ DENC   =   -250430.67855759
  -exchange      EXHF   =         0.00000000
  -V(xc)+E(xc)   XCENC  =      1180.86757970
  PAW double counting   =     58303.79964168   -60893.01123619
  entropy T*S    EENTRO =         0.03824395
  eigenvalues    EBANDS =     -1255.99913343
  atomic energy  EATOM  =     54470.19168079
  Solvation  Ediel_sol  =         0.00000000
  ---------------------------------------------------
  free energy    TOTEN  =      -376.01412941 eV

  energy without entropy =     -376.05237336  energy(sigma->0) =     -376.02687739


--------------------------------------------------------------------------------------------------------




--------------------------------------- Iteration      1(  18)  ---------------------------------------


    POTLOK:  cpu time    0.2450: real time    0.2453
    SETDIJ:  cpu time    0.0190: real time    0.0185
    EDDIAG:  cpu time    3.5705: real time    3.6153
  RMM-DIIS:  cpu time   14.8097: real time   14.9926
    ORTHCH:  cpu time    0.6689: real time    0.6894
       DOS:  cpu time    0.0080: real time    0.0078
    CHARGE:  cpu time    0.9898: real time    0.9917
    MIXING:  cpu time    0.0070: real time    0.0061
    --------------------------------------------
      LOOP:  cpu time   20.3179: real time   20.5666

 eigenvalue-minimisations  :  8298
 total energy-change (2. order) :-0.3239887E+01  (-0.4192309E+00)
 number of electron     580.0000086 magnetization     103.3813614
 augmentation part      334.2654947 magnetization      76.2002486

 DIPCOR: dipole corrections for dipol
 direction  3 min pos   221,
 dipolmoment           0.000000      0.000000      0.348773 electrons x Angstroem
 Tr[quadrupol]    -10099.152820

 energy correction for charged system         0.000000 eV
 dipol+quadrupol energy correction           -0.005862 eV
 added-field ion interaction        -20.933544 eV  (added to PSCEN)


 Broyden mixing:
  rms(total) = 0.25024E+01    rms(broyden)= 0.25023E+01
  rms(prec ) = 0.26970E+01
  weight for this iteration     100.00

 eigenvalues of (default mixing * dielectric matrix)
  average eigenvalue GAMMA=   0.3338
  1.1628  0.8256  0.8256  0.3407  0.3407  0.1491  0.1491  0.1183  0.1183  0.0495
  0.0775  0.0909  0.0909

 Free energy of the ion-electron system (eV)
  ---------------------------------------------------
  alpha Z        PSCENC =      1315.27355580
  Ewald energy   TEWEN  =    196939.26707098
  -Hartree energ DENC   =   -250454.86693724
  -exchange      EXHF   =         0.00000000
  -V(xc)+E(xc)   XCENC  =      1180.17564560
  PAW double counting   =     58458.01964432   -61050.66206983
  entropy T*S    EENTRO =         0.04413820
  eigenvalues    EBANDS =     -1236.69674518
  atomic energy  EATOM  =     54470.19168079
  Solvation  Ediel_sol  =         0.00000000
  ---------------------------------------------------
  free energy    TOTEN  =      -379.25401658 eV

[...]
   0.525E+02 -.566E+02 -.882E+03   -.524E+02 0.568E+02 0.882E+03   -.540E-01 -.167E+00 0.156E+00   -.123E-01 -.102E-02 -.123E+00
   0.578E+01 0.464E+01 0.883E+03   -.578E+01 -.470E+01 -.883E+03   -.549E-01 0.239E-01 -.283E+00   0.522E-01 0.173E-01 0.267E-02
   -.990E+02 0.158E+02 -.849E+03   0.992E+02 -.157E+02 0.849E+03   -.189E+00 -.704E-01 0.238E+00   -.592E-02 0.321E-01 -.668E-01
   -.155E+02 -.181E+02 0.269E+04   0.153E+02 0.183E+02 -.269E+04   0.234E-01 -.262E-01 -.151E+01   0.482E-01 -.333E-01 0.305E-01
   -.109E+02 -.151E+02 -.272E+04   0.108E+02 0.153E+02 0.272E+04   0.386E-01 -.632E-01 0.128E+01   0.692E-01 -.990E-01 -.737E-01
   -.109E+03 -.324E+02 0.925E+03   0.109E+03 0.326E+02 -.925E+03   -.238E+00 -.113E+00 -.443E+00   0.246E-01 -.392E-01 0.124E-03
   0.135E+03 -.710E+01 0.266E+04   -.136E+03 0.701E+01 -.265E+04   0.605E+00 0.160E-01 -.154E+01   -.467E-01 -.376E-01 0.149E-01
   0.116E+03 -.516E+01 -.268E+04   -.116E+03 0.506E+01 0.267E+04   0.694E+00 0.102E+00 0.111E+01   0.283E-01 0.386E-02 -.531E-01
   0.125E+02 -.957E+01 -.881E+03   -.124E+02 0.963E+01 0.881E+03   -.116E+00 -.200E-01 0.497E+00   -.591E-01 -.119E-01 -.162E+00
   0.220E+02 -.748E+00 -.838E+03   -.222E+02 0.825E+00 0.837E+03   0.130E+00 -.330E-01 0.341E+00   0.636E-01 -.413E-01 -.655E-01
   -.390E+02 -.803E+01 -.808E+03   0.390E+02 0.810E+01 0.807E+03   -.867E-03 -.440E-02 0.303E+00   0.122E-01 -.628E-01 -.897E-01
   -.666E+02 0.828E+02 -.857E+03   0.666E+02 -.830E+02 0.857E+03   0.137E-02 0.249E+00 0.462E+00   -.120E-01 0.307E-02 -.111E+00
   0.107E+03 -.559E+02 -.749E+03   -.107E+03 0.560E+02 0.749E+03   0.199E+00 -.231E-01 0.496E+00   0.327E-01 -.269E-01 -.130E+00
   0.208E+02 0.835E+02 0.213E+04   -.210E+02 -.837E+02 -.212E+04   0.259E+00 0.316E+00 -.285E+01   -.375E-01 0.137E-01 0.121E-01
   -.544E+01 0.540E+02 -.218E+04   0.529E+01 -.544E+02 0.217E+04   0.223E+00 0.312E+00 0.339E+01   -.547E-01 0.605E-01 -.538E-01
   -.116E+00 -.147E+02 0.702E+03   0.205E+00 0.146E+02 -.701E+03   -.137E+00 -.782E-03 -.103E+01   -.147E-01 0.439E-01 -.787E-02
   0.113E+02 -.231E+02 0.218E+04   -.112E+02 0.230E+02 -.218E+04   0.915E-01 0.928E-01 -.270E+01   -.282E-02 0.121E-01 -.962E-02
   0.232E+02 -.497E+02 -.220E+04   -.231E+02 0.498E+02 0.220E+04   -.117E+00 -.515E-02 0.288E+01   0.608E-01 -.192E-01 -.289E-01
   0.784E+02 -.457E+02 -.636E+03   -.788E+02 0.458E+02 0.636E+03   0.389E+00 -.107E+00 0.503E+00   -.127E-01 0.945E-02 -.117E+00
   0.204E+02 0.613E+02 0.752E+03   -.206E+02 -.615E+02 -.752E+03   0.192E+00 0.224E+00 -.292E+00   0.293E-01 -.365E-02 -.312E-01
   -.401E+02 0.292E+02 -.643E+03   0.402E+02 -.295E+02 0.642E+03   -.123E+00 0.312E+00 0.375E+00   -.438E-01 0.451E-01 -.907E-01
   -.636E+02 -.762E+02 0.210E+04   0.639E+02 0.770E+02 -.210E+04   -.304E+00 -.632E+00 -.259E+01   0.301E-02 0.315E-02 0.241E-01
   -.491E+02 -.397E+02 -.220E+04   0.496E+02 0.405E+02 0.220E+04   -.396E+00 -.870E+00 0.322E+01   -.872E-01 0.477E-03 -.551E-01
   -.153E+03 -.246E+02 0.709E+03   0.153E+03 0.248E+02 -.708E+03   -.668E+00 -.223E+00 -.510E+00   0.199E-02 0.946E-02 -.120E-01
   0.850E+02 -.456E+02 0.215E+04   -.852E+02 0.458E+02 -.215E+04   0.386E+00 -.122E+00 -.290E+01   -.363E-01 -.122E-01 0.598E-02
   0.398E+02 -.118E+02 -.216E+04   -.402E+02 0.121E+02 0.216E+04   0.294E+00 -.359E+00 0.235E+01   0.353E-01 -.157E-01 -.353E-01
   0.726E+02 -.667E+02 0.749E+03   -.730E+02 0.671E+02 -.749E+03   0.545E+00 -.433E+00 0.511E-01   -.396E-01 0.852E-02 -.547E-01
   -.138E+02 -.128E+02 -.655E+03   0.138E+02 0.127E+02 0.654E+03   0.108E+00 0.812E-01 0.717E+00   -.586E-01 -.119E-02 -.121E+00
   0.631E+02 0.628E+01 -.727E+03   -.634E+02 -.619E+01 0.727E+03   0.205E+00 -.802E-01 0.881E-01   0.800E-01 0.116E-01 -.467E-01
   -.118E+03 0.297E+02 0.213E+04   0.118E+03 -.299E+02 -.213E+04   -.485E+00 -.425E-03 -.244E+01   0.315E-01 -.242E-01 0.210E-01
   -.779E+02 0.399E+02 -.221E+04   0.785E+02 -.402E+02 0.220E+04   -.507E+00 0.347E+00 0.278E+01   -.385E-01 -.166E-01 -.533E-01
   0.160E+02 0.343E+02 0.210E+04   -.164E+02 -.347E+02 -.210E+04   0.378E+00 0.347E+00 -.285E+01   -.305E-01 -.229E-01 0.165E-01
   -.780E+01 0.188E+02 -.218E+04   0.763E+01 -.193E+02 0.218E+04   0.195E+00 0.458E+00 0.247E+01   -.307E-01 0.589E-01 -.433E-01
   -.600E+02 0.179E+02 0.755E+03   0.600E+02 -.178E+02 -.756E+03   -.107E+00 -.679E-01 0.359E+00   -.160E-01 -.146E-01 -.455E-01
   -.111E+03 0.176E+02 -.720E+03   0.112E+03 -.177E+02 0.720E+03   -.534E+00 0.126E+00 0.169E+00   -.579E-01 -.317E-01 -.799E-01
   0.614E+02 -.311E+02 0.747E+03   -.615E+02 0.313E+02 -.747E+03   0.147E+00 -.168E+00 -.601E+00   -.347E-01 -.695E-02 -.471E-01
   0.926E+02 -.650E+02 0.725E+03   -.930E+02 0.652E+02 -.725E+03   0.228E+00 -.238E+00 -.676E+00   0.309E-01 -.219E-01 -.856E-03
   0.784E+02 -.247E+02 -.669E+03   -.787E+02 0.248E+02 0.668E+03   0.250E+00 -.785E-01 0.445E+00   0.446E-01 -.165E-01 -.987E-01
   0.430E+02 -.395E+02 0.740E+03   -.434E+02 0.397E+02 -.740E+03   0.360E+00 -.149E+00 -.485E+00   0.151E-01 -.943E-02 -.590E-02
   -.597E+02 0.381E+02 0.757E+03   0.600E+02 -.384E+02 -.757E+03   -.388E+00 0.347E+00 -.186E+00   0.163E-01 -.389E-01 -.344E-01
   -.302E+02 0.939E+02 0.747E+03   0.306E+02 -.944E+02 -.747E+03   -.301E+00 0.495E+00 -.157E+00   -.127E-01 -.111E-01 -.263E-01
   0.462E+02 0.139E+02 0.716E+03   -.465E+02 -.140E+02 -.715E+03   0.268E+00 0.619E-01 -.652E+00   -.164E-01 0.171E-01 -.164E-02
   0.274E+01 0.186E+02 -.695E+03   -.261E+01 -.184E+02 0.694E+03   -.807E-01 -.267E+00 0.470E+00   -.287E-01 0.508E-01 -.914E-01
 -----------------------------------------------------------------------------------------------
   -.104E+01 -.132E+00 0.387E+01   -.178E-12 0.163E-12 0.227E-12   0.940E+00 0.188E+00 -.119E+01   0.990E-01 -.554E-01 -.267E+01
 
 
 POSITION                                       TOTAL-FORCE (eV/Angst)
 -----------------------------------------------------------------------------------
     10.08740      0.00562      2.00000         0.017693      0.012104      0.252137
      0.01723      0.00434      8.13200         0.002832      0.009087      0.025751
     -2.53339      8.73512      2.03255        -0.088015     -0.080514      0.263892
      2.51863     -0.00944      8.15335         0.021922      0.012505      0.001090
      5.03058      0.01686      2.02726         0.035272     -0.063545      0.374209
      5.08390     -0.01538      8.13039        -0.004240     -0.005473      0.012135
      8.81557      2.19268      2.03016         0.100896     -0.084392      0.306154
     -1.26052      2.18519      8.15024        -0.006345     -0.000150      0.015899
      1.26036      2.17683      2.01409        -0.169607      0.096249      0.284357
      1.24957      2.19248      8.17598         0.000186      0.018637      0.008676
      2.54422      1.44455      4.08529         0.039694      0.054495     -0.085459
      6.28789      2.21111      2.05636        -0.018201      0.048646      0.276270
      6.30413      2.19748      8.16656        -0.005857     -0.007607      0.013916
      3.80257      0.73488      6.13907        -0.006395      0.010794     -0.007686
      7.56604      1.45101      4.12460        -0.008446     -0.072302     -0.356656
      6.33032      0.73278      6.15439        -0.020229     -0.004159      0.001083
      7.57051      4.36576      2.05350         0.002706      0.058860      0.318282
     -2.52928      4.36330      8.15802         0.016049     -0.001008      0.018717
      5.03817      4.36229      2.03237        -0.061893      0.006507      0.281782
      5.04447      4.37529      8.18507        -0.009347     -0.003846      0.003929
      3.80277      3.61435      4.09537        -0.031254      0.008976     -0.081104
      2.56828      2.91275      6.15070        -0.004256      0.007201      0.002069
      6.30075      3.62795      4.12919        -0.007301     -0.016908     -0.161250
      7.59406      2.92229      6.16202         0.003869      0.006592      0.004922
      6.29425      6.55133      2.04330        -0.110747      0.052545      0.182939
     -3.78892      6.53888      8.13384        -0.008761      0.011330      0.029890
     -2.53418      5.82300      4.10902         0.105412      0.023555     -0.094154
      3.81389      6.57546      2.02350         0.015365     -0.107808      0.206794
      3.81099      6.56162      8.16556        -0.007135     -0.000987      0.016941
      1.27603      5.09146      6.19940        -0.006679      0.023139     -0.010615
      6.29949      5.11635      6.15004         0.005033      0.003227      0.003393
     -2.51443      7.29907      6.13661        -0.001289     -0.002217     -0.010257
      0.01390      7.26127      6.18867         0.000878      0.012916      0.002449
      5.07676      7.30313      6.12459         0.006195     -0.000129      0.016371
      7.54405      0.03969      2.05505         0.049278      0.097148      0.147414
      7.57306      0.01705      8.22212         0.016578     -0.014896     -0.005545
      0.00095      1.48112      4.03255        -0.062532     -0.008979     -0.269643
      3.74186      2.14689      2.02455         0.215008      0.015179      0.025871
      3.79505      2.10455      8.21260         0.006316      0.030473     -0.017622
      1.31334      0.74189      6.17401        -0.006597      0.004127      0.005308
      5.08151      1.48100      4.08150        -0.008586      0.050581     -0.317676
      8.83425      0.74662      6.14701        -0.008014      0.020048      0.006156
     -0.02406      4.34464      2.06751        -0.035925      0.140662     -0.190625
     -0.04381      4.36878      8.32196        -0.003777     -0.003760     -0.018653
     -1.34500      3.63090      4.10833         0.059698     -0.017584     -0.209585
      2.55702      4.37025      2.00936         0.097463      0.040175      0.090452
      2.55810      4.35666      8.19222        -0.012602     -0.001377     -0.023409
      1.32920      3.63133      4.09860         0.054158     -0.083739     -0.017237
      0.02934      2.97248      6.18797        -0.001543      0.011946      0.002220
      5.09121      2.94162      6.19874        -0.005151      0.012982     -0.002196
     -1.32764      6.58396      2.06192         0.096646     -0.196789      0.045283
     -1.31016      6.59750      8.23418        -0.024788      0.017044     -0.015212
      1.24700      6.55932      2.04429        -0.073841     -0.125260      0.040191
      1.25574      6.49347      8.24062        -0.005066      0.006911     -0.017113
      0.00782      5.79603      4.14909        -0.053784     -0.037937     -0.013109
     -1.28408      5.12042      6.22078         0.010296      0.012345      0.000341
      2.54188      5.84536      4.09542        -0.017877      0.020021     -0.142405
      5.06524      5.76239      4.09008        -0.146297     -0.081722     -0.311209
      3.78797      5.11856      6.16210        -0.002816     -0.001398     -0.003640
     -3.78540      7.99724      4.04874         0.067219      0.081645     -0.272377
     -1.25221      8.01099      4.12545        -0.058048      0.009923     -0.209049
      1.24224      8.03556      4.14192         0.084534     -0.050328     -0.164119
      3.80728      7.99919      4.08829        -0.043403      0.009558     -0.246392
      2.52325      7.29441      6.22192         0.015444      0.016681     -0.013283
 -----------------------------------------------------------------------------------
    total drift:                                0.000368      0.001301      0.007143


--------------------------------------------------------------------------------------------------------



  FREE ENERGIE OF THE ION-ELECTRON SYSTEM (eV)
  ---------------------------------------------------
  free  energy   TOTEN  =      -412.28363829 eV

  energy  without entropy=     -412.32835740  energy(sigma->0) =     -412.29854466
 
 d Force = 0.5632178E-02[ 0.195E-02, 0.932E-02]  d Energy = 0.5679567E-02-0.474E-04
 d Force = 0.8915686E+02[ 0.890E+02, 0.893E+02]  d Ewald  = 0.8915691E+02-0.470E-04


--------------------------------------------------------------------------------------------------------


    POTLOK:  cpu time    0.2680: real time    0.2676


--------------------------------------------------------------------------------------------------------


 Conjugate gradient step on ions:
 trial-energy change:   -0.005680  1 .order   -0.005632   -0.009319   -0.001946
  (g-gl).g = 0.415E-02      g.g   = 0.455E-02  gl.gl    = 0.325E-01
 g(Force)  = 0.455E-02   g(Stress)= 0.000E+00 ortho     = 0.220E-03
 gamma     =   0.12761
 trial     =   2.03760
 opt step  =   2.55057  (harmonic =   2.57533) maximal distance =0.01127488
 next E    =  -412.283884   (d E  =  -0.00593)


--------------------------------------------------------------------------------------------------------


  
 reached required accuracy - stopping structural energy minimisation
     LOOP+:  cpu time  254.4463: real time  255.0673
    4ORBIT:  cpu time    0.0000: real time    0.0000
 


 total charge     
 
# of ion       s       p       d       tot
------------------------------------------
    1        0.493   0.371   8.309   9.172
    2        0.495   0.383   8.316   9.194
    3        0.498   0.385   8.321   9.205
    4        0.500   0.386   8.333   9.219
    5        0.503   0.394   8.308   9.206
    6        0.502   0.404   8.313   9.219
    7        0.496   0.377   8.317   9.190
    8        0.503   0.393   8.321   9.217
    9        0.499   0.387   8.311   9.197
   10        0.502   0.394   8.314   9.210
   11        0.506   0.507   8.319   9.332
   12        0.491   0.375   8.318   9.184
   13        0.499   0.385   8.320   9.204
   14        0.502   0.504   8.316   9.323
   15        0.511   0.513   8.326   9.349
   16        0.508   0.511   8.322   9.341
   17        0.490   0.373   8.320   9.183
   18        0.500   0.394   8.310   9.204
   19        0.489   0.372   8.312   9.174
   20        0.501   0.385   8.316   9.203
   21        0.513   0.519   8.317   9.349
   22        0.508   0.515   8.313   9.336
   23        0.504   0.501   8.332   9.336
   24        0.506   0.509   8.331   9.347
   25        0.495   0.378   8.314   9.187
   26        0.488   0.378   8.316   9.182
   27        0.507   0.508   8.323   9.338
   28        0.498   0.380   8.316   9.194
   29        0.504   0.391   8.321   9.216
   30        0.517   0.531   8.314   9.361
   31        0.503   0.498   8.335   9.335
   32        0.503   0.504   8.325   9.332
   33        0.509   0.515   8.320   9.344
   34        0.505   0.504   8.332   9.341
   35        0.458   0.380   6.136   6.974
   36        0.464   0.380   6.135   6.978
   37        0.467   0.488   6.188   7.142
   38        0.464   0.389   6.127   6.979
   39        0.461   0.385   6.113   6.959
   40        0.469   0.496   6.160   7.126
   41        0.473   0.498   6.188   7.160
   42        0.471   0.501   6.192   7.164
   43        0.467   0.392   6.149   7.008
   44        0.465   0.380   6.147   6.992
   45        0.473   0.502   6.181   7.156
   46        0.465   0.385   6.146   6.996
   47        0.465   0.395   6.154   7.014
   48        0.470   0.494   6.199   7.164
   49        0.471   0.499   6.193   7.163
   50        0.471   0.502   6.170   7.143
   51        0.463   0.389   6.137   6.989
   52        0.467   0.392   6.130   6.988
   53        0.463   0.387   6.152   7.001
   54        0.467   0.395   6.155   7.017
   55        0.474   0.504   6.206   7.183
   56        0.471   0.503   6.195   7.169
   57        0.476   0.502   6.222   7.201
   58        0.471   0.497   6.184   7.152
   59        0.475   0.501   6.208   7.185
   60        0.468   0.491   6.183   7.142
   61        0.471   0.495   6.189   7.155
   62        0.477   0.506   6.210   7.194
   63        0.471   0.501   6.201   7.173
   64        0.475   0.507   6.212   7.194
--------------------------------------------------
tot         31.110  28.466 468.013 527.588
 


 magnetization (x)
 
# of ion       s       p       d       tot
------------------------------------------
    1       -0.022  -0.028   0.731   0.681
    2       -0.017  -0.028   0.725   0.680
    3       -0.021  -0.031   0.689   0.637
    4       -0.017  -0.025   0.662   0.620
    5       -0.029  -0.043   0.732   0.660
    6       -0.021  -0.040   0.716   0.655
    7       -0.021  -0.026   0.706   0.659
    8       -0.019  -0.025   0.722   0.679
    9       -0.025  -0.038   0.716   0.653
   10       -0.023  -0.035   0.740   0.682
   11       -0.023  -0.049   0.750   0.677
   12       -0.019  -0.028   0.666   0.620
   13       -0.019  -0.028   0.698   0.650
   14       -0.019  -0.045   0.763   0.699
   15       -0.024  -0.048   0.730   0.658
   16       -0.021  -0.044   0.740   0.675
   17       -0.018  -0.027   0.662   0.617
   18       -0.019  -0.030   0.732   0.684
   19       -0.017  -0.026   0.706   0.663
   20       -0.022  -0.028   0.722   0.672
   21       -0.028  -0.058   0.762   0.676
   22       -0.022  -0.054   0.791   0.715
   23       -0.017  -0.037   0.689   0.636
   24       -0.017  -0.039   0.705   0.648
   25       -0.019  -0.025   0.710   0.667
   26       -0.011  -0.023   0.681   0.647
   27       -0.024  -0.048   0.723   0.651
   28       -0.026  -0.033   0.703   0.645
   29       -0.026  -0.032   0.703   0.645
   30       -0.030  -0.071   0.787   0.686
   31       -0.017  -0.031   0.672   0.623
   32       -0.019  -0.042   0.717   0.657
   33       -0.024  -0.055   0.747   0.668
   34       -0.023  -0.045   0.681   0.613
   35        0.009  -0.008   2.831   2.832
   36        0.008  -0.006   2.857   2.860
   37       -0.007  -0.028   2.683   2.648
   38        0.013  -0.007   2.859   2.864
   39        0.014  -0.009   2.911   2.917
   40        0.003  -0.016   2.791   2.778
   41       -0.002  -0.021   2.707   2.684
   42       -0.003  -0.027   2.697   2.667
   43       -0.003  -0.024   2.796   2.770
   44        0.002  -0.018   2.825   2.809
   45       -0.004  -0.028   2.719   2.687
   46        0.003  -0.014   2.802   2.792
   47        0.007  -0.016   2.799   2.789
   48       -0.006  -0.032   2.663   2.624
   49       -0.006  -0.031   2.693   2.657
   50        0.003  -0.018   2.770   2.755
   51        0.006  -0.018   2.822   2.809
   52        0.008  -0.014   2.857   2.851
   53       -0.003  -0.026   2.783   2.754
   54        0.001  -0.023   2.797   2.775
   55       -0.012  -0.047   2.634   2.574
   56       -0.002  -0.028   2.692   2.662
   57       -0.014  -0.042   2.569   2.513
   58        0.001  -0.019   2.709   2.691
   59       -0.003  -0.020   2.654   2.632
   60       -0.002  -0.019   2.713   2.693
   61       -0.002  -0.022   2.701   2.677
   62       -0.011  -0.040   2.619   2.568
   63       -0.007  -0.036   2.648   2.605
   64       -0.008  -0.037   2.624   2.580
--------------------------------------------------
tot         -0.732  -1.958 106.607 103.918
 

 total amount of memory used by VASP MPI-rank0   113850. kBytes
=======================================================================

   base      :      30000. kBytes
   nonlr-proj:      13026. kBytes
   fftplans  :       6403. kBytes
   grid      :      16455. kBytes
   one-center:         93. kBytes
   wavefun   :      47873. kBytes
 
  
  
 General timing and accounting informations for this job:
 ========================================================
  
                  Total CPU time used (sec):     6252.677
                            User time (sec):     6231.258
                          System time (sec):       21.420
                         Elapsed time (sec):     6292.768
  
                   Maximum memory used (kb):      161136.
                   Average memory used (kb):           0.
  
                          Minor page faults:      1614166
                          Major page faults:            0
                 Voluntary context switches:         8165
