SQS-NiFe                                
           1
    10.100310    0.000000    0.000000
    -5.050155    8.747125    0.000000
     0.000000    0.000000   21.252661
   Ni   Fe
  34  30
Direct configuration=     1
   0.99904300  0.00064200  0.09410586
   0.99833286  0.00060702  0.37641010
   0.24849100  0.99862800  0.09563755
   0.25216515  0.00501108  0.37614362
   0.49902500  0.00192700  0.09538843
   0.49903205  0.99671384  0.37867562
   0.99813900  0.25067400  0.09552521
   0.00250234  0.24899321  0.37714718
   0.24921500  0.24886200  0.09476883
   0.24980817  0.25094286  0.37643715
   0.33446800  0.16514600  0.19222469
   0.74893500  0.25278100  0.09675772
   0.74617642  0.24826473  0.37942411
   0.41934380  0.08650160  0.28447657
   0.83203200  0.16588400  0.19407448
   0.66802068  0.08538300  0.28574162
   0.99908600  0.49910800  0.09662298
   0.00655083  0.50267003  0.37978387
   0.74816900  0.49871100  0.09562882
   0.74851823  0.50010615  0.37967869
   0.58310200  0.41320400  0.19269936
   0.41057510  0.32882209  0.28500624
   0.83119700  0.41475900  0.19429042
   0.91599739  0.33284188  0.28682860
   0.99765800  0.74896900  0.09614336
   0.00689284  0.75202344  0.37845358
   0.08195100  0.66570400  0.19334166
   0.75346500  0.75172800  0.09521148
   0.74424528  0.74812028  0.37711430
   0.42148618  0.58177400  0.28313733
   0.91536222  0.58045635  0.28638013
   0.16857428  0.83397599  0.28512384
   0.41560856  0.83200967  0.28514833
   0.91408752  0.82976369  0.28317269
   0.74918200  0.00453800  0.09669603
   0.74620092  0.99254555  0.37264273
   0.08475800  0.16932700  0.18974338
   0.49319000  0.24544000  0.09526096
   0.50654780  0.26109843  0.37466718
   0.15609972  0.08041822  0.28014840
   0.58776100  0.16931300  0.19204658
   0.92119294  0.07877050  0.28343438
   0.24596400  0.49669300  0.09728245
   0.25741676  0.50601638  0.37204132
   0.07438400  0.41509600  0.19330907
   0.50297300  0.49962100  0.09454619
   0.50217308  0.50107103  0.37326950
   0.33917200  0.41514500  0.19285128
   0.16032438  0.33169061  0.28013675
   0.65885691  0.33261143  0.28767895
   0.24490500  0.75270000  0.09701936
   0.25321167  0.73804741  0.37465382
   0.49840300  0.74988300  0.09618992
   0.49969151  0.74805223  0.37437268
   0.33208500  0.66262100  0.19522695
   0.17155689  0.57600073  0.28537751
   0.58579400  0.66826100  0.19270140
   0.83088100  0.65877500  0.19245024
   0.66523540  0.58015852  0.28448753
   0.08235500  0.91427100  0.19050529
   0.33394400  0.91584300  0.19411435
   0.58231600  0.91865200  0.19488936
   0.83419400  0.91449400  0.19236584
   0.66822774  0.84088790  0.28316073
Direct configuration=     2
   0.99904300  0.00064200  0.09410586
   0.99959226 -0.00012619  0.37717184
   0.24849100  0.99862800  0.09563755
   0.25145633  0.00403270  0.37628851
   0.49902500  0.00192700  0.09538843
   0.49921263  0.99766478  0.37850149
   0.99813900  0.25067400  0.09552521
   0.00223455  0.24954710  0.37723685
   0.24921500  0.24886200  0.09476883
   0.24842480  0.25024592  0.37654701
   0.33446800  0.16514600  0.19222469
   0.74893500  0.25278100  0.09675772
   0.74736936  0.24910538  0.37966429
   0.41722542  0.08469935  0.28518511
   0.83203200  0.16588400  0.19407448
   0.66738206  0.08599845  0.28618326
   0.99908600  0.49910800  0.09662298
   0.00493905  0.50116846  0.37968675
   0.74816900  0.49871100  0.09562882
   0.75082014  0.50178892  0.37995201
   0.58310200  0.41320400  0.19269936
   0.41095151  0.32904740  0.28440633
   0.83119700  0.41475900  0.19429042
   0.91514825  0.33248028  0.28758781
   0.99765800  0.74896900  0.09614336
   0.00532016  0.75138992  0.37851545
   0.08195100  0.66570400  0.19334166
   0.75346500  0.75172800  0.09521148
   0.74667603  0.74834536  0.37730193
   0.42126773  0.58224903  0.28331317
   0.91578987  0.58132167  0.28716122
   0.16788242  0.83352011  0.28563683
   0.41598544  0.83267315  0.28557329
   0.91498171  0.82836840  0.28452341
   0.74918200  0.00453800  0.09669603
   0.74873296  0.99662297  0.37518306
   0.08475800  0.16932700  0.18974338
   0.49319000  0.24544000  0.09526096
   0.50276534  0.25515520  0.37764196
   0.16215822  0.08039092  0.28335023
   0.58776100  0.16931300  0.19204658
   0.91715030  0.08178007  0.28444612
   0.24596400  0.49669300  0.09728245
   0.25402377  0.49920699  0.37567503
   0.07438400  0.41509600  0.19330907
   0.50297300  0.49962100  0.09454619
   0.50231945  0.50125930  0.37585640
   0.33917200  0.41514500  0.19285128
   0.16385355  0.33203225  0.28302057
   0.66544204  0.33444165  0.28729559
   0.24490500  0.75270000  0.09701936
   0.25066687  0.74431642  0.37680741
   0.49840300  0.74988300  0.09618992
   0.50129782  0.74818138  0.37635137
   0.33208500  0.66262100  0.19522695
   0.16613771  0.57938990  0.28497844
   0.58579400  0.66826100  0.19270140
   0.83088100  0.65877500  0.19245024
   0.66703298  0.58233652  0.28502760
   0.08235500  0.91427100  0.19050529
   0.33394400  0.91584300  0.19411435
   0.58231600  0.91865200  0.19488936
   0.83419400  0.91449400  0.19236584
   0.66738755  0.83536901  0.28421759
Direct configuration=     3
   0.99904300  0.00064200  0.09410586
   0.00088125 -0.00087663  0.37795148
   0.24849100  0.99862800  0.09563755
   0.25073086  0.00303133  0.37643680
   0.49902500  0.00192700  0.09538843
   0.49939745  0.99863805  0.37832327
   0.99813900  0.25067400  0.09552521
   0.00196047  0.25011401  0.37732863
   0.24921500  0.24886200  0.09476883
   0.24700892  0.24953262  0.37665946
   0.33446800  0.16514600  0.19222469
   0.74893500  0.25278100  0.09675772
   0.74859033  0.24996578  0.37991011
   0.41505726  0.08285476  0.28591030
   0.83203200  0.16588400  0.19407448
   0.66672844  0.08662836  0.28663528
   0.99908600  0.49910800  0.09662298
   0.00328941  0.49963160  0.37958734
   0.74816900  0.49871100  0.09562882
   0.75317613  0.50351123  0.38023176
   0.58310200  0.41320400  0.19269936
   0.41133676  0.32927800  0.28379232
   0.83119700  0.41475900  0.19429042
   0.91427917  0.33211019  0.28836486
   0.99765800  0.74896900  0.09614336
   0.00371053  0.75074152  0.37857877
   0.08195100  0.66570400  0.19334166
   0.75346500  0.75172800  0.09521148
   0.74916389  0.74857573  0.37749397
   0.42104416  0.58273522  0.28349314
   0.91622757  0.58220733  0.28796066
   0.16717430  0.83305353  0.28616188
   0.41637118  0.83335223  0.28600823
   0.91589692  0.82694033  0.28590587
   0.74918200  0.00453800  0.09669603
   0.75132450  0.00079620  0.37778307
   0.08475800  0.16932700  0.18974338
   0.49319000  0.24544000  0.09526096
   0.49889400  0.24907233  0.38068664
   0.16835908  0.08036297  0.28662730
   0.58776100  0.16931300  0.19204658
   0.91301266  0.08486037  0.28548164
   0.24596400  0.49669300  0.09728245
   0.25055106  0.49223760  0.37939413
   0.07438400  0.41509600  0.19330907
   0.50297300  0.49962100  0.09454619
   0.50246926  0.50145199  0.37850409
   0.33917200  0.41514500  0.19285128
   0.16746565  0.33238192  0.28597215
   0.67218190  0.33631489  0.28690323
   0.24490500  0.75270000  0.09701936
   0.24806227  0.75073273  0.37901160
   0.49840300  0.74988300  0.09618992
   0.50294187  0.74831356  0.37837655
   0.33208500  0.66262100  0.19522695
   0.16059119  0.58285870  0.28456998
   0.58579400  0.66826100  0.19270140
   0.83088100  0.65877500  0.19245024
   0.66887281  0.58456569  0.28558035
   0.08235500  0.91427100  0.19050529
   0.33394400  0.91584300  0.19411435
   0.58231600  0.91865200  0.19488936
   0.83419400  0.91449400  0.19236584
   0.66652762  0.82972045  0.28529929
Direct configuration=     4
   0.99904300  0.00064200  0.09410586
   0.00113806 -0.00099641  0.37847790
   0.24849100  0.99862800  0.09563755
   0.25021841  0.00146165  0.37837676
   0.49902500  0.00192700  0.09538843
   0.50017247  0.99920769  0.37860202
   0.99813900  0.25067400  0.09552521
   0.00076660  0.24982614  0.37865752
   0.24921500  0.24886200  0.09476883
   0.24719651  0.24826998  0.37824490
   0.33446800  0.16514600  0.19222469
   0.74893500  0.25278100  0.09675772
   0.74901090  0.25078860  0.38077383
   0.41597915  0.08382283  0.28619129
   0.83203200  0.16588400  0.19407448
   0.66561449  0.08482719  0.28705821
   0.99908600  0.49910800  0.09662298
   0.00291555  0.49906283  0.37996399
   0.74816900  0.49871100  0.09562882
   0.75314418  0.50331003  0.38081121
   0.58310200  0.41320400  0.19269936
   0.41537446  0.33063837  0.28496543
   0.83119700  0.41475900  0.19429042
   0.91545903  0.33269585  0.28836585
   0.99765800  0.74896900  0.09614336
   0.00200348  0.74988108  0.37951375
   0.08195100  0.66570400  0.19334166
   0.75346500  0.75172800  0.09521148
   0.75128304  0.74921598  0.37875880
   0.41804758  0.58190457  0.28577004
   0.91637699  0.58314665  0.28806843
   0.16689186  0.83313523  0.28606931
   0.41632577  0.83216497  0.28733905
   0.91795625  0.82921454  0.28633392
   0.74918200  0.00453800  0.09669603
   0.75213258  0.00263563  0.37976598
   0.08475800  0.16932700  0.18974338
   0.49319000  0.24544000  0.09526096
   0.49747474  0.24628370  0.38184190
   0.16902856  0.07989746  0.28752518
   0.58776100  0.16931300  0.19204658
   0.91277840  0.08462112  0.28609686
   0.24596400  0.49669300  0.09728245
   0.24914514  0.49374284  0.38173413
   0.07438400  0.41509600  0.19330907
   0.50297300  0.49962100  0.09454619
   0.50301822  0.50049096  0.37984780
   0.33917200  0.41514500  0.19285128
   0.16902966  0.33478649  0.28652646
   0.67273971  0.33679231  0.28818484
   0.24490500  0.75270000  0.09701936
   0.24749806  0.75257952  0.38058054
   0.49840300  0.74988300  0.09618992
   0.50109393  0.74708819  0.37995368
   0.33208500  0.66262100  0.19522695
   0.16096415  0.58389850  0.28667789
   0.58579400  0.66826100  0.19270140
   0.83088100  0.65877500  0.19245024
   0.66767669  0.58266146  0.28646190
   0.08235500  0.91427100  0.19050529
   0.33394400  0.91584300  0.19411435
   0.58231600  0.91865200  0.19488936
   0.83419400  0.91449400  0.19236584
   0.66712764  0.83055648  0.28686693
Direct configuration=     5
   0.99904300  0.00064200  0.09410586
   0.00167985 -0.00124911  0.37958848
   0.24849100  0.99862800  0.09563755
   0.24913730 -0.00184990  0.38246951
   0.49902500  0.00192700  0.09538843
   0.50180754  0.00040945  0.37919010
   0.99813900  0.25067400  0.09552521
  -0.00175212  0.24921881  0.38146111
   0.24921500  0.24886200  0.09476883
   0.24759226  0.24560619  0.38158970
   0.33446800  0.16514600  0.19222469
   0.74893500  0.25278100  0.09675772
   0.74989819  0.25252450  0.38259604
   0.41792406  0.08586518  0.28678410
   0.83203200  0.16588400  0.19407448
   0.66326438  0.08102726  0.28795048
   0.99908600  0.49910800  0.09662298
   0.00212683  0.49786290  0.38075862
   0.74816900  0.49871100  0.09562882
   0.75307677  0.50288556  0.38203367
   0.58310200  0.41320400  0.19269936
   0.42389281  0.33350836  0.28744035
   0.83119700  0.41475900  0.19429042
   0.91794820  0.33393143  0.28836794
   0.99765800  0.74896900  0.09614336
  -0.00159789  0.74806579  0.38148628
   0.08195100  0.66570400  0.19334166
   0.75346500  0.75172800  0.09521148
   0.75575381  0.75056671  0.38142720
   0.41172568  0.58015216  0.29057364
   0.91669221  0.58512834  0.28829577
   0.16629598  0.83330761  0.28587401
   0.41622996  0.82966021  0.29014668
   0.92230083  0.83401244  0.28723699
   0.74918200  0.00453800  0.09669603
   0.75383738  0.00651629  0.38394932
   0.08475800  0.16932700  0.18974338
   0.49319000  0.24544000  0.09526096
   0.49448053  0.24040051  0.38427914
   0.17044096  0.07891537  0.28941945
   0.58776100  0.16931300  0.19204658
   0.91228418  0.08411639  0.28739480
   0.24596400  0.49669300  0.09728245
   0.24617905  0.49691846  0.38667085
   0.07438400  0.41509600  0.19330907
   0.50297300  0.49962100  0.09454619
   0.50417637  0.49846347  0.38268264
   0.33917200  0.41514500  0.19285128
   0.17232924  0.33985943  0.28769588
   0.67391652  0.33779953  0.29088866
   0.24490500  0.75270000  0.09701936
   0.24630774  0.75647571  0.38389055
   0.49840300  0.74988300  0.09618992
   0.49719534  0.74450301  0.38328094
   0.33208500  0.66262100  0.19522695
   0.16175097  0.58609216  0.29112495
   0.58579400  0.66826100  0.19270140
   0.83088100  0.65877500  0.19245024
   0.66515325  0.57864410  0.28832171
   0.08235500  0.91427100  0.19050529
   0.33394400  0.91584300  0.19411435
   0.58231600  0.91865200  0.19488936
   0.83419400  0.91449400  0.19236584
   0.66839349  0.83232025  0.29017418
Direct configuration=     6
   0.99904300  0.00064200  0.09410586
   0.00157932 -0.00031337  0.38089601
   0.24849100  0.99862800  0.09563755
   0.24866005 -0.00290037  0.38362077
   0.49902500  0.00192700  0.09538843
   0.50254353  0.00019961  0.38064305
   0.99813900  0.25067400  0.09552521
  -0.00069772  0.24948702  0.38226695
   0.24921500  0.24886200  0.09476883
   0.24804762  0.24711382  0.38264210
   0.33446800  0.16514600  0.19222469
   0.74893500  0.25278100  0.09675772
   0.74998477  0.25259829  0.38334645
   0.41820426  0.08527724  0.28750851
   0.83203200  0.16588400  0.19407448
   0.66510447  0.08167131  0.28845649
   0.99908600  0.49910800  0.09662298
   0.00043514  0.49794002  0.38230263
   0.74816900  0.49871100  0.09562882
   0.75215127  0.50175283  0.38367184
   0.58310200  0.41320400  0.19269936
   0.42270264  0.33309910  0.28886132
   0.83119700  0.41475900  0.19429042
   0.91831580  0.33335192  0.28871172
   0.99765800  0.74896900  0.09614336
  -0.00144251  0.74756967  0.38222994
   0.08195100  0.66570400  0.19334166
   0.75346500  0.75172800  0.09521148
   0.75476072  0.75078343  0.38243050
   0.41356624  0.58083583  0.29138289
   0.91656238  0.58584200  0.28830468
   0.16790180  0.83425499  0.28701387
   0.41544647  0.82877775  0.29060406
   0.92105871  0.83468426  0.28721754
   0.74918200  0.00453800  0.09669603
   0.75242824  0.00513495  0.38548862
   0.08475800  0.16932700  0.18974338
   0.49319000  0.24544000  0.09526096
   0.49444714  0.23957590  0.38530352
   0.17149384  0.08225480  0.28958858
   0.58776100  0.16931300  0.19204658
   0.91524628  0.08483767  0.28819218
   0.24596400  0.49669300  0.09728245
   0.24505501  0.49817865  0.38917673
   0.07438400  0.41509600  0.19330907
   0.50297300  0.49962100  0.09454619
   0.50385323  0.49782616  0.38397436
   0.33917200  0.41514500  0.19285128
   0.17201935  0.33883652  0.28925939
   0.67317388  0.33596096  0.29139844
   0.24490500  0.75270000  0.09701936
   0.24668334  0.75617866  0.38554894
   0.49840300  0.74988300  0.09618992
   0.49644319  0.74368946  0.38535186
   0.33208500  0.66262100  0.19522695
   0.16435470  0.58663001  0.29196418
   0.58579400  0.66826100  0.19270140
   0.83088100  0.65877500  0.19245024
   0.66552240  0.58194826  0.28904621
   0.08235500  0.91427100  0.19050529
   0.33394400  0.91584300  0.19411435
   0.58231600  0.91865200  0.19488936
   0.83419400  0.91449400  0.19236584
   0.66797951  0.83213048  0.29178176
Direct configuration=     7
   0.99904300  0.00064200  0.09410586
   0.00150796  0.00035086  0.38182415
   0.24849100  0.99862800  0.09563755
   0.24832128 -0.00364605  0.38443799
   0.49902500  0.00192700  0.09538843
   0.50306597  0.00005066  0.38167443
   0.99813900  0.25067400  0.09552521
   0.00005074  0.24967741  0.38283898
   0.24921500  0.24886200  0.09476883
   0.24837087  0.24818400  0.38338914
   0.33446800  0.16514600  0.19222469
   0.74893500  0.25278100  0.09675772
   0.75004622  0.25265067  0.38387912
   0.41840316  0.08485989  0.28802274
   0.83203200  0.16588400  0.19407448
   0.66641065  0.08212849  0.28881568
   0.99908600  0.49910800  0.09662298
  -0.00076571  0.49799476  0.38339865
   0.74816900  0.49871100  0.09562882
   0.75149431  0.50094876  0.38483469
   0.58310200  0.41320400  0.19269936
   0.42185780  0.33280860  0.28987000
   0.83119700  0.41475900  0.19429042
   0.91857675  0.33294056  0.28895575
   0.99765800  0.74896900  0.09614336
  -0.00133222  0.74721749  0.38275783
   0.08195100  0.66570400  0.19334166
   0.75346500  0.75172800  0.09521148
   0.75405577  0.75093727  0.38314269
   0.41487276  0.58132114  0.29195733
   0.91647022  0.58634859  0.28831100
   0.16904169  0.83492748  0.28782300
   0.41489030  0.82815133  0.29092872
   0.92017700  0.83516114  0.28720374
   0.74918200  0.00453800  0.09669603
   0.75142796  0.00415441  0.38658130
   0.08475800  0.16932700  0.18974338
   0.49319000  0.24544000  0.09526096
   0.49442343  0.23899055  0.38603068
   0.17224123  0.08462529  0.28970864
   0.58776100  0.16931300  0.19204658
   0.91734892  0.08534967  0.28875820
   0.24596400  0.49669300  0.09728245
   0.24425711  0.49907320  0.39095553
   0.07438400  0.41509600  0.19330907
   0.50297300  0.49962100  0.09454619
   0.50362385  0.49737377  0.38489128
   0.33917200  0.41514500  0.19285128
   0.17179937  0.33811041  0.29036924
   0.67264672  0.33465585  0.29176031
   0.24490500  0.75270000  0.09701936
   0.24694996  0.75596779  0.38672616
   0.49840300  0.74988300  0.09618992
   0.49590928  0.74311196  0.38682191
   0.33208500  0.66262100  0.19522695
   0.16620295  0.58701180  0.29255991
   0.58579400  0.66826100  0.19270140
   0.83088100  0.65877500  0.19245024
   0.66578443  0.58429373  0.28956050
   0.08235500  0.91427100  0.19050529
   0.33394400  0.91584300  0.19411435
   0.58231600  0.91865200  0.19488936
   0.83419400  0.91449400  0.19236584
   0.66768564  0.83199577  0.29292290
Direct configuration=     8
   0.99904300  0.00064200  0.09410586
   0.00184290  0.00047396  0.38235179
   0.24849100  0.99862800  0.09563755
   0.24829315 -0.00221192  0.38386728
   0.49902500  0.00192700  0.09538843
   0.50286041 -0.00106426  0.38224636
   0.99813900  0.25067400  0.09552521
   0.00033939  0.24985693  0.38316095
   0.24921500  0.24886200  0.09476883
   0.24866735  0.24965632  0.38415333
   0.33446800  0.16514600  0.19222469
   0.74893500  0.25278100  0.09675772
   0.75001704  0.25185457  0.38417549
   0.41804191  0.08388232  0.28862285
   0.83203200  0.16588400  0.19407448
   0.66813063  0.08263804  0.28930845
   0.99908600  0.49910800  0.09662298
  -0.00107256  0.49859222  0.38362065
   0.74816900  0.49871100  0.09562882
   0.75038235  0.50047637  0.38505994
   0.58310200  0.41320400  0.19269936
   0.42095775  0.33303932  0.28966182
   0.83119700  0.41475900  0.19429042
   0.91907233  0.33380028  0.28963544
   0.99765800  0.74896900  0.09614336
  -0.00123580  0.74732944  0.38260908
   0.08195100  0.66570400  0.19334166
   0.75346500  0.75172800  0.09521148
   0.75307576  0.75042277  0.38394613
   0.41646903  0.58131195  0.29176404
   0.91603357  0.58538408  0.28905189
   0.16871243  0.83531033  0.28863805
   0.41633665  0.82973056  0.29106493
   0.92024456  0.83500464  0.28774540
   0.74918200  0.00453800  0.09669603
   0.75074824  0.00280166  0.38677933
   0.08475800  0.16932700  0.18974338
   0.49319000  0.24544000  0.09526096
   0.49522245  0.23973530  0.38642664
   0.17262371  0.08479069  0.29024657
   0.58776100  0.16931300  0.19204658
   0.91723416  0.08524432  0.28908217
   0.24596400  0.49669300  0.09728245
   0.24480143  0.49931463  0.39151979
   0.07438400  0.41509600  0.19330907
   0.50297300  0.49962100  0.09454619
   0.50285467  0.49773744  0.38539574
   0.33917200  0.41514500  0.19285128
   0.17234591  0.33909579  0.29105781
   0.67250823  0.33592636  0.29167895
   0.24490500  0.75270000  0.09701936
   0.24733026  0.75472636  0.38737107
   0.49840300  0.74988300  0.09618992
   0.49567798  0.74274726  0.38759339
   0.33208500  0.66262100  0.19522695
   0.16524025  0.58521833  0.29267855
   0.58579400  0.66826100  0.19270140
   0.83088100  0.65877500  0.19245024
   0.66704639  0.58456849  0.28977035
   0.08235500  0.91427100  0.19050529
   0.33394400  0.91584300  0.19411435
   0.58231600  0.91865200  0.19488936
   0.83419400  0.91449400  0.19236584
   0.66678389  0.83385715  0.29285212
Direct configuration=     9
   0.99904300  0.00064200  0.09410586
   0.00191258  0.00049957  0.38246155
   0.24849100  0.99862800  0.09563755
   0.24828730 -0.00191358  0.38374856
   0.49902500  0.00192700  0.09538843
   0.50281765 -0.00129620  0.38236534
   0.99813900  0.25067400  0.09552521
   0.00039944  0.24989428  0.38322793
   0.24921500  0.24886200  0.09476883
   0.24872903  0.24996260  0.38431231
   0.33446800  0.16514600  0.19222469
   0.74893500  0.25278100  0.09675772
   0.75001096  0.25168895  0.38423714
   0.41796676  0.08367896  0.28874769
   0.83203200  0.16588400  0.19407448
   0.66848843  0.08274404  0.28941096
   0.99908600  0.49910800  0.09662298
  -0.00113640  0.49871651  0.38366683
   0.74816900  0.49871100  0.09562882
   0.75015104  0.50037810  0.38510680
   0.58310200  0.41320400  0.19269936
   0.42077052  0.33308732  0.28961851
   0.83119700  0.41475900  0.19429042
   0.91917543  0.33397913  0.28977683
   0.99765800  0.74896900  0.09614336
  -0.00121574  0.74735273  0.38257814
   0.08195100  0.66570400  0.19334166
   0.75346500  0.75172800  0.09521148
   0.75287189  0.75031573  0.38411327
   0.41680110  0.58131004  0.29172383
   0.91594273  0.58518344  0.28920602
   0.16864393  0.83538997  0.28880760
   0.41663753  0.83005908  0.29109327
   0.92025861  0.83497209  0.28785808
   0.74918200  0.00453800  0.09669603
   0.75060683  0.00252025  0.38682053
   0.08475800  0.16932700  0.18974338
   0.49319000  0.24544000  0.09526096
   0.49538867  0.23989023  0.38650901
   0.17270328  0.08482510  0.29035848
   0.58776100  0.16931300  0.19204658
   0.91721028  0.08522240  0.28914957
   0.24596400  0.49669300  0.09728245
   0.24491466  0.49936486  0.39163717
   0.07438400  0.41509600  0.19330907
   0.50297300  0.49962100  0.09454619
   0.50269466  0.49781310  0.38550068
   0.33917200  0.41514500  0.19285128
   0.17245960  0.33930078  0.29120105
   0.67247942  0.33619067  0.29166203
   0.24490500  0.75270000  0.09701936
   0.24740937  0.75446810  0.38750523
   0.49840300  0.74988300  0.09618992
   0.49562986  0.74267139  0.38775388
   0.33208500  0.66262100  0.19522695
   0.16503999  0.58484523  0.29270323
   0.58579400  0.66826100  0.19270140
   0.83088100  0.65877500  0.19245024
   0.66730891  0.58462565  0.28981400
   0.08235500  0.91427100  0.19050529
   0.33394400  0.91584300  0.19411435
   0.58231600  0.91865200  0.19488936
   0.83419400  0.91449400  0.19236584
   0.66659630  0.83424437  0.29283739
Direct configuration=    10
   0.99904300  0.00064200  0.09410586
   0.00195388  0.00049582  0.38263438
   0.24849100  0.99862800  0.09563755
   0.24882230 -0.00107928  0.38363891
   0.49902500  0.00192700  0.09538843
   0.50246233 -0.00175780  0.38255863
   0.99813900  0.25067400  0.09552521
   0.00010919  0.24981806  0.38349260
   0.24921500  0.24886200  0.09476883
   0.24904143  0.25065165  0.38470360
   0.33446800  0.16514600  0.19222469
   0.74893500  0.25278100  0.09675772
   0.74976383  0.25122302  0.38426045
   0.41848793  0.08401433  0.28886138
   0.83203200  0.16588400  0.19407448
   0.66863160  0.08377378  0.28958192
   0.99908600  0.49910800  0.09662298
  -0.00100306  0.49882697  0.38385858
   0.74816900  0.49871100  0.09562882
   0.74953608  0.50019719  0.38513136
   0.58310200  0.41320400  0.19269936
   0.42077520  0.33299548  0.28940857
   0.83119700  0.41475900  0.19429042
   0.91890744  0.33408592  0.28994110
   0.99765800  0.74896900  0.09614336
  -0.00135541  0.74754668  0.38272096
   0.08195100  0.66570400  0.19334166
   0.75346500  0.75172800  0.09521148
   0.75238709  0.75014569  0.38421377
   0.41737179  0.58207228  0.29170006
   0.91615226  0.58491842  0.28937747
   0.16828067  0.83445393  0.28874549
   0.41644189  0.83013181  0.29119500
   0.92009313  0.83491829  0.28817985
   0.74918200  0.00453800  0.09669603
   0.75076015  0.00194954  0.38687471
   0.08475800  0.16932700  0.18974338
   0.49319000  0.24544000  0.09526096
   0.49603617  0.24059949  0.38642687
   0.17243779  0.08481553  0.29050527
   0.58776100  0.16931300  0.19204658
   0.91732955  0.08535549  0.28923505
   0.24596400  0.49669300  0.09728245
   0.24538932  0.49945367  0.39157246
   0.07438400  0.41509600  0.19330907
   0.50297300  0.49962100  0.09454619
   0.50230352  0.49806800  0.38546788
   0.33917200  0.41514500  0.19285128
   0.17281644  0.33982342  0.29116224
   0.67221219  0.33629568  0.29166867
   0.24490500  0.75270000  0.09701936
   0.24740871  0.75424745  0.38744251
   0.49840300  0.74988300  0.09618992
   0.49550496  0.74235524  0.38774554
   0.33208500  0.66262100  0.19522695
   0.16555908  0.58538305  0.29270611
   0.58579400  0.66826100  0.19270140
   0.83088100  0.65877500  0.19245024
   0.66762000  0.58517049  0.28994464
   0.08235500  0.91427100  0.19050529
   0.33394400  0.91584300  0.19411435
   0.58231600  0.91865200  0.19488936
   0.83419400  0.91449400  0.19236584
   0.66677887  0.83392042  0.29275936
