  32  32   1   0
  0.1113753E+02  0.7090000E-09  0.7090000E-09  0.7090000E-09  0.5000000E-15
  1.000000000000000E-004
  CAR 
 SQS-NiFe                                
     20.69707964     -2.49942352  301      8.37201736      1.00000000
     -2.499  0.0000E+00  0.0000E+00  0.0000E+00  0.0000E+00
     -2.422  0.0000E+00  0.0000E+00  0.0000E+00  0.0000E+00
     -2.345  0.0000E+00  0.0000E+00  0.0000E+00  0.0000E+00
     -2.267  0.0000E+00  0.0000E+00  0.0000E+00  0.0000E+00
     -2.190  0.0000E+00  0.0000E+00  0.0000E+00  0.0000E+00
     -2.113 -0.6022E-30 -0.1546E-31 -0.4656E-31 -0.1195E-32
     -2.035 -0.2520E-27 -0.7714E-29 -0.1953E-28 -0.5976E-30
     -1.958 -0.7812E-25 -0.2852E-26 -0.6060E-26 -0.2211E-27
     -1.881 -0.1790E-22 -0.7796E-24 -0.1390E-23 -0.6050E-25
     -1.804 -0.3033E-20 -0.1575E-21 -0.2359E-21 -0.1224E-22
     -1.726 -0.3794E-18 -0.2352E-19 -0.2957E-19 -0.1831E-20
     -1.649 -0.3395E-16 -0.2593E-17 -0.2655E-17 -0.2023E-18
     -1.572 -0.2304E-14 -0.2042E-15 -0.1808E-15 -0.1599E-16
     -1.494 -0.1149E-12 -0.1219E-13 -0.9066E-14 -0.9584E-15
     -1.417 -0.4211E-11 -0.5348E-12 -0.3346E-12 -0.4231E-13
     -1.340 -0.1131E-09 -0.1722E-10 -0.9077E-11 -0.1374E-11
     -1.262 -0.2217E-08 -0.4059E-09 -0.1805E-09 -0.3276E-10
     -1.185 -0.3159E-07 -0.6973E-08 -0.2623E-08 -0.5719E-09
     -1.108 -0.3246E-06 -0.8681E-07 -0.2772E-07 -0.7284E-08
     -1.030 -0.2375E-05 -0.7759E-06 -0.2114E-06 -0.6727E-07
     -0.953 -0.1210E-04 -0.4900E-05 -0.1147E-05 -0.4462E-06
     -0.876 -0.4090E-04 -0.2122E-04 -0.4309E-05 -0.2087E-05
     -0.798 -0.7974E-04 -0.5866E-04 -0.1047E-04 -0.6623E-05
     -0.721 -0.2911E-04 -0.7970E-04 -0.1273E-04 -0.1279E-04
     -0.644  0.2910E-03  0.6361E-04  0.9777E-05 -0.7867E-05
     -0.566  0.8489E-03  0.5135E-03  0.7541E-04  0.3183E-04
     -0.489  0.1159E-02  0.1043E-02  0.1650E-03  0.1125E-03
     -0.412  0.9269E-03  0.1107E-02  0.2367E-03  0.1981E-03
     -0.334  0.1138E-02  0.8587E-03  0.3247E-03  0.2645E-03
     -0.257  0.3339E-02  0.1774E-02  0.5828E-03  0.4016E-03
     -0.180  0.6840E-02  0.4809E-02  0.1112E-02  0.7734E-03
     -0.102  0.8317E-02  0.7892E-02  0.1755E-02  0.1384E-02
     -0.025  0.6660E-02  0.7861E-02  0.2270E-02  0.1992E-02
      0.052  0.6172E-02  0.5933E-02  0.2747E-02  0.2450E-02
      0.130  0.1075E-01  0.7403E-02  0.3578E-02  0.3023E-02
      0.207  0.1658E-01  0.1342E-01  0.4860E-02  0.4060E-02
      0.284  0.1653E-01  0.1750E-01  0.6138E-02  0.5413E-02
      0.361  0.1117E-01  0.1458E-01  0.7002E-02  0.6541E-02
      0.439  0.7972E-02  0.9096E-02  0.7619E-02  0.7244E-02
      0.516  0.9609E-02  0.8045E-02  0.8362E-02  0.7866E-02
      0.593  0.1092E-01  0.1046E-01  0.9206E-02  0.8675E-02
      0.671  0.8452E-02  0.1039E-01  0.9859E-02  0.9478E-02
      0.748  0.5589E-02  0.7023E-02  0.1029E-01  0.1002E-01
      0.825  0.5681E-02  0.5016E-02  0.1073E-01  0.1041E-01
      0.903  0.6675E-02  0.6016E-02  0.1125E-01  0.1087E-01
      0.980  0.7092E-02  0.6923E-02  0.1180E-01  0.1141E-01
      1.057  0.1174E-01  0.7732E-02  0.1270E-01  0.1201E-01
      1.135  0.2349E-01  0.1389E-01  0.1452E-01  0.1308E-01
      1.212  0.3378E-01  0.2590E-01  0.1713E-01  0.1508E-01
      1.289  0.3342E-01  0.3391E-01  0.1972E-01  0.1771E-01
      1.367  0.2880E-01  0.3155E-01  0.2194E-01  0.2015E-01
      1.444  0.3093E-01  0.2713E-01  0.2433E-01  0.2224E-01
      1.521  0.3503E-01  0.2966E-01  0.2704E-01  0.2454E-01
      1.599  0.2900E-01  0.3325E-01  0.2928E-01  0.2711E-01
      1.676  0.1421E-01  0.2746E-01  0.3038E-01  0.2923E-01
      1.753  0.1798E-02  0.1399E-01  0.3052E-01  0.3031E-01
      1.831 -0.2895E-02  0.2466E-02  0.3030E-01  0.3050E-01
      1.908 -0.1487E-02 -0.2357E-02  0.3018E-01  0.3032E-01
      1.985  0.4325E-02 -0.1549E-02  0.3052E-01  0.3020E-01
      2.063  0.1351E-01  0.3582E-02  0.3156E-01  0.3048E-01
      2.140  0.2465E-01  0.1150E-01  0.3347E-01  0.3137E-01
      2.217  0.3663E-01  0.1921E-01  0.3630E-01  0.3285E-01
      2.295  0.4521E-01  0.2631E-01  0.3980E-01  0.3489E-01
      2.372  0.4386E-01  0.3477E-01  0.4319E-01  0.3758E-01
      2.449  0.3538E-01  0.4121E-01  0.4592E-01  0.4076E-01
      2.526  0.3140E-01  0.3982E-01  0.4835E-01  0.4384E-01
      2.604  0.3604E-01  0.3414E-01  0.5114E-01  0.4648E-01
      2.681  0.4448E-01  0.3223E-01  0.5458E-01  0.4897E-01
      2.758  0.5231E-01  0.3364E-01  0.5862E-01  0.5157E-01
      2.836  0.5242E-01  0.3484E-01  0.6267E-01  0.5427E-01
      2.913  0.3708E-01  0.3838E-01  0.6554E-01  0.5723E-01
      2.990  0.1223E-01  0.4364E-01  0.6649E-01  0.6061E-01
      3.068 -0.3134E-02  0.4140E-01  0.6624E-01  0.6381E-01
      3.145  0.9366E-02  0.2744E-01  0.6697E-01  0.6593E-01
      3.222  0.5502E-01  0.9799E-02  0.7122E-01  0.6669E-01
      3.300  0.1139E+00  0.1805E-04  0.8003E-01  0.6669E-01
      3.377  0.1510E+00  0.5961E-02  0.9171E-01  0.6715E-01
      3.454  0.1530E+00  0.3013E-01  0.1035E+00  0.6948E-01
      3.532  0.1395E+00  0.6471E-01  0.1143E+00  0.7449E-01
      3.609  0.1319E+00  0.8951E-01  0.1245E+00  0.8141E-01
      3.686  0.1376E+00  0.8718E-01  0.1352E+00  0.8815E-01
      3.764  0.1566E+00  0.6435E-01  0.1473E+00  0.9312E-01
      3.841  0.1791E+00  0.4587E-01  0.1611E+00  0.9667E-01
      3.918  0.1865E+00  0.4498E-01  0.1755E+00  0.1001E+00
      3.996  0.1821E+00  0.5408E-01  0.1896E+00  0.1043E+00
      4.073  0.1981E+00  0.6487E-01  0.2049E+00  0.1093E+00
      4.150  0.2483E+00  0.7838E-01  0.2241E+00  0.1154E+00
      4.228  0.3001E+00  0.9253E-01  0.2473E+00  0.1226E+00
      4.305  0.3166E+00  0.9911E-01  0.2718E+00  0.1302E+00
      4.382  0.2977E+00  0.1013E+00  0.2948E+00  0.1381E+00
      4.460  0.2705E+00  0.1174E+00  0.3157E+00  0.1471E+00
      4.537  0.2610E+00  0.1590E+00  0.3359E+00  0.1594E+00
      4.614  0.2763E+00  0.2121E+00  0.3573E+00  0.1758E+00
      4.691  0.2984E+00  0.2361E+00  0.3804E+00  0.1941E+00
      4.769  0.2997E+00  0.1980E+00  0.4035E+00  0.2094E+00
      4.846  0.2772E+00  0.1234E+00  0.4250E+00  0.2189E+00
      4.923  0.2593E+00  0.8646E-01  0.4450E+00  0.2256E+00
      5.001  0.2681E+00  0.1307E+00  0.4657E+00  0.2357E+00
      5.078  0.2888E+00  0.2228E+00  0.4881E+00  0.2530E+00
      5.155  0.2938E+00  0.2913E+00  0.5108E+00  0.2755E+00
      5.233  0.2891E+00  0.2949E+00  0.5331E+00  0.2983E+00
      5.310  0.3039E+00  0.2548E+00  0.5566E+00  0.3180E+00
      5.387  0.3397E+00  0.2317E+00  0.5829E+00  0.3359E+00
      5.465  0.3646E+00  0.2626E+00  0.6111E+00  0.3562E+00
      5.542  0.3647E+00  0.3118E+00  0.6393E+00  0.3803E+00
      5.619  0.3664E+00  0.3100E+00  0.6676E+00  0.4043E+00
      5.697  0.3930E+00  0.2503E+00  0.6980E+00  0.4236E+00
      5.774  0.4286E+00  0.2018E+00  0.7312E+00  0.4392E+00
      5.851  0.4513E+00  0.2181E+00  0.7661E+00  0.4561E+00
      5.929  0.4710E+00  0.2750E+00  0.8025E+00  0.4774E+00
      6.006  0.5049E+00  0.3129E+00  0.8415E+00  0.5016E+00
      6.083  0.5396E+00  0.3066E+00  0.8832E+00  0.5253E+00
      6.161  0.5469E+00  0.2807E+00  0.9255E+00  0.5470E+00
      6.238  0.5143E+00  0.2719E+00  0.9653E+00  0.5680E+00
      6.315  0.4449E+00  0.2915E+00  0.9997E+00  0.5905E+00
      6.393  0.3591E+00  0.3216E+00  0.1027E+01  0.6154E+00
      6.470  0.2998E+00  0.3438E+00  0.1051E+01  0.6420E+00
      6.547  0.2968E+00  0.3638E+00  0.1074E+01  0.6701E+00
      6.625  0.3354E+00  0.3938E+00  0.1100E+01  0.7006E+00
      6.702  0.3842E+00  0.4228E+00  0.1129E+01  0.7333E+00
      6.779  0.4301E+00  0.4329E+00  0.1163E+01  0.7667E+00
      6.856  0.4654E+00  0.4288E+00  0.1198E+01  0.7999E+00
      6.934  0.4666E+00  0.4280E+00  0.1235E+01  0.8330E+00
      7.011  0.4196E+00  0.4325E+00  0.1267E+01  0.8664E+00
      7.088  0.3657E+00  0.4284E+00  0.1295E+01  0.8996E+00
      7.166  0.3721E+00  0.4059E+00  0.1324E+01  0.9310E+00
      7.243  0.4319E+00  0.3692E+00  0.1357E+01  0.9595E+00
      7.320  0.4611E+00  0.3332E+00  0.1393E+01  0.9853E+00
      7.398  0.4287E+00  0.3156E+00  0.1426E+01  0.1010E+01
      7.475  0.4113E+00  0.3262E+00  0.1458E+01  0.1035E+01
      7.552  0.4828E+00  0.3547E+00  0.1495E+01  0.1062E+01
      7.630  0.6099E+00  0.3767E+00  0.1543E+01  0.1091E+01
      7.707  0.6754E+00  0.3755E+00  0.1595E+01  0.1120E+01
      7.784  0.5890E+00  0.3544E+00  0.1640E+01  0.1148E+01
      7.862  0.3825E+00  0.3280E+00  0.1670E+01  0.1173E+01
      7.939  0.1818E+00  0.3092E+00  0.1684E+01  0.1197E+01
      8.016  0.8013E-01  0.3046E+00  0.1690E+01  0.1221E+01
      8.094  0.7450E-01  0.3157E+00  0.1696E+01  0.1245E+01
      8.171  0.1083E+00  0.3383E+00  0.1704E+01  0.1271E+01
      8.248  0.1295E+00  0.3598E+00  0.1714E+01  0.1299E+01
      8.326  0.1159E+00  0.3644E+00  0.1723E+01  0.1327E+01
      8.403  0.7541E-01  0.3430E+00  0.1729E+01  0.1354E+01
      8.480  0.3291E-01  0.3025E+00  0.1732E+01  0.1377E+01
      8.558  0.1251E-01  0.2626E+00  0.1733E+01  0.1397E+01
      8.635  0.2085E-01  0.2401E+00  0.1734E+01  0.1416E+01
      8.712  0.4364E-01  0.2372E+00  0.1738E+01  0.1434E+01
      8.790  0.5873E-01  0.2450E+00  0.1742E+01  0.1453E+01
      8.867  0.5334E-01  0.2531E+00  0.1746E+01  0.1473E+01
      8.944  0.3186E-01  0.2543E+00  0.1749E+01  0.1493E+01
      9.022  0.1126E-01  0.2452E+00  0.1750E+01  0.1512E+01
      9.099  0.8315E-02  0.2293E+00  0.1750E+01  0.1529E+01
      9.176  0.2591E-01  0.2169E+00  0.1752E+01  0.1546E+01
      9.253  0.4829E-01  0.2155E+00  0.1756E+01  0.1563E+01
      9.331  0.5468E-01  0.2247E+00  0.1760E+01  0.1580E+01
      9.408  0.4403E-01  0.2389E+00  0.1764E+01  0.1599E+01
      9.485  0.3895E-01  0.2524E+00  0.1767E+01  0.1618E+01
      9.563  0.5705E-01  0.2599E+00  0.1771E+01  0.1638E+01
      9.640  0.8533E-01  0.2551E+00  0.1778E+01  0.1658E+01
      9.717  0.9269E-01  0.2348E+00  0.1785E+01  0.1676E+01
      9.795  0.6755E-01  0.2063E+00  0.1790E+01  0.1692E+01
      9.872  0.3311E-01  0.1846E+00  0.1793E+01  0.1706E+01
      9.949  0.1878E-01  0.1751E+00  0.1794E+01  0.1720E+01
     10.027  0.2799E-01  0.1647E+00  0.1796E+01  0.1733E+01
     10.104  0.4542E-01  0.1350E+00  0.1800E+01  0.1743E+01
     10.181  0.6138E-01  0.8449E-01  0.1804E+01  0.1749E+01
     10.259  0.7134E-01  0.3290E-01  0.1810E+01  0.1752E+01
     10.336  0.6609E-01  0.2801E-02  0.1815E+01  0.1752E+01
     10.413  0.4295E-01  0.3743E-02  0.1818E+01  0.1753E+01
     10.491  0.1536E-01  0.3289E-01  0.1820E+01  0.1755E+01
     10.568 -0.1962E-02  0.7658E-01  0.1819E+01  0.1761E+01
     10.645 -0.5733E-02  0.1103E+00  0.1819E+01  0.1770E+01
     10.723  0.2314E-02  0.1146E+00  0.1819E+01  0.1778E+01
     10.800  0.2239E-01  0.9677E-01  0.1821E+01  0.1786E+01
     10.877  0.5427E-01  0.8321E-01  0.1825E+01  0.1792E+01
     10.955  0.9220E-01  0.8953E-01  0.1832E+01  0.1799E+01
     11.032  0.1187E+00  0.1022E+00  0.1841E+01  0.1807E+01
     11.109  0.1111E+00  0.9488E-01  0.1850E+01  0.1814E+01
     11.187  0.6941E-01  0.6102E-01  0.1855E+01  0.1819E+01
     11.264  0.2357E-01  0.2178E-01  0.1857E+01  0.1821E+01
     11.341 -0.1255E-02 -0.8876E-03  0.1857E+01  0.1821E+01
     11.418 -0.6595E-02 -0.3096E-02  0.1857E+01  0.1821E+01
     11.496 -0.5444E-02  0.7853E-02  0.1856E+01  0.1821E+01
     11.573 -0.3062E-02  0.2278E-01  0.1856E+01  0.1823E+01
     11.650  0.5360E-02  0.3548E-01  0.1856E+01  0.1826E+01
     11.728  0.2429E-01  0.4969E-01  0.1858E+01  0.1830E+01
     11.805  0.4491E-01  0.7273E-01  0.1862E+01  0.1835E+01
     11.882  0.4961E-01  0.9513E-01  0.1866E+01  0.1843E+01
     11.960  0.3711E-01  0.9450E-01  0.1868E+01  0.1850E+01
     12.037  0.3026E-01  0.6742E-01  0.1871E+01  0.1855E+01
     12.114  0.4528E-01  0.3621E-01  0.1874E+01  0.1858E+01
     12.192  0.6694E-01  0.1889E-01  0.1879E+01  0.1859E+01
     12.269  0.7156E-01  0.1377E-01  0.1885E+01  0.1860E+01
     12.346  0.6043E-01  0.1409E-01  0.1890E+01  0.1861E+01
     12.424  0.4966E-01  0.1757E-01  0.1893E+01  0.1863E+01
     12.501  0.4287E-01  0.2295E-01  0.1897E+01  0.1865E+01
     12.578  0.3333E-01  0.3016E-01  0.1899E+01  0.1867E+01
     12.656  0.1963E-01  0.4089E-01  0.1901E+01  0.1870E+01
     12.733  0.6757E-02  0.5382E-01  0.1901E+01  0.1874E+01
     12.810 -0.8426E-03  0.6347E-01  0.1901E+01  0.1879E+01
     12.888 -0.2241E-02  0.6589E-01  0.1901E+01  0.1884E+01
     12.965  0.1987E-02  0.6214E-01  0.1901E+01  0.1889E+01
     13.042  0.1099E-01  0.5519E-01  0.1902E+01  0.1893E+01
     13.120  0.2288E-01  0.4583E-01  0.1904E+01  0.1897E+01
     13.197  0.3470E-01  0.3336E-01  0.1907E+01  0.1899E+01
     13.274  0.4105E-01  0.1894E-01  0.1910E+01  0.1901E+01
     13.352  0.3546E-01  0.6395E-02  0.1913E+01  0.1901E+01
     13.429  0.2085E-01 -0.1094E-02  0.1914E+01  0.1901E+01
     13.506  0.1275E-01 -0.3223E-02  0.1915E+01  0.1901E+01
     13.583  0.2242E-01  0.1414E-03  0.1917E+01  0.1901E+01
     13.661  0.4127E-01  0.1087E-01  0.1920E+01  0.1902E+01
     13.738  0.4929E-01  0.2825E-01  0.1924E+01  0.1904E+01
     13.815  0.3756E-01  0.4409E-01  0.1927E+01  0.1908E+01
     13.893  0.1654E-01  0.4774E-01  0.1928E+01  0.1911E+01
     13.970  0.2303E-02  0.3866E-01  0.1928E+01  0.1914E+01
     14.047  0.3147E-02  0.2852E-01  0.1928E+01  0.1916E+01
     14.125  0.1948E-01  0.2715E-01  0.1930E+01  0.1918E+01
     14.202  0.4492E-01  0.3229E-01  0.1933E+01  0.1921E+01
     14.279  0.6439E-01  0.3489E-01  0.1938E+01  0.1924E+01
     14.357  0.6379E-01  0.2929E-01  0.1943E+01  0.1926E+01
     14.434  0.4681E-01  0.1761E-01  0.1947E+01  0.1927E+01
     14.511  0.3128E-01  0.7793E-02  0.1949E+01  0.1928E+01
     14.589  0.2623E-01  0.8140E-02  0.1951E+01  0.1929E+01
     14.666  0.2555E-01  0.1977E-01  0.1953E+01  0.1930E+01
     14.743  0.2687E-01  0.3365E-01  0.1955E+01  0.1933E+01
     14.821  0.3922E-01  0.4140E-01  0.1958E+01  0.1936E+01
     14.898  0.6134E-01  0.4595E-01  0.1963E+01  0.1939E+01
     14.975  0.7161E-01  0.5104E-01  0.1969E+01  0.1943E+01
     15.053  0.5873E-01  0.4974E-01  0.1973E+01  0.1947E+01
     15.130  0.4061E-01  0.3684E-01  0.1976E+01  0.1950E+01
     15.207  0.3325E-01  0.2059E-01  0.1979E+01  0.1952E+01
     15.285  0.2877E-01  0.1302E-01  0.1981E+01  0.1953E+01
     15.362  0.2038E-01  0.1950E-01  0.1983E+01  0.1954E+01
     15.439  0.2037E-01  0.3847E-01  0.1984E+01  0.1957E+01
     15.517  0.3850E-01  0.6037E-01  0.1987E+01  0.1962E+01
     15.594  0.6336E-01  0.7022E-01  0.1992E+01  0.1967E+01
     15.671  0.7733E-01  0.6235E-01  0.1998E+01  0.1972E+01
     15.748  0.7673E-01  0.4818E-01  0.2004E+01  0.1976E+01
     15.826  0.6672E-01  0.4058E-01  0.2009E+01  0.1979E+01
     15.903  0.5025E-01  0.3995E-01  0.2013E+01  0.1982E+01
     15.980  0.3180E-01  0.4260E-01  0.2016E+01  0.1985E+01
     16.058  0.1824E-01  0.4868E-01  0.2017E+01  0.1989E+01
     16.135  0.1173E-01  0.5783E-01  0.2018E+01  0.1994E+01
     16.212  0.1284E-01  0.6778E-01  0.2019E+01  0.1999E+01
     16.290  0.2590E-01  0.7491E-01  0.2021E+01  0.2005E+01
     16.367  0.5052E-01  0.7283E-01  0.2025E+01  0.2010E+01
     16.444  0.7465E-01  0.5744E-01  0.2031E+01  0.2015E+01
     16.522  0.8507E-01  0.3517E-01  0.2037E+01  0.2017E+01
     16.599  0.8036E-01  0.2026E-01  0.2043E+01  0.2019E+01
     16.676  0.6747E-01  0.2185E-01  0.2049E+01  0.2021E+01
     16.754  0.4996E-01  0.3670E-01  0.2053E+01  0.2023E+01
     16.831  0.2834E-01  0.5518E-01  0.2055E+01  0.2028E+01
     16.908  0.8901E-02  0.6883E-01  0.2055E+01  0.2033E+01
     16.986  0.2081E-02  0.7054E-01  0.2056E+01  0.2039E+01
     17.063  0.1160E-01  0.5807E-01  0.2056E+01  0.2043E+01
     17.140  0.2788E-01  0.4154E-01  0.2059E+01  0.2046E+01
     17.218  0.3395E-01  0.3461E-01  0.2061E+01  0.2049E+01
     17.295  0.2391E-01  0.3502E-01  0.2063E+01  0.2052E+01
     17.372  0.1363E-01  0.2917E-01  0.2064E+01  0.2054E+01
     17.450  0.2387E-01  0.1612E-01  0.2066E+01  0.2055E+01
     17.527  0.5289E-01  0.1027E-01  0.2070E+01  0.2056E+01
     17.604  0.7359E-01  0.1903E-01  0.2076E+01  0.2057E+01
     17.682  0.6466E-01  0.3124E-01  0.2081E+01  0.2060E+01
     17.759  0.3654E-01  0.3317E-01  0.2084E+01  0.2062E+01
     17.836  0.1404E-01  0.2838E-01  0.2085E+01  0.2065E+01
     17.913  0.5410E-02  0.3094E-01  0.2085E+01  0.2067E+01
     17.991  0.3477E-02  0.4371E-01  0.2085E+01  0.2070E+01
     18.068  0.4498E-02  0.5595E-01  0.2086E+01  0.2075E+01
     18.145  0.1047E-01  0.5741E-01  0.2087E+01  0.2079E+01
     18.223  0.1860E-01  0.4620E-01  0.2088E+01  0.2083E+01
     18.300  0.2068E-01  0.2777E-01  0.2090E+01  0.2085E+01
     18.377  0.1404E-01  0.1100E-01  0.2091E+01  0.2086E+01
     18.455  0.5015E-02  0.3066E-02  0.2091E+01  0.2086E+01
     18.532 -0.1072E-03  0.5791E-02  0.2091E+01  0.2086E+01
     18.609 -0.1102E-02  0.1439E-01  0.2091E+01  0.2087E+01
     18.687 -0.6130E-03  0.1992E-01  0.2091E+01  0.2089E+01
     18.764 -0.1912E-03  0.1687E-01  0.2091E+01  0.2090E+01
     18.841 -0.3937E-04  0.8491E-02  0.2091E+01  0.2091E+01
     18.919 -0.5639E-05  0.1675E-02  0.2091E+01  0.2091E+01
     18.996 -0.5758E-06 -0.8517E-03  0.2091E+01  0.2091E+01
     19.073 -0.4245E-07 -0.8271E-03  0.2091E+01  0.2091E+01
     19.151 -0.2278E-08 -0.3412E-03  0.2091E+01  0.2091E+01
     19.228 -0.8946E-10 -0.8833E-04  0.2091E+01  0.2091E+01
     19.305 -0.2578E-11 -0.1565E-04  0.2091E+01  0.2091E+01
     19.383 -0.5468E-13 -0.1965E-05  0.2091E+01  0.2091E+01
     19.460 -0.8552E-15 -0.1776E-06  0.2091E+01  0.2091E+01
     19.537 -0.1074E-16 -0.1168E-07  0.2091E+01  0.2091E+01
     19.615  0.0000E+00 -0.5618E-09  0.2091E+01  0.2091E+01
     19.692  0.0000E+00 -0.1984E-10  0.2091E+01  0.2091E+01
     19.769  0.0000E+00 -0.5159E-12  0.2091E+01  0.2091E+01
     19.847  0.0000E+00 -0.9891E-14  0.2091E+01  0.2091E+01
     19.924  0.0000E+00 -0.1440E-15  0.2091E+01  0.2091E+01
     20.001  0.0000E+00  0.0000E+00  0.2091E+01  0.2091E+01
     20.079  0.0000E+00  0.0000E+00  0.2091E+01  0.2091E+01
     20.156  0.0000E+00  0.0000E+00  0.2091E+01  0.2091E+01
     20.233  0.0000E+00  0.0000E+00  0.2091E+01  0.2091E+01
     20.310  0.0000E+00  0.0000E+00  0.2091E+01  0.2091E+01
     20.388  0.0000E+00  0.0000E+00  0.2091E+01  0.2091E+01
     20.465  0.0000E+00  0.0000E+00  0.2091E+01  0.2091E+01
     20.542  0.0000E+00  0.0000E+00  0.2091E+01  0.2091E+01
     20.620  0.0000E+00  0.0000E+00  0.2091E+01  0.2091E+01
     20.697  0.0000E+00  0.0000E+00  0.2091E+01  0.2091E+01
     20.69707964     -2.49942352  301      8.37201736      1.00000000
     -2.499  0.0000E+00  0.0000E+00  0.0000E+00  0.0000E+00  0.0000E+00  0.0000E+00
     -2.422  0.0000E+00  0.0000E+00  0.0000E+00  0.0000E+00  0.0000E+00  0.0000E+00
     -2.345  0.0000E+00  0.0000E+00  0.0000E+00  0.0000E+00  0.0000E+00  0.0000E+00
     -2.267  0.0000E+00  0.0000E+00  0.0000E+00  0.0000E+00  0.0000E+00  0.0000E+00
     -2.190  0.0000E+00  0.0000E+00  0.0000E+00  0.0000E+00  0.0000E+00  0.0000E+00
     -2.113 -0.1327E-29 -0.3621E-31 -0.1369E-34 -0.3450E-36 -0.2856E-34 -0.6728E-36
     -2.035 -0.5551E-27 -0.1807E-28 -0.5728E-32 -0.1722E-33 -0.1195E-31 -0.3358E-33
     -1.958 -0.1721E-24 -0.6681E-26 -0.1776E-29 -0.6366E-31 -0.3705E-29 -0.1241E-30
     -1.881 -0.3944E-22 -0.1826E-23 -0.4070E-27 -0.1740E-28 -0.8492E-27 -0.3393E-28
     -1.804 -0.6681E-20 -0.3691E-21 -0.6893E-25 -0.3516E-26 -0.1438E-24 -0.6857E-26
     -1.726 -0.8358E-18 -0.5510E-19 -0.8623E-23 -0.5250E-24 -0.1799E-22 -0.1024E-23
     -1.649 -0.7480E-16 -0.6075E-17 -0.7718E-21 -0.5788E-22 -0.1610E-20 -0.1129E-21
     -1.572 -0.5075E-14 -0.4784E-15 -0.5236E-19 -0.4558E-20 -0.1093E-18 -0.8889E-20
     -1.494 -0.2532E-12 -0.2855E-13 -0.2612E-17 -0.2721E-18 -0.5450E-17 -0.5305E-18
     -1.417 -0.9276E-11 -0.1253E-11 -0.9572E-16 -0.1194E-16 -0.1997E-15 -0.2328E-16
     -1.340 -0.2491E-09 -0.4035E-10 -0.2571E-14 -0.3845E-15 -0.5363E-14 -0.7496E-15
     -1.262 -0.4884E-08 -0.9509E-09 -0.5047E-13 -0.9066E-14 -0.1052E-12 -0.1767E-13
     -1.185 -0.6960E-07 -0.1634E-07 -0.7227E-12 -0.1561E-12 -0.1499E-11 -0.3035E-12
     -1.108 -0.7152E-06 -0.2034E-06 -0.7585E-11 -0.1961E-11 -0.1540E-10 -0.3779E-11
     -1.030 -0.5233E-05 -0.1818E-05 -0.6071E-10 -0.1824E-10 -0.1128E-09 -0.3379E-10
     -0.953 -0.2666E-04 -0.1148E-04 -0.4350E-09 -0.1358E-09 -0.5781E-09 -0.2140E-09
     -0.876 -0.9010E-04 -0.4971E-04 -0.3708E-08 -0.1025E-08 -0.2011E-08 -0.9375E-09
     -0.798 -0.1756E-03 -0.1374E-03 -0.3679E-07 -0.9695E-08 -0.4677E-08 -0.2764E-08
     -0.721 -0.6385E-04 -0.1867E-03 -0.3169E-06 -0.9387E-07 -0.9473E-08 -0.5788E-08
     -0.644  0.6430E-03  0.1493E-03 -0.2016E-05 -0.7211E-06 -0.3795E-07 -0.1541E-07
     -0.566  0.1878E-02  0.1205E-02 -0.8859E-05 -0.3958E-05 -0.1870E-06 -0.7750E-07
     -0.489  0.2575E-02  0.2450E-02 -0.2495E-04 -0.1464E-04 -0.5855E-06 -0.3233E-06
     -0.412  0.2073E-02  0.2606E-02 -0.3510E-04 -0.3262E-04 -0.8703E-06 -0.7748E-06
     -0.334  0.2485E-02  0.2022E-02  0.2435E-04 -0.2421E-04  0.5570E-06 -0.5975E-06
     -0.257  0.7158E-02  0.4117E-02  0.2211E-03  0.9008E-04  0.5177E-05  0.2157E-05
     -0.180  0.1465E-01  0.1112E-01  0.4729E-03  0.3349E-03  0.1015E-04  0.7769E-05
     -0.102  0.1783E-01  0.1826E-01  0.5482E-03  0.5407E-03  0.9609E-05  0.1139E-04
     -0.025  0.1427E-01  0.1820E-01  0.4510E-03  0.5117E-03  0.8995E-05  0.9263E-05
      0.052  0.1301E-01  0.1370E-01  0.6560E-03  0.4664E-03  0.3226E-04  0.1340E-04
      0.130  0.2233E-01  0.1692E-01  0.1488E-02  0.9513E-03  0.9027E-04  0.4596E-04
      0.207  0.3439E-01  0.3056E-01  0.2349E-02  0.1952E-02  0.1426E-03  0.1005E-03
      0.284  0.3432E-01  0.3985E-01  0.2327E-02  0.2543E-02  0.1398E-03  0.1289E-03
      0.361  0.2312E-01  0.3321E-01  0.1644E-02  0.2120E-02  0.1144E-03  0.1090E-03
      0.439  0.1622E-01  0.2065E-01  0.1440E-02  0.1471E-02  0.1534E-03  0.9852E-04
      0.516  0.1932E-01  0.1813E-01  0.1976E-02  0.1641E-02  0.2496E-03  0.1563E-03
      0.593  0.2196E-01  0.2358E-01  0.2250E-02  0.2267E-02  0.2860E-03  0.2311E-03
      0.671  0.1697E-01  0.2347E-01  0.1748E-02  0.2225E-02  0.2203E-03  0.2251E-03
      0.748  0.1095E-01  0.1562E-01  0.1287E-02  0.1548E-02  0.1637E-03  0.1571E-03
      0.825  0.1073E-01  0.1020E-01  0.1493E-02  0.1317E-02  0.1874E-03  0.1392E-03
      0.903  0.1242E-01  0.1134E-01  0.1786E-02  0.1758E-02  0.2094E-03  0.1833E-03
      0.980  0.1255E-01  0.1260E-01  0.2042E-02  0.2066E-02  0.2459E-03  0.1986E-03
      1.057  0.1975E-01  0.1278E-01  0.3873E-02  0.2618E-02  0.5902E-03  0.2571E-03
      1.135  0.4058E-01  0.2251E-01  0.7899E-02  0.5228E-02  0.1352E-02  0.6323E-03
      1.212  0.6032E-01  0.4526E-01  0.1113E-01  0.9578E-02  0.2013E-02  0.1321E-02
      1.289  0.6023E-01  0.6314E-01  0.1095E-01  0.1206E-01  0.2171E-02  0.1825E-02
      1.367  0.4966E-01  0.5989E-01  0.9935E-02  0.1110E-01  0.2430E-02  0.1907E-02
      1.444  0.5133E-01  0.4859E-01  0.1137E-01  0.1016E-01  0.3356E-02  0.2134E-02
      1.521  0.6072E-01  0.5174E-01  0.1287E-01  0.1184E-01  0.4055E-02  0.2889E-02
      1.599  0.5427E-01  0.6342E-01  0.1029E-01  0.1306E-01  0.3329E-02  0.3411E-02
      1.676  0.2946E-01  0.5928E-01  0.4743E-02  0.1020E-01  0.1579E-02  0.2808E-02
      1.753  0.5806E-02  0.3502E-01  0.3639E-03  0.4758E-02  0.1251E-03  0.1405E-02
      1.831 -0.4255E-02  0.9409E-02 -0.1184E-02  0.5298E-03 -0.4630E-03  0.2018E-03
      1.908 -0.2496E-02 -0.3248E-02 -0.4992E-03 -0.1073E-02 -0.3235E-03 -0.3273E-03
      1.985  0.6696E-02 -0.3021E-02  0.2017E-02 -0.5898E-03  0.5326E-03 -0.2339E-03
      2.063  0.1965E-01  0.5884E-02  0.6017E-02  0.1683E-02  0.2387E-02  0.4641E-03
      2.140  0.3299E-01  0.1859E-01  0.1082E-01  0.5231E-02  0.5707E-02  0.1720E-02
      2.217  0.4717E-01  0.2789E-01  0.1592E-01  0.8791E-02  0.1034E-01  0.3476E-02
      2.295  0.6060E-01  0.3249E-01  0.1961E-01  0.1240E-01  0.1394E-01  0.6086E-02
      2.372  0.6340E-01  0.4045E-01  0.1922E-01  0.1708E-01  0.1364E-01  0.9364E-02
      2.449  0.5329E-01  0.5317E-01  0.1613E-01  0.2092E-01  0.1072E-01  0.1132E-01
      2.526  0.4544E-01  0.5918E-01  0.1537E-01  0.2082E-01  0.9458E-02  0.1055E-01
      2.604  0.5048E-01  0.5501E-01  0.1819E-01  0.1863E-01  0.1169E-01  0.8935E-02
      2.681  0.6181E-01  0.5249E-01  0.2185E-01  0.1859E-01  0.1694E-01  0.8730E-02
      2.758  0.6946E-01  0.5660E-01  0.2450E-01  0.2027E-01  0.2367E-01  0.9354E-02
      2.836  0.6569E-01  0.6017E-01  0.2361E-01  0.2174E-01  0.2636E-01  0.1039E-01
      2.913  0.4540E-01  0.6147E-01  0.1627E-01  0.2430E-01  0.1926E-01  0.1357E-01
      2.990  0.1654E-01  0.6166E-01  0.5268E-02  0.2686E-01  0.5538E-02  0.1823E-01
      3.068 -0.1845E-02  0.5356E-01 -0.1031E-02  0.2394E-01 -0.3083E-02  0.1960E-01
      3.145  0.6081E-02  0.3354E-01  0.5328E-02  0.1431E-01  0.6321E-02  0.1464E-01
      3.222  0.4313E-01  0.1119E-01  0.2568E-01  0.3838E-02  0.3954E-01  0.6170E-02
      3.300  0.9039E-01 -0.1791E-02  0.4868E-01 -0.1115E-02  0.8548E-01  0.3755E-03
      3.377  0.1146E+00  0.5023E-03  0.5659E-01  0.3326E-02  0.1215E+00  0.3179E-02
      3.454  0.1020E+00  0.2126E-01  0.4536E-01  0.1875E-01  0.1370E+00  0.1794E-01
      3.532  0.7234E-01  0.5802E-01  0.2889E-01  0.4047E-01  0.1396E+00  0.4159E-01
      3.609  0.5067E-01  0.9382E-01  0.1996E-01  0.5541E-01  0.1415E+00  0.6180E-01
      3.686  0.4606E-01  0.1044E+00  0.1907E-01  0.5226E-01  0.1555E+00  0.6576E-01
      3.764  0.5725E-01  0.8398E-01  0.2162E-01  0.3479E-01  0.1916E+00  0.5697E-01
      3.841  0.7506E-01  0.5425E-01  0.2444E-01  0.1820E-01  0.2360E+00  0.5364E-01
      3.918  0.8282E-01  0.3849E-01  0.2632E-01  0.1237E-01  0.2551E+00  0.6483E-01
      3.996  0.7354E-01  0.4044E-01  0.2885E-01  0.1532E-01  0.2505E+00  0.8414E-01
      4.073  0.6148E-01  0.5256E-01  0.3486E-01  0.2074E-01  0.2784E+00  0.1103E+00
      4.150  0.6361E-01  0.6795E-01  0.4261E-01  0.2513E-01  0.3722E+00  0.1487E+00
      4.228  0.7747E-01  0.7813E-01  0.4603E-01  0.2813E-01  0.4813E+00  0.1859E+00
      4.305  0.8591E-01  0.7408E-01  0.4220E-01  0.2999E-01  0.5334E+00  0.1959E+00
      4.382  0.7696E-01  0.5984E-01  0.3428E-01  0.3140E-01  0.5244E+00  0.1911E+00
      4.460  0.5457E-01  0.5537E-01  0.2816E-01  0.3474E-01  0.5136E+00  0.2282E+00
      4.537  0.3279E-01  0.7439E-01  0.2946E-01  0.4311E-01  0.5562E+00  0.3405E+00
      4.614  0.2189E-01  0.1032E+00  0.4010E-01  0.5596E-01  0.6592E+00  0.4806E+00
      4.691  0.2042E-01  0.1113E+00  0.5403E-01  0.6417E-01  0.7753E+00  0.5370E+00
      4.769  0.1985E-01  0.8567E-01  0.6050E-01  0.5644E-01  0.8406E+00  0.4366E+00
      4.846  0.1517E-01  0.4578E-01  0.5544E-01  0.3592E-01  0.8430E+00  0.2530E+00
      4.923  0.8755E-02  0.2042E-01  0.4636E-01  0.2111E-01  0.8357E+00  0.1626E+00
      5.001  0.4809E-02  0.1888E-01  0.4281E-01  0.2463E-01  0.8579E+00  0.2756E+00
      5.078  0.3956E-02  0.2906E-01  0.4539E-01  0.3977E-01  0.8795E+00  0.5433E+00
      5.155  0.4270E-02  0.3565E-01  0.4889E-01  0.5166E-01  0.8607E+00  0.8051E+00
      5.233  0.4685E-02  0.3357E-01  0.5268E-01  0.5394E-01  0.8308E+00  0.9073E+00
      5.310  0.5601E-02  0.2604E-01  0.5995E-01  0.5098E-01  0.8537E+00  0.8299E+00
      5.387  0.7208E-02  0.1750E-01  0.6806E-01  0.5046E-01  0.9254E+00  0.7172E+00
      5.465  0.8952E-02  0.1117E-01  0.6942E-01  0.5630E-01  0.9693E+00  0.7248E+00
      5.542  0.1063E-01  0.8350E-02  0.6400E-01  0.6333E-01  0.9477E+00  0.8235E+00
      5.619  0.1259E-01  0.7458E-02  0.6209E-01  0.6190E-01  0.9185E+00  0.8284E+00
      5.697  0.1444E-01  0.6021E-02  0.7000E-01  0.5188E-01  0.9524E+00  0.6559E+00
      5.774  0.1506E-01  0.3892E-02  0.8092E-01  0.4473E-01  0.1045E+01  0.4655E+00
      5.851  0.1454E-01  0.2706E-02  0.8531E-01  0.4915E-01  0.1154E+01  0.4699E+00
      5.929  0.1421E-01  0.3017E-02  0.8230E-01  0.6206E-01  0.1276E+01  0.6679E+00
      6.006  0.1459E-01  0.3721E-02  0.7730E-01  0.7373E-01  0.1415E+01  0.8502E+00
      6.083  0.1508E-01  0.3918E-02  0.7478E-01  0.7702E-01  0.1528E+01  0.8592E+00
      6.161  0.1518E-01  0.4093E-02  0.7444E-01  0.7179E-01  0.1557E+01  0.7662E+00
      6.238  0.1445E-01  0.5246E-02  0.7059E-01  0.6321E-01  0.1488E+01  0.7482E+00
      6.315  0.1221E-01  0.7479E-02  0.5742E-01  0.5764E-01  0.1327E+01  0.8500E+00
      6.393  0.8618E-02  0.9910E-02  0.3748E-01  0.5820E-01  0.1106E+01  0.9695E+00
      6.470  0.5299E-02  0.1185E-01  0.2245E-01  0.6412E-01  0.9219E+00  0.1050E+01
      6.547  0.3967E-02  0.1333E-01  0.2188E-01  0.7462E-01  0.8524E+00  0.1149E+01
      6.625  0.4585E-02  0.1433E-01  0.3253E-01  0.8689E-01  0.8869E+00  0.1286E+01
      6.702  0.5652E-02  0.1449E-01  0.4205E-01  0.9207E-01  0.1011E+01  0.1375E+01
      6.779  0.6187E-02  0.1392E-01  0.4299E-01  0.8437E-01  0.1231E+01  0.1362E+01
      6.856  0.6483E-02  0.1317E-01  0.3810E-01  0.7015E-01  0.1467E+01  0.1326E+01
      6.934  0.6774E-02  0.1231E-01  0.3176E-01  0.5921E-01  0.1536E+01  0.1379E+01
      7.011  0.6718E-02  0.1113E-01  0.2466E-01  0.5398E-01  0.1352E+01  0.1515E+01
      7.088  0.6550E-02  0.9827E-02  0.1860E-01  0.5220E-01  0.1102E+01  0.1604E+01
      7.166  0.6920E-02  0.8723E-02  0.1706E-01  0.5306E-01  0.1074E+01  0.1519E+01
      7.243  0.7681E-02  0.7708E-02  0.1922E-01  0.5569E-01  0.1271E+01  0.1277E+01
      7.320  0.8397E-02  0.6677E-02  0.2044E-01  0.5588E-01  0.1404E+01  0.1030E+01
      7.398  0.8983E-02  0.6074E-02  0.1840E-01  0.5029E-01  0.1364E+01  0.9269E+00
      7.475  0.9033E-02  0.6275E-02  0.1457E-01  0.4186E-01  0.1409E+01  0.1003E+01
      7.552  0.7964E-02  0.6823E-02  0.1092E-01  0.3595E-01  0.1756E+01  0.1166E+01
      7.630  0.5826E-02  0.6874E-02  0.7862E-02  0.3361E-01  0.2229E+01  0.1276E+01
      7.707  0.3196E-02  0.6159E-02  0.4809E-02  0.3250E-01  0.2402E+01  0.1254E+01
      7.784  0.8055E-03  0.5171E-02  0.1772E-02  0.3095E-01  0.2009E+01  0.1138E+01
      7.862 -0.4672E-03  0.4527E-02  0.6751E-03  0.2884E-01  0.1235E+01  0.1037E+01
      7.939  0.4854E-03  0.4308E-02  0.5214E-02  0.2747E-01  0.5337E+00  0.1022E+01
      8.016  0.4723E-02  0.4172E-02  0.1738E-01  0.2906E-01  0.1884E+00  0.1079E+01
      8.094  0.1221E-01  0.3964E-02  0.3261E-01  0.3313E-01  0.1577E+00  0.1168E+01