       N       E                     dE             d eps       ncg     rms          rms(c)
DAV:   1     0.272795222940E+04    0.27280E+04   -0.12301E+05 11610   0.209E+03
DAV:   2     0.147939186531E+03   -0.25800E+04   -0.24389E+04 11592   0.440E+02
DAV:   3    -0.210168727420E+03   -0.35811E+03   -0.29356E+03 11592   0.199E+02
DAV:   4    -0.229894345153E+03   -0.19726E+02   -0.19045E+02 12402   0.550E+01
DAV:   5    -0.230156728630E+03   -0.26238E+00   -0.26211E+00 13014   0.618E+00    0.594E+01
RMM:   6    -0.240511687809E+03   -0.10355E+02   -0.33684E+02 11592   0.766E+01    0.865E+01
RMM:   7    -0.240337990280E+03    0.17370E+00   -0.12516E+02 11592   0.418E+01    0.863E+01
RMM:   8    -0.209318809254E+03    0.31019E+02   -0.24830E+01 11592   0.208E+01    0.471E+01
RMM:   9    -0.200345072774E+03    0.89737E+01   -0.14986E+01 11592   0.147E+01    0.332E+01
RMM:  10    -0.206889846616E+03   -0.65448E+01   -0.89992E+00 11592   0.113E+01    0.498E+01
RMM:  11    -0.197123494057E+03    0.97664E+01   -0.56838E+00 11592   0.937E+00    0.160E+01
RMM:  12    -0.196839922418E+03    0.28357E+00   -0.99061E-01 11592   0.352E+00    0.126E+01
RMM:  13    -0.197028911100E+03   -0.18899E+00   -0.40530E-01 11592   0.231E+00    0.122E+01
RMM:  14    -0.196882288192E+03    0.14662E+00   -0.34100E-01 11592   0.219E+00    0.909E+00
RMM:  15    -0.197112921663E+03   -0.23063E+00   -0.26102E-01 11592   0.179E+00    0.965E+00
RMM:  16    -0.197031565992E+03    0.81356E-01   -0.20303E-01 11592   0.163E+00    0.633E+00
RMM:  17    -0.197064751074E+03   -0.33185E-01   -0.48317E-02 11592   0.771E-01    0.588E+00
RMM:  18    -0.197227008154E+03   -0.16226E+00   -0.76369E-02 11592   0.931E-01    0.542E+00
RMM:  19    -0.197344780606E+03   -0.11777E+00   -0.10458E-01 11592   0.115E+00    0.567E+00
RMM:  20    -0.197443226256E+03   -0.98446E-01   -0.11086E-01 11592   0.112E+00    0.505E+00
RMM:  21    -0.197462078329E+03   -0.18852E-01   -0.95041E-02 11592   0.110E+00    0.411E+00
RMM:  22    -0.197526759263E+03   -0.64681E-01   -0.10833E-01 11592   0.112E+00    0.398E+00
RMM:  23    -0.197487249788E+03    0.39509E-01   -0.65263E-02 11592   0.922E-01    0.247E+00
RMM:  24    -0.197498905901E+03   -0.11656E-01   -0.22013E-02 11592   0.542E-01    0.176E+00
RMM:  25    -0.197494243268E+03    0.46626E-02   -0.11946E-02 11592   0.404E-01    0.947E-01
RMM:  26    -0.197501474357E+03   -0.72311E-02   -0.87625E-03 11592   0.327E-01    0.134E+00
RMM:  27    -0.197496101958E+03    0.53724E-02   -0.59525E-03 11592   0.285E-01    0.476E-01
RMM:  28    -0.197496834932E+03   -0.73297E-03   -0.19311E-03 11592   0.157E-01    0.583E-01
RMM:  29    -0.197495730454E+03    0.11045E-02   -0.12626E-03 11592   0.135E-01    0.247E-01
RMM:  30    -0.197495757345E+03   -0.26890E-04   -0.33621E-04 11592   0.669E-02    0.218E-01
RMM:  31    -0.197495657147E+03    0.10020E-03   -0.20717E-04 11592   0.521E-02    0.119E-01
RMM:  32    -0.197495631009E+03    0.26138E-04   -0.78526E-05 11149   0.326E-02    0.799E-02
RMM:  33    -0.197495634351E+03   -0.33415E-05   -0.43605E-05  9892   0.243E-02
   1 F= -.19749563E+03 E0= -.19747518E+03  d E =-.197496E+03  mag=    37.0395
       N       E                     dE             d eps       ncg     rms          rms(c)
DAV:   1    -0.197061449043E+03    0.43418E+00   -0.16326E+02 11592   0.273E+01    0.101E+01
RMM:   2    -0.203337762182E+03   -0.62763E+01   -0.11052E+01 11592   0.137E+01    0.383E+01
RMM:   3    -0.198208530301E+03    0.51292E+01   -0.36709E+00 11592   0.730E+00    0.836E+00
RMM:   4    -0.198482625958E+03   -0.27410E+00   -0.82348E-01 11592   0.328E+00    0.102E+01
RMM:   5    -0.198111952760E+03    0.37067E+00   -0.31444E-01 11592   0.215E+00    0.253E+00
RMM:   6    -0.198102076725E+03    0.98760E-02   -0.50344E-02 11592   0.802E-01    0.200E+00
RMM:   7    -0.198089700132E+03    0.12377E-01   -0.18862E-02 11592   0.505E-01    0.143E+00
RMM:   8    -0.198086198127E+03    0.35020E-02   -0.15580E-02 11592   0.452E-01    0.122E+00
RMM:   9    -0.198085316359E+03    0.88177E-03   -0.12846E-02 11592   0.385E-01    0.131E+00
RMM:  10    -0.198078860533E+03    0.64558E-02   -0.70678E-03 11592   0.302E-01    0.413E-01
RMM:  11    -0.198079769418E+03   -0.90889E-03   -0.23648E-03 11592   0.174E-01    0.607E-01
RMM:  12    -0.198078424331E+03    0.13451E-02   -0.10520E-03 11592   0.122E-01    0.181E-01
RMM:  13    -0.198078349231E+03    0.75099E-04   -0.18832E-04 11592   0.487E-02    0.108E-01
RMM:  14    -0.198078374030E+03   -0.24799E-04   -0.87675E-05 11409   0.335E-02    0.123E-01
RMM:  15    -0.198078324416E+03    0.49614E-04   -0.53388E-05 10164   0.277E-02    0.427E-02
RMM:  16    -0.198078337086E+03   -0.12670E-04   -0.25882E-05  7570   0.188E-02    0.660E-02
RMM:  17    -0.198078322091E+03    0.14995E-04   -0.17306E-05  6382   0.175E-02    0.228E-02
RMM:  18    -0.198078322736E+03   -0.64430E-06   -0.46328E-06  5992   0.842E-03
   2 F= -.19807832E+03 E0= -.19806416E+03  d E =-.582688E+00  mag=    37.6870
       N       E                     dE             d eps       ncg     rms          rms(c)
DAV:   1    -0.197705176859E+03    0.37315E+00   -0.77508E+01 11610   0.186E+01    0.674E+00
RMM:   2    -0.199901015940E+03   -0.21958E+01   -0.37778E+00 11592   0.806E+00    0.221E+01
RMM:   3    -0.198241693498E+03    0.16593E+01   -0.13790E+00 11592   0.443E+00    0.538E+00
RMM:   4    -0.198369433030E+03   -0.12774E+00   -0.29992E-01 11592   0.199E+00    0.677E+00
RMM:   5    -0.198201795167E+03    0.16764E+00   -0.13148E-01 11592   0.139E+00    0.131E+00
RMM:   6    -0.198202361759E+03   -0.56659E-03   -0.20138E-02 11592   0.506E-01    0.143E+00
RMM:   7    -0.198193781976E+03    0.85798E-02   -0.89352E-03 11592   0.352E-01    0.735E-01
RMM:   8    -0.198194201747E+03   -0.41977E-03   -0.65308E-03 11592   0.290E-01    0.906E-01
RMM:   9    -0.198192477830E+03    0.17239E-02   -0.57280E-03 11592   0.257E-01    0.742E-01
RMM:  10    -0.198190374837E+03    0.21030E-02   -0.22976E-03 11592   0.171E-01    0.218E-01
RMM:  11    -0.198190595143E+03   -0.22031E-03   -0.66976E-04 11592   0.917E-02    0.311E-01
RMM:  12    -0.198190228755E+03    0.36639E-03   -0.28763E-04 11592   0.640E-02    0.707E-02
RMM:  13    -0.198190233530E+03   -0.47755E-05   -0.54342E-05 10224   0.262E-02
   3 F= -.19819023E+03 E0= -.19817895E+03  d E =-.694599E+00  mag=    37.9428
       N       E                     dE             d eps       ncg     rms          rms(c)
DAV:   1    -0.198188052706E+03    0.21760E-02   -0.12300E+01 11889   0.751E+00    0.167E+00
RMM:   2    -0.198269960002E+03   -0.81907E-01   -0.19928E-01 11592   0.196E+00    0.362E+00
RMM:   3    -0.198238671797E+03    0.31288E-01   -0.63761E-02 11592   0.920E-01    0.184E+00
RMM:   4    -0.198235451341E+03    0.32205E-02   -0.14542E-02 11592   0.451E-01    0.119E+00
RMM:   5    -0.198229670599E+03    0.57807E-02   -0.48971E-03 11592   0.265E-01    0.266E-01
RMM:   6    -0.198230019202E+03   -0.34860E-03   -0.12870E-03 11592   0.128E-01    0.493E-01
RMM:   7    -0.198228977659E+03    0.10415E-02   -0.11533E-03 11592   0.120E-01    0.239E-01
RMM:   8    -0.198229066615E+03   -0.88957E-04   -0.76928E-04 11592   0.981E-02    0.296E-01
RMM:   9    -0.198228860762E+03    0.20585E-03   -0.39327E-04 11592   0.703E-02    0.180E-01
RMM:  10    -0.198228741784E+03    0.11898E-03   -0.12218E-04 11559   0.405E-02    0.405E-02
RMM:  11    -0.198228752108E+03   -0.10323E-04   -0.25782E-05  7517   0.185E-02    0.667E-02
RMM:  12    -0.198228735386E+03    0.16721E-04   -0.14361E-05  6244   0.165E-02    0.148E-02
RMM:  13    -0.198228736686E+03   -0.12993E-05   -0.34317E-06  5994   0.683E-03
   4 F= -.19822874E+03 E0= -.19821789E+03  d E =-.385032E-01  mag=    37.9743
       N       E                     dE             d eps       ncg     rms          rms(c)
DAV:   1    -0.198200551734E+03    0.28184E-01   -0.12400E+01 11637   0.754E+00    0.167E+00
RMM:   2    -0.198281813849E+03   -0.81262E-01   -0.20002E-01 11592   0.196E+00    0.360E+00
RMM:   3    -0.198251708016E+03    0.30106E-01   -0.63834E-02 11592   0.920E-01    0.185E+00
RMM:   4    -0.198247749658E+03    0.39584E-02   -0.14005E-02 11592   0.444E-01    0.113E+00
RMM:   5    -0.198242538817E+03    0.52108E-02   -0.46239E-03 11592   0.257E-01    0.273E-01
RMM:   6    -0.198242874835E+03   -0.33602E-03   -0.13164E-03 11592   0.130E-01    0.496E-01
RMM:   7    -0.198241812765E+03    0.10621E-02   -0.11897E-03 11592   0.122E-01    0.235E-01
RMM:   8    -0.198241916951E+03   -0.10419E-03   -0.78372E-04 11592   0.988E-02    0.299E-01
RMM:   9    -0.198241686676E+03    0.23028E-03   -0.39052E-04 11592   0.702E-02    0.169E-01
RMM:  10    -0.198241582184E+03    0.10449E-03   -0.11050E-04 11496   0.383E-02    0.404E-02
RMM:  11    -0.198241591782E+03   -0.95972E-05   -0.24640E-05  7335   0.181E-02
   5 F= -.19824159E+03 E0= -.19823124E+03  d E =-.513583E-01  mag=    38.0088
       N       E                     dE             d eps       ncg     rms          rms(c)
DAV:   1    -0.198241958356E+03   -0.37617E-03   -0.50637E+00 11835   0.482E+00    0.776E-01
RMM:   2    -0.198254491412E+03   -0.12533E-01   -0.60059E-02 11592   0.110E+00    0.898E-01
RMM:   3    -0.198257443232E+03   -0.29518E-02   -0.12762E-02 11594   0.407E-01    0.109E+00
RMM:   4    -0.198253791158E+03    0.36521E-02   -0.35734E-03 11592   0.223E-01    0.466E-01
RMM:   5    -0.198252942895E+03    0.84826E-03   -0.85924E-04 11592   0.108E-01    0.151E-01
RMM:   6    -0.198253000802E+03   -0.57907E-04   -0.42691E-04 11592   0.731E-02    0.275E-01
RMM:   7    -0.198252616368E+03    0.38443E-03   -0.44461E-04 11592   0.716E-02    0.960E-02
RMM:   8    -0.198252740400E+03   -0.12403E-03   -0.26094E-04 11592   0.558E-02    0.204E-01
RMM:   9    -0.198252599872E+03    0.14053E-03   -0.12491E-04 11537   0.412E-02    0.654E-02
RMM:  10    -0.198252585721E+03    0.14151E-04   -0.19554E-05  6779   0.167E-02    0.253E-02
RMM:  11    -0.198252586225E+03   -0.50413E-06   -0.56802E-06  6081   0.983E-03
   6 F= -.19825259E+03 E0= -.19824242E+03  d E =-.109944E-01  mag=    38.0004
       N       E                     dE             d eps       ncg     rms          rms(c)
DAV:   1    -0.198244364814E+03    0.82209E-02   -0.55454E+00 11637   0.505E+00    0.813E-01
RMM:   2    -0.198258288941E+03   -0.13924E-01   -0.65976E-02 11592   0.115E+00    0.964E-01
RMM:   3    -0.198261219964E+03   -0.29310E-02   -0.14120E-02 11593   0.428E-01    0.113E+00
RMM:   4    -0.198257350703E+03    0.38693E-02   -0.39045E-03 11592   0.233E-01    0.497E-01
RMM:   5    -0.198256383555E+03    0.96715E-03   -0.96691E-04 11592   0.115E-01    0.158E-01
RMM:   6    -0.198256451208E+03   -0.67653E-04   -0.47708E-04 11592   0.772E-02    0.290E-01
RMM:   7    -0.198256021955E+03    0.42925E-03   -0.49871E-04 11592   0.759E-02    0.974E-02
RMM:   8    -0.198256153403E+03   -0.13145E-03   -0.29222E-04 11592   0.592E-02    0.206E-01
RMM:   9    -0.198256000205E+03    0.15320E-03   -0.13936E-04 11571   0.437E-02    0.556E-02
RMM:  10    -0.198255990689E+03    0.95164E-05   -0.18264E-05  6665   0.161E-02
   7 F= -.19825599E+03 E0= -.19824600E+03  d E =-.143989E-01  mag=    37.9926
       N       E                     dE             d eps       ncg     rms          rms(c)
DAV:   1    -0.198252972924E+03    0.30273E-02   -0.19310E+00 11871   0.297E+00    0.573E-01
RMM:   2    -0.198261587867E+03   -0.86149E-02   -0.26820E-02 11592   0.722E-01    0.107E+00
RMM:   3    -0.198259950938E+03    0.16369E-02   -0.80310E-03 11592   0.323E-01    0.733E-01
RMM:   4    -0.198258747946E+03    0.12030E-02   -0.14211E-03 11592   0.142E-01    0.291E-01
RMM:   5    -0.198258411353E+03    0.33659E-03   -0.35447E-04 11592   0.693E-02    0.103E-01
RMM:   6    -0.198258455843E+03   -0.44489E-04   -0.17893E-04 11592   0.481E-02    0.184E-01
RMM:   7    -0.198258300248E+03    0.15560E-03   -0.16789E-04 11592   0.442E-02    0.837E-02
RMM:   8    -0.198258314212E+03   -0.13965E-04   -0.91559E-05 11308   0.337E-02    0.103E-01
RMM:   9    -0.198258283804E+03    0.30408E-04   -0.34282E-05  8698   0.223E-02    0.459E-02
RMM:  10    -0.198258276212E+03    0.75925E-05   -0.98511E-06  6186   0.129E-02
   8 F= -.19825828E+03 E0= -.19824829E+03  d E =-.228552E-02  mag=    37.9860
