 vasp.5.4.4.18Apr17-6-g9f103f2a35 (build Sep 06 2021 19:49:22) complex          
  
 executed on             LinuxIFC date 2021.12.27  22:43:44
 running on   48 total cores
 distrk:  each k-point on   48 cores,    1 groups
 distr:  one band on NCORES_PER_BAND=  16 cores,    3 groups


--------------------------------------------------------------------------------------------------------


 INCAR:
 POTCAR:    PAW_PBE Ni 02Aug2007                  
 POTCAR:    PAW_PBE Fe 06Sep2000                  

 ----------------------------------------------------------------------------- 
|                                                                             |
|           W    W    AA    RRRRR   N    N  II  N    N   GGGG   !!!           |
|           W    W   A  A   R    R  NN   N  II  NN   N  G    G  !!!           |
|           W    W  A    A  R    R  N N  N  II  N N  N  G       !!!           |
|           W WW W  AAAAAA  RRRRR   N  N N  II  N  N N  G  GGG   !            |
|           WW  WW  A    A  R   R   N   NN  II  N   NN  G    G                |
|           W    W  A    A  R    R  N    N  II  N    N   GGGG   !!!           |
|                                                                             |
|      For optimal performance we recommend to set                            |
|        NCORE= 4 - approx SQRT( number of cores)                             |
|      NCORE specifies how many cores store one orbital (NPAR=cpu/NCORE).     |
|      This setting can  greatly improve the performance of VASP for DFT.     |
|      The default,   NCORE=1            might be grossly inefficient         |
|      on modern multi-core architectures or massively parallel machines.     |
|      Do your own testing !!!!                                               |
|      Unfortunately you need to use the default for GW and RPA calculations. |
|      (for HF NCORE is supported but not extensively tested yet)             |
|                                                                             |
 ----------------------------------------------------------------------------- 

 POTCAR:    PAW_PBE Ni 02Aug2007                  
   VRHFIN =Ni:                                                                  
   LEXCH  = PE                                                                  
   EATOM  =  1077.6739 eV,   79.2068 Ry                                         
                                                                                
   TITEL  = PAW_PBE Ni 02Aug2007                                                
   LULTRA =        F    use ultrasoft PP ?                                      
   IUNSCR =        1    unscreen: 0-lin 1-nonlin 2-no                           
   RPACOR =    2.000    partial core radius                                     
   POMASS =   58.690; ZVAL   =   10.000    mass and valenz                      
   RCORE  =    2.300    outmost cutoff radius                                   
   RWIGS  =    2.430; RWIGS  =    1.286    wigner-seitz radius (au A)           
   ENMAX  =  269.532; ENMIN  =  202.149 eV                                      
   RCLOC  =    1.201    cutoff for local pot                                    
   LCOR   =        T    correct aug charges                                     
   LPAW   =        T    paw PP                                                  
   EAUG   =  544.565                                                            
   DEXC   =    0.000                                                            
   RMAX   =    2.357    core radius for proj-oper                               
   RAUG   =    1.300    factor for augmentation sphere                          
   RDEP   =    2.390    radius for radial grids                                 
   RDEPT  =    1.838    core radius for aug-charge                              
                                                                                
   Atomic configuration                                                         
    9 entries                                                                   
     n  l   j            E        occ.                                          
     1  0  0.50     -8206.4253   2.0000                                         
     2  0  0.50      -976.1748   2.0000                                         
     2  1  1.50      -839.0571   6.0000                                         
     3  0  0.50      -105.9991   2.0000                                         
     3  1  1.50       -66.4603   6.0000                                         
     3  2  2.50        -4.6458   9.0000                                         
     4  0  0.50        -4.4926   1.0000                                         
     4  1  1.50        -4.0817   0.0000                                         
     4  3  2.50        -1.3606   0.0000                                         
   Description                                                                  
     l       E           TYP  RCUT    TYP  RCUT                                 
     2     -4.6457903     23  2.300                                             
     2     -6.0063729     23  2.300                                             
     0     -4.4925590     23  2.300                                             
     0      5.0102601     23  2.300                                             
     1     -2.7211652     23  2.300                                             
     1     16.5183231     23  2.300                                             
  local pseudopotential read in
  partial core-charges read in
  partial kinetic energy density read in
  atomic valenz-charges read in
  non local Contribution for L=           2  read in
    real space projection operators read in
  non local Contribution for L=           2  read in
    real space projection operators read in
  non local Contribution for L=           0  read in
    real space projection operators read in
  non local Contribution for L=           0  read in
    real space projection operators read in
  non local Contribution for L=           1  read in
    real space projection operators read in
  non local Contribution for L=           1  read in
    real space projection operators read in
    PAW grid and wavefunctions read in
 
   number of l-projection  operators is LMAX  =           6
   number of lm-projection operators is LMMAX =          18
 
 POTCAR:    PAW_PBE Fe 06Sep2000                  
   VRHFIN =Fe:  d7 s1                                                           
   LEXCH  = PE                                                                  
   EATOM  =   594.3153 eV,   43.6809 Ry                                         
                                                                                
   TITEL  = PAW_PBE Fe 06Sep2000                                                
   LULTRA =        F    use ultrasoft PP ?                                      
   IUNSCR =        1    unscreen: 0-lin 1-nonlin 2-no                           
   RPACOR =    2.000    partial core radius                                     
   POMASS =   55.847; ZVAL   =    8.000    mass and valenz                      
   RCORE  =    2.300    outmost cutoff radius                                   
   RWIGS  =    2.460; RWIGS  =    1.302    wigner-seitz radius (au A)           
   ENMAX  =  267.882; ENMIN  =  200.911 eV                                      
   RCLOC  =    1.701    cutoff for local pot                                    
   LCOR   =        T    correct aug charges                                     
   LPAW   =        T    paw PP                                                  
   EAUG   =  511.368                                                            
   DEXC   =    0.000                                                            
   RMAX   =    2.356    core radius for proj-oper                               
   RAUG   =    1.300    factor for augmentation sphere                          
   RDEP   =    2.442    radius for radial grids                                 
   RDEPT  =    1.890    core radius for aug-charge                              
                                                                                
   Atomic configuration                                                         
    9 entries                                                                   
     n  l   j            E        occ.                                          
     1  0  0.50     -6993.8440   2.0000                                         
     2  0  0.50      -814.6047   2.0000                                         
     2  1  1.50      -693.3689   6.0000                                         
     3  0  0.50       -89.4732   2.0000                                         
     3  1  1.50       -55.6373   6.0000                                         
     3  2  2.50        -3.8151   7.0000                                         
     4  0  0.50        -4.2551   1.0000                                         
     4  1  1.50        -3.4015   0.0000                                         
     4  3  2.50        -1.3606   0.0000                                         
   Description                                                                  
     l       E           TYP  RCUT    TYP  RCUT                                 
     2     -3.8151135     23  2.300                                             
     2     -5.1756961     23  2.300                                             
     0     -4.2550963     23  2.300                                             
     0      7.2035603     23  2.300                                             
     1     -2.7211652     23  2.300                                             
     1     18.4316424     23  2.300                                             
  local pseudopotential read in
  partial core-charges read in
  partial kinetic energy density read in
  atomic valenz-charges read in
  non local Contribution for L=           2  read in
    real space projection operators read in
  non local Contribution for L=           2  read in
    real space projection operators read in
  non local Contribution for L=           0  read in
    real space projection operators read in
  non local Contribution for L=           0  read in
    real space projection operators read in
  non local Contribution for L=           1  read in
    real space projection operators read in
  non local Contribution for L=           1  read in
    real space projection operators read in
    PAW grid and wavefunctions read in
 
   number of l-projection  operators is LMAX  =           6
   number of lm-projection operators is LMMAX =          18
 
 Optimization of the real space projectors (new method)

 maximal supplied QI-value         = 16.25
 optimisation between [QCUT,QGAM] = [ 11.54, 23.24] = [ 37.28,151.24] Ry 
 Optimized for a Real-space Cutoff    1.45 Angstroem

   l    n(q)    QCUT    max X(q) W(low)/X(q) W(high)/X(q)  e(spline) 
   2      9    11.539    60.317    0.19E-03    0.47E-04    0.16E-06
   2      9    11.539    55.921    0.19E-03    0.48E-04    0.16E-06
   0     10    11.539    51.690    0.80E-04    0.50E-04    0.24E-06
   0     10    11.539    30.015    0.73E-04    0.45E-04    0.22E-06
   1     10    11.539    18.849    0.87E-04    0.16E-03    0.71E-07
   1     10    11.539    14.624    0.73E-04    0.13E-03    0.64E-07
 Optimization of the real space projectors (new method)

 maximal supplied QI-value         = 16.25
 optimisation between [QCUT,QGAM] = [ 11.54, 23.24] = [ 37.28,151.24] Ry 
 Optimized for a Real-space Cutoff    1.53 Angstroem

   l    n(q)    QCUT    max X(q) W(low)/X(q) W(high)/X(q)  e(spline) 
   2     10    11.539    80.901    0.11E-03    0.14E-03    0.21E-06
   2     10    11.539    75.754    0.11E-03    0.14E-03    0.22E-06
   0     11    11.539    58.752    0.52E-04    0.18E-04    0.33E-06
   0     11    11.539    30.679    0.44E-04    0.16E-04    0.30E-06
   1     10    11.539    17.977    0.53E-04    0.29E-04    0.13E-06
   1     10    11.539    13.559    0.44E-04    0.25E-04    0.11E-06
  PAW_PBE Ni 02Aug2007                  :
 energy of atom  1       EATOM=-1077.6739
 kinetic energy error for atom=    0.0030 (will be added to EATOM!!)
  PAW_PBE Fe 06Sep2000                  :
 energy of atom  2       EATOM= -594.3153
 kinetic energy error for atom=    0.0026 (will be added to EATOM!!)
 
 
 POSCAR: POSCAR                                  
  positions in direct lattice
  velocities in cartesian coordinates
 exchange correlation table for  LEXCH =        8
   RHO(1)=    0.500       N(1)  =     2000
   RHO(2)=  100.500       N(2)  =     4000
 


--------------------------------------------------------------------------------------------------------


 ion  position               nearest neighbor table
   1  0.003  0.000  0.502-  25 2.50   7 2.50  14 2.50  10 2.51   5 2.51  12 2.51   2 2.52   3 2.52
                            19 2.53  23 2.53   6 2.54  18 2.57
   2  0.002  0.252  0.753-  26 2.44  25 2.45  11 2.46  28 2.48  27 2.49  10 2.50   4 2.50   7 2.51
                            20 2.52   1 2.52  32 2.54  19 2.55
   3  0.001  0.247  0.246-  26 2.45  11 2.49  32 2.49   6 2.50  18 2.51  13 2.52   1 2.52  19 2.53
                            22 2.53  28 2.54   7 2.55   4 2.55
   4  0.001  0.500  0.502-   2 2.50   5 2.51   7 2.51  14 2.51  13 2.52  19 2.52  23 2.53  20 2.54
                            12 2.55   3 2.55  22 2.55  27 2.57
   5  0.005  0.750  0.753-  21 2.47  25 2.48  14 2.51  11 2.51   1 2.51   4 2.51  26 2.51  24 2.53
                            10 2.53  27 2.54  20 2.56  23 2.57
   6  0.253  0.002  0.247-  15 2.46   8 2.49   3 2.50  21 2.50  29 2.50  26 2.51  28 2.51  12 2.51
                            31 2.53  14 2.53   7 2.53   1 2.54
   7  0.252  0.250  0.503-  16 2.48   8 2.48   9 2.50   1 2.50   2 2.51  25 2.51   4 2.51  27 2.51
                            13 2.53   6 2.53   3 2.55  29 2.59
   8  0.498  0.001  0.498-   7 2.48  14 2.49   6 2.49  19 2.50  18 2.50  23 2.51   9 2.53  17 2.53
                            10 2.55  31 2.56  25 2.58  29 2.59
   9  0.500  0.249  0.754-  28 2.43  27 2.45  15 2.48  20 2.49  32 2.49   7 2.50  25 2.50  30 2.50
                            10 2.51   8 2.53  19 2.53  16 2.54
  10  0.753  0.002  0.753-  26 2.48  32 2.50   2 2.50  24 2.50   1 2.51   9 2.51  15 2.52  19 2.52
                             5 2.53  23 2.54   8 2.55  17 2.56
  11  0.001  0.496  0.999-   2 2.46  27 2.48   3 2.49  13 2.50   5 2.51  20 2.51  28 2.51  22 2.51
                            32 2.52  21 2.53  12 2.54  24 2.54
  12  0.000  0.754  0.248-  24 2.50  21 2.50   1 2.51   6 2.51  18 2.51  23 2.52  14 2.53  26 2.54
                            11 2.54  13 2.54   4 2.55  22 2.55
  13  0.251  0.499  0.248-  30 2.44  31 2.47  29 2.47  16 2.48  11 2.50  21 2.51   3 2.52   4 2.52
                            14 2.52  28 2.53   7 2.53  12 2.54
  14  0.252  0.750  0.500-  17 2.48   8 2.49  16 2.49   1 2.50   5 2.51   4 2.51  31 2.52  13 2.52
                             6 2.53  12 2.53  25 2.58  27 2.58
  15  0.499  0.000  0.000-  29 2.45   6 2.46  28 2.47  18 2.48   9 2.48  25 2.48  32 2.49  21 2.49
                            17 2.51  24 2.51  10 2.52  31 2.52
  16  0.498  0.499  0.498-   7 2.48  13 2.48  14 2.49  31 2.49  19 2.50  22 2.51  23 2.51  27 2.53
                            17 2.53  20 2.53   9 2.54  29 2.55
  17  0.495  0.750  0.751-  21 2.47  14 2.48  27 2.48  15 2.51  20 2.52  24 2.52   8 2.53  16 2.53
                            23 2.53  25 2.54  30 2.55  10 2.56
  18  0.746  0.001  0.247-  32 2.45  15 2.48  24 2.49   8 2.50  29 2.51  19 2.51   3 2.51  12 2.51
                            23 2.52  31 2.53  26 2.55   1 2.57
  19  0.748  0.250  0.498-   8 2.50  16 2.50  18 2.51  22 2.51  10 2.52   4 2.52   1 2.53  20 2.53
                             3 2.53   9 2.53   2 2.55  29 2.57
  20  0.746  0.498  0.754-   9 2.49  24 2.50  11 2.51  32 2.51   2 2.52  17 2.52  30 2.52  19 2.53
                            16 2.53   4 2.54  23 2.55   5 2.56
  21  0.251  0.750  0.999-   5 2.47  17 2.47  31 2.48  27 2.48  25 2.49  30 2.49  15 2.49   6 2.50
                            12 2.50  13 2.51  11 2.53  26 2.53
  22  0.747  0.499  0.247-  31 2.47  32 2.47  29 2.47  30 2.48  24 2.50  19 2.51  16 2.51  11 2.51
                            23 2.52   3 2.53  12 2.55   4 2.55
  23  0.747  0.750  0.498-   8 2.51  31 2.51  16 2.51  18 2.52  22 2.52  12 2.52   4 2.53   1 2.53
                            17 2.53  10 2.54  20 2.55   5 2.57
  24  0.749  0.750  0.001-  31 2.48  18 2.49  22 2.50  12 2.50  20 2.50  10 2.50  15 2.51  17 2.52
                             5 2.53  11 2.54  30 2.55  26 2.57
  25  0.245  0.006  0.759-  26 2.39  28 2.40   2 2.45   5 2.48  15 2.48  21 2.49   1 2.50   9 2.50
                             7 2.51  17 2.54  14 2.58   8 2.58
  26  0.004  0.008  0.996-  25 2.39   2 2.44   3 2.45  28 2.46  10 2.48  32 2.50   6 2.51   5 2.51
                            21 2.53  12 2.54  18 2.55  24 2.57
  27  0.256  0.495  0.760-  28 2.41  30 2.43   9 2.45  17 2.48  11 2.48  21 2.48   2 2.49   7 2.51
                            16 2.53   5 2.54   4 2.57  14 2.58
  28  0.255  0.249  0.994-  25 2.40  27 2.41   9 2.43  29 2.43  30 2.44  26 2.46  15 2.47   2 2.48
                             6 2.51  11 2.51  13 2.53   3 2.54
  29  0.500  0.254  0.235-  30 2.37  32 2.39  28 2.43  15 2.45  22 2.47  13 2.47   6 2.50  18 2.51
                            16 2.55  19 2.57   8 2.59   7 2.59
  30  0.495  0.496  0.006-  29 2.37  27 2.43  13 2.44  31 2.44  28 2.44  22 2.48  21 2.49   9 2.50
                            32 2.51  20 2.52  17 2.55  24 2.55
  31  0.500  0.743  0.245-  30 2.44  22 2.47  13 2.47  24 2.48  21 2.48  16 2.49  23 2.51  14 2.52
                            15 2.52  18 2.53   6 2.53   8 2.56
  32  0.746  0.248  0.005-  29 2.39  18 2.45  22 2.47  15 2.49   3 2.49   9 2.49  26 2.50  10 2.50
                            30 2.51  20 2.51  11 2.52   2 2.54
 

IMPORTANT INFORMATION: All symmetrisations will be switched off!
NOSYMM: (Re-)initialisation of all symmetry stuff for point group C_1.

 
 

Automatic generation of k-mesh.
 generate k-points for:    3    3    3
Space group operators:
 irot       det(A)        alpha          n_x          n_y          n_z        tau_x        tau_y        tau_z
    1     1.000000     0.000001     1.000000     0.000000     0.000000     0.000000     0.000000     0.000000
 
 Subroutine IBZKPT returns following result:
 ===========================================
 
 Found     14 irreducible k-points:
 
 Following reciprocal coordinates:
            Coordinates               Weight
  0.000000  0.000000  0.000000      1.000000
  0.333333  0.000000  0.000000      2.000000
  0.000000  0.333333  0.000000      2.000000
  0.333333  0.333333  0.000000      2.000000
 -0.333333  0.333333  0.000000      2.000000
  0.000000  0.000000  0.333333      2.000000
  0.333333  0.000000  0.333333      2.000000
 -0.333333  0.000000  0.333333      2.000000
  0.000000  0.333333  0.333333      2.000000
  0.333333  0.333333  0.333333      2.000000
 -0.333333  0.333333  0.333333      2.000000
  0.000000 -0.333333  0.333333      2.000000
  0.333333 -0.333333  0.333333      2.000000
 -0.333333 -0.333333  0.333333      2.000000
 
 Following cartesian coordinates:
            Coordinates               Weight
  0.000000  0.000000  0.000000      1.000000
  0.166667  0.000000  0.000000      2.000000
  0.000000  0.166667  0.000000      2.000000
  0.166667  0.166667  0.000000      2.000000
 -0.166667  0.166667  0.000000      2.000000
  0.000000  0.000000  0.166667      2.000000
  0.166667  0.000000  0.166667      2.000000
 -0.166667  0.000000  0.166667      2.000000
  0.000000  0.166667  0.166667      2.000000
  0.166667  0.166667  0.166667      2.000000
 -0.166667  0.166667  0.166667      2.000000
  0.000000 -0.166667  0.166667      2.000000
  0.166667 -0.166667  0.166667      2.000000
 -0.166667 -0.166667  0.166667      2.000000
 


--------------------------------------------------------------------------------------------------------




 Dimension of arrays:
   k-points           NKPTS =     14   k-points in BZ     NKDIM =     14   number of bands    NBANDS=    207
   number of dos      NEDOS =    301   number of ions     NIONS =     32
   non local maximal  LDIM  =      6   non local SUM 2l+1 LMDIM =     18
   total plane-waves  NPLWV = 157464
   max r-space proj   IRMAX =   6728   max aug-charges    IRDMAX=  15936
   dimension x,y,z NGX =    54 NGY =   54 NGZ =   54
   dimension x,y,z NGXF=   108 NGYF=  108 NGZF=  108
   support grid    NGXF=   108 NGYF=  108 NGZF=  108
   ions per type =              24   8
   NGX,Y,Z   is equivalent  to a cutoff of  12.66, 12.66, 12.66 a.u.
   NGXF,Y,Z  is equivalent  to a cutoff of  25.32, 25.32, 25.32 a.u.

 SYSTEM =  SQS-NiFe                                
 POSCAR =  POSCAR                                  

 Startparameter for this run:
   NWRITE =      2    write-flag & timer
   PREC   = accura    normal or accurate (medium, high low for compatibility)
   ISTART =      0    job   : 0-new  1-cont  2-samecut
   ICHARG =      2    charge: 1-file 2-atom 10-const
   ISPIN  =      2    spin polarized calculation?
   LNONCOLLINEAR =      F non collinear calculations
   LSORBIT =      F    spin-orbit coupling
   INIWAV =      1    electr: 0-lowe 1-rand  2-diag
   LASPH  =      F    aspherical Exc in radial PAW
   METAGGA=      F    non-selfconsistent MetaGGA calc.

 Electronic Relaxation 1
   ENCUT  =  520.0 eV  38.22 Ry    6.18 a.u.  13.18 13.18 13.18*2*pi/ulx,y,z
   ENINI  =  520.0     initial cutoff
   ENAUG  =  544.6 eV  augmentation charge cutoff
   NELM   =    200;   NELMIN=  2; NELMDL= -5     # of ELM steps 
   EDIFF  = 0.1E-04   stopping-criterion for ELM
   LREAL  =      T    real-space projection
   NLSPLINE    = F    spline interpolate recip. space projectors
   LCOMPAT=      F    compatible to vasp.4.4
   GGA_COMPAT  = T    GGA compatible to vasp.4.4-vasp.4.6
   LMAXPAW     = -100 max onsite density
   LMAXMIX     =    2 max onsite mixed and CHGCAR
   VOSKOWN=      0    Vosko Wilk Nusair interpolation
   ROPT   =   -0.00025  -0.00025
 Ionic relaxation
   EDIFFG = -.2E-01   stopping-criterion for IOM
   NSW    =     99    number of steps for IOM
   NBLOCK =      1;   KBLOCK =     99    inner block; outer block 
   IBRION =      2    ionic relax: 0-MD 1-quasi-New 2-CG
   NFREE  =      1    steps in history (QN), initial steepest desc. (CG)
   ISIF   =      2    stress and relaxation
   IWAVPR =     11    prediction:  0-non 1-charg 2-wave 3-comb
   ISYM   =      0    0-nonsym 1-usesym 2-fastsym
   LCORR  =      T    Harris-Foulkes like correction to forces

   POTIM  = 0.5000    time-step for ionic-motion
   TEIN   =    0.0    initial temperature
   TEBEG  =    0.0;   TEEND  =   0.0 temperature during run
   SMASS  =  -3.00    Nose mass-parameter (am)
   estimated Nose-frequenzy (Omega)   =  0.10E-29 period in steps =****** mass=  -0.115E-26a.u.
   SCALEE = 1.0000    scale energy and forces
   NPACO  =    256;   APACO  = 16.0  distance and # of slots for P.C.
   PSTRESS=    0.0 pullay stress

  Mass of Ions in am
   POMASS =  58.69 55.85
  Ionic Valenz
   ZVAL   =  10.00  8.00
  Atomic Wigner-Seitz radii
   RWIGS  =  -1.00 -1.00
  virtual crystal weights 
   VCA    =   1.00  1.00
   NELECT =     304.0000    total number of electrons
   NUPDOWN=      -1.0000    fix difference up-down

 DOS related values:
   EMIN   =  10.00;   EMAX   =-10.00  energy-range for DOS
   EFERMI =   0.00
   ISMEAR =     1;   SIGMA  =   0.20  broadening in eV -4-tet -1-fermi 0-gaus

 Electronic relaxation 2 (details)
   IALGO  =     68    algorithm
   LDIAG  =      T    sub-space diagonalisation (order eigenvalues)
   LSUBROT=      F    optimize rotation matrix (better conditioning)
   TURBO    =      0    0=normal 1=particle mesh
   IRESTART =      0    0=no restart 2=restart with 2 vectors
   NREBOOT  =      0    no. of reboots
   NMIN     =      0    reboot dimension
   EREF     =   0.00    reference energy to select bands
   IMIX   =      4    mixing-type and parameters
     AMIX     =   0.40;   BMIX     =  1.00
     AMIX_MAG =   1.60;   BMIX_MAG =  1.00
     AMIN     =   0.10
     WC   =   100.;   INIMIX=   1;  MIXPRE=   1;  MAXMIX= -45

 Intra band minimization:
   WEIMIN = 0.0010     energy-eigenvalue tresh-hold
   EBREAK =  0.12E-07  absolut break condition
   DEPER  =   0.30     relativ break condition  

   TIME   =   0.40     timestep for ELM

  volume/ion in A,a.u.               =      11.14        75.16
  Fermi-wavevector in a.u.,A,eV,Ry     =   1.552577  2.933945 32.796776  2.410495
  Thomas-Fermi vector in A             =   2.656932
 
 Write flags
   LWAVE        =      F    write WAVECAR
   LDOWNSAMPLE  =      F    k-point downsampling of WAVECAR
   LCHARG       =      F    write CHGCAR
   LVTOT        =      F    write LOCPOT, total local potential
   LVHAR        =      F    write LOCPOT, Hartree potential only
   LELF         =      F    write electronic localiz. function (ELF)
   LORBIT       =     10    0 simple, 1 ext, 2 COOP (PROOUT), +10 PAW based schemes


 Dipole corrections
   LMONO  =      F    monopole corrections only (constant potential shift)
   LDIPOL =      F    correct potential (dipole corrections)
   IDIPOL =      0    1-x, 2-y, 3-z, 4-all directions 
   EPSILON=  1.0000000 bulk dielectric constant

 Exchange correlation treatment:
   GGA     =    --    GGA type
   LEXCH   =     8    internal setting for exchange type
   VOSKOWN=      0    Vosko Wilk Nusair interpolation
   LHFCALC =     F    Hartree Fock is set to
   LHFONE  =     F    Hartree Fock one center treatment
   AEXX    =    0.0000 exact exchange contribution

 Linear response parameters
   LEPSILON=     F    determine dielectric tensor
   LRPA    =     F    only Hartree local field effects (RPA)
   LNABLA  =     F    use nabla operator in PAW spheres
   LVEL    =     F    velocity operator in full k-point grid
   LINTERFAST=   F  fast interpolation
   KINTER  =     0    interpolate to denser k-point grid
   CSHIFT  =0.1000    complex shift for real part using Kramers Kronig
   OMEGAMAX=  -1.0    maximum frequency
   DEG_THRESHOLD= 0.2000000E-02 threshold for treating states as degnerate
   RTIME   =   -0.100 relaxation time in fs
  (WPLASMAI=    0.000 imaginary part of plasma frequency in eV, 0.658/RTIME)
   DFIELD  = 0.0000000 0.0000000 0.0000000 field for delta impulse in time
 
 Orbital magnetization related:
   ORBITALMAG=     F  switch on orbital magnetization
   LCHIMAG   =     F  perturbation theory with respect to B field
   DQ        =  0.001000  dq finite difference perturbation B field
   LLRAUG    =     F  two centre corrections for induced B field



--------------------------------------------------------------------------------------------------------


 conjugate gradient relaxation of ions
 charge density and potential will be updated during run
 spin polarized calculation
 RMM-DIIS sequential band-by-band and
  variant of blocked Davidson during initial phase
 perform sub-space diagonalisation
    before iterative eigenvector-optimisation
 modified Broyden-mixing scheme, WC =      100.0
 initial mixing is a Kerker type mixing with AMIX =  0.4000 and BMIX =      1.0000
 Hartree-type preconditioning will be used
 using additional bands           55
 real space projection scheme for non local part
 use partial core corrections
 calculate Harris-corrections to forces 
   (improved forces if not selfconsistent)
 use gradient corrections 
 use of overlap-Matrix (Vanderbilt PP)
 Methfessel and Paxton  Order N= 1 SIGMA  =   0.20


--------------------------------------------------------------------------------------------------------


  energy-cutoff  :      520.00
  volume of cell :      356.40
      direct lattice vectors                 reciprocal lattice vectors
     7.090000000  0.000000000  0.000000000     0.141043724  0.000000000  0.000000000
     0.000000000  7.090000000  0.000000000     0.000000000  0.141043724  0.000000000
     0.000000000  0.000000000  7.090000000     0.000000000  0.000000000  0.141043724

  length of vectors
     7.090000000  7.090000000  7.090000000     0.141043724  0.141043724  0.141043724


 
 k-points in units of 2pi/SCALE and weight: read from INCAR                         
   0.00000000  0.00000000  0.00000000       0.037
   0.16666667  0.00000000  0.00000000       0.074
   0.00000000  0.16666667  0.00000000       0.074
   0.16666667  0.16666667  0.00000000       0.074
  -0.16666667  0.16666667  0.00000000       0.074
   0.00000000  0.00000000  0.16666667       0.074
   0.16666667  0.00000000  0.16666667       0.074
  -0.16666667  0.00000000  0.16666667       0.074
   0.00000000  0.16666667  0.16666667       0.074
   0.16666667  0.16666667  0.16666667       0.074
  -0.16666667  0.16666667  0.16666667       0.074
   0.00000000 -0.16666667  0.16666667       0.074
   0.16666667 -0.16666667  0.16666667       0.074
  -0.16666667 -0.16666667  0.16666667       0.074
 
 k-points in reciprocal lattice and weights: read from INCAR                         
   0.00000000  0.00000000  0.00000000       0.037
   0.33333333  0.00000000  0.00000000       0.074
   0.00000000  0.33333333  0.00000000       0.074
   0.33333333  0.33333333  0.00000000       0.074
  -0.33333333  0.33333333  0.00000000       0.074
   0.00000000  0.00000000  0.33333333       0.074
   0.33333333  0.00000000  0.33333333       0.074
  -0.33333333  0.00000000  0.33333333       0.074
   0.00000000  0.33333333  0.33333333       0.074
   0.33333333  0.33333333  0.33333333       0.074
  -0.33333333  0.33333333  0.33333333       0.074
   0.00000000 -0.33333333  0.33333333       0.074
   0.33333333 -0.33333333  0.33333333       0.074
  -0.33333333 -0.33333333  0.33333333       0.074
 
 position of ions in fractional coordinates (direct lattice) 
   0.00268401  0.00001323  0.50228576
   0.00204080  0.25221473  0.75331413
   0.00090908  0.24726326  0.24618888
   0.00122829  0.50038231  0.50183295
   0.00549522  0.75004132  0.75303326
   0.25343949  0.00154208  0.24665012
   0.25186146  0.24984122  0.50346160
   0.49819792  0.00109557  0.49848571
   0.49954767  0.24898667  0.75431867
   0.75291690  0.00192634  0.75268768
   0.00101151  0.49621122  0.99937787
   0.00012147  0.75407341  0.24750927
   0.25123975  0.49876276  0.24842890
   0.25247065  0.75034396  0.50036860
   0.49858459  0.00033496  0.00018485
   0.49754855  0.49861538  0.49772714
   0.49542081  0.74972722  0.75111431
   0.74596612  0.00109086  0.24661350
   0.74825687  0.24976503  0.49817378
   0.74634935  0.49830431  0.75385421
   0.25140260  0.75007011  0.99939799
   0.74716607  0.49889327  0.24702744
   0.74744458  0.75033463  0.49782745
   0.74873217  0.75024682  0.00050130
   0.24451683  0.00552280  0.75882759
   0.00428254  0.00823904  0.99600706
   0.25611835  0.49493528  0.75975808
   0.25487936  0.24919545  0.99424511
   0.49953731  0.25408403  0.23484169
   0.49461244  0.49644673  0.00565669
   0.49966675  0.74308530  0.24536905
   0.74635050  0.24841071  0.00492937
 
 position of ions in cartesian coordinates  (Angst):
   0.01902961  0.00009381  3.56120602
   0.01446930  1.78820243  5.34099716
   0.00644535  1.75309650  1.74547915
   0.00870858  3.54771057  3.55799559
   0.03896108  5.31779295  5.33900578
   1.79688598  0.01093333  1.74874936
   1.78569774  1.77137424  3.56954277
   3.53222328  0.00776761  3.53426368
   3.54179299  1.76531546  5.34811938
   5.33818083  0.01365775  5.33655567
   0.00717160  3.51813753  7.08558910
   0.00086119  5.34638049  1.75484072
   1.78128984  3.53622795  1.76136092
   1.79001687  5.31993869  3.54761340
   3.53496476  0.00237488  0.00131056
   3.52761920  3.53518302  3.52888545
   3.51253351  5.31556598  5.32540044
   5.28889982  0.00773421  1.74848968
   5.30514122  1.77083408  3.53205210
   5.29161691  3.53297758  5.34482631
   1.78244446  5.31799705  7.08573174
   5.29740747  3.53715326  1.75142456
   5.29938208  5.31987254  3.52959665
   5.30851107  5.31924997  0.00355424
   1.73362434  0.03915666  5.38008760
   0.03036320  0.05841482  7.06169007
   1.81587914  3.50909112  5.38668477
   1.80709465  1.76679573  7.04919783
   3.54171950  1.80145578  1.66502757
   3.50680217  3.51980732  0.04010594
   3.54263723  5.26847474  1.73966658
   5.29162503  1.76123195  0.03494923
 


--------------------------------------------------------------------------------------------------------


 k-point  1 :   0.0000 0.0000 0.0000  plane waves:    9627
 k-point  2 :   0.3333 0.0000 0.0000  plane waves:    9606
 k-point  3 :   0.0000 0.3333 0.0000  plane waves:    9606
 k-point  4 :   0.3333 0.3333 0.0000  plane waves:    9582
 k-point  5 :  -0.3333 0.3333 0.0000  plane waves:    9582
 k-point  6 :   0.0000 0.0000 0.3333  plane waves:    9606
 k-point  7 :   0.3333 0.0000 0.3333  plane waves:    9582
 k-point  8 :  -0.3333 0.0000 0.3333  plane waves:    9582
 k-point  9 :   0.0000 0.3333 0.3333  plane waves:    9582
 k-point 10 :   0.3333 0.3333 0.3333  plane waves:    9594
 k-point 11 :  -0.3333 0.3333 0.3333  plane waves:    9594
 k-point 12 :   0.0000-0.3333 0.3333  plane waves:    9582
 k-point 13 :   0.3333-0.3333 0.3333  plane waves:    9594
 k-point 14 :  -0.3333-0.3333 0.3333  plane waves:    9594

 maximum and minimum number of plane-waves per node :       628      572

 maximum number of plane-waves:      9627
 maximum index in each direction: 
   IXMAX=   13   IYMAX=   13   IZMAX=   13
   IXMIN=  -13   IYMIN=  -13   IZMIN=  -13


 real space projection operators:
  total allocation   :      25597.83 KBytes
  max/ min on nodes  :       1970.02       1275.19


 parallel 3D FFT for wavefunctions:
    minimum data exchange during FFTs selected (reduces bandwidth)
 parallel 3D FFT for charge:
    minimum data exchange during FFTs selected (reduces bandwidth)


 total amount of memory used by VASP MPI-rank0    61183. kBytes
=======================================================================

   base      :      30000. kBytes
   nonlr-proj:       6013. kBytes
   fftplans  :       1483. kBytes
   grid      :       3780. kBytes
   one-center:         62. kBytes
   wavefun   :      19845. kBytes
 
     INWAV:  cpu time    0.0000: real time    0.0000
 Broyden mixing: mesh for mixing (old mesh)
   NGX = 27   NGY = 27   NGZ = 27
  (NGX  =108   NGY  =108   NGZ  =108)
  gives a total of  19683 points

 initial charge density was supplied:
 charge density of overlapping atoms calculated
 number of electron     304.0000000 magnetization      48.0000000
 keeping initial charge density in first step


--------------------------------------------------------------------------------------------------------


 Maximum index for non-local projection operator          715
 Maximum index for augmentation-charges         1003 (set IRDMAX)


--------------------------------------------------------------------------------------------------------


 First call to EWALD:  gamma=   0.250
 Maximum number of real-space cells 3x 3x 3
 Maximum number of reciprocal cells 3x 3x 3

    FEWALD:  cpu time    0.0140: real time    0.0421


--------------------------------------- Iteration      1(   1)  ---------------------------------------


    POTLOK:  cpu time    0.0850: real time    0.1983
    SETDIJ:  cpu time    0.0300: real time    0.1904
     EDDAV:  cpu time   10.5964: real time   21.4905
       DOS:  cpu time    0.0110: real time    0.0357
    --------------------------------------------
      LOOP:  cpu time   10.7224: real time   21.9150

 eigenvalue-minimisations  : 11610
 total energy-change (2. order) : 0.2727952E+04  (-0.1230091E+05)
 number of electron     304.0000000 magnetization      48.0000000
 augmentation part      304.0000000 magnetization      48.0000000

 Free energy of the ion-electron system (eV)
  ---------------------------------------------------
  alpha Z        PSCENC =      1633.54701045
  Ewald energy   TEWEN  =    -26991.21849390
  -Hartree energ DENC   =     -6972.55944813
  -exchange      EXHF   =         0.00000000
  -V(xc)+E(xc)   XCENC  =       801.87866644
  PAW double counting   =     27538.07030130   -29203.97939146
  entropy T*S    EENTRO =         0.00109603
  eigenvalues    EBANDS =      5303.60897737
  atomic energy  EATOM  =     30618.60351129
  Solvation  Ediel_sol  =         0.00000000
  ---------------------------------------------------
  free energy    TOTEN  =      2727.95222940 eV

  energy without entropy =     2727.95113337  energy(sigma->0) =     2727.95186405


--------------------------------------------------------------------------------------------------------




--------------------------------------- Iteration      1(   2)  ---------------------------------------


     EDDAV:  cpu time   10.4834: real time   21.1458
       DOS:  cpu time    0.0080: real time    0.0163
    --------------------------------------------
      LOOP:  cpu time   10.4914: real time   21.1621

 eigenvalue-minimisations  : 11592
 total energy-change (2. order) :-0.2580013E+04  (-0.2438865E+04)
 number of electron     304.0000000 magnetization      48.0000000
 augmentation part      304.0000000 magnetization      48.0000000

 Free energy of the ion-electron system (eV)
  ---------------------------------------------------
  alpha Z        PSCENC =      1633.54701045
  Ewald energy   TEWEN  =    -26991.21849390
  -Hartree energ DENC   =     -6972.55944813
  -exchange      EXHF   =         0.00000000
  -V(xc)+E(xc)   XCENC  =       801.87866644
  PAW double counting   =     27538.07030130   -29203.97939146
  entropy T*S    EENTRO =         0.00221220
  eigenvalues    EBANDS =      2723.59481833
  atomic energy  EATOM  =     30618.60351129
  Solvation  Ediel_sol  =         0.00000000
  ---------------------------------------------------
  free energy    TOTEN  =       147.93918653 eV

  energy without entropy =      147.93697433  energy(sigma->0) =      147.93844913


--------------------------------------------------------------------------------------------------------




--------------------------------------- Iteration      1(   3)  ---------------------------------------


     EDDAV:  cpu time   10.8713: real time   21.9451
       DOS:  cpu time    0.0100: real time    0.0266
    --------------------------------------------
      LOOP:  cpu time   10.8813: real time   21.9718

 eigenvalue-minimisations  : 11592
 total energy-change (2. order) :-0.3581079E+03  (-0.2935611E+03)
 number of electron     304.0000000 magnetization      48.0000000
 augmentation part      304.0000000 magnetization      48.0000000

 Free energy of the ion-electron system (eV)
  ---------------------------------------------------
  alpha Z        PSCENC =      1633.54701045
  Ewald energy   TEWEN  =    -26991.21849390
  -Hartree energ DENC   =     -6972.55944813
  -exchange      EXHF   =         0.00000000
  -V(xc)+E(xc)   XCENC  =       801.87866644
  PAW double counting   =     27538.07030130   -29203.97939146
  entropy T*S    EENTRO =        -0.02511453
  eigenvalues    EBANDS =      2365.51423111
  atomic energy  EATOM  =     30618.60351129
  Solvation  Ediel_sol  =         0.00000000
  ---------------------------------------------------
  free energy    TOTEN  =      -210.16872742 eV

  energy without entropy =     -210.14361289  energy(sigma->0) =     -210.16035591


--------------------------------------------------------------------------------------------------------




--------------------------------------- Iteration      1(   4)  ---------------------------------------


     EDDAV:  cpu time   11.3063: real time   22.7731
       DOS:  cpu time    0.0100: real time    0.0196
    --------------------------------------------
      LOOP:  cpu time   11.3163: real time   22.7927

 eigenvalue-minimisations  : 12402
 total energy-change (2. order) :-0.1972562E+02  (-0.1904510E+02)
 number of electron     304.0000000 magnetization      48.0000000
 augmentation part      304.0000000 magnetization      48.0000000

 Free energy of the ion-electron system (eV)
  ---------------------------------------------------
  alpha Z        PSCENC =      1633.54701045
  Ewald energy   TEWEN  =    -26991.21849390
  -Hartree energ DENC   =     -6972.55944813
  -exchange      EXHF   =         0.00000000
  -V(xc)+E(xc)   XCENC  =       801.87866644
  PAW double counting   =     27538.07030130   -29203.97939146
  entropy T*S    EENTRO =        -0.03002241
  eigenvalues    EBANDS =      2345.79352126
  atomic energy  EATOM  =     30618.60351129
  Solvation  Ediel_sol  =         0.00000000
  ---------------------------------------------------
  free energy    TOTEN  =      -229.89434515 eV

  energy without entropy =     -229.86432274  energy(sigma->0) =     -229.88433768


--------------------------------------------------------------------------------------------------------




--------------------------------------- Iteration      1(   5)  ---------------------------------------


     EDDAV:  cpu time   11.4253: real time   23.0681
       DOS:  cpu time    0.0100: real time    0.0197
    CHARGE:  cpu time    0.3679: real time    0.8083
    MIXING:  cpu time    0.0240: real time    0.0452
    --------------------------------------------
      LOOP:  cpu time   11.8272: real time   23.9414

 eigenvalue-minimisations  : 13014
 total energy-change (2. order) :-0.2623835E+00  (-0.2621110E+00)
 number of electron     303.9999935 magnetization      42.0572255
 augmentation part      163.3343485 magnetization      33.5925089

 Broyden mixing:
  rms(total) = 0.59354E+01    rms(broyden)= 0.59353E+01
  rms(prec ) = 0.79472E+01
  weight for this iteration     100.00

 Free energy of the ion-electron system (eV)
  ---------------------------------------------------
  alpha Z        PSCENC =      1633.54701045
  Ewald energy   TEWEN  =    -26991.21849390
  -Hartree energ DENC   =     -6972.55944813
  -exchange      EXHF   =         0.00000000
  -V(xc)+E(xc)   XCENC  =       801.87866644
  PAW double counting   =     27538.07030130   -29203.97939146
  entropy T*S    EENTRO =        -0.03018071
  eigenvalues    EBANDS =      2345.53129608
  atomic energy  EATOM  =     30618.60351129
  Solvation  Ediel_sol  =         0.00000000
  ---------------------------------------------------
  free energy    TOTEN  =      -230.15672863 eV

  energy without entropy =     -230.12654792  energy(sigma->0) =     -230.14666839


--------------------------------------------------------------------------------------------------------




--------------------------------------- Iteration      1(   6)  ---------------------------------------


    POTLOK:  cpu time    0.0550: real time    0.1214
    SETDIJ:  cpu time    0.0100: real time    0.0203
    EDDIAG:  cpu time    1.5618: real time    3.1338
  RMM-DIIS:  cpu time    7.0459: real time   14.2019
    ORTHCH:  cpu time    0.2170: real time    0.4350
       DOS:  cpu time    0.0090: real time    0.0197
    CHARGE:  cpu time    0.3459: real time    0.6904
    MIXING:  cpu time    0.0060: real time    0.0151
    --------------------------------------------
      LOOP:  cpu time    9.2506: real time   18.6376

 eigenvalue-minimisations  : 11592
 total energy-change (2. order) :-0.1035496E+02  (-0.3368394E+02)
 number of electron     303.9999935 magnetization      38.2650215
 augmentation part      191.2684679 magnetization      33.7378627

 Broyden mixing:
  rms(total) = 0.86546E+01    rms(broyden)= 0.86545E+01
  rms(prec ) = 0.14681E+02
  weight for this iteration     100.00

 eigenvalues of (default mixing * dielectric matrix)
  average eigenvalue GAMMA=   0.3054
  0.3054

 Free energy of the ion-electron system (eV)
  ---------------------------------------------------
  alpha Z        PSCENC =      1633.54701045
  Ewald energy   TEWEN  =    -26991.21849390
  -Hartree energ DENC   =     -6227.22951812
  -exchange      EXHF   =         0.00000000
  -V(xc)+E(xc)   XCENC  =       764.72008244
  PAW double counting   =     29458.26413149   -30992.90254788
  entropy T*S    EENTRO =        -0.00636873
  eigenvalues    EBANDS =      1495.71050515
  atomic energy  EATOM  =     30618.60351129
  Solvation  Ediel_sol  =         0.00000000
  ---------------------------------------------------
  free energy    TOTEN  =      -240.51168781 eV

  energy without entropy =     -240.50531908  energy(sigma->0) =     -240.50956490


--------------------------------------------------------------------------------------------------------




--------------------------------------- Iteration      1(   7)  ---------------------------------------


    POTLOK:  cpu time    0.0500: real time    0.1045
    SETDIJ:  cpu time    0.0090: real time    0.0197
    EDDIAG:  cpu time    1.5428: real time    3.1101
  RMM-DIIS:  cpu time    7.0619: real time   14.2086
    ORTHCH:  cpu time    0.2170: real time    0.4340
       DOS:  cpu time    0.0120: real time    0.0227
    CHARGE:  cpu time    0.3419: real time    0.6801
    MIXING:  cpu time    0.0020: real time    0.0037
    --------------------------------------------
      LOOP:  cpu time    9.2366: real time   18.5836

 eigenvalue-minimisations  : 11592
 total energy-change (2. order) : 0.1736975E+00  (-0.1251551E+02)
 number of electron     303.9999925 magnetization      34.3882983
 augmentation part      183.4899594 magnetization      29.6459219

 Broyden mixing:
  rms(total) = 0.86287E+01    rms(broyden)= 0.86285E+01
  rms(prec ) = 0.14143E+02
  weight for this iteration     100.00

 eigenvalues of (default mixing * dielectric matrix)
  average eigenvalue GAMMA=   0.3297
  0.5206  0.1387

 Free energy of the ion-electron system (eV)
  ---------------------------------------------------
  alpha Z        PSCENC =      1633.54701045
  Ewald energy   TEWEN  =    -26991.21849390
  -Hartree energ DENC   =     -6376.98614615
  -exchange      EXHF   =         0.00000000
  -V(xc)+E(xc)   XCENC  =       770.23949976
  PAW double counting   =     30111.29483078   -31712.07900914
  entropy T*S    EENTRO =         0.05197326
  eigenvalues    EBANDS =      1706.20883337
  atomic energy  EATOM  =     30618.60351129
  Solvation  Ediel_sol  =         0.00000000
  ---------------------------------------------------
  free energy    TOTEN  =      -240.33799028 eV

  energy without entropy =     -240.38996354  energy(sigma->0) =     -240.35531470


--------------------------------------------------------------------------------------------------------




--------------------------------------- Iteration      1(   8)  ---------------------------------------


    POTLOK:  cpu time    0.0480: real time    0.1055
    SETDIJ:  cpu time    0.0090: real time    0.0187
    EDDIAG:  cpu time    1.5368: real time    3.1057
  RMM-DIIS:  cpu time    7.0199: real time   14.2400
    ORTHCH:  cpu time    0.2280: real time    0.4719
       DOS:  cpu time    0.0100: real time    0.0140
    CHARGE:  cpu time    0.3369: real time    0.6732
    MIXING:  cpu time    0.0020: real time    0.0032
    --------------------------------------------
      LOOP:  cpu time    9.1906: real time   18.6322

 eigenvalue-minimisations  : 11592
 total energy-change (2. order) : 0.3101918E+02  (-0.2483015E+01)
 number of electron     303.9999929 magnetization      33.3328156
 augmentation part      181.0914797 magnetization      27.9242637

 Broyden mixing:
  rms(total) = 0.47149E+01    rms(broyden)= 0.47147E+01
  rms(prec ) = 0.80272E+01
  weight for this iteration     100.00

 eigenvalues of (default mixing * dielectric matrix)
  average eigenvalue GAMMA=   0.3852
  0.5061  0.5061  0.1435

 Free energy of the ion-electron system (eV)
  ---------------------------------------------------
  alpha Z        PSCENC =      1633.54701045
  Ewald energy   TEWEN  =    -26991.21849390
  -Hartree energ DENC   =     -6422.43324657
  -exchange      EXHF   =         0.00000000
  -V(xc)+E(xc)   XCENC  =       770.70984444
  PAW double counting   =     30941.68681248   -32594.51479118
  entropy T*S    EENTRO =        -0.01920163
  eigenvalues    EBANDS =      1834.31974536
  atomic energy  EATOM  =     30618.60351129
  Solvation  Ediel_sol  =         0.00000000
  ---------------------------------------------------
  free energy    TOTEN  =      -209.31880925 eV

  energy without entropy =     -209.29960762  energy(sigma->0) =     -209.31240871


--------------------------------------------------------------------------------------------------------




--------------------------------------- Iteration      1(   9)  ---------------------------------------


    POTLOK:  cpu time    0.0470: real time    0.0985
    SETDIJ:  cpu time    0.0090: real time    0.0183
    EDDIAG:  cpu time    1.5568: real time    3.1157
  RMM-DIIS:  cpu time    6.9759: real time   14.1481
    ORTHCH:  cpu time    0.2270: real time    0.4605
       DOS:  cpu time    0.0100: real time    0.0200
    CHARGE:  cpu time    0.3399: real time    0.6793
    MIXING:  cpu time    0.0020: real time    0.0036
    --------------------------------------------
      LOOP:  cpu time    9.1676: real time   18.5440

 eigenvalue-minimisations  : 11592
 total energy-change (2. order) : 0.8973736E+01  (-0.1498580E+01)
 number of electron     303.9999933 magnetization      30.5009033
 augmentation part      180.0397911 magnetization      25.8979991

 Broyden mixing:
  rms(total) = 0.33154E+01    rms(broyden)= 0.33152E+01
  rms(prec ) = 0.55379E+01
  weight for this iteration     100.00

 eigenvalues of (default mixing * dielectric matrix)
  average eigenvalue GAMMA=   0.4838
  1.1024  0.5643  0.1405  0.1279

 Free energy of the ion-electron system (eV)
  ---------------------------------------------------
  alpha Z        PSCENC =      1633.54701045
  Ewald energy   TEWEN  =    -26991.21849390
  -Hartree energ DENC   =     -6425.46256990
  -exchange      EXHF   =         0.00000000
  -V(xc)+E(xc)   XCENC  =       771.10512091
  PAW double counting   =     31175.81851459   -32839.88213369
  entropy T*S    EENTRO =        -0.01583351
  eigenvalues    EBANDS =      1857.15980098
  atomic energy  EATOM  =     30618.60351129
  Solvation  Ediel_sol  =         0.00000000
  ---------------------------------------------------
  free energy    TOTEN  =      -200.34507277 eV

  energy without entropy =     -200.32923927  energy(sigma->0) =     -200.33979494


--------------------------------------------------------------------------------------------------------




--------------------------------------- Iteration      1(  10)  ---------------------------------------


    POTLOK:  cpu time    0.0490: real time    0.1079
    SETDIJ:  cpu time    0.0090: real time    0.0183
    EDDIAG:  cpu time    1.5388: real time    3.1043
  RMM-DIIS:  cpu time    7.0039: real time   14.1338
    ORTHCH:  cpu time    0.2220: real time    0.4525
       DOS:  cpu time    0.0100: real time    0.0145
    CHARGE:  cpu time    0.3379: real time    0.6760
    MIXING:  cpu time    0.0020: real time    0.0038
    --------------------------------------------
      LOOP:  cpu time    9.1726: real time   18.5111

 eigenvalue-minimisations  : 11592
 total energy-change (2. order) :-0.6544774E+01  (-0.8999214E+00)
 number of electron     303.9999930 magnetization      29.2540366
 augmentation part      180.2373060 magnetization      25.9286359

 Broyden mixing:
  rms(total) = 0.49818E+01    rms(broyden)= 0.49817E+01
  rms(prec ) = 0.86050E+01
  weight for this iteration     100.00

 eigenvalues of (default mixing * dielectric matrix)
  average eigenvalue GAMMA=   0.4370
  1.2000  0.5798  0.1454  0.1454  0.1142

 Free energy of the ion-electron system (eV)
  ---------------------------------------------------
  alpha Z        PSCENC =      1633.54701045
  Ewald energy   TEWEN  =    -26991.21849390
  -Hartree energ DENC   =     -6399.17054879
  -exchange      EXHF   =         0.00000000
  -V(xc)+E(xc)   XCENC  =       770.18660930
  PAW double counting   =     31828.03305298   -33514.53320605
  entropy T*S    EENTRO =        -0.00397482
  eigenvalues    EBANDS =      1847.66619292
  atomic energy  EATOM  =     30618.60351129
  Solvation  Ediel_sol  =         0.00000000
  ---------------------------------------------------
  free energy    TOTEN  =      -206.88984662 eV

  energy without entropy =     -206.88587180  energy(sigma->0) =     -206.88852168


--------------------------------------------------------------------------------------------------------




--------------------------------------- Iteration      1(  11)  ---------------------------------------


    POTLOK:  cpu time    0.0480: real time    0.0966
    SETDIJ:  cpu time    0.0100: real time    0.0239
    EDDIAG:  cpu time    1.5428: real time    3.0987
  RMM-DIIS:  cpu time    7.0449: real time   14.2306
    ORTHCH:  cpu time    0.2230: real time    0.4563
       DOS:  cpu time    0.0100: real time    0.0153
    CHARGE:  cpu time    0.3399: real time    0.6791
    MIXING:  cpu time    0.0010: real time    0.0032
    --------------------------------------------
      LOOP:  cpu time    9.2196: real time   18.6037

 eigenvalue-minimisations  : 11592
 total energy-change (2. order) : 0.9766353E+01  (-0.5683758E+00)
 number of electron     303.9999932 magnetization      29.2020245
 augmentation part      180.5791781 magnetization      24.9035151

 Broyden mixing:
  rms(total) = 0.15992E+01    rms(broyden)= 0.15989E+01
  rms(prec ) = 0.25553E+01
  weight for this iteration     100.00

 eigenvalues of (default mixing * dielectric matrix)
  average eigenvalue GAMMA=   0.4232
  1.2774  0.4449  0.4449  0.1534  0.1164  0.1019

 Free energy of the ion-electron system (eV)
  ---------------------------------------------------
  alpha Z        PSCENC =      1633.54701045
  Ewald energy   TEWEN  =    -26991.21849390
  -Hartree energ DENC   =     -6385.77160107
  -exchange      EXHF   =         0.00000000
  -V(xc)+E(xc)   XCENC  =       769.30368589
  PAW double counting   =     32048.65151585   -33741.42331816
  entropy T*S    EENTRO =        -0.00555590
  eigenvalues    EBANDS =      1851.18975149
  atomic energy  EATOM  =     30618.60351129
  Solvation  Ediel_sol  =         0.00000000
  ---------------------------------------------------
  free energy    TOTEN  =      -197.12349406 eV

  energy without entropy =     -197.11793816  energy(sigma->0) =     -197.12164209


--------------------------------------------------------------------------------------------------------




--------------------------------------- Iteration      1(  12)  ---------------------------------------


    POTLOK:  cpu time    0.0500: real time    0.1055
    SETDIJ:  cpu time    0.0080: real time    0.0181
    EDDIAG:  cpu time    1.5448: real time    3.0970
  RMM-DIIS:  cpu time    7.0449: real time   14.1570
    ORTHCH:  cpu time    0.2200: real time    0.4530
       DOS:  cpu time    0.0100: real time    0.0147
    CHARGE:  cpu time    0.3479: real time    0.6998
    MIXING:  cpu time    0.0020: real time    0.0031
    --------------------------------------------
      LOOP:  cpu time    9.2276: real time   18.5482

 eigenvalue-minimisations  : 11592
 total energy-change (2. order) : 0.2835716E+00  (-0.9906116E-01)
 number of electron     303.9999930 magnetization      29.3588630
 augmentation part      180.5906690 magnetization      25.1628284

 Broyden mixing:
  rms(total) = 0.12575E+01    rms(broyden)= 0.12574E+01
  rms(prec ) = 0.17801E+01
  weight for this iteration     100.00

 eigenvalues of (default mixing * dielectric matrix)
  average eigenvalue GAMMA=   0.4169
  1.3412  0.5421  0.5421  0.1601  0.1173  0.1173  0.0980

 Free energy of the ion-electron system (eV)
  ---------------------------------------------------
  alpha Z        PSCENC =      1633.54701045
  Ewald energy   TEWEN  =    -26991.21849390
  -Hartree energ DENC   =     -6382.37085300
  -exchange      EXHF   =         0.00000000
  -V(xc)+E(xc)   XCENC  =       769.40802213
  PAW double counting   =     32130.05150495   -33825.32397745
  entropy T*S    EENTRO =        -0.00670518
  eigenvalues    EBANDS =      1850.47005829
  atomic energy  EATOM  =     30618.60351129
  Solvation  Ediel_sol  =         0.00000000
  ---------------------------------------------------
  free energy    TOTEN  =      -196.83992242 eV

  energy without entropy =     -196.83321724  energy(sigma->0) =     -196.83768736


--------------------------------------------------------------------------------------------------------




--------------------------------------- Iteration      1(  13)  ---------------------------------------


    POTLOK:  cpu time    0.0510: real time    0.1004
    SETDIJ:  cpu time    0.0090: real time    0.0231
    EDDIAG:  cpu time    1.5438: real time    3.1009
  RMM-DIIS:  cpu time    7.1139: real time   14.3250
    ORTHCH:  cpu time    0.2220: real time    0.4464
       DOS:  cpu time    0.0110: real time    0.0176
    CHARGE:  cpu time    0.3469: real time    0.6939
    MIXING:  cpu time    0.0010: real time    0.0036
    --------------------------------------------
      LOOP:  cpu time    9.2986: real time   18.7109

 eigenvalue-minimisations  : 11592
 total energy-change (2. order) :-0.1889887E+00  (-0.4052988E-01)
 number of electron     303.9999932 magnetization      29.4512123
 augmentation part      180.7246949 magnetization      25.4674341

 Broyden mixing:
  rms(total) = 0.12201E+01    rms(broyden)= 0.12201E+01
  rms(prec ) = 0.19653E+01
  weight for this iteration     100.00

 eigenvalues of (default mixing * dielectric matrix)
  average eigenvalue GAMMA=   0.3908
  1.3438  0.5261  0.5261  0.2460  0.1441  0.1441  0.1083  0.0878

 Free energy of the ion-electron system (eV)
  ---------------------------------------------------
  alpha Z        PSCENC =      1633.54701045
  Ewald energy   TEWEN  =    -26991.21849390
  -Hartree energ DENC   =     -6374.95107158
  -exchange      EXHF   =         0.00000000
  -V(xc)+E(xc)   XCENC  =       769.78114677
  PAW double counting   =     32289.00983610   -33988.86655287
  entropy T*S    EENTRO =        -0.01279918
  eigenvalues    EBANDS =      1847.07850183
  atomic energy  EATOM  =     30618.60351129
  Solvation  Ediel_sol  =         0.00000000
  ---------------------------------------------------
  free energy    TOTEN  =      -197.02891110 eV

  energy without entropy =     -197.01611192  energy(sigma->0) =     -197.02464471


--------------------------------------------------------------------------------------------------------




--------------------------------------- Iteration      1(  14)  ---------------------------------------


    POTLOK:  cpu time    0.0480: real time    0.0948
    SETDIJ:  cpu time    0.0090: real time    0.0228
    EDDIAG:  cpu time    1.5618: real time    3.1316
  RMM-DIIS:  cpu time    7.1549: real time   14.4396
    ORTHCH:  cpu time    0.2300: real time    0.4617
       DOS:  cpu time    0.0130: real time    0.0230
    CHARGE:  cpu time    0.3449: real time    0.6933
    MIXING:  cpu time    0.0020: real time    0.0036
    --------------------------------------------
      LOOP:  cpu time    9.3636: real time   18.8704

 eigenvalue-minimisations  : 11592
 total energy-change (2. order) : 0.1466229E+00  (-0.3410014E-01)
 number of electron     303.9999931 magnetization      30.1180160
 augmentation part      180.8395639 magnetization      26.0502844

 Broyden mixing:
  rms(total) = 0.90859E+00    rms(broyden)= 0.90857E+00
  rms(prec ) = 0.12774E+01
  weight for this iteration     100.00

 eigenvalues of (default mixing * dielectric matrix)
  average eigenvalue GAMMA=   0.4360
  1.3038  0.7694  0.7694  0.4943  0.1429  0.1429  0.1093  0.1093  0.0827

 Free energy of the ion-electron system (eV)
  ---------------------------------------------------
  alpha Z        PSCENC =      1633.54701045
  Ewald energy   TEWEN  =    -26991.21849390
  -Hartree energ DENC   =     -6371.10509560
  -exchange      EXHF   =         0.00000000
  -V(xc)+E(xc)   XCENC  =       769.85688007
  PAW double counting   =     32364.25011829   -34066.06035018
  entropy T*S    EENTRO =        -0.00235944
  eigenvalues    EBANDS =      1845.24649083
  atomic energy  EATOM  =     30618.60351129
  Solvation  Ediel_sol  =         0.00000000
  ---------------------------------------------------
  free energy    TOTEN  =      -196.88228819 eV

  energy without entropy =     -196.87992875  energy(sigma->0) =     -196.88150171


--------------------------------------------------------------------------------------------------------




--------------------------------------- Iteration      1(  15)  ---------------------------------------


    POTLOK:  cpu time    0.0480: real time    0.0965
    SETDIJ:  cpu time    0.0090: real time    0.0183
    EDDIAG:  cpu time    1.5468: real time    3.1032
  RMM-DIIS:  cpu time    6.8980: real time   13.8369
    ORTHCH:  cpu time    0.2230: real time    0.4475
       DOS:  cpu time    0.0100: real time    0.0204
    CHARGE:  cpu time    0.3359: real time    0.6709
    MIXING:  cpu time    0.0030: real time    0.0046
    --------------------------------------------
      LOOP:  cpu time    9.0736: real time   18.1983

 eigenvalue-minimisations  : 11592
 total energy-change (2. order) :-0.2306335E+00  (-0.2610150E-01)
 number of electron     303.9999931 magnetization      30.8569881
 augmentation part      180.9279553 magnetization      26.7531406

 Broyden mixing:
  rms(total) = 0.96455E+00    rms(broyden)= 0.96454E+00
  rms(prec ) = 0.14190E+01
  weight for this iteration     100.00

 eigenvalues of (default mixing * dielectric matrix)
  average eigenvalue GAMMA=   0.4236
  1.2797  0.8658  0.8658  0.4971  0.1543  0.1543  0.1137  0.1137  0.1100  0.0823

 Free energy of the ion-electron system (eV)
  ---------------------------------------------------
  alpha Z        PSCENC =      1633.54701045
  Ewald energy   TEWEN  =    -26991.21849390
  -Hartree energ DENC   =     -6366.09286498
  -exchange      EXHF   =         0.00000000
  -V(xc)+E(xc)   XCENC  =       770.32698358
  PAW double counting   =     32487.66960845   -34192.62585888
  entropy T*S    EENTRO =         0.00517145
  eigenvalues    EBANDS =      1842.67201087
  atomic energy  EATOM  =     30618.60351129
  Solvation  Ediel_sol  =         0.00000000
  ---------------------------------------------------
  free energy    TOTEN  =      -197.11292166 eV

  energy without entropy =     -197.11809312  energy(sigma->0) =     -197.11464548


--------------------------------------------------------------------------------------------------------




--------------------------------------- Iteration      1(  16)  ---------------------------------------


    POTLOK:  cpu time    0.0490: real time    0.1021
    SETDIJ:  cpu time    0.0090: real time    0.0182
    EDDIAG:  cpu time    1.4898: real time    2.9802
  RMM-DIIS:  cpu time    7.1199: real time   14.3339
    ORTHCH:  cpu time    0.2260: real time    0.4562
       DOS:  cpu time    0.0100: real time    0.0148
    CHARGE:  cpu time    0.3429: real time    0.6912
    MIXING:  cpu time    0.0030: real time    0.0047
    --------------------------------------------
      LOOP:  cpu time    9.2496: real time   18.6013

 eigenvalue-minimisations  : 11592
 total energy-change (2. order) : 0.8135567E-01  (-0.2030261E-01)
 number of electron     303.9999931 magnetization      31.1954710
 augmentation part      180.9367409 magnetization      27.0849309

 Broyden mixing:
  rms(total) = 0.63340E+00    rms(broyden)= 0.63339E+00
  rms(prec ) = 0.81197E+00
  weight for this iteration     100.00

 eigenvalues of (default mixing * dielectric matrix)
  average eigenvalue GAMMA=   0.4211
  1.2812  0.9032  0.9032  0.4107  0.4107  0.1603  0.1334  0.1334  0.1087  0.1052
  0.0818

 Free energy of the ion-electron system (eV)
  ---------------------------------------------------
  alpha Z        PSCENC =      1633.54701045
  Ewald energy   TEWEN  =    -26991.21849390
  -Hartree energ DENC   =     -6363.11618352
  -exchange      EXHF   =         0.00000000
  -V(xc)+E(xc)   XCENC  =       770.92922039
  PAW double counting   =     32596.17074609   -34304.15345535
  entropy T*S    EENTRO =        -0.01813856
  eigenvalues    EBANDS =      1842.22421712
  atomic energy  EATOM  =     30618.60351129
  Solvation  Ediel_sol  =         0.00000000
  ---------------------------------------------------
  free energy    TOTEN  =      -197.03156599 eV

  energy without entropy =     -197.01342743  energy(sigma->0) =     -197.02551981


--------------------------------------------------------------------------------------------------------




--------------------------------------- Iteration      1(  17)  ---------------------------------------


    POTLOK:  cpu time    0.0500: real time    0.0971
    SETDIJ:  cpu time    0.0090: real time    0.0188
    EDDIAG:  cpu time    1.5448: real time    3.1006
  RMM-DIIS:  cpu time    7.0819: real time   14.2617
    ORTHCH:  cpu time    0.2210: real time    0.4426
       DOS:  cpu time    0.0110: real time    0.0216
    CHARGE:  cpu time    0.3549: real time    0.7285
    MIXING:  cpu time    0.0020: real time    0.0049
    --------------------------------------------
      LOOP:  cpu time    9.2746: real time   18.6758

 eigenvalue-minimisations  : 11592
 total energy-change (2. order) :-0.3318508E-01  (-0.4831737E-02)
 number of electron     303.9999931 magnetization      32.3031236
 augmentation part      180.9264787 magnetization      28.1772534

 Broyden mixing:
  rms(total) = 0.58826E+00    rms(broyden)= 0.58826E+00
  rms(prec ) = 0.72793E+00
  weight for this iteration     100.00

 eigenvalues of (default mixing * dielectric matrix)
  average eigenvalue GAMMA=   0.4566
  1.2965  1.0974  1.0974  0.5494  0.5494  0.1876  0.1434  0.1434  0.1136  0.1094
  0.1094  0.0819

 Free energy of the ion-electron system (eV)
  ---------------------------------------------------
  alpha Z        PSCENC =      1633.54701045
  Ewald energy   TEWEN  =    -26991.21849390
  -Hartree energ DENC   =     -6362.64302828
  -exchange      EXHF   =         0.00000000
  -V(xc)+E(xc)   XCENC  =       771.14480998
  PAW double counting   =     32620.56463878   -34329.19555322
  entropy T*S    EENTRO =        -0.02077153
  eigenvalues    EBANDS =      1842.15312535
  atomic energy  EATOM  =     30618.60351129
  Solvation  Ediel_sol  =         0.00000000
  ---------------------------------------------------
  free energy    TOTEN  =      -197.06475107 eV

  energy without entropy =     -197.04397955  energy(sigma->0) =     -197.05782723


--------------------------------------------------------------------------------------------------------




--------------------------------------- Iteration      1(  18)  ---------------------------------------


    POTLOK:  cpu time    0.0510: real time    0.1090
    SETDIJ:  cpu time    0.0090: real time    0.0186
    EDDIAG:  cpu time    1.5798: real time    3.1722
  RMM-DIIS:  cpu time    7.1119: real time   14.3271
    ORTHCH:  cpu time    0.2170: real time    0.4374
       DOS:  cpu time    0.0100: real time    0.0204
    CHARGE:  cpu time    0.3539: real time    0.7103
    MIXING:  cpu time    0.0060: real time    0.0111
    --------------------------------------------
      LOOP:  cpu time    9.3386: real time   18.8061

 eigenvalue-minimisations  : 11592
 total energy-change (2. order) :-0.1622571E+00  (-0.7636865E-02)
 number of electron     303.9999932 magnetization      32.9242224
 augmentation part      180.9696266 magnetization      28.6685261

 Broyden mixing:
  rms(total) = 0.54162E+00    rms(broyden)= 0.54161E+00
  rms(prec ) = 0.67721E+00
  weight for this iteration     100.00

 eigenvalues of (default mixing * dielectric matrix)
  average eigenvalue GAMMA=   0.5191
  1.4233  1.4233  1.3313  0.6356  0.6356  0.4509  0.1495  0.1495  0.0819  0.1254
  0.1254  0.1086  0.1086

 Free energy of the ion-electron system (eV)
  ---------------------------------------------------
  alpha Z        PSCENC =      1633.54701045
  Ewald energy   TEWEN  =    -26991.21849390
  -Hartree energ DENC   =     -6360.76755909
  -exchange      EXHF   =         0.00000000
  -V(xc)+E(xc)   XCENC  =       771.77094432
  PAW double counting   =     32687.41074530   -34397.58820336
  entropy T*S    EENTRO =        -0.03642940
  eigenvalues    EBANDS =      1841.05146623
  atomic energy  EATOM  =     30618.60351129
  Solvation  Ediel_sol  =         0.00000000
  ---------------------------------------------------
  free energy    TOTEN  =      -197.22700815 eV

  energy without entropy =     -197.19057875  energy(sigma->0) =     -197.21486502


--------------------------------------------------------------------------------------------------------




--------------------------------------- Iteration      1(  19)  ---------------------------------------


    POTLOK:  cpu time    0.0520: real time    0.1002
    SETDIJ:  cpu time    0.0080: real time    0.0222
    EDDIAG:  cpu time    1.5398: real time    3.0956
  RMM-DIIS:  cpu time    7.0749: real time   14.2836
    ORTHCH:  cpu time    0.2250: real time    0.4537
       DOS:  cpu time    0.0100: real time    0.0146
    CHARGE:  cpu time    0.3469: real time    0.6945
    MIXING:  cpu time    0.0030: real time    0.0046
    --------------------------------------------
      LOOP:  cpu time    9.2596: real time   18.6691

 eigenvalue-minimisations  : 11592
 total energy-change (2. order) :-0.1177725E+00  (-0.1045816E-01)
 number of electron     303.9999932 magnetization      33.6865556
 augmentation part      181.0402505 magnetization      29.2969766

 Broyden mixing:
  rms(total) = 0.56706E+00    rms(broyden)= 0.56706E+00
  rms(prec ) = 0.78905E+00
  weight for this iteration     100.00

 eigenvalues of (default mixing * dielectric matrix)
  average eigenvalue GAMMA=   0.5924
  1.9552  1.9552  1.3916  0.7275  0.7275  0.5442  0.1589  0.1558  0.1330  0.1330
  0.0819  0.1103  0.1103  0.1096

 Free energy of the ion-electron system (eV)
  ---------------------------------------------------
  alpha Z        PSCENC =      1633.54701045
  Ewald energy   TEWEN  =    -26991.21849390
  -Hartree energ DENC   =     -6359.22250614
  -exchange      EXHF   =         0.00000000
  -V(xc)+E(xc)   XCENC  =       772.05487896
  PAW double counting   =     32726.31102891   -34437.23989189
  entropy T*S    EENTRO =        -0.04967610
  eigenvalues    EBANDS =      1839.86935782
  atomic energy  EATOM  =     30618.60351129
  Solvation  Ediel_sol  =         0.00000000
  ---------------------------------------------------
  free energy    TOTEN  =      -197.34478061 eV

  energy without entropy =     -197.29510450  energy(sigma->0) =     -197.32822191


--------------------------------------------------------------------------------------------------------




--------------------------------------- Iteration      1(  20)  ---------------------------------------


    POTLOK:  cpu time    0.0480: real time    0.1009
    SETDIJ:  cpu time    0.0090: real time    0.0184
    EDDIAG:  cpu time    1.5398: real time    3.0889
  RMM-DIIS:  cpu time    7.0579: real time   14.2181
    ORTHCH:  cpu time    0.2260: real time    0.4553
       DOS:  cpu time    0.0110: real time    0.0170
    CHARGE:  cpu time    0.3409: real time    0.6790
    MIXING:  cpu time    0.0020: real time    0.0054
    --------------------------------------------
      LOOP:  cpu time    9.2346: real time   18.5830

 eigenvalue-minimisations  : 11592
 total energy-change (2. order) :-0.9844565E-01  (-0.1108555E-01)
 number of electron     303.9999931 magnetization      34.2220916
 augmentation part      181.0330833 magnetization      29.6986812

 Broyden mixing:
  rms(total) = 0.50468E+00    rms(broyden)= 0.50467E+00
  rms(prec ) = 0.71255E+00
  weight for this iteration     100.00

 eigenvalues of (default mixing * dielectric matrix)
  average eigenvalue GAMMA=   0.6142
  2.2323  2.2323  1.4349  0.7411  0.7411  0.5448  0.3029  0.1624  0.0819  0.1383
  0.1383  0.1230  0.1230  0.1081  0.1081

 Free energy of the ion-electron system (eV)
  ---------------------------------------------------
  alpha Z        PSCENC =      1633.54701045
  Ewald energy   TEWEN  =    -26991.21849390
  -Hartree energ DENC   =     -6357.47856041
  -exchange      EXHF   =         0.00000000
  -V(xc)+E(xc)   XCENC  =       772.46438793
  PAW double counting   =     32790.74380268   -34503.11794324
  entropy T*S    EENTRO =        -0.06246554
  eigenvalues    EBANDS =      1839.07552448
  atomic energy  EATOM  =     30618.60351129
  Solvation  Ediel_sol  =         0.00000000
  ---------------------------------------------------
  free energy    TOTEN  =      -197.44322626 eV

  energy without entropy =     -197.38076072  energy(sigma->0) =     -197.42240441


--------------------------------------------------------------------------------------------------------




--------------------------------------- Iteration      1(  21)  ---------------------------------------


    POTLOK:  cpu time    0.0500: real time    0.0995
    SETDIJ:  cpu time    0.0090: real time    0.0192
    EDDIAG:  cpu time    1.5338: real time    3.0741
  RMM-DIIS:  cpu time    7.2819: real time   14.8181
    ORTHCH:  cpu time    0.2230: real time    0.4534
       DOS:  cpu time    0.0100: real time    0.0139
    CHARGE:  cpu time    0.3479: real time    0.6932
    MIXING:  cpu time    0.0030: real time    0.0054
    --------------------------------------------
      LOOP:  cpu time    9.4586: real time   19.1767

 eigenvalue-minimisations  : 11592
 total energy-change (2. order) :-0.1885207E-01  (-0.9504076E-02)
 number of electron     303.9999932 magnetization      35.8793932
 augmentation part      180.9982502 magnetization      31.3120896

 Broyden mixing:
  rms(total) = 0.41097E+00    rms(broyden)= 0.41096E+00
  rms(prec ) = 0.58577E+00
  weight for this iteration     100.00

 eigenvalues of (default mixing * dielectric matrix)
  average eigenvalue GAMMA=   0.6506
  2.4833  2.4833  1.5652  0.8034  0.8034  0.5726  0.5726  0.1702  0.0819  0.1494
  0.1392  0.1287  0.1287  0.1087  0.1087  0.1109

 Free energy of the ion-electron system (eV)
  ---------------------------------------------------
  alpha Z        PSCENC =      1633.54701045
  Ewald energy   TEWEN  =    -26991.21849390
  -Hartree energ DENC   =     -6356.99631982
  -exchange      EXHF   =         0.00000000
  -V(xc)+E(xc)   XCENC  =       772.88744309
  PAW double counting   =     32832.30347366   -34545.80506786
  entropy T*S    EENTRO =        -0.07128671
  eigenvalues    EBANDS =      1839.28765147
  atomic energy  EATOM  =     30618.60351129
  Solvation  Ediel_sol  =         0.00000000
  ---------------------------------------------------
  free energy    TOTEN  =      -197.46207833 eV

  energy without entropy =     -197.39079162  energy(sigma->0) =     -197.43831609


--------------------------------------------------------------------------------------------------------




--------------------------------------- Iteration      1(  22)  ---------------------------------------


    POTLOK:  cpu time    0.0500: real time    0.1059
    SETDIJ:  cpu time    0.0090: real time    0.0187
    EDDIAG:  cpu time    1.5128: real time    3.0337
  RMM-DIIS:  cpu time    7.0009: real time   14.1333
    ORTHCH:  cpu time    0.2260: real time    0.4575
       DOS:  cpu time    0.0100: real time    0.0145
    CHARGE:  cpu time    0.3469: real time    0.6912
    MIXING:  cpu time    0.0030: real time    0.0057
    --------------------------------------------
      LOOP:  cpu time    9.1586: real time   18.4606

 eigenvalue-minimisations  : 11592
 total energy-change (2. order) :-0.6468093E-01  (-0.1083342E-01)
 number of electron     303.9999932 magnetization      36.3835215
 augmentation part      181.0338944 magnetization      31.6877494

 Broyden mixing:
  rms(total) = 0.39809E+00    rms(broyden)= 0.39808E+00
  rms(prec ) = 0.62012E+00
  weight for this iteration     100.00

 eigenvalues of (default mixing * dielectric matrix)
  average eigenvalue GAMMA=   0.6290
  2.3769  2.3769  1.6556  0.8516  0.8516  0.5913  0.5913  0.2860  0.1657  0.0819
  0.1437  0.1327  0.1327  0.1243  0.1078  0.1078  0.1160

 Free energy of the ion-electron system (eV)
  ---------------------------------------------------
  alpha Z        PSCENC =      1633.54701045
  Ewald energy   TEWEN  =    -26991.21849390
  -Hartree energ DENC   =     -6353.25443529
  -exchange      EXHF   =         0.00000000
  -V(xc)+E(xc)   XCENC  =       774.22196595
  PAW double counting   =     32959.73706366   -34676.27723368
  entropy T*S    EENTRO =        -0.06903753
  eigenvalues    EBANDS =      1837.18288979
  atomic energy  EATOM  =     30618.60351129
  Solvation  Ediel_sol  =         0.00000000
  ---------------------------------------------------
  free energy    TOTEN  =      -197.52675926 eV

  energy without entropy =     -197.45772173  energy(sigma->0) =     -197.50374675


--------------------------------------------------------------------------------------------------------




--------------------------------------- Iteration      1(  23)  ---------------------------------------


    POTLOK:  cpu time    0.0510: real time    0.1063
    SETDIJ:  cpu time    0.0100: real time    0.0202
    EDDIAG:  cpu time    1.5268: real time    3.0572
  RMM-DIIS:  cpu time    7.0049: real time   14.2196
    ORTHCH:  cpu time    0.2180: real time    0.4467
       DOS:  cpu time    0.0100: real time    0.0167
    CHARGE:  cpu time    0.3439: real time    0.6958
    MIXING:  cpu time    0.0030: real time    0.0055
    --------------------------------------------
      LOOP:  cpu time    9.1676: real time   18.5680

 eigenvalue-minimisations  : 11592
 total energy-change (2. order) : 0.3950948E-01  (-0.6526286E-02)
 number of electron     303.9999932 magnetization      36.4564705
 augmentation part      181.0752396 magnetization      31.7235750

 Broyden mixing:
  rms(total) = 0.24704E+00    rms(broyden)= 0.24703E+00
  rms(prec ) = 0.34753E+00
  weight for this iteration     100.00

 eigenvalues of (default mixing * dielectric matrix)
  average eigenvalue GAMMA=   0.6132
  2.0980  2.0980  1.8124  1.0260  1.0260  0.6235  0.6235  0.4874  0.1701  0.0819
  0.1443  0.1443  0.1295  0.1295  0.1147  0.1147  0.1067  0.1067

 Free energy of the ion-electron system (eV)
  ---------------------------------------------------
  alpha Z        PSCENC =      1633.54701045
  Ewald energy   TEWEN  =    -26991.21849390
  -Hartree energ DENC   =     -6351.23622147
  -exchange      EXHF   =         0.00000000
  -V(xc)+E(xc)   XCENC  =       774.59464016
  PAW double counting   =     33008.64442888   -34726.28367901
  entropy T*S    EENTRO =        -0.06331694
  eigenvalues    EBANDS =      1835.92487077
  atomic energy  EATOM  =     30618.60351129
  Solvation  Ediel_sol  =         0.00000000
  ---------------------------------------------------
  free energy    TOTEN  =      -197.48724979 eV

  energy without entropy =     -197.42393285  energy(sigma->0) =     -197.46614414


--------------------------------------------------------------------------------------------------------




--------------------------------------- Iteration      1(  24)  ---------------------------------------


    POTLOK:  cpu time    0.0470: real time    0.0977
    SETDIJ:  cpu time    0.0090: real time    0.0192
    EDDIAG:  cpu time    1.5148: real time    3.0644
  RMM-DIIS:  cpu time    7.0929: real time   14.3640
    ORTHCH:  cpu time    0.2310: real time    0.4724
       DOS:  cpu time    0.0100: real time    0.0148
    CHARGE:  cpu time    0.3369: real time    0.6807
    MIXING:  cpu time    0.0030: real time    0.0063
[...]
 -0.001   0.000   0.001  -0.015  -0.011   0.001  -0.000  -0.001   0.007   0.005  -0.146   0.046  -0.000  -0.003  -0.004  -0.000
 -0.000   0.000  -0.001  -0.000  -0.001   0.000  -0.000   0.001  -0.002  -0.001   0.046  -0.009  -0.000  -0.001  -0.001   0.000
  0.005   0.000  -0.003   0.002   0.003  -0.006  -0.003   0.001  -0.001  -0.002  -0.000  -0.000  -0.022   0.000  -0.000   0.003
  0.001  -0.001  -0.002  -0.022  -0.014  -0.000   0.000  -0.000   0.013   0.010  -0.003  -0.001   0.000  -0.021   0.002   0.000
 -0.002   0.001  -0.011  -0.021  -0.015   0.001  -0.001   0.009   0.013   0.007  -0.004  -0.001  -0.000   0.002  -0.019   0.000
 -0.000  -0.000   0.000  -0.000  -0.000   0.000   0.000  -0.000   0.000   0.000  -0.000   0.000   0.003   0.000   0.000  -0.000
 -0.000  -0.000  -0.000   0.001   0.000   0.000  -0.000  -0.000  -0.001  -0.001  -0.000   0.000   0.000   0.003  -0.000  -0.000
  0.000  -0.000   0.000   0.001   0.000   0.000   0.000  -0.001  -0.001  -0.001  -0.000   0.000   0.000  -0.000   0.003  -0.000


------------------------ aborting loop because EDIFF is reached ----------------------------------------


 


 total charge     
 
# of ion       s       p       d       tot
------------------------------------------
    1        0.494   0.492   8.305   9.291
    2        0.509   0.510   8.315   9.334
    3        0.503   0.501   8.316   9.320
    4        0.498   0.489   8.318   9.305
    5        0.504   0.503   8.320   9.327
    6        0.506   0.507   8.323   9.336
    7        0.503   0.504   8.323   9.331
    8        0.509   0.507   8.327   9.343
    9        0.506   0.508   8.318   9.332
   10        0.498   0.494   8.311   9.303
   11        0.499   0.503   8.311   9.313
   12        0.495   0.489   8.313   9.297
   13        0.504   0.503   8.310   9.318
   14        0.506   0.507   8.320   9.334
   15        0.501   0.507   8.314   9.322
   16        0.502   0.506   8.317   9.324
   17        0.504   0.503   8.318   9.324
   18        0.507   0.509   8.321   9.337
   19        0.496   0.493   8.310   9.300
   20        0.500   0.496   8.317   9.313
   21        0.505   0.509   8.315   9.329
   22        0.506   0.504   8.310   9.320
   23        0.496   0.489   8.314   9.299
   24        0.502   0.503   8.313   9.318
   25        0.472   0.505   6.152   7.130
   26        0.478   0.512   6.164   7.154
   27        0.475   0.509   6.154   7.138
   28        0.476   0.509   6.177   7.163
   29        0.477   0.512   6.160   7.149
   30        0.479   0.513   6.176   7.169
   31        0.471   0.503   6.143   7.117
   32        0.475   0.507   6.168   7.150
--------------------------------------------------
tot         15.856  16.111 248.874 280.841
 


 magnetization (x)
 
# of ion       s       p       d       tot
------------------------------------------
    1       -0.008  -0.031   0.729   0.690
    2       -0.019  -0.040   0.737   0.678
    3       -0.013  -0.032   0.711   0.666
    4       -0.010  -0.025   0.685   0.649
    5       -0.015  -0.033   0.704   0.657
    6       -0.015  -0.036   0.702   0.651
    7       -0.013  -0.033   0.696   0.651
    8       -0.015  -0.031   0.693   0.648
    9       -0.018  -0.039   0.716   0.659
   10       -0.011  -0.030   0.719   0.678
   11       -0.011  -0.036   0.734   0.688
   12       -0.009  -0.027   0.703   0.667
   13       -0.016  -0.036   0.739   0.687
   14       -0.014  -0.034   0.719   0.671
   15       -0.015  -0.043   0.732   0.674
   16       -0.012  -0.037   0.721   0.673
   17       -0.013  -0.033   0.714   0.668
   18       -0.017  -0.037   0.709   0.656
   19       -0.008  -0.029   0.719   0.682
   20       -0.011  -0.029   0.697   0.657
   21       -0.016  -0.041   0.735   0.678
   22       -0.017  -0.036   0.740   0.687
   23       -0.010  -0.028   0.695   0.657
   24       -0.012  -0.033   0.733   0.688
   25        0.008  -0.014   2.795   2.788
   26        0.004  -0.015   2.770   2.759
   27        0.008  -0.013   2.796   2.791
   28        0.001  -0.023   2.730   2.708
   29        0.006  -0.016   2.783   2.773
   30       -0.000  -0.022   2.735   2.713
   31        0.010  -0.011   2.820   2.820
   32        0.006  -0.015   2.758   2.749
--------------------------------------------------
tot         -0.275  -0.936  39.373  38.162
 
    CHARGE:  cpu time    0.3380: real time    0.6903
    FORLOC:  cpu time    0.0060: real time    0.0125
    FORNL :  cpu time    3.3555: real time    6.7470
    STRESS:  cpu time   10.0105: real time   20.1456
    FORCOR:  cpu time    0.0520: real time    0.1056
    FORHAR:  cpu time    0.0100: real time    0.0194
    MIXING:  cpu time    0.0020: real time    0.0035
    OFIELD:  cpu time    0.0000: real time    0.0001

  FORCE on cell =-STRESS in cart. coord.  units (eV):
  Direction    XX          YY          ZZ          XY          YZ          ZX
  --------------------------------------------------------------------------------------
  Alpha Z  1633.54701  1633.54701  1633.54701
  Ewald   -8968.40703 -8935.41774 -9020.25629     0.31539    -0.12547     2.40626
  Hartree  2144.59695  2176.63676  2092.24103     0.31464    -0.02516     2.39265
  E(xc)   -1640.92600 -1640.85322 -1640.91163     0.00892    -0.00705    -0.01772
  Local     229.66019   165.21808   333.82528    -1.27724     0.76744    -5.41016
  n-local  -385.11166  -384.84310  -384.80371    -0.02091    -0.18825    -0.25494
  augment  4538.29735  4537.89774  4538.34118     0.50798    -0.43312     0.66885
  Kinetic  2448.55890  2447.88239  2449.33709    -0.11410    -0.32143     0.22976
  Fock        0.00000     0.00000     0.00000     0.00000     0.00000     0.00000
  -------------------------------------------------------------------------------------
  Total       0.21571     0.06791     1.31996    -0.26533    -0.33305     0.01470
  in kB       0.96972     0.30529     5.93379    -1.19276    -1.49720     0.06610
  external pressure =        2.40 kB  Pullay stress =        0.00 kB


 VOLUME and BASIS-vectors are now :
 -----------------------------------------------------------------------------
  energy-cutoff  :      520.00
  volume of cell :      356.40
      direct lattice vectors                 reciprocal lattice vectors
     7.090000000  0.000000000  0.000000000     0.141043724  0.000000000  0.000000000
     0.000000000  7.090000000  0.000000000     0.000000000  0.141043724  0.000000000
     0.000000000  0.000000000  7.090000000     0.000000000  0.000000000  0.141043724

  length of vectors
     7.090000000  7.090000000  7.090000000     0.141043724  0.141043724  0.141043724


 FORCES acting on ions
    electron-ion (+dipol)            ewald-force                    non-local-force                 convergence-correction
 -----------------------------------------------------------------------------------------------
   -.337E+02 -.153E+02 -.225E+02   0.337E+02 0.153E+02 0.226E+02   -.245E-02 0.523E-02 -.105E-02   0.203E-02 0.569E-02 -.430E-02
   -.633E+02 0.280E+02 -.962E+02   0.634E+02 -.281E+02 0.962E+02   -.129E+00 0.118E+00 -.598E-01   -.711E-02 0.792E-02 -.563E-02
   -.121E+02 0.207E+02 0.929E+02   0.122E+02 -.208E+02 -.929E+02   -.147E-01 0.851E-01 0.830E-02   -.791E-02 -.610E-02 0.106E-01
   -.310E+02 0.128E+02 -.176E+02   0.309E+02 -.128E+02 0.176E+02   0.916E-01 -.140E-02 0.248E-01   -.131E-01 -.523E-02 0.423E-02
   -.580E+02 -.222E+02 -.529E+02   0.580E+02 0.223E+02 0.530E+02   -.329E-02 -.256E-01 -.399E-01   -.415E-03 -.652E-02 -.303E-02
   -.351E+02 -.306E+02 0.773E+02   0.351E+02 0.306E+02 -.774E+02   0.278E-01 -.864E-02 0.988E-01   -.109E-01 0.412E-02 -.147E-02
   -.306E+02 -.556E+00 -.257E+02   0.306E+02 0.564E+00 0.257E+02   0.694E-01 0.203E-02 -.168E-01   -.231E-01 -.550E-02 0.262E-02
   0.344E+02 -.120E+02 0.166E+02   -.344E+02 0.120E+02 -.165E+02   -.552E-01 -.100E-02 -.103E+00   0.462E-03 0.469E-02 -.106E-01
   0.619E+02 -.201E+02 -.104E+03   -.620E+02 0.201E+02 0.104E+03   0.111E+00 -.106E-01 -.233E+00   0.567E-02 0.152E-02 0.113E-01
   -.674E+01 -.374E+02 -.723E+02   0.671E+01 0.374E+02 0.724E+02   -.188E-02 -.239E-01 -.485E-02   0.225E-01 0.652E-02 -.516E-02
   -.385E+02 0.558E+02 0.224E+02   0.385E+02 -.558E+02 -.224E+02   -.246E-01 -.293E-01 0.288E-01   -.126E-01 -.106E-01 -.305E-02
   -.146E+02 -.188E+02 0.495E+02   0.147E+02 0.187E+02 -.494E+02   -.169E-01 0.304E-01 -.134E+00   -.896E-02 0.602E-02 0.911E-02
   -.861E+02 0.317E+02 0.753E+02   0.862E+02 -.317E+02 -.754E+02   -.105E+00 0.266E-01 0.158E+00   -.136E-01 -.374E-02 -.478E-02
   -.369E+02 0.100E+01 -.141E+02   0.369E+02 -.997E+00 0.139E+02   0.132E-01 -.161E-01 0.213E+00   -.183E-01 0.464E-02 0.572E-03
   0.392E+02 -.616E+02 -.209E+02   -.393E+02 0.617E+02 0.208E+02   0.703E-01 -.684E-01 0.315E-01   0.462E-03 0.131E-02 0.710E-02
   0.376E+02 0.105E+02 0.250E+02   -.376E+02 -.104E+02 -.249E+02   -.129E-01 -.442E-02 -.830E-01   0.117E-01 -.822E-02 -.325E-02
   0.590E+02 0.174E+02 -.524E+02   -.589E+02 -.174E+02 0.524E+02   -.451E-01 -.336E-01 -.220E-01   0.186E-02 -.548E-02 0.689E-02
   0.379E+02 -.354E+02 0.761E+02   -.379E+02 0.354E+02 -.762E+02   0.476E-01 -.801E-01 0.969E-01   0.104E-01 0.683E-02 -.930E-03
   0.289E+02 0.753E+00 0.175E+02   -.288E+02 -.746E+00 -.175E+02   -.776E-01 -.115E-01 -.752E-01   0.232E-01 0.704E-02 -.654E-02
   0.332E+02 0.369E+02 -.709E+02   -.332E+02 -.369E+02 0.708E+02   0.139E-01 0.212E-01 0.681E-01   0.126E-01 -.518E-02 -.303E-02
   -.398E+02 -.112E+01 0.229E+02   0.399E+02 0.113E+01 -.229E+02   -.830E-01 0.263E-02 0.103E-01   -.969E-02 0.166E-02 0.142E-02
   0.825E+02 0.353E+02 0.733E+02   -.826E+02 -.354E+02 -.734E+02   0.777E-01 0.461E-01 0.922E-01   0.148E-01 -.501E-02 -.233E-02
   0.330E+02 0.679E+00 0.225E+02   -.330E+02 -.664E+00 -.225E+02   -.193E-01 -.137E-01 0.252E-01   0.171E-01 -.569E-02 -.437E-02
   0.381E+02 -.143E+01 -.260E+02   -.382E+02 0.143E+01 0.261E+02   0.644E-01 0.128E-01 -.290E-01   0.899E-02 -.112E-01 0.443E-02
   0.123E+02 -.355E+02 -.740E+02   -.124E+02 0.356E+02 0.742E+02   0.591E-01 -.125E+00 -.221E+00   -.196E-01 0.882E-02 0.921E-05
   -.356E+02 -.548E+02 0.269E+02   0.358E+02 0.549E+02 -.270E+02   -.200E+00 -.182E+00 0.105E+00   0.580E-03 0.124E-01 0.471E-03
   -.348E+02 0.360E+02 -.738E+02   0.348E+02 -.361E+02 0.739E+02   -.681E-01 0.897E-01 -.165E+00   -.780E-02 -.829E-02 0.216E-02
   -.390E+02 0.273E+01 0.301E+02   0.391E+02 -.274E+01 -.302E+02   -.178E+00 0.933E-02 0.698E-01   -.521E-02 -.112E-02 -.231E-02
   0.104E+02 -.246E+02 0.100E+03   -.104E+02 0.247E+02 -.101E+03   0.194E-01 -.965E-01 0.226E+00   0.368E-02 0.416E-02 -.811E-02
   0.385E+02 0.546E+02 -.311E+02   -.388E+02 -.550E+02 0.311E+02   0.221E+00 0.401E+00 -.464E-01   0.107E-01 -.114E-02 0.442E-02
   0.123E+02 0.258E+02 0.506E+02   -.124E+02 -.257E+02 -.507E+02   0.228E-01 -.519E-01 0.177E-01   0.738E-02 -.540E-02 -.248E-02
   0.368E+02 0.632E+00 -.247E+02   -.369E+02 -.648E+00 0.248E+02   0.115E+00 0.398E-02 -.415E-01   0.497E-02 0.919E-02 0.570E-02
 -----------------------------------------------------------------------------------------------
   0.102E-01 -.716E-01 0.141E-02   0.249E-12 0.269E-12 -.231E-12   -.126E-01 0.708E-01 -.258E-02   0.833E-03 -.196E-02 -.293E-03
 
 
 POSITION                                       TOTAL-FORCE (eV/Angst)
 -----------------------------------------------------------------------------------
     -0.00530      0.00754      3.54496        -0.005337      0.004783      0.004450
      0.01407      1.76444      5.32635         0.004315      0.003667     -0.018707
     -0.01257      1.77946      1.76375        -0.003656      0.001952      0.005332
     -0.00501      3.53257      3.53438         0.002813      0.006386      0.009099
     -0.01333      5.33749      5.31861        -0.005426     -0.003820     -0.007055
      1.76385      0.01229      1.77300         0.000721     -0.005064      0.011076
      1.77055      1.77095      3.53727         0.006240      0.005122      0.003380
      3.55711     -0.01415      3.55100        -0.000834      0.001061     -0.000508
      3.52928      1.78546      5.30443        -0.001681      0.000537     -0.007045
      5.31208      0.00284      5.32264        -0.004128     -0.006891      0.002628
      0.00740      3.55746     -0.00167         0.001605      0.011082      0.005772
     -0.00060      5.30380      1.77878         0.006129     -0.000465     -0.008800
      1.78326      3.53921      1.77003        -0.005871     -0.001222      0.012707
      1.75565      5.32256      3.54667         0.002923     -0.007253     -0.007079
      3.54190      0.02240      0.00240        -0.002504      0.000268     -0.007353
      3.55693      3.55679      3.54873        -0.003154      0.000882     -0.003455
      3.55508      5.30333      5.32361         0.004653      0.003296     -0.015493
      5.33173      0.00041      1.77559         0.002774      0.000060      0.009185
      5.31804      1.77602      3.55348        -0.005186      0.002067     -0.014386
      5.33643      3.54197      5.31496        -0.001323      0.004591      0.012313
      1.78419      5.31026      0.00879        -0.005432      0.007453      0.008686
      5.30126      3.54011      1.75713        -0.000062     -0.010009      0.011464
      5.32781      5.31240      3.54489        -0.001001     -0.003546      0.001925
      5.29853      5.31033      0.00320         0.011698      0.008540     -0.002858
      1.79913     -0.02277      5.27993         0.009114     -0.003712     -0.002152
     -0.00886     -0.04741      0.02185        -0.011336     -0.012752      0.001053
      1.73603      3.57716      5.25709        -0.003670      0.003109      0.008456
      1.75458      1.78224      0.02471        -0.005956     -0.000397     -0.001785
      3.55482      1.75023      1.85020         0.007530     -0.010266     -0.005634
      3.55632      3.54482     -0.03484        -0.002342     -0.001959      0.002195
      3.54174      5.35178      1.80338        -0.003854      0.005739     -0.008484
      5.33792      1.76803     -0.02530         0.012238     -0.003238      0.001073
 -----------------------------------------------------------------------------------
    total drift:                               -0.001494     -0.002755     -0.001453


--------------------------------------------------------------------------------------------------------



  FREE ENERGIE OF THE ION-ELECTRON SYSTEM (eV)
  ---------------------------------------------------
  free  energy   TOTEN  =      -198.25827621 eV

  energy  without entropy=     -198.22831451  energy(sigma->0) =     -198.24828898
 
 d Force = 0.2318112E-02[ 0.466E-03, 0.417E-02]  d Energy = 0.2285523E-02 0.326E-04
 d Force = 0.2221025E+01[ 0.209E+01, 0.235E+01]  d Ewald  = 0.2220987E+01 0.376E-04


--------------------------------------------------------------------------------------------------------


    POTLOK:  cpu time    0.0590: real time    0.1221


--------------------------------------------------------------------------------------------------------


 Conjugate gradient step on ions:
 trial-energy change:   -0.002286  1 .order   -0.002318   -0.004170   -0.000466
  (g-gl).g = 0.314E-02      g.g   = 0.266E-02  gl.gl    = 0.108E-01
 g(Force)  = 0.266E-02   g(Stress)= 0.000E+00 ortho     =-0.485E-03
 gamma     =   0.29032
 trial     =   1.65333
 opt step  =   1.86149  (harmonic =   1.86149) maximal distance =0.00588225
 next E    =  -198.258338   (d E  =  -0.00235)


--------------------------------------------------------------------------------------------------------


  
 reached required accuracy - stopping structural energy minimisation
     LOOP+:  cpu time  103.8372: real time  209.0636
    4ORBIT:  cpu time    0.0000: real time    0.0000
 


 total charge     
 
# of ion       s       p       d       tot
------------------------------------------
    1        0.494   0.492   8.305   9.291
    2        0.509   0.510   8.315   9.334
    3        0.503   0.501   8.316   9.320
    4        0.498   0.489   8.318   9.305
    5        0.504   0.503   8.320   9.327
    6        0.506   0.507   8.323   9.336
    7        0.503   0.504   8.323   9.331
    8        0.509   0.507   8.327   9.343
    9        0.506   0.508   8.318   9.332
   10        0.498   0.494   8.311   9.303
   11        0.499   0.503   8.311   9.313
   12        0.495   0.489   8.313   9.297
   13        0.504   0.503   8.310   9.318
   14        0.506   0.507   8.320   9.334
   15        0.501   0.507   8.314   9.322
   16        0.502   0.506   8.317   9.324
   17        0.504   0.503   8.318   9.324
   18        0.507   0.509   8.321   9.337
   19        0.496   0.493   8.310   9.300
   20        0.500   0.496   8.317   9.313
   21        0.505   0.509   8.315   9.329
   22        0.506   0.504   8.310   9.320
   23        0.496   0.489   8.314   9.299
   24        0.502   0.503   8.313   9.318
   25        0.472   0.505   6.152   7.130
   26        0.478   0.512   6.164   7.154
   27        0.475   0.509   6.154   7.138
   28        0.476   0.509   6.177   7.163
   29        0.477   0.512   6.160   7.149
   30        0.479   0.513   6.176   7.169
   31        0.471   0.503   6.143   7.117
   32        0.475   0.507   6.168   7.150
--------------------------------------------------
tot         15.856  16.111 248.874 280.841
 


 magnetization (x)
 
# of ion       s       p       d       tot
------------------------------------------
    1       -0.008  -0.031   0.729   0.690
    2       -0.019  -0.040   0.737   0.678
    3       -0.013  -0.032   0.711   0.666
    4       -0.010  -0.025   0.685   0.649
    5       -0.015  -0.033   0.704   0.657
    6       -0.015  -0.036   0.702   0.651
    7       -0.013  -0.033   0.696   0.651
    8       -0.015  -0.031   0.693   0.648
    9       -0.018  -0.039   0.716   0.659
   10       -0.011  -0.030   0.719   0.678
   11       -0.011  -0.036   0.734   0.688
   12       -0.009  -0.027   0.703   0.667
   13       -0.016  -0.036   0.739   0.687
   14       -0.014  -0.034   0.719   0.671
   15       -0.015  -0.043   0.732   0.674
   16       -0.012  -0.037   0.721   0.673
   17       -0.013  -0.033   0.714   0.668
   18       -0.017  -0.037   0.709   0.656
   19       -0.008  -0.029   0.719   0.682
   20       -0.011  -0.029   0.697   0.657
   21       -0.016  -0.041   0.735   0.678
   22       -0.017  -0.036   0.740   0.687
   23       -0.010  -0.028   0.695   0.657
   24       -0.012  -0.033   0.733   0.688
   25        0.008  -0.014   2.795   2.788
   26        0.004  -0.015   2.770   2.759
   27        0.008  -0.013   2.796   2.791
   28        0.001  -0.023   2.730   2.708
   29        0.006  -0.016   2.783   2.773
   30       -0.000  -0.022   2.735   2.713
   31        0.010  -0.011   2.820   2.820
   32        0.006  -0.015   2.758   2.749
--------------------------------------------------
tot         -0.275  -0.936  39.373  38.162
 

 total amount of memory used by VASP MPI-rank0    61183. kBytes
=======================================================================

   base      :      30000. kBytes
   nonlr-proj:       6013. kBytes
   fftplans  :       1483. kBytes
   grid      :       3780. kBytes
   one-center:         62. kBytes
   wavefun   :      19845. kBytes
 
  
  
 General timing and accounting informations for this job:
 ========================================================
  
                  Total CPU time used (sec):     1212.046
                            User time (sec):     1086.081
                          System time (sec):      125.965
                         Elapsed time (sec):     2457.711
  
                   Maximum memory used (kb):      113468.
                   Average memory used (kb):           0.
  
                          Minor page faults:        19859
                          Major page faults:            0
                 Voluntary context switches:        10023
