SQS-NiFe                                
           1
     7.090000    0.000000    0.000000
     0.000000    7.090000    0.000000
     0.000000    0.000000    7.090000
   Ni   Fe
  24   8
Direct configuration=     1
   0.00268401  0.00001323  0.50228576
   0.00204080  0.25221473  0.75331413
   0.00090908  0.24726326  0.24618888
   0.00122829  0.50038231  0.50183295
   0.00549522  0.75004132  0.75303326
   0.25343949  0.00154208  0.24665012
   0.25186146  0.24984122  0.50346160
   0.49819792  0.00109557  0.49848571
   0.49954767  0.24898667  0.75431867
   0.75291690  0.00192634  0.75268768
   0.00101151  0.49621122  0.99937787
   0.00012147  0.75407341  0.24750927
   0.25123975  0.49876276  0.24842890
   0.25247065  0.75034396  0.50036860
   0.49858459  0.00033496  0.00018485
   0.49754855  0.49861538  0.49772714
   0.49542081  0.74972722  0.75111431
   0.74596612  0.00109086  0.24661350
   0.74825687  0.24976503  0.49817378
   0.74634935  0.49830431  0.75385421
   0.25140260  0.75007011  0.99939799
   0.74716607  0.49889327  0.24702744
   0.74744458  0.75033463  0.49782745
   0.74873217  0.75024682  0.00050130
   0.24451683  0.00552280  0.75882759
   0.00428254  0.00823904  0.99600706
   0.25611835  0.49493528  0.75975808
   0.25487936  0.24919545  0.99424511
   0.49953731  0.25408403  0.23484169
   0.49461244  0.49644673  0.00565669
   0.49966675  0.74308530  0.24536905
   0.74635050  0.24841071  0.00492937
Direct configuration=     2
   0.00161694  0.00001501  0.50121895
  -0.00041143  0.25301397  0.75046843
   0.00111109  0.24807138  0.24815277
   0.00091619  0.50063508  0.50155400
   0.00285064  0.74967937  0.75185481
   0.25236538  0.00131590  0.24846638
   0.25141700  0.24993494  0.50131402
   0.49886865  0.00081175  0.49875235
   0.50135407  0.24849853  0.75092438
   0.75199963  0.00078274  0.75137655
   0.00028558  0.49821304  0.00037019
   0.00000972  0.75312513  0.24838293
   0.24828227  0.49874308  0.24984201
   0.25092499  0.75023949  0.50081537
   0.49986374 -0.00140601 -0.00081445
   0.49896559  0.49852948  0.49909998
   0.49764804  0.74961699  0.75055193
   0.74789433  0.00025054  0.24853616
   0.74850772  0.24997169  0.49808580
   0.74727643  0.49928000  0.75270832
   0.25004084  0.75008232  0.00080752
   0.74986911  0.49938725  0.24884029
   0.74847445  0.75016185  0.49907721
   0.74946267  0.74984107 -0.00071682
   0.24911726  0.00102235  0.75062093
   0.00047728  0.00237297  0.00029873
   0.25238480  0.49921079  0.75164782
   0.25034375  0.25042009  0.00061846
   0.49870460  0.24998018  0.24777848
   0.49960198  0.50072086 -0.00067251
   0.49971320  0.74797190  0.24977939
   0.75006344  0.24950626  0.00025964
Direct configuration=     3
   0.00087782  0.00001624  0.50048000
  -0.00211002  0.25356757  0.74849730
   0.00125102  0.24863114  0.24951309
   0.00070001  0.50081016  0.50136078
   0.00101883  0.74942866  0.75103853
   0.25162138  0.00115923  0.24972445
   0.25110914  0.24999987  0.49982646
   0.49933325  0.00061516  0.49893704
   0.50260531  0.24816042  0.74857326
   0.75136426 -0.00000939  0.75046837
  -0.00021725  0.49959964  0.00105754
  -0.00006768  0.75246829  0.24898808
   0.24623372  0.49872945  0.25082083
   0.24985436  0.75016713  0.50112483
   0.50074976 -0.00261192 -0.00150664
   0.49994714  0.49846997  0.50005090
   0.49919078  0.74954063  0.75016239
   0.74922995 -0.00033153  0.24986793
   0.74868148  0.25011484  0.49802486
   0.74791859  0.49995583  0.75191460
   0.24909760  0.75009077  0.00178386
   0.75174141  0.49972942  0.25009599
   0.74918780  0.75004217  0.49994288
   0.74996867  0.74956002 -0.00156057
   0.25230384 -0.00209497  0.74493642
  -0.00215850 -0.00169029  0.00327143
   0.24979868  0.50217230  0.74603009
   0.24720208  0.25126837  0.00503309
   0.49812782  0.24713757  0.25673940
   0.50305809  0.50368142 -0.00505655
   0.49974537  0.75135671  0.25283429
   0.75263528  0.25026511 -0.00297493
Direct configuration=     4
   0.00011856  0.00015120  0.50032350
  -0.00101364  0.25235038  0.74881638
  -0.00018356  0.24909145  0.25033463
   0.00000498  0.50053095  0.50065222
  -0.00018444  0.75029217  0.75071812
   0.25082558  0.00076640  0.25000710
   0.25030576  0.25005824  0.49990535
   0.50041637 -0.00058536  0.49949568
   0.50112161  0.24874790  0.74872348
   0.75124182 -0.00039612  0.74977304
   0.00010094  0.50052622  0.00066375
  -0.00027211  0.75126451  0.25008426
   0.24756365  0.49938895  0.25059951
   0.24910956  0.75002126  0.50079656
   0.50052553 -0.00104189 -0.00116086
   0.50065357  0.49938417  0.49998994
   0.50013829  0.74944022  0.74968037
   0.75003726 -0.00018543  0.25018344
   0.74936169  0.25024884  0.49850181
   0.74951818  0.50043521  0.75022454
   0.24934782  0.74970573  0.00186765
   0.75091274  0.49960836  0.24976101
   0.74995623  0.74981680  0.50037976
   0.74981026  0.74953471 -0.00106301
   0.25255461 -0.00212274  0.74463452
  -0.00228063 -0.00360520  0.00302831
   0.24815776  0.50267948  0.74416889
   0.24769649  0.25159149  0.00390845
   0.49956870  0.24754307  0.25829190
   0.50277133  0.50242420 -0.00456503
   0.49972281  0.75220580  0.25400649
   0.75239230  0.25012902 -0.00273176
Direct configuration=     5
  -0.00064386  0.00028671  0.50016636
   0.00008730  0.25112813  0.74913679
  -0.00162410  0.24955367  0.25115959
  -0.00069295  0.50025059  0.49994071
  -0.00139272  0.75115928  0.75039638
   0.25002647  0.00037194  0.25029093
   0.24949904  0.25011687  0.49998457
   0.50150399 -0.00179087  0.50005663
   0.49963175  0.24933782  0.74887432
   0.75111886 -0.00078445  0.74907481
   0.00042046  0.50145665  0.00026832
  -0.00047739  0.75005573  0.25118500
   0.24889910  0.50005120  0.25037727
   0.24836167  0.74987478  0.50046692
   0.50030036  0.00053466 -0.00081365
   0.50136294  0.50030217  0.49992873
   0.50108973  0.74933939  0.74919636
   0.75084793 -0.00003873  0.25050025
   0.75004473  0.25038339  0.49898074
   0.75112441  0.50091658  0.74852746
   0.24959909  0.74931909  0.00195179
   0.75008063  0.49948678  0.24942463
   0.75072785  0.74959049  0.50081845
   0.74965118  0.74950929 -0.00056338
   0.25280641 -0.00215063  0.74433137
  -0.00240327 -0.00552807  0.00278418
   0.24651003  0.50318875  0.74229997
   0.24819296  0.25191596  0.00277913
   0.50101556  0.24795026  0.25985085
   0.50248337  0.50116176 -0.00407146
   0.49970016  0.75305842  0.25518355
   0.75214830  0.24999236 -0.00248758
Direct configuration=     6
  -0.00070651  0.00042908  0.50013304
   0.00071356  0.25010160  0.75016398
  -0.00162924  0.25009598  0.25025519
  -0.00083495  0.49963607  0.49924439
  -0.00146109  0.75188868  0.75017426
   0.24952976  0.00104284  0.25014571
   0.24959193  0.24994041  0.49946422
   0.50172649 -0.00186594  0.50032733
   0.49897600  0.25029468  0.74863897
   0.75050560 -0.00016515  0.74955750
   0.00067470  0.50147460  0.00005964
  -0.00050264  0.74915684  0.25143660
   0.24998469  0.49969806  0.24998931
   0.24788181  0.75017600  0.50052457
   0.50001992  0.00157352 -0.00030029
   0.50154855  0.50082302  0.50017080
   0.50113683  0.74872957  0.74995799
   0.75124859 -0.00009865  0.25048319
   0.75009074  0.25040918  0.50007203
   0.75175343  0.50033527  0.74871220
   0.25051315  0.74908703  0.00151793
   0.74918529  0.49964112  0.24874001
   0.75116448  0.74946010  0.50038871
   0.74855879  0.74918486 -0.00000079
   0.25297039 -0.00258124  0.74451304
  -0.00185823 -0.00576655  0.00274389
   0.24591239  0.50383641  0.74188876
   0.24792488  0.25168774  0.00306838
   0.50103525  0.24760807  0.26034746
   0.50212065  0.50077284 -0.00433051
   0.49980411  0.75366603  0.25490422
   0.75242070  0.24972791 -0.00299172
Direct configuration=     7
  -0.00077208  0.00057807  0.50009817
   0.00136892  0.24902735  0.75123891
  -0.00163462  0.25066349  0.24930875
  -0.00098356  0.49899298  0.49851570
  -0.00153264  0.75265198  0.74994181
   0.24900996  0.00174494  0.24999374
   0.24968914  0.24975575  0.49891968
   0.50195934 -0.00194450  0.50061062
   0.49828977  0.25129602  0.74839268
   0.74986383  0.00048295  0.75006262
   0.00094076  0.50149340 -0.00015874
  -0.00052907  0.74821616  0.25169989
   0.25112075  0.49932851  0.24958331
   0.24737965  0.75049122  0.50058489
   0.49972643  0.00266066  0.00023692
   0.50174278  0.50136809  0.50042413
   0.50118612  0.74809142  0.75075502
   0.75166789 -0.00016136  0.25046533
   0.75013888  0.25043617  0.50121405
   0.75241168  0.49972693  0.74890553
   0.25146970  0.74884419  0.00106390
   0.74824833  0.49980262  0.24802357
   0.75162141  0.74932365  0.49993900
   0.74741561  0.74884534  0.00058794
   0.25314198 -0.00303187  0.74470317
  -0.00128785 -0.00601611  0.00270172
   0.24528697  0.50451417  0.74145844
   0.24764435  0.25144891  0.00337107
   0.50105584  0.24724997  0.26086714
   0.50174106  0.50036584 -0.00460160
   0.49991288  0.75430188  0.25461190
   0.75270577  0.24945117 -0.00351929
Direct configuration=     8
  -0.00074781  0.00106413  0.49999431
   0.00198447  0.24886339  0.75124757
  -0.00177338  0.25098147  0.24876528
  -0.00070701  0.49824742  0.49850243
  -0.00188069  0.75281902  0.75015618
   0.24878031  0.00173323  0.25007095
   0.24972513  0.24978074  0.49890999
   0.50170740 -0.00199617  0.50084593
   0.49778266  0.25182820  0.74815704
   0.74923602  0.00040043  0.75072485
   0.00104304  0.50175803 -0.00023620
  -0.00008482  0.74806721  0.25088621
   0.25151760  0.49918293  0.24965148
   0.24762285  0.75071310  0.50023564
   0.49956207  0.00316001  0.00033853
   0.50168298  0.50166246  0.50052541
   0.50142197  0.74800154  0.75086203
   0.75200714  0.00005735  0.25043651
   0.75007652  0.25049656  0.50119609
   0.75267027  0.49957310  0.74964241
   0.25164939  0.74897836  0.00123966
   0.74770914  0.49930984  0.24783189
   0.75145441  0.74928065  0.49998449
   0.74732403  0.74898803  0.00045107
   0.25375534 -0.00321225  0.74470151
  -0.00124927 -0.00668641  0.00308179
   0.24485578  0.50453578  0.74147935
   0.24747241  0.25137350  0.00348506
   0.50138533  0.24685923  0.26095971
   0.50159648  0.49997484 -0.00491406
   0.49954024  0.75483547  0.25435584
   0.75288002  0.24936883 -0.00356896
