 vasp.5.4.4.18Apr17-6-g9f103f2a35 (build Sep 06 2021 19:49:22) complex          
  
 executed on             LinuxIFC date 2021.12.23  22:46:34
 running on    1 total cores
 distrk:  each k-point on    1 cores,    1 groups
 distr:  one band on NCORES_PER_BAND=   1 cores,    1 groups


--------------------------------------------------------------------------------------------------------


 INCAR:
 POTCAR:    PAW_PBE Fe 06Sep2000                  
 POTCAR:    PAW_PBE Fe 06Sep2000                  
   VRHFIN =Fe:  d7 s1                                                           
   LEXCH  = PE                                                                  
   EATOM  =   594.3153 eV,   43.6809 Ry                                         
                                                                                
   TITEL  = PAW_PBE Fe 06Sep2000                                                
   LULTRA =        F    use ultrasoft PP ?                                      
   IUNSCR =        1    unscreen: 0-lin 1-nonlin 2-no                           
   RPACOR =    2.000    partial core radius                                     
   POMASS =   55.847; ZVAL   =    8.000    mass and valenz                      
   RCORE  =    2.300    outmost cutoff radius                                   
   RWIGS  =    2.460; RWIGS  =    1.302    wigner-seitz radius (au A)           
   ENMAX  =  267.882; ENMIN  =  200.911 eV                                      
   RCLOC  =    1.701    cutoff for local pot                                    
   LCOR   =        T    correct aug charges                                     
   LPAW   =        T    paw PP                                                  
   EAUG   =  511.368                                                            
   DEXC   =    0.000                                                            
   RMAX   =    2.356    core radius for proj-oper                               
   RAUG   =    1.300    factor for augmentation sphere                          
   RDEP   =    2.442    radius for radial grids                                 
   RDEPT  =    1.890    core radius for aug-charge                              
                                                                                
   Atomic configuration                                                         
    9 entries                                                                   
     n  l   j            E        occ.                                          
     1  0  0.50     -6993.8440   2.0000                                         
     2  0  0.50      -814.6047   2.0000                                         
     2  1  1.50      -693.3689   6.0000                                         
     3  0  0.50       -89.4732   2.0000                                         
     3  1  1.50       -55.6373   6.0000                                         
     3  2  2.50        -3.8151   7.0000                                         
     4  0  0.50        -4.2551   1.0000                                         
     4  1  1.50        -3.4015   0.0000                                         
     4  3  2.50        -1.3606   0.0000                                         
   Description                                                                  
     l       E           TYP  RCUT    TYP  RCUT                                 
     2     -3.8151135     23  2.300                                             
     2     -5.1756961     23  2.300                                             
     0     -4.2550963     23  2.300                                             
     0      7.2035603     23  2.300                                             
     1     -2.7211652     23  2.300                                             
     1     18.4316424     23  2.300                                             
  local pseudopotential read in
  partial core-charges read in
  partial kinetic energy density read in
  atomic valenz-charges read in
  non local Contribution for L=           2  read in
    real space projection operators read in
  non local Contribution for L=           2  read in
    real space projection operators read in
  non local Contribution for L=           0  read in
    real space projection operators read in
  non local Contribution for L=           0  read in
    real space projection operators read in
  non local Contribution for L=           1  read in
    real space projection operators read in
  non local Contribution for L=           1  read in
    real space projection operators read in
    PAW grid and wavefunctions read in
 
   number of l-projection  operators is LMAX  =           6
   number of lm-projection operators is LMMAX =          18
 

 ----------------------------------------------------------------------------- 
|                                                                             |
|  ADVICE TO THIS USER RUNNING 'VASP/VAMP'   (HEAR YOUR MASTER'S VOICE ...):  |
|                                                                             |
|      You have a (more or less) 'small supercell' and for smaller cells      |
|      it is recommended  to use the reciprocal-space projection scheme!      |
|      The real space optimization is not  efficient for small cells and it   |
|      is also less accurate ...                                              |
|      Therefore set LREAL=.FALSE. in the  INCAR file                         |
|                                                                             |
 ----------------------------------------------------------------------------- 

 Optimization of the real space projectors (new method)

 maximal supplied QI-value         = 16.25
 optimisation between [QCUT,QGAM] = [ 11.54, 23.24] = [ 37.28,151.24] Ry 
 Optimized for a Real-space Cutoff    1.53 Angstroem

   l    n(q)    QCUT    max X(q) W(low)/X(q) W(high)/X(q)  e(spline) 
   2     10    11.539    80.901    0.11E-03    0.14E-03    0.21E-06
   2     10    11.539    75.754    0.11E-03    0.14E-03    0.22E-06
   0     11    11.539    58.752    0.52E-04    0.18E-04    0.33E-06
   0     11    11.539    30.679    0.44E-04    0.16E-04    0.30E-06
   1     10    11.539    17.977    0.53E-04    0.29E-04    0.13E-06
   1     10    11.539    13.559    0.44E-04    0.25E-04    0.11E-06
  PAW_PBE Fe 06Sep2000                  :
 energy of atom  1       EATOM= -594.3153
 kinetic energy error for atom=    0.0026 (will be added to EATOM!!)
 
 
 POSCAR: Fe-Iron-gamma-primitive                 
  positions in direct lattice
  No initial velocities read in
 exchange correlation table for  LEXCH =        8
   RHO(1)=    0.500       N(1)  =     2000
   RHO(2)=  100.500       N(2)  =     4000
 


--------------------------------------------------------------------------------------------------------


 ion  position               nearest neighbor table
   1  0.000  0.000  0.000-
 

IMPORTANT INFORMATION: All symmetrisations will be switched off!
NOSYMM: (Re-)initialisation of all symmetry stuff for point group C_1.

 
 

Automatic generation of k-mesh.
 generate k-points for:   16   16   16
Space group operators:
 irot       det(A)        alpha          n_x          n_y          n_z        tau_x        tau_y        tau_z
    1     1.000000     0.000000     1.000000     0.000000     0.000000     0.000000     0.000000     0.000000
 
 Subroutine IBZKPT returns following result:
 ===========================================
 
 Found   2052 irreducible k-points:
 
 Following reciprocal coordinates:
            Coordinates               Weight
  0.000000  0.000000  0.000000      1.000000
  0.062500  0.000000  0.000000      2.000000
  0.125000  0.000000  0.000000      2.000000
  0.187500  0.000000  0.000000      2.000000
  0.250000  0.000000  0.000000      2.000000
  0.312500  0.000000  0.000000      2.000000
  0.375000  0.000000  0.000000      2.000000
  0.437500  0.000000  0.000000      2.000000
  0.500000  0.000000  0.000000      1.000000
  0.000000  0.062500  0.000000      2.000000
  0.062500  0.062500  0.000000      2.000000
  0.125000  0.062500  0.000000      2.000000
  0.187500  0.062500  0.000000      2.000000
  0.250000  0.062500  0.000000      2.000000
  0.312500  0.062500  0.000000      2.000000
  0.375000  0.062500  0.000000      2.000000
  0.437500  0.062500  0.000000      2.000000
  0.500000  0.062500  0.000000      2.000000
 -0.437500  0.062500  0.000000      2.000000
 -0.375000  0.062500  0.000000      2.000000
 -0.312500  0.062500  0.000000      2.000000
 -0.250000  0.062500  0.000000      2.000000
 -0.187500  0.062500  0.000000      2.000000
 -0.125000  0.062500  0.000000      2.000000
 -0.062500  0.062500  0.000000      2.000000
  0.000000  0.125000  0.000000      2.000000
  0.062500  0.125000  0.000000      2.000000
  0.125000  0.125000  0.000000      2.000000
  0.187500  0.125000  0.000000      2.000000
  0.250000  0.125000  0.000000      2.000000
  0.312500  0.125000  0.000000      2.000000
  0.375000  0.125000  0.000000      2.000000
  0.437500  0.125000  0.000000      2.000000
  0.500000  0.125000  0.000000      2.000000
 -0.437500  0.125000  0.000000      2.000000
 -0.375000  0.125000  0.000000      2.000000
 -0.312500  0.125000  0.000000      2.000000
 -0.250000  0.125000  0.000000      2.000000
 -0.187500  0.125000  0.000000      2.000000
 -0.125000  0.125000  0.000000      2.000000
 -0.062500  0.125000  0.000000      2.000000
  0.000000  0.187500  0.000000      2.000000
  0.062500  0.187500  0.000000      2.000000
  0.125000  0.187500  0.000000      2.000000
  0.187500  0.187500  0.000000      2.000000
  0.250000  0.187500  0.000000      2.000000
  0.312500  0.187500  0.000000      2.000000
  0.375000  0.187500  0.000000      2.000000
  0.437500  0.187500  0.000000      2.000000
  0.500000  0.187500  0.000000      2.000000
 -0.437500  0.187500  0.000000      2.000000
 -0.375000  0.187500  0.000000      2.000000
 -0.312500  0.187500  0.000000      2.000000
 -0.250000  0.187500  0.000000      2.000000
 -0.187500  0.187500  0.000000      2.000000
 -0.125000  0.187500  0.000000      2.000000
 -0.062500  0.187500  0.000000      2.000000
  0.000000  0.250000  0.000000      2.000000
  0.062500  0.250000  0.000000      2.000000
  0.125000  0.250000  0.000000      2.000000
  0.187500  0.250000  0.000000      2.000000
  0.250000  0.250000  0.000000      2.000000
  0.312500  0.250000  0.000000      2.000000
  0.375000  0.250000  0.000000      2.000000
  0.437500  0.250000  0.000000      2.000000
  0.500000  0.250000  0.000000      2.000000
 -0.437500  0.250000  0.000000      2.000000
 -0.375000  0.250000  0.000000      2.000000
 -0.312500  0.250000  0.000000      2.000000
 -0.250000  0.250000  0.000000      2.000000
 -0.187500  0.250000  0.000000      2.000000
 -0.125000  0.250000  0.000000      2.000000
 -0.062500  0.250000  0.000000      2.000000
  0.000000  0.312500  0.000000      2.000000
  0.062500  0.312500  0.000000      2.000000
  0.125000  0.312500  0.000000      2.000000
  0.187500  0.312500  0.000000      2.000000
  0.250000  0.312500  0.000000      2.000000
  0.312500  0.312500  0.000000      2.000000
  0.375000  0.312500  0.000000      2.000000
  0.437500  0.312500  0.000000      2.000000
  0.500000  0.312500  0.000000      2.000000
 -0.437500  0.312500  0.000000      2.000000
 -0.375000  0.312500  0.000000      2.000000
 -0.312500  0.312500  0.000000      2.000000
 -0.250000  0.312500  0.000000      2.000000
 -0.187500  0.312500  0.000000      2.000000
 -0.125000  0.312500  0.000000      2.000000
 -0.062500  0.312500  0.000000      2.000000
  0.000000  0.375000  0.000000      2.000000
  0.062500  0.375000  0.000000      2.000000
  0.125000  0.375000  0.000000      2.000000
  0.187500  0.375000  0.000000      2.000000
  0.250000  0.375000  0.000000      2.000000
  0.312500  0.375000  0.000000      2.000000
  0.375000  0.375000  0.000000      2.000000
  0.437500  0.375000  0.000000      2.000000
  0.500000  0.375000  0.000000      2.000000
 -0.437500  0.375000  0.000000      2.000000
 -0.375000  0.375000  0.000000      2.000000
 -0.312500  0.375000  0.000000      2.000000
 -0.250000  0.375000  0.000000      2.000000
 -0.187500  0.375000  0.000000      2.000000
 -0.125000  0.375000  0.000000      2.000000
 -0.062500  0.375000  0.000000      2.000000
  0.000000  0.437500  0.000000      2.000000
  0.062500  0.437500  0.000000      2.000000
  0.125000  0.437500  0.000000      2.000000
  0.187500  0.437500  0.000000      2.000000
  0.250000  0.437500  0.000000      2.000000
  0.312500  0.437500  0.000000      2.000000
  0.375000  0.437500  0.000000      2.000000
  0.437500  0.437500  0.000000      2.000000
  0.500000  0.437500  0.000000      2.000000
 -0.437500  0.437500  0.000000      2.000000
 -0.375000  0.437500  0.000000      2.000000
 -0.312500  0.437500  0.000000      2.000000
 -0.250000  0.437500  0.000000      2.000000
 -0.187500  0.437500  0.000000      2.000000
 -0.125000  0.437500  0.000000      2.000000
 -0.062500  0.437500  0.000000      2.000000
  0.000000  0.500000  0.000000      1.000000
  0.062500  0.500000  0.000000      2.000000
  0.125000  0.500000  0.000000      2.000000
  0.187500  0.500000  0.000000      2.000000
  0.250000  0.500000  0.000000      2.000000
  0.312500  0.500000  0.000000      2.000000
  0.375000  0.500000  0.000000      2.000000
  0.437500  0.500000  0.000000      2.000000
  0.500000  0.500000  0.000000      1.000000
  0.000000  0.000000  0.062500      2.000000
  0.062500  0.000000  0.062500      2.000000
  0.125000  0.000000  0.062500      2.000000
  0.187500  0.000000  0.062500      2.000000
  0.250000  0.000000  0.062500      2.000000
  0.312500  0.000000  0.062500      2.000000
  0.375000  0.000000  0.062500      2.000000
  0.437500  0.000000  0.062500      2.000000
  0.500000  0.000000  0.062500      2.000000
 -0.437500  0.000000  0.062500      2.000000
 -0.375000  0.000000  0.062500      2.000000
 -0.312500  0.000000  0.062500      2.000000
 -0.250000  0.000000  0.062500      2.000000
 -0.187500  0.000000  0.062500      2.000000
 -0.125000  0.000000  0.062500      2.000000
 -0.062500  0.000000  0.062500      2.000000
  0.000000  0.062500  0.062500      2.000000
  0.062500  0.062500  0.062500      2.000000
  0.125000  0.062500  0.062500      2.000000
  0.187500  0.062500  0.062500      2.000000
  0.250000  0.062500  0.062500      2.000000
  0.312500  0.062500  0.062500      2.000000
  0.375000  0.062500  0.062500      2.000000
  0.437500  0.062500  0.062500      2.000000
  0.500000  0.062500  0.062500      2.000000
 -0.437500  0.062500  0.062500      2.000000
 -0.375000  0.062500  0.062500      2.000000
 -0.312500  0.062500  0.062500      2.000000
 -0.250000  0.062500  0.062500      2.000000
 -0.187500  0.062500  0.062500      2.000000
 -0.125000  0.062500  0.062500      2.000000
 -0.062500  0.062500  0.062500      2.000000
  0.000000  0.125000  0.062500      2.000000
  0.062500  0.125000  0.062500      2.000000
  0.125000  0.125000  0.062500      2.000000
  0.187500  0.125000  0.062500      2.000000
  0.250000  0.125000  0.062500      2.000000
  0.312500  0.125000  0.062500      2.000000
  0.375000  0.125000  0.062500      2.000000
  0.437500  0.125000  0.062500      2.000000
  0.500000  0.125000  0.062500      2.000000
 -0.437500  0.125000  0.062500      2.000000
 -0.375000  0.125000  0.062500      2.000000
 -0.312500  0.125000  0.062500      2.000000
 -0.250000  0.125000  0.062500      2.000000
 -0.187500  0.125000  0.062500      2.000000
 -0.125000  0.125000  0.062500      2.000000
 -0.062500  0.125000  0.062500      2.000000
  0.000000  0.187500  0.062500      2.000000
  0.062500  0.187500  0.062500      2.000000
  0.125000  0.187500  0.062500      2.000000
  0.187500  0.187500  0.062500      2.000000
  0.250000  0.187500  0.062500      2.000000
  0.312500  0.187500  0.062500      2.000000
  0.375000  0.187500  0.062500      2.000000
  0.437500  0.187500  0.062500      2.000000
  0.500000  0.187500  0.062500      2.000000
 -0.437500  0.187500  0.062500      2.000000
 -0.375000  0.187500  0.062500      2.000000
 -0.312500  0.187500  0.062500      2.000000
 -0.250000  0.187500  0.062500      2.000000
 -0.187500  0.187500  0.062500      2.000000
 -0.125000  0.187500  0.062500      2.000000
 -0.062500  0.187500  0.062500      2.000000
  0.000000  0.250000  0.062500      2.000000
  0.062500  0.250000  0.062500      2.000000
  0.125000  0.250000  0.062500      2.000000
  0.187500  0.250000  0.062500      2.000000
  0.250000  0.250000  0.062500      2.000000
  0.312500  0.250000  0.062500      2.000000
  0.375000  0.250000  0.062500      2.000000
  0.437500  0.250000  0.062500      2.000000
  0.500000  0.250000  0.062500      2.000000
 -0.437500  0.250000  0.062500      2.000000
 -0.375000  0.250000  0.062500      2.000000
 -0.312500  0.250000  0.062500      2.000000
 -0.250000  0.250000  0.062500      2.000000
 -0.187500  0.250000  0.062500      2.000000
 -0.125000  0.250000  0.062500      2.000000
 -0.062500  0.250000  0.062500      2.000000
  0.000000  0.312500  0.062500      2.000000
  0.062500  0.312500  0.062500      2.000000
  0.125000  0.312500  0.062500      2.000000
  0.187500  0.312500  0.062500      2.000000
  0.250000  0.312500  0.062500      2.000000
  0.312500  0.312500  0.062500      2.000000
  0.375000  0.312500  0.062500      2.000000
  0.437500  0.312500  0.062500      2.000000
  0.500000  0.312500  0.062500      2.000000
 -0.437500  0.312500  0.062500      2.000000
 -0.375000  0.312500  0.062500      2.000000
 -0.312500  0.312500  0.062500      2.000000
 -0.250000  0.312500  0.062500      2.000000
 -0.187500  0.312500  0.062500      2.000000
 -0.125000  0.312500  0.062500      2.000000
 -0.062500  0.312500  0.062500      2.000000
  0.000000  0.375000  0.062500      2.000000
  0.062500  0.375000  0.062500      2.000000
  0.125000  0.375000  0.062500      2.000000
  0.187500  0.375000  0.062500      2.000000
  0.250000  0.375000  0.062500      2.000000
  0.312500  0.375000  0.062500      2.000000
  0.375000  0.375000  0.062500      2.000000
  0.437500  0.375000  0.062500      2.000000
  0.500000  0.375000  0.062500      2.000000
 -0.437500  0.375000  0.062500      2.000000
 -0.375000  0.375000  0.062500      2.000000
 -0.312500  0.375000  0.062500      2.000000
 -0.250000  0.375000  0.062500      2.000000
 -0.187500  0.375000  0.062500      2.000000
 -0.125000  0.375000  0.062500      2.000000
 -0.062500  0.375000  0.062500      2.000000
  0.000000  0.437500  0.062500      2.000000
  0.062500  0.437500  0.062500      2.000000
  0.125000  0.437500  0.062500      2.000000
  0.187500  0.437500  0.062500      2.000000
  0.250000  0.437500  0.062500      2.000000
  0.312500  0.437500  0.062500      2.000000
  0.375000  0.437500  0.062500      2.000000
  0.437500  0.437500  0.062500      2.000000
  0.500000  0.437500  0.062500      2.000000
 -0.437500  0.437500  0.062500      2.000000
 -0.375000  0.437500  0.062500      2.000000
 -0.312500  0.437500  0.062500      2.000000
 -0.250000  0.437500  0.062500      2.000000
 -0.187500  0.437500  0.062500      2.000000
 -0.125000  0.437500  0.062500      2.000000
 -0.062500  0.437500  0.062500      2.000000
  0.000000  0.500000  0.062500      2.000000
  0.062500  0.500000  0.062500      2.000000
  0.125000  0.500000  0.062500      2.000000
  0.187500  0.500000  0.062500      2.000000
  0.250000  0.500000  0.062500      2.000000
  0.312500  0.500000  0.062500      2.000000
  0.375000  0.500000  0.062500      2.000000
  0.437500  0.500000  0.062500      2.000000
  0.500000  0.500000  0.062500      2.000000
 -0.437500  0.500000  0.062500      2.000000
 -0.375000  0.500000  0.062500      2.000000
 -0.312500  0.500000  0.062500      2.000000
 -0.250000  0.500000  0.062500      2.000000
 -0.187500  0.500000  0.062500      2.000000
 -0.125000  0.500000  0.062500      2.000000
 -0.062500  0.500000  0.062500      2.000000
  0.000000 -0.437500  0.062500      2.000000
  0.062500 -0.437500  0.062500      2.000000
  0.125000 -0.437500  0.062500      2.000000
  0.187500 -0.437500  0.062500      2.000000
  0.250000 -0.437500  0.062500      2.000000
  0.312500 -0.437500  0.062500      2.000000
  0.375000 -0.437500  0.062500      2.000000
  0.437500 -0.437500  0.062500      2.000000
  0.500000 -0.437500  0.062500      2.000000
 -0.437500 -0.437500  0.062500      2.000000
 -0.375000 -0.437500  0.062500      2.000000
 -0.312500 -0.437500  0.062500      2.000000
 -0.250000 -0.437500  0.062500      2.000000
 -0.187500 -0.437500  0.062500      2.000000
 -0.125000 -0.437500  0.062500      2.000000
 -0.062500 -0.437500  0.062500      2.000000
  0.000000 -0.375000  0.062500      2.000000
  0.062500 -0.375000  0.062500      2.000000
  0.125000 -0.375000  0.062500      2.000000
  0.187500 -0.375000  0.062500      2.000000
  0.250000 -0.375000  0.062500      2.000000
  0.312500 -0.375000  0.062500      2.000000
  0.375000 -0.375000  0.062500      2.000000
  0.437500 -0.375000  0.062500      2.000000
  0.500000 -0.375000  0.062500      2.000000
 -0.437500 -0.375000  0.062500      2.000000
 -0.375000 -0.375000  0.062500      2.000000
 -0.312500 -0.375000  0.062500      2.000000
 -0.250000 -0.375000  0.062500      2.000000
 -0.187500 -0.375000  0.062500      2.000000
 -0.125000 -0.375000  0.062500      2.000000
 -0.062500 -0.375000  0.062500      2.000000
  0.000000 -0.312500  0.062500      2.000000
  0.062500 -0.312500  0.062500      2.000000
  0.125000 -0.312500  0.062500      2.000000
  0.187500 -0.312500  0.062500      2.000000
  0.250000 -0.312500  0.062500      2.000000
  0.312500 -0.312500  0.062500      2.000000
  0.375000 -0.312500  0.062500      2.000000
  0.437500 -0.312500  0.062500      2.000000
  0.500000 -0.312500  0.062500      2.000000
 -0.437500 -0.312500  0.062500      2.000000
 -0.375000 -0.312500  0.062500      2.000000
 -0.312500 -0.312500  0.062500      2.000000
 -0.250000 -0.312500  0.062500      2.000000
 -0.187500 -0.312500  0.062500      2.000000
 -0.125000 -0.312500  0.062500      2.000000
 -0.062500 -0.312500  0.062500      2.000000
  0.000000 -0.250000  0.062500      2.000000
  0.062500 -0.250000  0.062500      2.000000
  0.125000 -0.250000  0.062500      2.000000
  0.187500 -0.250000  0.062500      2.000000
  0.250000 -0.250000  0.062500      2.000000
  0.312500 -0.250000  0.062500      2.000000
  0.375000 -0.250000  0.062500      2.000000
  0.437500 -0.250000  0.062500      2.000000
  0.500000 -0.250000  0.062500      2.000000
 -0.437500 -0.250000  0.062500      2.000000
 -0.375000 -0.250000  0.062500      2.000000
 -0.312500 -0.250000  0.062500      2.000000
 -0.250000 -0.250000  0.062500      2.000000
 -0.187500 -0.250000  0.062500      2.000000
 -0.125000 -0.250000  0.062500      2.000000
 -0.062500 -0.250000  0.062500      2.000000
  0.000000 -0.187500  0.062500      2.000000
  0.062500 -0.187500  0.062500      2.000000
  0.125000 -0.187500  0.062500      2.000000
  0.187500 -0.187500  0.062500      2.000000
  0.250000 -0.187500  0.062500      2.000000
  0.312500 -0.187500  0.062500      2.000000
  0.375000 -0.187500  0.062500      2.000000
  0.437500 -0.187500  0.062500      2.000000
  0.500000 -0.187500  0.062500      2.000000
 -0.437500 -0.187500  0.062500      2.000000
 -0.375000 -0.187500  0.062500      2.000000
 -0.312500 -0.187500  0.062500      2.000000
 -0.250000 -0.187500  0.062500      2.000000
 -0.187500 -0.187500  0.062500      2.000000
 -0.125000 -0.187500  0.062500      2.000000
 -0.062500 -0.187500  0.062500      2.000000
  0.000000 -0.125000  0.062500      2.000000
  0.062500 -0.125000  0.062500      2.000000
  0.125000 -0.125000  0.062500      2.000000
  0.187500 -0.125000  0.062500      2.000000
  0.250000 -0.125000  0.062500      2.000000
  0.312500 -0.125000  0.062500      2.000000
  0.375000 -0.125000  0.062500      2.000000
  0.437500 -0.125000  0.062500      2.000000
  0.500000 -0.125000  0.062500      2.000000
 -0.437500 -0.125000  0.062500      2.000000
 -0.375000 -0.125000  0.062500      2.000000
 -0.312500 -0.125000  0.062500      2.000000
 -0.250000 -0.125000  0.062500      2.000000
 -0.187500 -0.125000  0.062500      2.000000
 -0.125000 -0.125000  0.062500      2.000000
 -0.062500 -0.125000  0.062500      2.000000
  0.000000 -0.062500  0.062500      2.000000
  0.062500 -0.062500  0.062500      2.000000
  0.125000 -0.062500  0.062500      2.000000
  0.187500 -0.062500  0.062500      2.000000
  0.250000 -0.062500  0.062500      2.000000
  0.312500 -0.062500  0.062500      2.000000
  0.375000 -0.062500  0.062500      2.000000
  0.437500 -0.062500  0.062500      2.000000
  0.500000 -0.062500  0.062500      2.000000
 -0.437500 -0.062500  0.062500      2.000000
 -0.375000 -0.062500  0.062500      2.000000
 -0.312500 -0.062500  0.062500      2.000000
 -0.250000 -0.062500  0.062500      2.000000
 -0.187500 -0.062500  0.062500      2.000000
 -0.125000 -0.062500  0.062500      2.000000
 -0.062500 -0.062500  0.062500      2.000000
  0.000000  0.000000  0.125000      2.000000
  0.062500  0.000000  0.125000      2.000000
  0.125000  0.000000  0.125000      2.000000
  0.187500  0.000000  0.125000      2.000000
  0.250000  0.000000  0.125000      2.000000
  0.312500  0.000000  0.125000      2.000000
  0.375000  0.000000  0.125000      2.000000
  0.437500  0.000000  0.125000      2.000000
  0.500000  0.000000  0.125000      2.000000
 -0.437500  0.000000  0.125000      2.000000
 -0.375000  0.000000  0.125000      2.000000
 -0.312500  0.000000  0.125000      2.000000
 -0.250000  0.000000  0.125000      2.000000
 -0.187500  0.000000  0.125000      2.000000
 -0.125000  0.000000  0.125000      2.000000
 -0.062500  0.000000  0.125000      2.000000
  0.000000  0.062500  0.125000      2.000000
  0.062500  0.062500  0.125000      2.000000
  0.125000  0.062500  0.125000      2.000000
  0.187500  0.062500  0.125000      2.000000
  0.250000  0.062500  0.125000      2.000000
  0.312500  0.062500  0.125000      2.000000
  0.375000  0.062500  0.125000      2.000000
  0.437500  0.062500  0.125000      2.000000
  0.500000  0.062500  0.125000      2.000000
 -0.437500  0.062500  0.125000      2.000000
 -0.375000  0.062500  0.125000      2.000000
 -0.312500  0.062500  0.125000      2.000000
 -0.250000  0.062500  0.125000      2.000000
 -0.187500  0.062500  0.125000      2.000000
 -0.125000  0.062500  0.125000      2.000000
 -0.062500  0.062500  0.125000      2.000000
  0.000000  0.125000  0.125000      2.000000
  0.062500  0.125000  0.125000      2.000000
  0.125000  0.125000  0.125000      2.000000
  0.187500  0.125000  0.125000      2.000000
  0.250000  0.125000  0.125000      2.000000
  0.312500  0.125000  0.125000      2.000000
  0.375000  0.125000  0.125000      2.000000
  0.437500  0.125000  0.125000      2.000000
  0.500000  0.125000  0.125000      2.000000
 -0.437500  0.125000  0.125000      2.000000
 -0.375000  0.125000  0.125000      2.000000
 -0.312500  0.125000  0.125000      2.000000
 -0.250000  0.125000  0.125000      2.000000
 -0.187500  0.125000  0.125000      2.000000
 -0.125000  0.125000  0.125000      2.000000
 -0.062500  0.125000  0.125000      2.000000
  0.000000  0.187500  0.125000      2.000000
  0.062500  0.187500  0.125000      2.000000
  0.125000  0.187500  0.125000      2.000000
  0.187500  0.187500  0.125000      2.000000
  0.250000  0.187500  0.125000      2.000000
  0.312500  0.187500  0.125000      2.000000
  0.375000  0.187500  0.125000      2.000000
  0.437500  0.187500  0.125000      2.000000
  0.500000  0.187500  0.125000      2.000000
 -0.437500  0.187500  0.125000      2.000000
 -0.375000  0.187500  0.125000      2.000000
 -0.312500  0.187500  0.125000      2.000000
 -0.250000  0.187500  0.125000      2.000000
 -0.187500  0.187500  0.125000      2.000000
 -0.125000  0.187500  0.125000      2.000000
 -0.062500  0.187500  0.125000      2.000000
  0.000000  0.250000  0.125000      2.000000
  0.062500  0.250000  0.125000      2.000000
  0.125000  0.250000  0.125000      2.000000
  0.187500  0.250000  0.125000      2.000000
  0.250000  0.250000  0.125000      2.000000
  0.312500  0.250000  0.125000      2.000000
  0.375000  0.250000  0.125000      2.000000
  0.437500  0.250000  0.125000      2.000000
  0.500000  0.250000  0.125000      2.000000
 -0.437500  0.250000  0.125000      2.000000
 -0.375000  0.250000  0.125000      2.000000
 -0.312500  0.250000  0.125000      2.000000
 -0.250000  0.250000  0.125000      2.000000
 -0.187500  0.250000  0.125000      2.000000
 -0.125000  0.250000  0.125000      2.000000
 -0.062500  0.250000  0.125000      2.000000
  0.000000  0.312500  0.125000      2.000000
  0.062500  0.312500  0.125000      2.000000
  0.125000  0.312500  0.125000      2.000000
  0.187500  0.312500  0.125000      2.000000
  0.250000  0.312500  0.125000      2.000000
  0.312500  0.312500  0.125000      2.000000
  0.375000  0.312500  0.125000      2.000000
  0.437500  0.312500  0.125000      2.000000
  0.500000  0.312500  0.125000      2.000000
 -0.437500  0.312500  0.125000      2.000000
 -0.375000  0.312500  0.125000      2.000000
 -0.312500  0.312500  0.125000      2.000000
 -0.250000  0.312500  0.125000      2.000000
 -0.187500  0.312500  0.125000      2.000000
 -0.125000  0.312500  0.125000      2.000000
 -0.062500  0.312500  0.125000      2.000000
  0.000000  0.375000  0.125000      2.000000
  0.062500  0.375000  0.125000      2.000000
  0.125000  0.375000  0.125000      2.000000
  0.187500  0.375000  0.125000      2.000000
  0.250000  0.375000  0.125000      2.000000
  0.312500  0.375000  0.125000      2.000000
  0.375000  0.375000  0.125000      2.000000
  0.437500  0.375000  0.125000      2.000000
  0.500000  0.375000  0.125000      2.000000
 -0.437500  0.375000  0.125000      2.000000
 -0.375000  0.375000  0.125000      2.000000
 -0.312500  0.375000  0.125000      2.000000
 -0.250000  0.375000  0.125000      2.000000
 -0.187500  0.375000  0.125000      2.000000
 -0.125000  0.375000  0.125000      2.000000
 -0.062500  0.375000  0.125000      2.000000
  0.000000  0.437500  0.125000      2.000000
  0.062500  0.437500  0.125000      2.000000
  0.125000  0.437500  0.125000      2.000000
  0.187500  0.437500  0.125000      2.000000
  0.250000  0.437500  0.125000      2.000000
  0.312500  0.437500  0.125000      2.000000
  0.375000  0.437500  0.125000      2.000000
  0.437500  0.437500  0.125000      2.000000
  0.500000  0.437500  0.125000      2.000000
 -0.437500  0.437500  0.125000      2.000000
 -0.375000  0.437500  0.125000      2.000000
 -0.312500  0.437500  0.125000      2.000000
 -0.250000  0.437500  0.125000      2.000000
 -0.187500  0.437500  0.125000      2.000000
 -0.125000  0.437500  0.125000      2.000000
 -0.062500  0.437500  0.125000      2.000000
  0.000000  0.500000  0.125000      2.000000
  0.062500  0.500000  0.125000      2.000000
  0.125000  0.500000  0.125000      2.000000
  0.187500  0.500000  0.125000      2.000000
  0.250000  0.500000  0.125000      2.000000
  0.312500  0.500000  0.125000      2.000000
  0.375000  0.500000  0.125000      2.000000
  0.437500  0.500000  0.125000      2.000000
  0.500000  0.500000  0.125000      2.000000
 -0.437500  0.500000  0.125000      2.000000
 -0.375000  0.500000  0.125000      2.000000
 -0.312500  0.500000  0.125000      2.000000
 -0.250000  0.500000  0.125000      2.000000
 -0.187500  0.500000  0.125000      2.000000
 -0.125000  0.500000  0.125000      2.000000
 -0.062500  0.500000  0.125000      2.000000
  0.000000 -0.437500  0.125000      2.000000
  0.062500 -0.437500  0.125000      2.000000
  0.125000 -0.437500  0.125000      2.000000
  0.187500 -0.437500  0.125000      2.000000
  0.250000 -0.437500  0.125000      2.000000
  0.312500 -0.437500  0.125000      2.000000
  0.375000 -0.437500  0.125000      2.000000
  0.437500 -0.437500  0.125000      2.000000
  0.500000 -0.437500  0.125000      2.000000
 -0.437500 -0.437500  0.125000      2.000000
 -0.375000 -0.437500  0.125000      2.000000
 -0.312500 -0.437500  0.125000      2.000000
 -0.250000 -0.437500  0.125000      2.000000
 -0.187500 -0.437500  0.125000      2.000000
 -0.125000 -0.437500  0.125000      2.000000
 -0.062500 -0.437500  0.125000      2.000000
  0.000000 -0.375000  0.125000      2.000000
  0.062500 -0.375000  0.125000      2.000000
  0.125000 -0.375000  0.125000      2.000000
  0.187500 -0.375000  0.125000      2.000000
  0.250000 -0.375000  0.125000      2.000000
  0.312500 -0.375000  0.125000      2.000000
  0.375000 -0.375000  0.125000      2.000000
  0.437500 -0.375000  0.125000      2.000000
  0.500000 -0.375000  0.125000      2.000000
 -0.437500 -0.375000  0.125000      2.000000
 -0.375000 -0.375000  0.125000      2.000000
 -0.312500 -0.375000  0.125000      2.000000
 -0.250000 -0.375000  0.125000      2.000000
 -0.187500 -0.375000  0.125000      2.000000
 -0.125000 -0.375000  0.125000      2.000000
 -0.062500 -0.375000  0.125000      2.000000
  0.000000 -0.312500  0.125000      2.000000
  0.062500 -0.312500  0.125000      2.000000
  0.125000 -0.312500  0.125000      2.000000
  0.187500 -0.312500  0.125000      2.000000
  0.250000 -0.312500  0.125000      2.000000
  0.312500 -0.312500  0.125000      2.000000
  0.375000 -0.312500  0.125000      2.000000
  0.437500 -0.312500  0.125000      2.000000
  0.500000 -0.312500  0.125000      2.000000
 -0.437500 -0.312500  0.125000      2.000000
 -0.375000 -0.312500  0.125000      2.000000
 -0.312500 -0.312500  0.125000      2.000000
 -0.250000 -0.312500  0.125000      2.000000
 -0.187500 -0.312500  0.125000      2.000000
 -0.125000 -0.312500  0.125000      2.000000
 -0.062500 -0.312500  0.125000      2.000000
  0.000000 -0.250000  0.125000      2.000000
  0.062500 -0.250000  0.125000      2.000000
  0.125000 -0.250000  0.125000      2.000000
  0.187500 -0.250000  0.125000      2.000000
  0.250000 -0.250000  0.125000      2.000000
  0.312500 -0.250000  0.125000      2.000000
  0.375000 -0.250000  0.125000      2.000000
  0.437500 -0.250000  0.125000      2.000000
  0.500000 -0.250000  0.125000      2.000000
 -0.437500 -0.250000  0.125000      2.000000
 -0.375000 -0.250000  0.125000      2.000000
 -0.312500 -0.250000  0.125000      2.000000
 -0.250000 -0.250000  0.125000      2.000000
 -0.187500 -0.250000  0.125000      2.000000
 -0.125000 -0.250000  0.125000      2.000000
 -0.062500 -0.250000  0.125000      2.000000
  0.000000 -0.187500  0.125000      2.000000
  0.062500 -0.187500  0.125000      2.000000
  0.125000 -0.187500  0.125000      2.000000
  0.187500 -0.187500  0.125000      2.000000
  0.250000 -0.187500  0.125000      2.000000
  0.312500 -0.187500  0.125000      2.000000
  0.375000 -0.187500  0.125000      2.000000
  0.437500 -0.187500  0.125000      2.000000
  0.500000 -0.187500  0.125000      2.000000
 -0.437500 -0.187500  0.125000      2.000000
 -0.375000 -0.187500  0.125000      2.000000
 -0.312500 -0.187500  0.125000      2.000000
 -0.250000 -0.187500  0.125000      2.000000
 -0.187500 -0.187500  0.125000      2.000000
 -0.125000 -0.187500  0.125000      2.000000
 -0.062500 -0.187500  0.125000      2.000000
  0.000000 -0.125000  0.125000      2.000000
  0.062500 -0.125000  0.125000      2.000000
  0.125000 -0.125000  0.125000      2.000000
  0.187500 -0.125000  0.125000      2.000000
  0.250000 -0.125000  0.125000      2.000000
  0.312500 -0.125000  0.125000      2.000000
  0.375000 -0.125000  0.125000      2.000000
  0.437500 -0.125000  0.125000      2.000000
  0.500000 -0.125000  0.125000      2.000000
 -0.437500 -0.125000  0.125000      2.000000
 -0.375000 -0.125000  0.125000      2.000000
 -0.312500 -0.125000  0.125000      2.000000
 -0.250000 -0.125000  0.125000      2.000000
 -0.187500 -0.125000  0.125000      2.000000
 -0.125000 -0.125000  0.125000      2.000000
 -0.062500 -0.125000  0.125000      2.000000
  0.000000 -0.062500  0.125000      2.000000
  0.062500 -0.062500  0.125000      2.000000
  0.125000 -0.062500  0.125000      2.000000
  0.187500 -0.062500  0.125000      2.000000
  0.250000 -0.062500  0.125000      2.000000
  0.312500 -0.062500  0.125000      2.000000
  0.375000 -0.062500  0.125000      2.000000
  0.437500 -0.062500  0.125000      2.000000
  0.500000 -0.062500  0.125000      2.000000
 -0.437500 -0.062500  0.125000      2.000000
 -0.375000 -0.062500  0.125000      2.000000
 -0.312500 -0.062500  0.125000      2.000000
 -0.250000 -0.062500  0.125000      2.000000
 -0.187500 -0.062500  0.125000      2.000000
 -0.125000 -0.062500  0.125000      2.000000
 -0.062500 -0.062500  0.125000      2.000000
  0.000000  0.000000  0.187500      2.000000
  0.062500  0.000000  0.187500      2.000000
  0.125000  0.000000  0.187500      2.000000
  0.187500  0.000000  0.187500      2.000000
  0.250000  0.000000  0.187500      2.000000
  0.312500  0.000000  0.187500      2.000000
  0.375000  0.000000  0.187500      2.000000
  0.437500  0.000000  0.187500      2.000000
  0.500000  0.000000  0.187500      2.000000
 -0.437500  0.000000  0.187500      2.000000
 -0.375000  0.000000  0.187500      2.000000
 -0.312500  0.000000  0.187500      2.000000
 -0.250000  0.000000  0.187500      2.000000
 -0.187500  0.000000  0.187500      2.000000
 -0.125000  0.000000  0.187500      2.000000
 -0.062500  0.000000  0.187500      2.000000
  0.000000  0.062500  0.187500      2.000000
  0.062500  0.062500  0.187500      2.000000
  0.125000  0.062500  0.187500      2.000000
  0.187500  0.062500  0.187500      2.000000
  0.250000  0.062500  0.187500      2.000000
  0.312500  0.062500  0.187500      2.000000
  0.375000  0.062500  0.187500      2.000000
  0.437500  0.062500  0.187500      2.000000
  0.500000  0.062500  0.187500      2.000000
 -0.437500  0.062500  0.187500      2.000000
 -0.375000  0.062500  0.187500      2.000000
 -0.312500  0.062500  0.187500      2.000000
 -0.250000  0.062500  0.187500      2.000000
 -0.187500  0.062500  0.187500      2.000000
 -0.125000  0.062500  0.187500      2.000000
 -0.062500  0.062500  0.187500      2.000000
  0.000000  0.125000  0.187500      2.000000
  0.062500  0.125000  0.187500      2.000000
  0.125000  0.125000  0.187500      2.000000
  0.187500  0.125000  0.187500      2.000000
  0.250000  0.125000  0.187500      2.000000
  0.312500  0.125000  0.187500      2.000000
  0.375000  0.125000  0.187500      2.000000
  0.437500  0.125000  0.187500      2.000000
  0.500000  0.125000  0.187500      2.000000
 -0.437500  0.125000  0.187500      2.000000
 -0.375000  0.125000  0.187500      2.000000
 -0.312500  0.125000  0.187500      2.000000
 -0.250000  0.125000  0.187500      2.000000
 -0.187500  0.125000  0.187500      2.000000
 -0.125000  0.125000  0.187500      2.000000
 -0.062500  0.125000  0.187500      2.000000
  0.000000  0.187500  0.187500      2.000000
  0.062500  0.187500  0.187500      2.000000
  0.125000  0.187500  0.187500      2.000000
  0.187500  0.187500  0.187500      2.000000
  0.250000  0.187500  0.187500      2.000000
  0.312500  0.187500  0.187500      2.000000
  0.375000  0.187500  0.187500      2.000000
  0.437500  0.187500  0.187500      2.000000
  0.500000  0.187500  0.187500      2.000000
 -0.437500  0.187500  0.187500      2.000000
 -0.375000  0.187500  0.187500      2.000000
 -0.312500  0.187500  0.187500      2.000000
 -0.250000  0.187500  0.187500      2.000000
 -0.187500  0.187500  0.187500      2.000000
 -0.125000  0.187500  0.187500      2.000000
 -0.062500  0.187500  0.187500      2.000000
  0.000000  0.250000  0.187500      2.000000
  0.062500  0.250000  0.187500      2.000000
  0.125000  0.250000  0.187500      2.000000
  0.187500  0.250000  0.187500      2.000000
  0.250000  0.250000  0.187500      2.000000
  0.312500  0.250000  0.187500      2.000000
  0.375000  0.250000  0.187500      2.000000
  0.437500  0.250000  0.187500      2.000000
  0.500000  0.250000  0.187500      2.000000
 -0.437500  0.250000  0.187500      2.000000
 -0.375000  0.250000  0.187500      2.000000
 -0.312500  0.250000  0.187500      2.000000
 -0.250000  0.250000  0.187500      2.000000
 -0.187500  0.250000  0.187500      2.000000
 -0.125000  0.250000  0.187500      2.000000
 -0.062500  0.250000  0.187500      2.000000
  0.000000  0.312500  0.187500      2.000000
  0.062500  0.312500  0.187500      2.000000
  0.125000  0.312500  0.187500      2.000000
  0.187500  0.312500  0.187500      2.000000
  0.250000  0.312500  0.187500      2.000000
  0.312500  0.312500  0.187500      2.000000
  0.375000  0.312500  0.187500      2.000000
  0.437500  0.312500  0.187500      2.000000
  0.500000  0.312500  0.187500      2.000000
 -0.437500  0.312500  0.187500      2.000000
 -0.375000  0.312500  0.187500      2.000000
 -0.312500  0.312500  0.187500      2.000000
 -0.250000  0.312500  0.187500      2.000000
 -0.187500  0.312500  0.187500      2.000000
 -0.125000  0.312500  0.187500      2.000000
 -0.062500  0.312500  0.187500      2.000000
  0.000000  0.375000  0.187500      2.000000
  0.062500  0.375000  0.187500      2.000000
  0.125000  0.375000  0.187500      2.000000
  0.187500  0.375000  0.187500      2.000000
  0.250000  0.375000  0.187500      2.000000
  0.312500  0.375000  0.187500      2.000000
  0.375000  0.375000  0.187500      2.000000
  0.437500  0.375000  0.187500      2.000000
  0.500000  0.375000  0.187500      2.000000
 -0.437500  0.375000  0.187500      2.000000
 -0.375000  0.375000  0.187500      2.000000
 -0.312500  0.375000  0.187500      2.000000
 -0.250000  0.375000  0.187500      2.000000
 -0.187500  0.375000  0.187500      2.000000
 -0.125000  0.375000  0.187500      2.000000
 -0.062500  0.375000  0.187500      2.000000
  0.000000  0.437500  0.187500      2.000000
  0.062500  0.437500  0.187500      2.000000
  0.125000  0.437500  0.187500      2.000000
  0.187500  0.437500  0.187500      2.000000
  0.250000  0.437500  0.187500      2.000000
  0.312500  0.437500  0.187500      2.000000
  0.375000  0.437500  0.187500      2.000000
  0.437500  0.437500  0.187500      2.000000
  0.500000  0.437500  0.187500      2.000000
 -0.437500  0.437500  0.187500      2.000000
 -0.375000  0.437500  0.187500      2.000000
 -0.312500  0.437500  0.187500      2.000000
 -0.250000  0.437500  0.187500      2.000000
 -0.187500  0.437500  0.187500      2.000000
 -0.125000  0.437500  0.187500      2.000000
 -0.062500  0.437500  0.187500      2.000000
  0.000000  0.500000  0.187500      2.000000
  0.062500  0.500000  0.187500      2.000000
  0.125000  0.500000  0.187500      2.000000
  0.187500  0.500000  0.187500      2.000000
  0.250000  0.500000  0.187500      2.000000
  0.312500  0.500000  0.187500      2.000000
  0.375000  0.500000  0.187500      2.000000
  0.437500  0.500000  0.187500      2.000000
  0.500000  0.500000  0.187500      2.000000
 -0.437500  0.500000  0.187500      2.000000
 -0.375000  0.500000  0.187500      2.000000
 -0.312500  0.500000  0.187500      2.000000
 -0.250000  0.500000  0.187500      2.000000
 -0.187500  0.500000  0.187500      2.000000
 -0.125000  0.500000  0.187500      2.000000
 -0.062500  0.500000  0.187500      2.000000
  0.000000 -0.437500  0.187500      2.000000
  0.062500 -0.437500  0.187500      2.000000
  0.125000 -0.437500  0.187500      2.000000
  0.187500 -0.437500  0.187500      2.000000
  0.250000 -0.437500  0.187500      2.000000
  0.312500 -0.437500  0.187500      2.000000
  0.375000 -0.437500  0.187500      2.000000
  0.437500 -0.437500  0.187500      2.000000
  0.500000 -0.437500  0.187500      2.000000
 -0.437500 -0.437500  0.187500      2.000000
 -0.375000 -0.437500  0.187500      2.000000
 -0.312500 -0.437500  0.187500      2.000000
 -0.250000 -0.437500  0.187500      2.000000
 -0.187500 -0.437500  0.187500      2.000000
 -0.125000 -0.437500  0.187500      2.000000
 -0.062500 -0.437500  0.187500      2.000000
  0.000000 -0.375000  0.187500      2.000000
  0.062500 -0.375000  0.187500      2.000000
  0.125000 -0.375000  0.187500      2.000000
  0.187500 -0.375000  0.187500      2.000000
  0.250000 -0.375000  0.187500      2.000000
  0.312500 -0.375000  0.187500      2.000000
  0.375000 -0.375000  0.187500      2.000000
  0.437500 -0.375000  0.187500      2.000000
  0.500000 -0.375000  0.187500      2.000000
 -0.437500 -0.375000  0.187500      2.000000
 -0.375000 -0.375000  0.187500      2.000000
 -0.312500 -0.375000  0.187500      2.000000
 -0.250000 -0.375000  0.187500      2.000000
 -0.187500 -0.375000  0.187500      2.000000
 -0.125000 -0.375000  0.187500      2.000000
 -0.062500 -0.375000  0.187500      2.000000
  0.000000 -0.312500  0.187500      2.000000
  0.062500 -0.312500  0.187500      2.000000
  0.125000 -0.312500  0.187500      2.000000
  0.187500 -0.312500  0.187500      2.000000
  0.250000 -0.312500  0.187500      2.000000
  0.312500 -0.312500  0.187500      2.000000
  0.375000 -0.312500  0.187500      2.000000
  0.437500 -0.312500  0.187500      2.000000
  0.500000 -0.312500  0.187500      2.000000
 -0.437500 -0.312500  0.187500      2.000000
 -0.375000 -0.312500  0.187500      2.000000
 -0.312500 -0.312500  0.187500      2.000000
 -0.250000 -0.312500  0.187500      2.000000
 -0.187500 -0.312500  0.187500      2.000000
 -0.125000 -0.312500  0.187500      2.000000
 -0.062500 -0.312500  0.187500      2.000000
  0.000000 -0.250000  0.187500      2.000000
  0.062500 -0.250000  0.187500      2.000000
  0.125000 -0.250000  0.187500      2.000000
  0.187500 -0.250000  0.187500      2.000000
  0.250000 -0.250000  0.187500      2.000000
  0.312500 -0.250000  0.187500      2.000000
  0.375000 -0.250000  0.187500      2.000000
  0.437500 -0.250000  0.187500      2.000000
  0.500000 -0.250000  0.187500      2.000000
 -0.437500 -0.250000  0.187500      2.000000
 -0.375000 -0.250000  0.187500      2.000000
 -0.312500 -0.250000  0.187500      2.000000
 -0.250000 -0.250000  0.187500      2.000000
 -0.187500 -0.250000  0.187500      2.000000
 -0.125000 -0.250000  0.187500      2.000000
 -0.062500 -0.250000  0.187500      2.000000
  0.000000 -0.187500  0.187500      2.000000
  0.062500 -0.187500  0.187500      2.000000
  0.125000 -0.187500  0.187500      2.000000
  0.187500 -0.187500  0.187500      2.000000
  0.250000 -0.187500  0.187500      2.000000
  0.312500 -0.187500  0.187500      2.000000
  0.375000 -0.187500  0.187500      2.000000
  0.437500 -0.187500  0.187500      2.000000
  0.500000 -0.187500  0.187500      2.000000
 -0.437500 -0.187500  0.187500      2.000000
 -0.375000 -0.187500  0.187500      2.000000
 -0.312500 -0.187500  0.187500      2.000000
 -0.250000 -0.187500  0.187500      2.000000
 -0.187500 -0.187500  0.187500      2.000000
 -0.125000 -0.187500  0.187500      2.000000
 -0.062500 -0.187500  0.187500      2.000000
  0.000000 -0.125000  0.187500      2.000000
  0.062500 -0.125000  0.187500      2.000000
  0.125000 -0.125000  0.187500      2.000000
  0.187500 -0.125000  0.187500      2.000000
  0.250000 -0.125000  0.187500      2.000000
  0.312500 -0.125000  0.187500      2.000000
  0.375000 -0.125000  0.187500      2.000000
  0.437500 -0.125000  0.187500      2.000000
  0.500000 -0.125000  0.187500      2.000000
 -0.437500 -0.125000  0.187500      2.000000
 -0.375000 -0.125000  0.187500      2.000000
 -0.312500 -0.125000  0.187500      2.000000
 -0.250000 -0.125000  0.187500      2.000000
 -0.187500 -0.125000  0.187500      2.000000
 -0.125000 -0.125000  0.187500      2.000000
 -0.062500 -0.125000  0.187500      2.000000
  0.000000 -0.062500  0.187500      2.000000
  0.062500 -0.062500  0.187500      2.000000
  0.125000 -0.062500  0.187500      2.000000
  0.187500 -0.062500  0.187500      2.000000
  0.250000 -0.062500  0.187500      2.000000
  0.312500 -0.062500  0.187500      2.000000
  0.375000 -0.062500  0.187500      2.000000
  0.437500 -0.062500  0.187500      2.000000
  0.500000 -0.062500  0.187500      2.000000
 -0.437500 -0.062500  0.187500      2.000000
 -0.375000 -0.062500  0.187500      2.000000
 -0.312500 -0.062500  0.187500      2.000000
 -0.250000 -0.062500  0.187500      2.000000
 -0.187500 -0.062500  0.187500      2.000000
 -0.125000 -0.062500  0.187500      2.000000
 -0.062500 -0.062500  0.187500      2.000000
  0.000000  0.000000  0.250000      2.000000
  0.062500  0.000000  0.250000      2.000000
  0.125000  0.000000  0.250000      2.000000
  0.187500  0.000000  0.250000      2.000000
  0.250000  0.000000  0.250000      2.000000
  0.312500  0.000000  0.250000      2.000000
  0.375000  0.000000  0.250000      2.000000
  0.437500  0.000000  0.250000      2.000000
  0.500000  0.000000  0.250000      2.000000
 -0.437500  0.000000  0.250000      2.000000
 -0.375000  0.000000  0.250000      2.000000
 -0.312500  0.000000  0.250000      2.000000
 -0.250000  0.000000  0.250000      2.000000
 -0.187500  0.000000  0.250000      2.000000
 -0.125000  0.000000  0.250000      2.000000
 -0.062500  0.000000  0.250000      2.000000
  0.000000  0.062500  0.250000      2.000000
  0.062500  0.062500  0.250000      2.000000
  0.125000  0.062500  0.250000      2.000000
  0.187500  0.062500  0.250000      2.000000
  0.250000  0.062500  0.250000      2.000000
  0.312500  0.062500  0.250000      2.000000
  0.375000  0.062500  0.250000      2.000000
  0.437500  0.062500  0.250000      2.000000
  0.500000  0.062500  0.250000      2.000000
 -0.437500  0.062500  0.250000      2.000000
 -0.375000  0.062500  0.250000      2.000000
 -0.312500  0.062500  0.250000      2.000000
 -0.250000  0.062500  0.250000      2.000000
 -0.187500  0.062500  0.250000      2.000000
 -0.125000  0.062500  0.250000      2.000000
 -0.062500  0.062500  0.250000      2.000000
  0.000000  0.125000  0.250000      2.000000
  0.062500  0.125000  0.250000      2.000000
  0.125000  0.125000  0.250000      2.000000
  0.187500  0.125000  0.250000      2.000000
  0.250000  0.125000  0.250000      2.000000
  0.312500  0.125000  0.250000      2.000000
  0.375000  0.125000  0.250000      2.000000
  0.437500  0.125000  0.250000      2.000000
  0.500000  0.125000  0.250000      2.000000
 -0.437500  0.125000  0.250000      2.000000
 -0.375000  0.125000  0.250000      2.000000
 -0.312500  0.125000  0.250000      2.000000
 -0.250000  0.125000  0.250000      2.000000
 -0.187500  0.125000  0.250000      2.000000
 -0.125000  0.125000  0.250000      2.000000
 -0.062500  0.125000  0.250000      2.000000
  0.000000  0.187500  0.250000      2.000000
  0.062500  0.187500  0.250000      2.000000
  0.125000  0.187500  0.250000      2.000000
  0.187500  0.187500  0.250000      2.000000
  0.250000  0.187500  0.250000      2.000000
  0.312500  0.187500  0.250000      2.000000
  0.375000  0.187500  0.250000      2.000000
  0.437500  0.187500  0.250000      2.000000
  0.500000  0.187500  0.250000      2.000000
 -0.437500  0.187500  0.250000      2.000000
 -0.375000  0.187500  0.250000      2.000000
 -0.312500  0.187500  0.250000      2.000000
 -0.250000  0.187500  0.250000      2.000000
 -0.187500  0.187500  0.250000      2.000000
 -0.125000  0.187500  0.250000      2.000000
 -0.062500  0.187500  0.250000      2.000000
  0.000000  0.250000  0.250000      2.000000
  0.062500  0.250000  0.250000      2.000000
  0.125000  0.250000  0.250000      2.000000
  0.187500  0.250000  0.250000      2.000000
  0.250000  0.250000  0.250000      2.000000
  0.312500  0.250000  0.250000      2.000000
  0.375000  0.250000  0.250000      2.000000
  0.437500  0.250000  0.250000      2.000000
  0.500000  0.250000  0.250000      2.000000
 -0.437500  0.250000  0.250000      2.000000
 -0.375000  0.250000  0.250000      2.000000
 -0.312500  0.250000  0.250000      2.000000
 -0.250000  0.250000  0.250000      2.000000
 -0.187500  0.250000  0.250000      2.000000
 -0.125000  0.250000  0.250000      2.000000
 -0.062500  0.250000  0.250000      2.000000
  0.000000  0.312500  0.250000      2.000000
  0.062500  0.312500  0.250000      2.000000
  0.125000  0.312500  0.250000      2.000000
  0.187500  0.312500  0.250000      2.000000
  0.250000  0.312500  0.250000      2.000000
  0.312500  0.312500  0.250000      2.000000
  0.375000  0.312500  0.250000      2.000000
  0.437500  0.312500  0.250000      2.000000
  0.500000  0.312500  0.250000      2.000000
 -0.437500  0.312500  0.250000      2.000000
 -0.375000  0.312500  0.250000      2.000000
 -0.312500  0.312500  0.250000      2.000000
 -0.250000  0.312500  0.250000      2.000000
 -0.187500  0.312500  0.250000      2.000000
 -0.125000  0.312500  0.250000      2.000000
 -0.062500  0.312500  0.250000      2.000000
  0.000000  0.375000  0.250000      2.000000
  0.062500  0.375000  0.250000      2.000000
  0.125000  0.375000  0.250000      2.000000
  0.187500  0.375000  0.250000      2.000000
  0.250000  0.375000  0.250000      2.000000
  0.312500  0.375000  0.250000      2.000000
  0.375000  0.375000  0.250000      2.000000
  0.437500  0.375000  0.250000      2.000000
  0.500000  0.375000  0.250000      2.000000
 -0.437500  0.375000  0.250000      2.000000
 -0.375000  0.375000  0.250000      2.000000
 -0.312500  0.375000  0.250000      2.000000
 -0.250000  0.375000  0.250000      2.000000
 -0.187500  0.375000  0.250000      2.000000
 -0.125000  0.375000  0.250000      2.000000
 -0.062500  0.375000  0.250000      2.000000
  0.000000  0.437500  0.250000      2.000000
  0.062500  0.437500  0.250000      2.000000
  0.125000  0.437500  0.250000      2.000000
  0.187500  0.437500  0.250000      2.000000
  0.250000  0.437500  0.250000      2.000000
  0.312500  0.437500  0.250000      2.000000
  0.375000  0.437500  0.250000      2.000000
  0.437500  0.437500  0.250000      2.000000
  0.500000  0.437500  0.250000      2.000000
 -0.437500  0.437500  0.250000      2.000000
 -0.375000  0.437500  0.250000      2.000000
 -0.312500  0.437500  0.250000      2.000000
 -0.250000  0.437500  0.250000      2.000000
 -0.187500  0.437500  0.250000      2.000000
 -0.125000  0.437500  0.250000      2.000000
 -0.062500  0.437500  0.250000      2.000000
  0.000000  0.500000  0.250000      2.000000
  0.062500  0.500000  0.250000      2.000000
  0.125000  0.500000  0.250000      2.000000
  0.187500  0.500000  0.250000      2.000000
  0.250000  0.500000  0.250000      2.000000
  0.312500  0.500000  0.250000      2.000000
  0.375000  0.500000  0.250000      2.000000
  0.437500  0.500000  0.250000      2.000000
  0.500000  0.500000  0.250000      2.000000
 -0.437500  0.500000  0.250000      2.000000
 -0.375000  0.500000  0.250000      2.000000
 -0.312500  0.500000  0.250000      2.000000
 -0.250000  0.500000  0.250000      2.000000
 -0.187500  0.500000  0.250000      2.000000
 -0.125000  0.500000  0.250000      2.000000
 -0.062500  0.500000  0.250000      2.000000
  0.000000 -0.437500  0.250000      2.000000
  0.062500 -0.437500  0.250000      2.000000
  0.125000 -0.437500  0.250000      2.000000
  0.187500 -0.437500  0.250000      2.000000
  0.250000 -0.437500  0.250000      2.000000
  0.312500 -0.437500  0.250000      2.000000
  0.375000 -0.437500  0.250000      2.000000
  0.437500 -0.437500  0.250000      2.000000
  0.500000 -0.437500  0.250000      2.000000
 -0.437500 -0.437500  0.250000      2.000000
 -0.375000 -0.437500  0.250000      2.000000
 -0.312500 -0.437500  0.250000      2.000000
 -0.250000 -0.437500  0.250000      2.000000
 -0.187500 -0.437500  0.250000      2.000000
 -0.125000 -0.437500  0.250000      2.000000
 -0.062500 -0.437500  0.250000      2.000000
  0.000000 -0.375000  0.250000      2.000000
  0.062500 -0.375000  0.250000      2.000000
  0.125000 -0.375000  0.250000      2.000000
  0.187500 -0.375000  0.250000      2.000000
  0.250000 -0.375000  0.250000      2.000000
  0.312500 -0.375000  0.250000      2.000000
  0.375000 -0.375000  0.250000      2.000000
  0.437500 -0.375000  0.250000      2.000000
  0.500000 -0.375000  0.250000      2.000000
 -0.437500 -0.375000  0.250000      2.000000
 -0.375000 -0.375000  0.250000      2.000000
 -0.312500 -0.375000  0.250000      2.000000
 -0.250000 -0.375000  0.250000      2.000000
 -0.187500 -0.375000  0.250000      2.000000
 -0.125000 -0.375000  0.250000      2.000000
 -0.062500 -0.375000  0.250000      2.000000
  0.000000 -0.312500  0.250000      2.000000
  0.062500 -0.312500  0.250000      2.000000
  0.125000 -0.312500  0.250000      2.000000
  0.187500 -0.312500  0.250000      2.000000
  0.250000 -0.312500  0.250000      2.000000
  0.312500 -0.312500  0.250000      2.000000
  0.375000 -0.312500  0.250000      2.000000
  0.437500 -0.312500  0.250000      2.000000
  0.500000 -0.312500  0.250000      2.000000
 -0.437500 -0.312500  0.250000      2.000000
 -0.375000 -0.312500  0.250000      2.000000
 -0.312500 -0.312500  0.250000      2.000000
 -0.250000 -0.312500  0.250000      2.000000
 -0.187500 -0.312500  0.250000      2.000000
 -0.125000 -0.312500  0.250000      2.000000
 -0.062500 -0.312500  0.250000      2.000000
  0.000000 -0.250000  0.250000      2.000000
  0.062500 -0.250000  0.250000      2.000000
  0.125000 -0.250000  0.250000      2.000000
  0.187500 -0.250000  0.250000      2.000000
  0.250000 -0.250000  0.250000      2.000000
  0.312500 -0.250000  0.250000      2.000000
  0.375000 -0.250000  0.250000      2.000000
  0.437500 -0.250000  0.250000      2.000000
  0.500000 -0.250000  0.250000      2.000000
 -0.437500 -0.250000  0.250000      2.000000
 -0.375000 -0.250000  0.250000      2.000000
 -0.312500 -0.250000  0.250000      2.000000
 -0.250000 -0.250000  0.250000      2.000000
 -0.187500 -0.250000  0.250000      2.000000
 -0.125000 -0.250000  0.250000      2.000000
 -0.062500 -0.250000  0.250000      2.000000
  0.000000 -0.187500  0.250000      2.000000
  0.062500 -0.187500  0.250000      2.000000
  0.125000 -0.187500  0.250000      2.000000
  0.187500 -0.187500  0.250000      2.000000
  0.250000 -0.187500  0.250000      2.000000
  0.312500 -0.187500  0.250000      2.000000
  0.375000 -0.187500  0.250000      2.000000
  0.437500 -0.187500  0.250000      2.000000
  0.500000 -0.187500  0.250000      2.000000
 -0.437500 -0.187500  0.250000      2.000000
 -0.375000 -0.187500  0.250000      2.000000
 -0.312500 -0.187500  0.250000      2.000000
 -0.250000 -0.187500  0.250000      2.000000
 -0.187500 -0.187500  0.250000      2.000000
 -0.125000 -0.187500  0.250000      2.000000
 -0.062500 -0.187500  0.250000      2.000000
  0.000000 -0.125000  0.250000      2.000000
  0.062500 -0.125000  0.250000      2.000000
  0.125000 -0.125000  0.250000      2.000000
  0.187500 -0.125000  0.250000      2.000000
  0.250000 -0.125000  0.250000      2.000000
  0.312500 -0.125000  0.250000      2.000000
  0.375000 -0.125000  0.250000      2.000000
  0.437500 -0.125000  0.250000      2.000000
  0.500000 -0.125000  0.250000      2.000000
 -0.437500 -0.125000  0.250000      2.000000
 -0.375000 -0.125000  0.250000      2.000000
 -0.312500 -0.125000  0.250000      2.000000
 -0.250000 -0.125000  0.250000      2.000000
 -0.187500 -0.125000  0.250000      2.000000
 -0.125000 -0.125000  0.250000      2.000000
 -0.062500 -0.125000  0.250000      2.000000
  0.000000 -0.062500  0.250000      2.000000
  0.062500 -0.062500  0.250000      2.000000
  0.125000 -0.062500  0.250000      2.000000
  0.187500 -0.062500  0.250000      2.000000
  0.250000 -0.062500  0.250000      2.000000
  0.312500 -0.062500  0.250000      2.000000
  0.375000 -0.062500  0.250000      2.000000
  0.437500 -0.062500  0.250000      2.000000
  0.500000 -0.062500  0.250000      2.000000
 -0.437500 -0.062500  0.250000      2.000000
 -0.375000 -0.062500  0.250000      2.000000
 -0.312500 -0.062500  0.250000      2.000000
 -0.250000 -0.062500  0.250000      2.000000
 -0.187500 -0.062500  0.250000      2.000000
 -0.125000 -0.062500  0.250000      2.000000
 -0.062500 -0.062500  0.250000      2.000000
  0.000000  0.000000  0.312500      2.000000
  0.062500  0.000000  0.312500      2.000000
  0.125000  0.000000  0.312500      2.000000
  0.187500  0.000000  0.312500      2.000000
  0.250000  0.000000  0.312500      2.000000
  0.312500  0.000000  0.312500      2.000000
  0.375000  0.000000  0.312500      2.000000
  0.437500  0.000000  0.312500      2.000000
  0.500000  0.000000  0.312500      2.000000
 -0.437500  0.000000  0.312500      2.000000
 -0.375000  0.000000  0.312500      2.000000
 -0.312500  0.000000  0.312500      2.000000
 -0.250000  0.000000  0.312500      2.000000
 -0.187500  0.000000  0.312500      2.000000
 -0.125000  0.000000  0.312500      2.000000
 -0.062500  0.000000  0.312500      2.000000
  0.000000  0.062500  0.312500      2.000000
  0.062500  0.062500  0.312500      2.000000
  0.125000  0.062500  0.312500      2.000000
  0.187500  0.062500  0.312500      2.000000
  0.250000  0.062500  0.312500      2.000000
  0.312500  0.062500  0.312500      2.000000
  0.375000  0.062500  0.312500      2.000000
  0.437500  0.062500  0.312500      2.000000
  0.500000  0.062500  0.312500      2.000000
 -0.437500  0.062500  0.312500      2.000000
 -0.375000  0.062500  0.312500      2.000000
 -0.312500  0.062500  0.312500      2.000000
 -0.250000  0.062500  0.312500      2.000000
 -0.187500  0.062500  0.312500      2.000000
 -0.125000  0.062500  0.312500      2.000000
 -0.062500  0.062500  0.312500      2.000000
  0.000000  0.125000  0.312500      2.000000
  0.062500  0.125000  0.312500      2.000000
  0.125000  0.125000  0.312500      2.000000
  0.187500  0.125000  0.312500      2.000000
  0.250000  0.125000  0.312500      2.000000
  0.312500  0.125000  0.312500      2.000000
  0.375000  0.125000  0.312500      2.000000
  0.437500  0.125000  0.312500      2.000000
  0.500000  0.125000  0.312500      2.000000
 -0.437500  0.125000  0.312500      2.000000
 -0.375000  0.125000  0.312500      2.000000
 -0.312500  0.125000  0.312500      2.000000
 -0.250000  0.125000  0.312500      2.000000
 -0.187500  0.125000  0.312500      2.000000
 -0.125000  0.125000  0.312500      2.000000
 -0.062500  0.125000  0.312500      2.000000
  0.000000  0.187500  0.312500      2.000000
  0.062500  0.187500  0.312500      2.000000
  0.125000  0.187500  0.312500      2.000000
  0.187500  0.187500  0.312500      2.000000
  0.250000  0.187500  0.312500      2.000000
  0.312500  0.187500  0.312500      2.000000
  0.375000  0.187500  0.312500      2.000000
  0.437500  0.187500  0.312500      2.000000
  0.500000  0.187500  0.312500      2.000000
 -0.437500  0.187500  0.312500      2.000000
 -0.375000  0.187500  0.312500      2.000000
 -0.312500  0.187500  0.312500      2.000000
 -0.250000  0.187500  0.312500      2.000000
 -0.187500  0.187500  0.312500      2.000000
 -0.125000  0.187500  0.312500      2.000000
 -0.062500  0.187500  0.312500      2.000000
  0.000000  0.250000  0.312500      2.000000
  0.062500  0.250000  0.312500      2.000000
  0.125000  0.250000  0.312500      2.000000
  0.187500  0.250000  0.312500      2.000000
  0.250000  0.250000  0.312500      2.000000
  0.312500  0.250000  0.312500      2.000000
  0.375000  0.250000  0.312500      2.000000
  0.437500  0.250000  0.312500      2.000000
  0.500000  0.250000  0.312500      2.000000
 -0.437500  0.250000  0.312500      2.000000
 -0.375000  0.250000  0.312500      2.000000
 -0.312500  0.250000  0.312500      2.000000
 -0.250000  0.250000  0.312500      2.000000
 -0.187500  0.250000  0.312500      2.000000
 -0.125000  0.250000  0.312500      2.000000
 -0.062500  0.250000  0.312500      2.000000
  0.000000  0.312500  0.312500      2.000000
  0.062500  0.312500  0.312500      2.000000
  0.125000  0.312500  0.312500      2.000000
  0.187500  0.312500  0.312500      2.000000
  0.250000  0.312500  0.312500      2.000000
  0.312500  0.312500  0.312500      2.000000
  0.375000  0.312500  0.312500      2.000000
  0.437500  0.312500  0.312500      2.000000
  0.500000  0.312500  0.312500      2.000000
 -0.437500  0.312500  0.312500      2.000000
 -0.375000  0.312500  0.312500      2.000000
 -0.312500  0.312500  0.312500      2.000000
 -0.250000  0.312500  0.312500      2.000000
 -0.187500  0.312500  0.312500      2.000000
 -0.125000  0.312500  0.312500      2.000000
 -0.062500  0.312500  0.312500      2.000000
  0.000000  0.375000  0.312500      2.000000
  0.062500  0.375000  0.312500      2.000000
  0.125000  0.375000  0.312500      2.000000
  0.187500  0.375000  0.312500      2.000000
  0.250000  0.375000  0.312500      2.000000
  0.312500  0.375000  0.312500      2.000000
  0.375000  0.375000  0.312500      2.000000
  0.437500  0.375000  0.312500      2.000000
  0.500000  0.375000  0.312500      2.000000
 -0.437500  0.375000  0.312500      2.000000
 -0.375000  0.375000  0.312500      2.000000
 -0.312500  0.375000  0.312500      2.000000
 -0.250000  0.375000  0.312500      2.000000
 -0.187500  0.375000  0.312500      2.000000
 -0.125000  0.375000  0.312500      2.000000
 -0.062500  0.375000  0.312500      2.000000
  0.000000  0.437500  0.312500      2.000000
  0.062500  0.437500  0.312500      2.000000
  0.125000  0.437500  0.312500      2.000000
  0.187500  0.437500  0.312500      2.000000
  0.250000  0.437500  0.312500      2.000000
  0.312500  0.437500  0.312500      2.000000
  0.375000  0.437500  0.312500      2.000000
  0.437500  0.437500  0.312500      2.000000
  0.500000  0.437500  0.312500      2.000000
 -0.437500  0.437500  0.312500      2.000000
 -0.375000  0.437500  0.312500      2.000000
 -0.312500  0.437500  0.312500      2.000000
 -0.250000  0.437500  0.312500      2.000000
 -0.187500  0.437500  0.312500      2.000000
 -0.125000  0.437500  0.312500      2.000000
 -0.062500  0.437500  0.312500      2.000000
  0.000000  0.500000  0.312500      2.000000
  0.062500  0.500000  0.312500      2.000000
  0.125000  0.500000  0.312500      2.000000
  0.187500  0.500000  0.312500      2.000000
  0.250000  0.500000  0.312500      2.000000
  0.312500  0.500000  0.312500      2.000000
  0.375000  0.500000  0.312500      2.000000
  0.437500  0.500000  0.312500      2.000000
  0.500000  0.500000  0.312500      2.000000
 -0.437500  0.500000  0.312500      2.000000
 -0.375000  0.500000  0.312500      2.000000
 -0.312500  0.500000  0.312500      2.000000
 -0.250000  0.500000  0.312500      2.000000
 -0.187500  0.500000  0.312500      2.000000
 -0.125000  0.500000  0.312500      2.000000
 -0.062500  0.500000  0.312500      2.000000
  0.000000 -0.437500  0.312500      2.000000
  0.062500 -0.437500  0.312500      2.000000
  0.125000 -0.437500  0.312500      2.000000
  0.187500 -0.437500  0.312500      2.000000
  0.250000 -0.437500  0.312500      2.000000
  0.312500 -0.437500  0.312500      2.000000
  0.375000 -0.437500  0.312500      2.000000
  0.437500 -0.437500  0.312500      2.000000
  0.500000 -0.437500  0.312500      2.000000
 -0.437500 -0.437500  0.312500      2.000000
 -0.375000 -0.437500  0.312500      2.000000
 -0.312500 -0.437500  0.312500      2.000000
 -0.250000 -0.437500  0.312500      2.000000
 -0.187500 -0.437500  0.312500      2.000000
 -0.125000 -0.437500  0.312500      2.000000
 -0.062500 -0.437500  0.312500      2.000000
  0.000000 -0.375000  0.312500      2.000000
  0.062500 -0.375000  0.312500      2.000000
  0.125000 -0.375000  0.312500      2.000000
  0.187500 -0.375000  0.312500      2.000000
  0.250000 -0.375000  0.312500      2.000000
  0.312500 -0.375000  0.312500      2.000000
  0.375000 -0.375000  0.312500      2.000000
  0.437500 -0.375000  0.312500      2.000000
  0.500000 -0.375000  0.312500      2.000000
 -0.437500 -0.375000  0.312500      2.000000
 -0.375000 -0.375000  0.312500      2.000000
 -0.312500 -0.375000  0.312500      2.000000
 -0.250000 -0.375000  0.312500      2.000000
 -0.187500 -0.375000  0.312500      2.000000
 -0.125000 -0.375000  0.312500      2.000000
 -0.062500 -0.375000  0.312500      2.000000
  0.000000 -0.312500  0.312500      2.000000
  0.062500 -0.312500  0.312500      2.000000
  0.125000 -0.312500  0.312500      2.000000
  0.187500 -0.312500  0.312500      2.000000
  0.250000 -0.312500  0.312500      2.000000
  0.312500 -0.312500  0.312500      2.000000
  0.375000 -0.312500  0.312500      2.000000
  0.437500 -0.312500  0.312500      2.000000
  0.500000 -0.312500  0.312500      2.000000
 -0.437500 -0.312500  0.312500      2.000000
 -0.375000 -0.312500  0.312500      2.000000
 -0.312500 -0.312500  0.312500      2.000000
 -0.250000 -0.312500  0.312500      2.000000
 -0.187500 -0.312500  0.312500      2.000000
 -0.125000 -0.312500  0.312500      2.000000
 -0.062500 -0.312500  0.312500      2.000000
  0.000000 -0.250000  0.312500      2.000000
  0.062500 -0.250000  0.312500      2.000000
  0.125000 -0.250000  0.312500      2.000000
  0.187500 -0.250000  0.312500      2.000000
  0.250000 -0.250000  0.312500      2.000000
  0.312500 -0.250000  0.312500      2.000000
  0.375000 -0.250000  0.312500      2.000000
  0.437500 -0.250000  0.312500      2.000000
  0.500000 -0.250000  0.312500      2.000000
 -0.437500 -0.250000  0.312500      2.000000
 -0.375000 -0.250000  0.312500      2.000000
 -0.312500 -0.250000  0.312500      2.000000
 -0.250000 -0.250000  0.312500      2.000000
 -0.187500 -0.250000  0.312500      2.000000
 -0.125000 -0.250000  0.312500      2.000000
 -0.062500 -0.250000  0.312500      2.000000
  0.000000 -0.187500  0.312500      2.000000
  0.062500 -0.187500  0.312500      2.000000
  0.125000 -0.187500  0.312500      2.000000
  0.187500 -0.187500  0.312500      2.000000
  0.250000 -0.187500  0.312500      2.000000
  0.312500 -0.187500  0.312500      2.000000
  0.375000 -0.187500  0.312500      2.000000
  0.437500 -0.187500  0.312500      2.000000
  0.500000 -0.187500  0.312500      2.000000
 -0.437500 -0.187500  0.312500      2.000000
 -0.375000 -0.187500  0.312500      2.000000
 -0.312500 -0.187500  0.312500      2.000000
 -0.250000 -0.187500  0.312500      2.000000
 -0.187500 -0.187500  0.312500      2.000000
 -0.125000 -0.187500  0.312500      2.000000
 -0.062500 -0.187500  0.312500      2.000000
  0.000000 -0.125000  0.312500      2.000000
  0.062500 -0.125000  0.312500      2.000000
  0.125000 -0.125000  0.312500      2.000000
  0.187500 -0.125000  0.312500      2.000000
  0.250000 -0.125000  0.312500      2.000000
  0.312500 -0.125000  0.312500      2.000000
  0.375000 -0.125000  0.312500      2.000000
  0.437500 -0.125000  0.312500      2.000000
  0.500000 -0.125000  0.312500      2.000000
 -0.437500 -0.125000  0.312500      2.000000
 -0.375000 -0.125000  0.312500      2.000000
 -0.312500 -0.125000  0.312500      2.000000
 -0.250000 -0.125000  0.312500      2.000000
 -0.187500 -0.125000  0.312500      2.000000
 -0.125000 -0.125000  0.312500      2.000000
 -0.062500 -0.125000  0.312500      2.000000
  0.000000 -0.062500  0.312500      2.000000
  0.062500 -0.062500  0.312500      2.000000
  0.125000 -0.062500  0.312500      2.000000
  0.187500 -0.062500  0.312500      2.000000
  0.250000 -0.062500  0.312500      2.000000
  0.312500 -0.062500  0.312500      2.000000
  0.375000 -0.062500  0.312500      2.000000
  0.437500 -0.062500  0.312500      2.000000
  0.500000 -0.062500  0.312500      2.000000
 -0.437500 -0.062500  0.312500      2.000000
 -0.375000 -0.062500  0.312500      2.000000
 -0.312500 -0.062500  0.312500      2.000000
 -0.250000 -0.062500  0.312500      2.000000
 -0.187500 -0.062500  0.312500      2.000000
 -0.125000 -0.062500  0.312500      2.000000
 -0.062500 -0.062500  0.312500      2.000000
  0.000000  0.000000  0.375000      2.000000
  0.062500  0.000000  0.375000      2.000000
  0.125000  0.000000  0.375000      2.000000
  0.187500  0.000000  0.375000      2.000000
  0.250000  0.000000  0.375000      2.000000
  0.312500  0.000000  0.375000      2.000000
  0.375000  0.000000  0.375000      2.000000
  0.437500  0.000000  0.375000      2.000000
  0.500000  0.000000  0.375000      2.000000
 -0.437500  0.000000  0.375000      2.000000
 -0.375000  0.000000  0.375000      2.000000
 -0.312500  0.000000  0.375000      2.000000
 -0.250000  0.000000  0.375000      2.000000
 -0.187500  0.000000  0.375000      2.000000
 -0.125000  0.000000  0.375000      2.000000
 -0.062500  0.000000  0.375000      2.000000
  0.000000  0.062500  0.375000      2.000000
  0.062500  0.062500  0.375000      2.000000
  0.125000  0.062500  0.375000      2.000000
  0.187500  0.062500  0.375000      2.000000
  0.250000  0.062500  0.375000      2.000000
  0.312500  0.062500  0.375000      2.000000
  0.375000  0.062500  0.375000      2.000000
  0.437500  0.062500  0.375000      2.000000
  0.500000  0.062500  0.375000      2.000000
 -0.437500  0.062500  0.375000      2.000000
 -0.375000  0.062500  0.375000      2.000000
 -0.312500  0.062500  0.375000      2.000000
 -0.250000  0.062500  0.375000      2.000000
 -0.187500  0.062500  0.375000      2.000000
 -0.125000  0.062500  0.375000      2.000000
 -0.062500  0.062500  0.375000      2.000000
  0.000000  0.125000  0.375000      2.000000
  0.062500  0.125000  0.375000      2.000000
  0.125000  0.125000  0.375000      2.000000
  0.187500  0.125000  0.375000      2.000000
  0.250000  0.125000  0.375000      2.000000
  0.312500  0.125000  0.375000      2.000000
  0.375000  0.125000  0.375000      2.000000
  0.437500  0.125000  0.375000      2.000000
  0.500000  0.125000  0.375000      2.000000
 -0.437500  0.125000  0.375000      2.000000
 -0.375000  0.125000  0.375000      2.000000
 -0.312500  0.125000  0.375000      2.000000
 -0.250000  0.125000  0.375000      2.000000
 -0.187500  0.125000  0.375000      2.000000
 -0.125000  0.125000  0.375000      2.000000
 -0.062500  0.125000  0.375000      2.000000
  0.000000  0.187500  0.375000      2.000000
  0.062500  0.187500  0.375000      2.000000
  0.125000  0.187500  0.375000      2.000000
  0.187500  0.187500  0.375000      2.000000
  0.250000  0.187500  0.375000      2.000000
  0.312500  0.187500  0.375000      2.000000
  0.375000  0.187500  0.375000      2.000000
  0.437500  0.187500  0.375000      2.000000
  0.500000  0.187500  0.375000      2.000000
 -0.437500  0.187500  0.375000      2.000000
 -0.375000  0.187500  0.375000      2.000000
 -0.312500  0.187500  0.375000      2.000000
 -0.250000  0.187500  0.375000      2.000000
 -0.187500  0.187500  0.375000      2.000000
 -0.125000  0.187500  0.375000      2.000000
 -0.062500  0.187500  0.375000      2.000000
  0.000000  0.250000  0.375000      2.000000
  0.062500  0.250000  0.375000      2.000000
  0.125000  0.250000  0.375000      2.000000
  0.187500  0.250000  0.375000      2.000000
  0.250000  0.250000  0.375000      2.000000
  0.312500  0.250000  0.375000      2.000000
  0.375000  0.250000  0.375000      2.000000
  0.437500  0.250000  0.375000      2.000000
  0.500000  0.250000  0.375000      2.000000
 -0.437500  0.250000  0.375000      2.000000
 -0.375000  0.250000  0.375000      2.000000
 -0.312500  0.250000  0.375000      2.000000
 -0.250000  0.250000  0.375000      2.000000
 -0.187500  0.250000  0.375000      2.000000
 -0.125000  0.250000  0.375000      2.000000
 -0.062500  0.250000  0.375000      2.000000
  0.000000  0.312500  0.375000      2.000000
  0.062500  0.312500  0.375000      2.000000
  0.125000  0.312500  0.375000      2.000000
  0.187500  0.312500  0.375000      2.000000
  0.250000  0.312500  0.375000      2.000000
  0.312500  0.312500  0.375000      2.000000
  0.375000  0.312500  0.375000      2.000000
  0.437500  0.312500  0.375000      2.000000
  0.500000  0.312500  0.375000      2.000000
 -0.437500  0.312500  0.375000      2.000000
 -0.375000  0.312500  0.375000      2.000000
 -0.312500  0.312500  0.375000      2.000000
 -0.250000  0.312500  0.375000      2.000000
 -0.187500  0.312500  0.375000      2.000000
 -0.125000  0.312500  0.375000      2.000000
 -0.062500  0.312500  0.375000      2.000000
  0.000000  0.375000  0.375000      2.000000
  0.062500  0.375000  0.375000      2.000000
  0.125000  0.375000  0.375000      2.000000
  0.187500  0.375000  0.375000      2.000000
  0.250000  0.375000  0.375000      2.000000
  0.312500  0.375000  0.375000      2.000000
  0.375000  0.375000  0.375000      2.000000
  0.437500  0.375000  0.375000      2.000000
  0.500000  0.375000  0.375000      2.000000
 -0.437500  0.375000  0.375000      2.000000
 -0.375000  0.375000  0.375000      2.000000
 -0.312500  0.375000  0.375000      2.000000
 -0.250000  0.375000  0.375000      2.000000
 -0.187500  0.375000  0.375000      2.000000
 -0.125000  0.375000  0.375000      2.000000
 -0.062500  0.375000  0.375000      2.000000
  0.000000  0.437500  0.375000      2.000000
  0.062500  0.437500  0.375000      2.000000
  0.125000  0.437500  0.375000      2.000000
  0.187500  0.437500  0.375000      2.000000
  0.250000  0.437500  0.375000      2.000000
  0.312500  0.437500  0.375000      2.000000
  0.375000  0.437500  0.375000      2.000000
  0.437500  0.437500  0.375000      2.000000
  0.500000  0.437500  0.375000      2.000000
 -0.437500  0.437500  0.375000      2.000000
 -0.375000  0.437500  0.375000      2.000000
 -0.312500  0.437500  0.375000      2.000000
 -0.250000  0.437500  0.375000      2.000000
 -0.187500  0.437500  0.375000      2.000000
 -0.125000  0.437500  0.375000      2.000000
 -0.062500  0.437500  0.375000      2.000000
  0.000000  0.500000  0.375000      2.000000
  0.062500  0.500000  0.375000      2.000000
  0.125000  0.500000  0.375000      2.000000
  0.187500  0.500000  0.375000      2.000000
  0.250000  0.500000  0.375000      2.000000
  0.312500  0.500000  0.375000      2.000000
  0.375000  0.500000  0.375000      2.000000
  0.437500  0.500000  0.375000      2.000000
  0.500000  0.500000  0.375000      2.000000
 -0.437500  0.500000  0.375000      2.000000
 -0.375000  0.500000  0.375000      2.000000
 -0.312500  0.500000  0.375000      2.000000
 -0.250000  0.500000  0.375000      2.000000
 -0.187500  0.500000  0.375000      2.000000
 -0.125000  0.500000  0.375000      2.000000
 -0.062500  0.500000  0.375000      2.000000
  0.000000 -0.437500  0.375000      2.000000
  0.062500 -0.437500  0.375000      2.000000
  0.125000 -0.437500  0.375000      2.000000
  0.187500 -0.437500  0.375000      2.000000
  0.250000 -0.437500  0.375000      2.000000
  0.312500 -0.437500  0.375000      2.000000
  0.375000 -0.437500  0.375000      2.000000
  0.437500 -0.437500  0.375000      2.000000
  0.500000 -0.437500  0.375000      2.000000
 -0.437500 -0.437500  0.375000      2.000000
 -0.375000 -0.437500  0.375000      2.000000
 -0.312500 -0.437500  0.375000      2.000000
 -0.250000 -0.437500  0.375000      2.000000
 -0.187500 -0.437500  0.375000      2.000000
 -0.125000 -0.437500  0.375000      2.000000
 -0.062500 -0.437500  0.375000      2.000000
  0.000000 -0.375000  0.375000      2.000000
  0.062500 -0.375000  0.375000      2.000000
  0.125000 -0.375000  0.375000      2.000000
  0.187500 -0.375000  0.375000      2.000000
  0.250000 -0.375000  0.375000      2.000000
  0.312500 -0.375000  0.375000      2.000000
  0.375000 -0.375000  0.375000      2.000000
  0.437500 -0.375000  0.375000      2.000000
  0.500000 -0.375000  0.375000      2.000000
 -0.437500 -0.375000  0.375000      2.000000
 -0.375000 -0.375000  0.375000      2.000000
 -0.312500 -0.375000  0.375000      2.000000
 -0.250000 -0.375000  0.375000      2.000000
 -0.187500 -0.375000  0.375000      2.000000
 -0.125000 -0.375000  0.375000      2.000000
 -0.062500 -0.375000  0.375000      2.000000
  0.000000 -0.312500  0.375000      2.000000
  0.062500 -0.312500  0.375000      2.000000
  0.125000 -0.312500  0.375000      2.000000
  0.187500 -0.312500  0.375000      2.000000
  0.250000 -0.312500  0.375000      2.000000
  0.312500 -0.312500  0.375000      2.000000
  0.375000 -0.312500  0.375000      2.000000
  0.437500 -0.312500  0.375000      2.000000
  0.500000 -0.312500  0.375000      2.000000
 -0.437500 -0.312500  0.375000      2.000000
 -0.375000 -0.312500  0.375000      2.000000
 -0.312500 -0.312500  0.375000      2.000000
 -0.250000 -0.312500  0.375000      2.000000
 -0.187500 -0.312500  0.375000      2.000000
 -0.125000 -0.312500  0.375000      2.000000
 -0.062500 -0.312500  0.375000      2.000000
  0.000000 -0.250000  0.375000      2.000000
  0.062500 -0.250000  0.375000      2.000000
  0.125000 -0.250000  0.375000      2.000000
  0.187500 -0.250000  0.375000      2.000000
  0.250000 -0.250000  0.375000      2.000000
  0.312500 -0.250000  0.375000      2.000000
[...]
  band No.  band energies     occupation 
      1       2.8637      1.00000
      2       4.5966      1.00000
      3       5.4263      1.00000
      4       6.1980      0.00000
      5       8.1260      0.00000
      6       9.8995      0.00000
      7      13.9576      0.00000
      8      23.5347      0.00000
      9      25.6255      0.00000
     10      29.5421      0.00000

 k-point  2039 :      -0.3125    0.4375    0.5000
  band No.  band energies     occupation 
      1       3.2232      1.00000
      2       4.1300      1.00000
      3       5.2204      1.00000
      4       6.6014      0.00000
      5       8.1351      0.00000
      6      10.6368      0.00000
      7      14.3975      0.00000
      8      21.6456      0.00000
      9      24.0761      0.00000
     10      29.1657      0.00000

 k-point  2040 :      -0.2500    0.4375    0.5000
  band No.  band energies     occupation 
      1       3.2772      1.00000
      2       3.8281      1.00000
      3       5.3104      1.00387
      4       7.0768      0.00000
      5       8.1679      0.00000
      6      11.0435      0.00000
      7      15.3085      0.00000
      8      19.8126      0.00000
      9      22.7332      0.00000
     10      28.7699      0.00000

 k-point  2041 :      -0.1875    0.4375    0.5000
  band No.  band energies     occupation 
      1       3.0075      1.00000
      2       3.6245      1.00000
      3       5.8307      0.51036
      4       7.5538      0.00000
      5       8.2223      0.00000
      6      11.0184      0.00000
      7      16.6412      0.00000
      8      18.3577      0.00000
      9      21.5714      0.00000
     10      28.3871      0.00000

 k-point  2042 :      -0.1250    0.4375    0.5000
  band No.  band energies     occupation 
      1       2.7363      1.00000
      2       3.4217      1.00000
      3       6.5566     -0.03365
      4       7.9318      0.00000
      5       8.3016      0.00000
      6      10.5896      0.00000
      7      17.2030      0.00000
      8      18.4895      0.00000
      9      20.6742      0.00000
     10      27.8901      0.00000

 k-point  2043 :      -0.0625    0.4375    0.5000
  band No.  band energies     occupation 
      1       2.5565      1.00000
      2       3.2899      1.00000
      3       7.2465      0.00000
      4       8.1379      0.00000
      5       8.3615      0.00000
      6       9.8929      0.00000
      7      16.9373      0.00000
      8      19.9450      0.00000
      9      20.2655      0.00000
     10      27.0904      0.00000

 k-point  2044 :       0.0000    0.5000    0.5000
  band No.  band energies     occupation 
      1       2.4281      1.00000
      2       3.2105      1.00000
      3       8.2724      0.00000
      4       8.3583      0.00000
      5       8.3613      0.00000
      6       8.6355      0.00000
      7      16.9344      0.00000
      8      20.7514      0.00000
      9      20.7525      0.00000
     10      26.0941      0.00000

 k-point  2045 :       0.0625    0.5000    0.5000
  band No.  band energies     occupation 
      1       2.4887      1.00000
      2       3.2698      1.00000
      3       7.5264      0.00000
      4       8.1674      0.00000
      5       8.3290      0.00000
      6       9.3406      0.00000
      7      17.2041      0.00000
      8      20.0285      0.00000
      9      21.0136      0.00000
     10      26.5335      0.00000

 k-point  2046 :       0.1250    0.5000    0.5000
  band No.  band energies     occupation 
      1       2.6604      1.00000
      2       3.4337      1.00000
      3       6.5811     -0.00098
      4       7.8248      0.00000
      5       8.3050      0.00000
      6       9.9176      0.00000
      7      17.8803      0.00000
      8      18.6921      0.00000
      9      21.7582      0.00000
     10      27.0947      0.00000

 k-point  2047 :       0.1875    0.5000    0.5000
  band No.  band energies     occupation 
      1       2.8968      1.00000
      2       3.6599      1.00000
      3       5.7931      0.58948
      4       7.3469      0.00000
      5       8.2805      0.00000
      6      10.1800      0.00000
      7      16.9147      0.00000
      8      19.4474      0.00000
      9      22.8924      0.00000
     10      27.4000      0.00000

 k-point  2048 :       0.2500    0.5000    0.5000
  band No.  band energies     occupation 
      1       3.0362      1.00000
      2       3.9251      1.00000
      3       5.3615      1.00000
      4       6.8362      0.00000
      5       8.2538      0.00000
      6      10.1092      0.00000
      7      15.6544      0.00000
      8      21.1105      0.00000
      9      24.3161      0.00000
     10      27.6159      0.00000

 k-point  2049 :       0.3125    0.5000    0.5000
  band No.  band energies     occupation 
      1       2.8648      1.00000
      2       4.3313      1.00000
      3       5.3676      1.00000
      4       6.3708      0.00000
      5       8.2279      0.00000
      6       9.7219      0.00000
      7      14.7402      0.00000
      8      22.9877      0.00000
      9      25.9453      0.00000
     10      27.8971      0.00000

 k-point  2050 :       0.3750    0.5000    0.5000
  band No.  band energies     occupation 
      1       2.5452      1.00000
      2       4.8725      1.00000
      3       5.5805      1.00000
      4       6.0047     -0.00718
      5       8.2064      0.00000
      6       9.1112      0.00000
      7      14.1897      0.00000
      8      24.7544      0.00000
      9      27.7084      0.00000
     10      28.4587      0.00000

 k-point  2051 :       0.4375    0.5000    0.5000
  band No.  band energies     occupation 
      1       2.2970      1.00000
      2       5.4131      1.00000
      3       5.7718      1.00000
      4       5.7733      0.58627
      5       8.1923      0.00000
      6       8.4854      0.00000
      7      13.9174      0.00000
      8      25.8850      0.00000
      9      29.5026      0.00000
     10      29.6167      0.00000

 k-point  2052 :       0.5000    0.5000    0.5000
  band No.  band energies     occupation 
      1       2.2073      1.00000
      2       5.6920      1.00000
      3       5.6944      1.00000
      4       5.8266      0.64414
      5       8.1867      0.00000
      6       8.1889      0.00000
      7      13.8372      0.00000
      8      26.2124      0.00000
      9      30.6843      0.00000
     10      30.6873      0.00000


--------------------------------------------------------------------------------------------------------


 soft charge-density along one line, spin component           1
         0         1         2         3         4         5         6         7         8         9
 total charge-density along one line
 
 soft charge-density along one line, spin component           2
         0         1         2         3         4         5         6         7         8         9
 total charge-density along one line
 
 pseudopotential strength for first ion, spin component:           1
 -5.803   0.000   0.000   0.016  -0.000  -6.328   0.000   0.000
  0.000  -5.815  -0.000  -0.000   0.017   0.000  -6.339  -0.000
  0.000  -0.000  -5.791   0.000  -0.000   0.000  -0.000  -6.316
  0.016  -0.000   0.000  -5.814   0.000   0.016  -0.000   0.000
 -0.000   0.017  -0.000   0.000  -5.803  -0.000   0.017  -0.000
 -6.328   0.000   0.000   0.016  -0.000  -6.811   0.000   0.000
  0.000  -6.339  -0.000  -0.000   0.017   0.000  -6.822  -0.000
  0.000  -0.000  -6.316   0.000  -0.000   0.000  -0.000  -6.799
  0.016  -0.000   0.000  -6.339   0.000   0.016  -0.000   0.000
 -0.000   0.017  -0.000   0.000  -6.328  -0.000   0.016  -0.000
  0.000   0.000  -0.000  -0.000  -0.000   0.000   0.000  -0.000
  0.000   0.000  -0.000  -0.000  -0.000   0.000   0.000  -0.000
  0.000   0.000   0.000  -0.000   0.000   0.000   0.000   0.000
 -0.000  -0.000   0.000   0.000  -0.000  -0.000  -0.000   0.000
 -0.000  -0.000  -0.000   0.000   0.000  -0.000  -0.000  -0.000
  0.000   0.000   0.000  -0.000   0.000   0.000   0.000   0.000
 -0.000  -0.000   0.000   0.000  -0.000  -0.000  -0.000   0.000
 -0.000  -0.000  -0.000   0.000   0.000  -0.000  -0.000  -0.000
 pseudopotential strength for first ion, spin component:           2
 -3.976  -0.000   0.001  -0.051   0.001  -4.557  -0.000   0.001
 -0.000  -3.939  -0.000   0.001  -0.051  -0.000  -4.521  -0.000
  0.001  -0.000  -4.012   0.000  -0.000   0.001  -0.000  -4.593
 -0.051   0.001   0.000  -3.940  -0.000  -0.051   0.001   0.000
  0.001  -0.051  -0.000  -0.000  -3.975   0.001  -0.051  -0.000
 -4.557  -0.000   0.001  -0.051   0.001  -5.095  -0.000   0.001
 -0.000  -4.521  -0.000   0.001  -0.051  -0.000  -5.059  -0.000
  0.001  -0.000  -4.593   0.000  -0.000   0.001  -0.000  -5.131
 -0.051   0.001   0.000  -4.522  -0.000  -0.050   0.001   0.000
  0.001  -0.051  -0.000  -0.000  -4.557   0.001  -0.050  -0.000
  0.000   0.000  -0.000  -0.000  -0.000   0.000   0.000  -0.000
  0.000   0.000  -0.000  -0.000  -0.000   0.000   0.000  -0.000
 -0.000   0.000  -0.000  -0.000  -0.000  -0.000   0.000  -0.000
 -0.000   0.000   0.000  -0.000   0.000  -0.000   0.000   0.000
  0.000  -0.000   0.000   0.000  -0.000   0.000  -0.000   0.000
 -0.000   0.000  -0.000  -0.000  -0.000  -0.000   0.000  -0.000
 -0.000   0.000   0.000  -0.000   0.000  -0.000   0.000   0.000
  0.000  -0.000   0.000   0.000  -0.000   0.000  -0.000   0.000
 total augmentation occupancy for first ion, spin component:           1
  1.400   0.000   0.000   0.000   0.000   0.000   0.000   0.000   0.000   0.000   0.000   0.000   0.000   0.000   0.000   0.000
  0.000   1.400   0.000   0.000   0.000   0.000   0.000   0.000   0.000   0.000   0.000   0.000   0.000   0.000   0.000   0.000
  0.000   0.000   1.400   0.000   0.000   0.000   0.000   0.000   0.000   0.000   0.000   0.000   0.000   0.000   0.000   0.000
  0.000   0.000   0.000   1.400   0.000   0.000   0.000   0.000   0.000   0.000   0.000   0.000   0.000   0.000   0.000   0.000
  0.000   0.000   0.000   0.000   1.400   0.000   0.000   0.000   0.000   0.000   0.000   0.000   0.000   0.000   0.000   0.000
  0.000   0.000   0.000   0.000   0.000   0.000   0.000   0.000   0.000   0.000   0.000   0.000   0.000   0.000   0.000   0.000
  0.000   0.000   0.000   0.000   0.000   0.000   0.000   0.000   0.000   0.000   0.000   0.000   0.000   0.000   0.000   0.000
  0.000   0.000   0.000   0.000   0.000   0.000   0.000   0.000   0.000   0.000   0.000   0.000   0.000   0.000   0.000   0.000
  0.000   0.000   0.000   0.000   0.000   0.000   0.000   0.000   0.000   0.000   0.000   0.000   0.000   0.000   0.000   0.000
  0.000   0.000   0.000   0.000   0.000   0.000   0.000   0.000   0.000   0.000   0.000   0.000   0.000   0.000   0.000   0.000
  0.000   0.000   0.000   0.000   0.000   0.000   0.000   0.000   0.000   0.000   1.000   0.000   0.000   0.000   0.000   0.000
  0.000   0.000   0.000   0.000   0.000   0.000   0.000   0.000   0.000   0.000   0.000   0.000   0.000   0.000   0.000   0.000
  0.000   0.000   0.000   0.000   0.000   0.000   0.000   0.000   0.000   0.000   0.000   0.000   0.000   0.000   0.000   0.000
  0.000   0.000   0.000   0.000   0.000   0.000   0.000   0.000   0.000   0.000   0.000   0.000   0.000   0.000   0.000   0.000
  0.000   0.000   0.000   0.000   0.000   0.000   0.000   0.000   0.000   0.000   0.000   0.000   0.000   0.000   0.000   0.000
  0.000   0.000   0.000   0.000   0.000   0.000   0.000   0.000   0.000   0.000   0.000   0.000   0.000   0.000   0.000   0.000
  0.000   0.000   0.000   0.000   0.000   0.000   0.000   0.000   0.000   0.000   0.000   0.000   0.000   0.000   0.000   0.000
  0.000   0.000   0.000   0.000   0.000   0.000   0.000   0.000   0.000   0.000   0.000   0.000   0.000   0.000   0.000   0.000
 total augmentation occupancy for first ion, spin component:           2
  0.700   0.000   0.000   0.000   0.000   0.000   0.000   0.000   0.000   0.000   0.000   0.000   0.000   0.000   0.000   0.000
  0.000   0.700   0.000   0.000   0.000   0.000   0.000   0.000   0.000   0.000   0.000   0.000   0.000   0.000   0.000   0.000
  0.000   0.000   0.700   0.000   0.000   0.000   0.000   0.000   0.000   0.000   0.000   0.000   0.000   0.000   0.000   0.000
  0.000   0.000   0.000   0.700   0.000   0.000   0.000   0.000   0.000   0.000   0.000   0.000   0.000   0.000   0.000   0.000
  0.000   0.000   0.000   0.000   0.700   0.000   0.000   0.000   0.000   0.000   0.000   0.000   0.000   0.000   0.000   0.000
  0.000   0.000   0.000   0.000   0.000   0.000   0.000   0.000   0.000   0.000   0.000   0.000   0.000   0.000   0.000   0.000
  0.000   0.000   0.000   0.000   0.000   0.000   0.000   0.000   0.000   0.000   0.000   0.000   0.000   0.000   0.000   0.000
  0.000   0.000   0.000   0.000   0.000   0.000   0.000   0.000   0.000   0.000   0.000   0.000   0.000   0.000   0.000   0.000
  0.000   0.000   0.000   0.000   0.000   0.000   0.000   0.000   0.000   0.000   0.000   0.000   0.000   0.000   0.000   0.000
  0.000   0.000   0.000   0.000   0.000   0.000   0.000   0.000   0.000   0.000   0.000   0.000   0.000   0.000   0.000   0.000
  0.000   0.000   0.000   0.000   0.000   0.000   0.000   0.000   0.000   0.000   0.500   0.000   0.000   0.000   0.000   0.000
  0.000   0.000   0.000   0.000   0.000   0.000   0.000   0.000   0.000   0.000   0.000   0.000   0.000   0.000   0.000   0.000
  0.000   0.000   0.000   0.000   0.000   0.000   0.000   0.000   0.000   0.000   0.000   0.000   0.000   0.000   0.000   0.000
  0.000   0.000   0.000   0.000   0.000   0.000   0.000   0.000   0.000   0.000   0.000   0.000   0.000   0.000   0.000   0.000
  0.000   0.000   0.000   0.000   0.000   0.000   0.000   0.000   0.000   0.000   0.000   0.000   0.000   0.000   0.000   0.000
  0.000   0.000   0.000   0.000   0.000   0.000   0.000   0.000   0.000   0.000   0.000   0.000   0.000   0.000   0.000   0.000
  0.000   0.000   0.000   0.000   0.000   0.000   0.000   0.000   0.000   0.000   0.000   0.000   0.000   0.000   0.000   0.000
  0.000   0.000   0.000   0.000   0.000   0.000   0.000   0.000   0.000   0.000   0.000   0.000   0.000   0.000   0.000   0.000


------------------------ aborting loop because EDIFF is reached ----------------------------------------


 


 total charge     
 
# of ion       s       p       d       tot
------------------------------------------
    1        0.487   0.529   6.215   7.232
 


 magnetization (x)
 
# of ion       s       p       d       tot
------------------------------------------
    1       -0.019  -0.054   2.583   2.511
 
    CHARGE:  cpu time    1.7177: real time    1.7189
    FORLOC:  cpu time    0.0020: real time    0.0013
    FORNL :  cpu time   22.9755: real time   22.9806
    STRESS:  cpu time   69.0695: real time   69.0914
    FORCOR:  cpu time    0.0640: real time    0.0635
    FORHAR:  cpu time    0.0060: real time    0.0063
    OFIELD:  cpu time    0.0000: real time    0.0001

  FORCE on cell =-STRESS in cart. coord.  units (eV):
  Direction    XX          YY          ZZ          XY          YZ          ZX
  --------------------------------------------------------------------------------------
  Alpha Z    59.70200    59.70200    59.70200
  Ewald    -196.10974  -196.10974  -196.10974    -0.00000     0.00000    -0.00000
  Hartree    32.29300    32.29322    32.29313     0.00034     0.00014    -0.00047
  E(xc)     -39.91512   -39.91511   -39.91510     0.00000     0.00000     0.00002
  Local      58.46389    58.46347    58.46370    -0.00071    -0.00028     0.00105
  n-local   -25.42119   -25.42148   -25.42166    -0.00043    -0.00010     0.00038
  augment    38.89057    38.88958    38.89020    -0.00119    -0.00074     0.00174
  Kinetic    72.54931    72.54426    72.54605    -0.00615    -0.00329     0.00823
  Fock        0.00000     0.00000     0.00000     0.00000     0.00000     0.00000
  -------------------------------------------------------------------------------------
  Total       0.45271     0.44619     0.44858    -0.00814    -0.00427     0.01094
  in kB      62.65496    61.75272    62.08353    -1.12611    -0.59043     1.51364
  external pressure =       62.16 kB  Pullay stress =        0.00 kB


 VOLUME and BASIS-vectors are now :
 -----------------------------------------------------------------------------
  energy-cutoff  :      520.00
  volume of cell :       11.58
      direct lattice vectors                 reciprocal lattice vectors
     2.539200067  0.000000000  0.000000000     0.393824816 -0.227374864 -0.160778308
     1.269600034  2.199011764  0.000000000     0.000000000  0.454749727 -0.160778308
     1.269600034  0.733003921  2.073248173     0.000000000  0.000000000  0.482334924

  length of vectors
     2.539200067  2.539200068  2.539200068     0.482334924  0.482334924  0.482334924


 FORCES acting on ions
    electron-ion (+dipol)            ewald-force                    non-local-force                 convergence-correction
 -----------------------------------------------------------------------------------------------
   -.591E-07 -.465E-05 -.110E-04   -.751E-15 0.529E-15 -.865E-15   -.355E-05 0.782E-05 0.164E-04   0.941E-07 0.316E-05 0.725E-05
 -----------------------------------------------------------------------------------------------
   -.591E-07 -.465E-05 -.110E-04   -.751E-15 0.529E-15 -.865E-15   -.355E-05 0.782E-05 0.164E-04   0.941E-07 0.316E-05 0.725E-05
 
 
 POSITION                                       TOTAL-FORCE (eV/Angst)
 -----------------------------------------------------------------------------------
      0.00000      0.00000      0.00000        -0.000004      0.000006      0.000013
 -----------------------------------------------------------------------------------
    total drift:                               -0.000004      0.000006      0.000013


--------------------------------------------------------------------------------------------------------



  FREE ENERGIE OF THE ION-ELECTRON SYSTEM (eV)
  ---------------------------------------------------
  free  energy   TOTEN  =        -8.07346925 eV

  energy  without entropy=       -8.07346925  energy(sigma->0) =       -8.07346925
 


--------------------------------------------------------------------------------------------------------


    POTLOK:  cpu time    0.0720: real time    0.0725


--------------------------------------------------------------------------------------------------------


     LOOP+:  cpu time  406.7682: real time  406.9642
    4ORBIT:  cpu time    0.0000: real time    0.0000
 


 total charge     
 
# of ion       s       p       d       tot
------------------------------------------
    1        0.487   0.529   6.215   7.232
 


 magnetization (x)
 
# of ion       s       p       d       tot
------------------------------------------
    1       -0.019  -0.054   2.583   2.511
 
 BZINTS: Fermi energy:  5.802680;  8.000000 electrons
         Band energy:  27.870477;  BLOECHL correction: -0.014452

 total amount of memory used by VASP MPI-rank0   268707. kBytes
=======================================================================

   base      :      30000. kBytes
   nonlr-proj:       1785. kBytes
   fftplans  :       2284. kBytes
   grid      :       5440. kBytes
   one-center:         31. kBytes
   wavefun   :     229167. kBytes
 
  
  
 General timing and accounting informations for this job:
 ========================================================
  
                  Total CPU time used (sec):      421.050
                            User time (sec):      416.895
                          System time (sec):        4.155
                         Elapsed time (sec):      421.430
  
                   Maximum memory used (kb):      326604.
                   Average memory used (kb):           0.
  
                          Minor page faults:        12624
                          Major page faults:            0
                 Voluntary context switches:          258
