       N       E                     dE             d eps       ncg     rms          rms(c)
DAV:   1     0.484827026604E+04    0.48483E+04   -0.24722E+05 30480   0.159E+03
DAV:   2     0.884691406992E+02   -0.47598E+04   -0.45122E+04 30489   0.375E+02
DAV:   3    -0.414064197700E+03   -0.50253E+03   -0.44136E+03 34275   0.158E+02
DAV:   4    -0.490871937910E+03   -0.76808E+02   -0.69587E+02 55875   0.467E+01
DAV:   5    -0.496328657235E+03   -0.54567E+01   -0.52577E+01 43635   0.121E+01
RMM:   6    -0.496436693499E+03   -0.10804E+00   -0.10804E+00 31255   0.212E+00
RMM:   7    -0.496460399075E+03   -0.23706E-01   -0.23780E-01 47376   0.485E-01
RMM:   8    -0.496459320128E+03    0.10789E-02   -0.13325E-02 55896   0.107E-01
RMM:   9    -0.496459523061E+03   -0.20293E-03   -0.33717E-03 55200   0.367E-02
RMM:  10    -0.496459544592E+03   -0.21531E-04   -0.77268E-04 43534   0.157E-02
RMM:  11    -0.496459547837E+03   -0.32449E-05   -0.20845E-04 34313   0.622E-03
RMM:  12    -0.496459551585E+03   -0.37476E-05   -0.81178E-05 27546   0.368E-03
RMM:  13    -0.496459551616E+03   -0.31432E-07   -0.23016E-05 25324   0.235E-03
RMM:  14    -0.496459551965E+03   -0.34878E-06   -0.93416E-06 22938   0.162E-03
   1 F= -.51125249E+03 E0= -.51125249E+03  d E =0.000000E+00  mag=   122.6124
